Membrane in water
40155
    1TCq1    O1    1   0.027   3.653  11.519 -0.0103 -0.0697 -0.5936
    1TCq1    C1    2   4.652   3.585  11.579  0.2881 -0.0385  0.2695
    1TCq1    O2    3   4.552   3.633  11.634 -0.0332 -1.0732  0.3354
    1TCq1    C2    4   4.683   3.443  11.560 -0.2568  0.3782 -0.3044
    1TCq1    C3    5   0.085   3.398  11.515  0.4683 -1.0030 -0.4729
    1TCq1    C4    6   0.092   3.262  11.497 -0.1725 -0.2993 -0.1717
    1TCq1    C5    7   4.703   3.178  11.509 -0.0570  0.0466  0.2884
    1TCq1    C6    8   4.583   3.228  11.547 -0.1538 -0.3675  0.1185
    1TCq1    C7    9   4.573   3.363  11.575 -0.0031 -0.7141  0.0475
    1TCq1    C8   10   4.463   3.148  11.559 -0.0073  0.1812  0.2530
    1TCq1    O4   11   4.372   3.177  11.630  0.2464  0.1095  0.1724
    1TCq1    C9   12   0.230   3.210  11.476  0.6744  0.5827 -1.0487
    1TCq1    O5   13   0.326   3.293  11.485  0.2697  0.1577  0.8620
    1TCq1    O6   14   0.239   3.087  11.452  0.0160  0.8152 -0.0509
    1TCq1    H1   15   0.090   3.601  11.465  0.7703  2.3593 -1.9837
    1TCq1    H2   16   0.172   3.462  11.512 -1.3451  1.3935 -1.6631
    1TCq1    H3   17   0.000   3.072  11.498 -0.4838  0.0354 -0.3013
    1TCq1    H4   18   4.480   3.402  11.615 -0.2519 -1.8881  0.5946
    2MPD2     C   19   4.182   2.724  11.479 -0.3884  0.7662 -0.3824
    2MPD2    C1   20   4.196   2.807  11.589  0.1020 -0.8631 -0.2508
    2MPD2    C2   21   4.282   2.916  11.587 -0.2618  0.2953  0.0733
    2MPD2    C3   22   4.360   2.936  11.471 -1.3155  0.0134 -0.4031
    2MPD2    C4   23   4.354   2.852  11.364 -0.2377  0.4959  0.2576
    2MPD2    C5   24   4.266   2.749  11.370  0.1267 -0.3338 -0.7040
    2MPD2     H   25   4.315   2.943  11.687  1.2804  1.0392 -0.6431
    2MPD2    H1   26   4.419   2.863  11.278  0.9528 -1.3902  0.9193
    2MPD2    H2   27   4.104   2.649  11.479  0.6774 -0.3533  0.1696
    2MPD2    H3   28   4.267   2.675  11.290  1.2714 -0.6390 -0.4071
    2MPD2     N   29   4.455   3.045  11.466  0.0310  0.7702 -0.0575
    2MPD2    H5   30   4.523   3.050  11.390  0.9477  1.8958  0.8243
    2MPD2    N1   31   4.149   2.769  11.717 -0.4729 -0.1031 -0.6461
    2MPD2    H7   32   4.154   2.836  11.794 -0.4869 -2.0102  0.9972
    3TCq1    O1   33   2.936   3.080  10.350 -0.6510 -0.4324  0.6990
    3TCq1    C1   34   2.885   3.172  10.431  0.2826 -0.2606  0.0564
    3TCq1    O2   35   2.772   3.175  10.473 -0.3088 -0.3800 -0.2464
    3TCq1    C2   36   2.986   3.225  10.517  0.2190 -0.7329 -0.4058
    3TCq1    C3   37   3.082   3.312  10.474  0.1316 -0.9180 -0.5897
    3TCq1    C4   38   3.143   3.394  10.564 -1.1105 -0.7228 -0.0305
    3TCq1    C5   39   3.123   3.387  10.699  0.0750 -0.9448 -0.0802
    3TCq1    C6   40   3.020   3.308  10.737  0.4805 -0.2252 -0.2640
    3TCq1    C7   41   2.949   3.225  10.649 -0.6563  0.2335  0.3922
    3TCq1    C8   42   2.973   3.297  10.869  0.2798 -0.4773  0.4291
    3TCq1    O4   43   2.913   3.191  10.896 -0.6456 -0.6645 -0.4817
    3TCq1    C9   44   3.233   3.504  10.523 -0.0058  0.9388 -0.1060
    3TCq1    O5   45   3.272   3.589  10.606  0.2827  0.1284 -0.7745
    3TCq1    O6   46   3.262   3.517  10.401  0.6415 -0.5795 -0.0438
    3TCq1    H1   47   3.033   3.082  10.340 -0.4977 -1.0853  2.0839
    3TCq1    H2   48   3.100   3.345  10.373  2.0225  0.8357  0.3032
    3TCq1    H3   49   3.198   3.433  10.761 -0.4134 -2.1171  1.3982
    3TCq1    H4   50   2.877   3.157  10.694  0.9877 -1.4338  0.5071
    4MPD2     C   51   2.698   3.502  11.244 -0.2870  0.7372  0.0738
    4MPD2    C1   52   2.747   3.608  11.167 -0.0728 -0.0841 -0.6452
    4MPD2    C2   53   2.840   3.586  11.060 -0.3972  0.1274 -0.5681
    4MPD2    C3   54   2.889   3.454  11.044 -0.4944 -0.7187  1.3771
    4MPD2    C4   55   2.831   3.348  11.119  0.0225  0.4515 -0.3219
    4MPD2    C5   56   2.741   3.374  11.217  0.2493 -0.2853 -0.5458
    4MPD2     H   57   2.875   3.670  11.001 -1.7498  0.3912 -0.9933
    4MPD2    H1   58   2.857   3.245  11.101 -1.8565 -0.1834  0.4766
    4MPD2    H2   59   2.620   3.523  11.316 -1.3915 -0.0558 -0.8886
    4MPD2    H3   60   2.715   3.290  11.280  0.2331  0.6722  0.7371
    4MPD2     N   61   2.970   3.421  10.930 -0.4916  0.0117  0.3302
    4MPD2    H5   62   3.012   3.499  10.879 -0.6530  0.6338  1.1554
    4MPD2    N1   63   2.710   3.745  11.179 -0.0333 -0.1149  0.5308
    4MPD2    H7   64   2.742   3.801  11.100 -2.8282 -1.4452 -1.5433
    5TCq1    O1   65   2.519   0.193  11.850  0.0184  0.0744  0.0944
    5TCq1    C1   66   2.624   0.266  11.797  0.0091  0.0028 -0.0194
    5TCq1    O2   67   2.633   0.291  11.677 -0.2999 -0.1186 -0.4684
    5TCq1    C2   68   2.734   0.268  11.891 -0.1152  0.6565  0.0307
    5TCq1    C3   69   2.693   0.282  12.022 -1.2020 -0.0715  0.1440
    5TCq1    C4   70   2.791   0.295  12.115  0.3536 -0.7591  0.1840
    5TCq1    C5   71   2.920   0.302  12.077  0.0722  0.1968 -0.8208
    5TCq1    C6   72   2.957   0.297  11.948 -0.1168  0.7811  0.5926
    5TCq1    C7   73   2.865   0.268  11.850  0.3703  0.0487 -0.1620
    5TCq1    C8   74   3.079   0.355  11.910  0.6072 -0.3671 -0.8584
    5TCq1    O4   75   3.107   0.335  11.791  0.2661  0.2225 -0.5120
    5TCq1    C9   76   2.749   0.331  12.245  0.2065  0.3097 -0.0163
    5TCq1    O5   77   2.629   0.327  12.270  0.3047  0.3560 -0.6850
    5TCq1    O6   78   2.841   0.367  12.323 -0.4183  0.3812  0.1716
    5TCq1    H1   79   2.543   0.157  11.938  0.0611 -1.2945 -0.4737
    5TCq1    H2   80   2.595   0.322  12.046 -1.1505  0.6514 -0.8518
    5TCq1    H3   81   2.988   0.313  12.161 -1.4920 -3.9302  1.0138
    5TCq1    H4   82   2.896   0.258  11.746 -1.1286 -0.3788 -0.5674
    6MPD2     C   83   3.349   0.496  12.122  0.4874  0.7255  0.4087
    6MPD2    C1   84   3.269   0.472  12.011 -0.3743  0.1844 -2.0018
    6MPD2    C2   85   3.324   0.516  11.894 -0.4553 -0.0202 -0.2766
    6MPD2    C3   86   3.441   0.584  11.891 -0.4392  0.1070  0.2386
    6MPD2    C4   87   3.519   0.592  12.004 -0.0439 -0.2788  0.6536
    6MPD2    C5   88   3.472   0.554  12.122  0.5699  0.6115  0.2443
    6MPD2     H   89   3.258   0.521  11.809 -2.6614 -1.3046  1.3727
    6MPD2    H1   90   3.621   0.628  11.999  0.5540 -2.2052 -0.9447
    6MPD2    H2   91   3.325   0.464  12.223  0.3436 -3.5061 -0.9632
    6MPD2    H3   92   3.539   0.530  12.204  2.2057  0.6256 -1.1071
    6MPD2     N   93   3.478   0.646  11.773  0.2366 -0.2199 -0.2109
    6MPD2    H5   94   3.420   0.621  11.693  0.1962  2.5085 -1.0530
    6MPD2    N1   95   3.143   0.403  12.021  0.2992 -0.2638 -0.0893
    6MPD2    H7   96   3.109   0.379  12.113 -1.9700 -2.4831 -1.4879
    7TCq1    O1   97   0.859   0.506  12.999  0.5391  0.0326 -0.3349
    7TCq1    C1   98   0.947   0.611  13.006 -0.0568  0.1391 -0.0432
    7TCq1    O2   99   0.949   0.708  12.928 -0.0765  0.1758 -0.1731
    7TCq1    C2  100   1.003   0.611  13.144  0.7108  0.0359  0.4499
    7TCq1    C3  101   1.028   0.728  13.198 -0.2514  0.5324 -0.3712
    7TCq1    C4  102   1.104   0.739  13.313 -0.2109  0.0340 -0.0642
    7TCq1    C5  103   1.163   0.630  13.369 -0.9563  0.0366 -0.8934
    7TCq1    C6  104   1.134   0.508  13.312 -0.0646 -0.1221 -0.0493
    7TCq1    C7  105   1.063   0.494  13.192  0.0705 -0.0184 -0.4329
    7TCq1    C8  106   1.174   0.388  13.378 -0.0123  0.7080  0.3161
    7TCq1    O4  107   1.118   0.287  13.343  0.2980  0.4947  0.3563
    7TCq1    C9  108   1.126   0.877  13.372  0.4419 -0.1850 -0.2651
    7TCq1    O5  109   1.231   0.895  13.443  0.6402  0.1760 -0.4047
    7TCq1    O6  110   1.054   0.968  13.331 -0.2727  0.0591  0.2865
    7TCq1    H1  111   0.844   0.471  13.089 -1.0177  2.4473  0.3415
    7TCq1    H2  112   0.973   0.812  13.159  0.5341  1.4483  0.5097
    7TCq1    H3  113   1.222   0.651  13.458 -2.9961  1.1927  0.1896
    7TCq1    H4  114   1.053   0.395  13.147 -2.3500 -0.0345  0.1520
    8MPD2     C  115   1.478   0.144  13.705  0.1965  0.0927 -0.2368
    8MPD2    C1  116   1.360   0.095  13.644 -0.2065  0.5364  0.3024
    8MPD2    C2  117   1.286   0.185  13.566  0.3068 -1.2288 -0.5585
    8MPD2    C3  118   1.340   0.312  13.534  0.2075 -0.4484  0.3270
    8MPD2    C4  119   1.455   0.351  13.597  0.0507  0.0125 -0.0648
    8MPD2    C5  120   1.522   0.275  13.681 -0.1579  0.7344  0.7654
    8MPD2     H  121   1.185   0.157  13.540  0.5183 -2.0367 -0.5149
    8MPD2    H1  122   1.486   0.453  13.577  0.1468  0.4288  2.1908
    8MPD2    H2  123   1.538   0.092  13.779  1.1749  2.8863  0.9453
    8MPD2    H3  124   1.599   0.322  13.741  1.2599 -2.6153  1.5418
    8MPD2     N  125   1.274   0.409  13.459 -0.1407 -0.2928 -0.0443
    8MPD2    H5  126   1.312   0.503  13.455  0.7747 -0.6082  1.0978
    8MPD2    N1  127   1.317   4.683  13.665  0.0974  0.2045  0.0184
    8MPD2    H7  128   1.367   4.625  13.731 -1.2670 -0.8071  0.1724
    9TCq1    O1  129   3.184   3.661  10.844  0.2546  0.2655 -0.0317
    9TCq1    C1  130   3.248   3.716  10.950  0.5502 -0.3108 -0.3746
    9TCq1    O2  131   3.220   3.714  11.069  0.3230 -0.3587  0.2816
    9TCq1    C2  132   3.377   3.780  10.914 -0.6530 -0.0786 -0.4940
    9TCq1    C3  133   3.394   3.810  10.783 -0.0426  0.3959 -0.6351
    9TCq1    C4  134   3.502   3.883  10.755  0.7529  0.1253  0.6629
    9TCq1    C5  135   3.591   3.915  10.848  0.3517  0.2517 -0.3856
    9TCq1    C6  136   3.561   3.885  10.981 -0.6559  0.1267  0.4675
    9TCq1    C7  137   3.454   3.808  11.015  0.3622 -0.2543 -0.1939
    9TCq1    C8  138   3.626   3.965  11.088 -0.1548  0.4109  0.0720
    9TCq1    O4  139   3.663   4.078  11.060  0.1031 -0.2929 -0.3813
    9TCq1    C9  140   3.527   3.933  10.618 -0.3850  0.4112 -0.2362
    9TCq1    O5  141   3.635   3.997  10.599  0.9103 -0.1341  0.3057
    9TCq1    O6  142   3.449   3.907  10.528  0.3573 -0.4262  0.1096
    9TCq1    H1  143   3.223   3.653  10.754  1.7581 -0.8878  0.7186
    9TCq1    H2  144   3.318   3.795  10.707 -0.5099  2.5476 -0.5712
    9TCq1    H3  145   3.682   3.973  10.839 -0.6185  1.5083 -2.0743
    9TCq1    H4  146   3.426   3.790  11.118 -0.7946  0.3113 -0.4113
   10MPD2     C  147   3.768   4.049  11.334  0.3275  0.1347  0.1359
   10MPD2    C1  148   3.690   3.938  11.323 -0.1344  0.4228 -0.2438
   10MPD2    C2  149   3.651   3.870  11.442 -0.0813 -0.4150 -0.0969
   10MPD2    C3  150   3.698   3.910  11.569  0.2448 -0.6088 -0.3817
   10MPD2    C4  151   3.785   4.015  11.570  0.3081 -0.0338 -0.8985
   10MPD2    C5  152   3.821   4.085  11.454 -0.1603 -0.0945 -0.0933
   10MPD2     H  153   3.578   3.791  11.432 -0.2474 -0.1641 -0.8381
   10MPD2    H1  154   3.828   4.055  11.661  1.1240 -1.6221 -0.6000
   10MPD2    H2  155   3.792   4.111  11.249  0.9056  2.1432  1.7608
   10MPD2    H3  156   3.896   4.162  11.471  0.3422 -0.6683  0.3038
   10MPD2     N  157   3.663   3.868  11.698 -0.0598 -0.1973  0.6088
   10MPD2    H5  158   3.687   3.922  11.780  0.8736 -1.4078  1.1408
   10MPD2    N1  159   3.636   3.890  11.201 -0.3717  0.5846  0.2148
   10MPD2    H7  160   3.612   3.792  11.195  0.2541  0.4580 -0.2579
   11TCq1    O1  161   0.351   4.242  13.780 -0.6582  0.7385 -0.1347
   11TCq1    C1  162   0.358   4.152  13.879 -0.2727 -0.5995  0.1792
   11TCq1    O2  163   0.449   4.139  13.962  0.5633  0.0470 -0.2663
   11TCq1    C2  164   0.227   4.073  13.882 -0.3131 -0.5867 -0.4326
   11TCq1    C3  165   0.109   4.117  13.815  0.2135  0.4319  0.1816
   11TCq1    C4  166   4.712   4.059  13.845  0.3238  0.6124  0.4490
   11TCq1    C5  167   4.714   3.961  13.944 -0.0497 -0.3835  0.6550
   11TCq1    C6  168   0.106   3.923  14.011 -0.5462 -0.1229  0.0007
   11TCq1    C7  169   0.228   3.973  13.971 -0.7971 -0.2200  1.1201
   11TCq1    C8  170   0.098   3.811  14.102  0.6595  0.0015  1.2875
   11TCq1    O4  171   0.199   3.795  14.169  0.0338  0.1406  0.0199
   11TCq1    C9  172   4.585   4.106  13.794  1.6238  0.2230 -0.5438
   11TCq1    O5  173   4.585   4.190  13.701 -0.0512  0.1414  0.0144
   11TCq1    O6  174   4.475   4.069  13.856  0.3644 -0.1253  0.1591
   11TCq1    H1  175   0.280   4.228  13.714  0.7003 -0.0909 -1.4250
   11TCq1    H2  176   0.115   4.179  13.727 -0.9449 -0.3170 -0.4207
   11TCq1    H3  177   4.619   3.928  13.983  0.2175  0.6123  2.1189
   11TCq1    H4  178   0.319   3.947  14.024  1.0148 -0.2761 -2.0088
   12MPD2     C  179   4.703   3.613  14.311 -0.3895  0.9742 -0.7056
   12MPD2    C1  180   4.645   3.643  14.192  0.4164  0.3017  0.7859
   12MPD2    C2  181   4.528   3.585  14.158  0.0999  0.0568 -0.3903
   12MPD2    C3  182   4.465   3.499  14.249  0.3372 -0.1490 -0.3159
   12MPD2    C4  183   4.524   3.480  14.376 -0.7192  0.1898 -0.0562
   12MPD2    C5  184   4.644   3.537  14.405  0.3837  0.2580 -0.4133
   12MPD2     H  185   4.489   3.601  14.058  1.4825  0.3589 -0.8779
   12MPD2    H1  186   4.475   3.408  14.441 -0.6074 -0.1763 -0.3786
   12MPD2    H2  187   0.077   3.659  14.337 -0.6207  1.4053 -0.6249
   12MPD2    H3  188   4.690   3.527  14.502  1.2325  0.3299 -0.8141
   12MPD2     N  189   4.350   3.423  14.215  0.4055  0.4115 -0.3876
   12MPD2    H5  190   4.317   3.351  14.278 -0.3711 -0.5162 -1.8572
   12MPD2    N1  191   4.710   3.725  14.088  0.0566 -0.5362  0.3436
   12MPD2    H7  192   4.655   3.750  14.007  1.1750 -2.9222 -1.1424
   13TCq1    O1  193   3.884   3.956  10.664  0.0350 -0.2176 -0.5717
   13TCq1    C1  194   3.953   3.845  10.682  0.6075  0.1597 -0.6618
   13TCq1    O2  195   4.042   3.827  10.759  0.4050  0.1649  0.3986
   13TCq1    C2  196   3.862   3.741  10.633  0.2694 -0.5762 -0.6991
   13TCq1    C3  197   3.796   3.757  10.512  0.8527  0.7201 -0.3008
   13TCq1    C4  198   3.691   3.676  10.472  0.7917  0.5367 -0.2568
   13TCq1    C5  199   3.632   3.589  10.561  0.2172  1.2938  0.0114
   13TCq1    C6  200   3.685   3.589  10.687 -0.4813  0.6659  0.1923
   13TCq1    C7  201   3.801   3.656  10.720  0.3395  1.0113 -0.5047
   13TCq1    C8  202   3.622   3.522  10.799  0.5782  0.1609  0.0852
   13TCq1    O4  203   3.661   3.545  10.910  0.2421  0.0024 -0.0078
   13TCq1    C9  204   3.620   3.689  10.345  0.2123  0.9773 -0.2283
   13TCq1    O5  205   3.507   3.643  10.318  0.2380 -0.7174 -0.5219
   13TCq1    O6  206   3.678   3.776  10.276  0.7183 -0.3094  0.0334
   13TCq1    H1  207   3.802   3.938  10.614 -2.2001 -0.5130  3.1791
   13TCq1    H2  208   3.840   3.816  10.433  0.2812  1.8601  0.2399
   13TCq1    H3  209   3.545   3.531  10.531  1.0002  1.8700 -3.3406
   13TCq1    H4  210   3.836   3.668  10.822  0.2040  1.8230 -0.5578
   14MPD2     C  211   3.400   3.232  10.781 -0.0564 -0.4052  0.5892
   14MPD2    C1  212   3.455   3.341  10.839  0.4666 -0.1471  0.0953
   14MPD2    C2  213   3.408   3.382  10.965 -0.3648 -0.0376 -0.1854
   14MPD2    C3  214   3.317   3.307  11.037 -0.1098  0.2302  0.9021
   14MPD2    C4  215   3.288   3.180  10.985  0.6167  0.0679  0.1766
   14MPD2    C5  216   3.325   3.148  10.860 -0.2054  0.2959 -0.3245
   14MPD2     H  217   3.440   3.474  11.011  1.4405 -1.0795  0.6363
   14MPD2    H1  218   3.210   3.120  11.031 -0.4230  0.9547 -0.4396
   14MPD2    H2  219   3.415   3.202  10.678  0.3264  0.6139  0.3371
   14MPD2    H3  220   3.280   3.055  10.829  0.2180  0.0134 -0.1031
   14MPD2     N  221   3.263   3.362  11.157 -0.0853  0.0915 -0.0732
   14MPD2    H5  222   3.298   3.455  11.178  1.7754 -0.9428  1.4445
   14MPD2    N1  223   3.529   3.428  10.759 -0.1720  0.2541 -0.3003
   14MPD2    H7  224   3.535   3.408  10.660  1.9581 -0.6209  0.0110
   15TCq1    O1  225   0.578   2.538   1.443 -0.2184 -0.4867 -0.0954
   15TCq1    C1  226   0.567   2.534   1.576 -0.2505 -0.1600  0.1129
   15TCq1    O2  227   0.469   2.561   1.645 -0.8192 -0.1731  0.1276
   15TCq1    C2  228   0.686   2.479   1.630  0.7710 -0.5234 -0.1424
   15TCq1    C3  229   0.716   2.499   1.764  0.0169  0.3711  0.0776
   15TCq1    C4  230   0.812   2.416   1.825  0.4277  0.6659  0.6777
   15TCq1    C5  231   0.873   2.314   1.759  0.3802  0.5233 -0.1220
   15TCq1    C6  232   0.853   2.305   1.627  1.1987 -0.6382 -0.1175
   15TCq1    C7  233   0.756   2.387   1.561 -0.1662 -0.2763 -0.0930
   15TCq1    C8  234   0.924   2.201   1.550 -0.4936  0.7265  0.0497
   15TCq1    O4  235   0.996   2.122   1.607 -0.1716  0.2263  0.1024
   15TCq1    C9  236   0.811   2.419   1.973  0.2413 -0.4250  0.3598
   15TCq1    O5  237   0.744   2.504   2.030  0.4434  0.2576 -0.0187
   15TCq1    O6  238   0.895   2.342   2.030 -0.4012 -0.3019  0.0440
   15TCq1    H1  239   0.674   2.544   1.423 -0.2616  2.2067  0.5219
   15TCq1    H2  240   0.664   2.570   1.827 -0.9193 -0.7147  0.5282
   15TCq1    H3  241   0.943   2.246   1.807 -1.3269 -0.6188  0.7456
   15TCq1    H4  242   0.720   2.357   1.464 -1.2355  0.2010  0.1488
   16MPD2     C  243   0.902   2.070   1.209  0.1199 -0.0644 -0.6147
   16MPD2    C1  244   0.969   2.106   1.329  1.1045  0.0233 -0.1967
   16MPD2    C2  245   1.094   2.049   1.356 -0.1296 -0.5359  0.3087
   16MPD2    C3  246   1.159   1.974   1.262  0.3231 -0.1111 -0.4297
   16MPD2    C4  247   1.101   1.950   1.139  0.0195 -0.3534 -0.1476
   16MPD2    C5  248   0.973   1.994   1.113  0.0705 -0.8115 -0.9344
   16MPD2     H  249   1.159   2.075   1.439 -1.0626  1.8623  0.2926
   16MPD2    H1  250   1.146   1.899   1.055 -0.4979 -0.3810 -0.4120
   16MPD2    H2  251   0.797   2.094   1.211 -0.2079 -1.4772 -0.7528
   16MPD2    H3  252   0.919   1.959   1.026  0.1838  0.8454 -1.6704
   16MPD2     N  253   1.291   1.935   1.291 -0.2989 -0.3451  0.2370
   16MPD2    H5  254   1.332   1.965   1.379  1.9713  1.5821 -1.4754
   16MPD2    N1  255   0.899   2.193   1.419 -0.0957  0.1302  0.0333
   16MPD2    H7  256   0.835   2.258   1.374 -2.7525 -0.6705  2.7104
   17TCq1    O1  257   3.142   2.614  10.076  0.2267 -0.8906  0.0862
   17TCq1    C1  258   3.232   2.584  10.175  0.1313  0.1847  0.8103
   17TCq1    O2  259   3.211   2.523  10.276  0.2599 -1.0469 -0.1795
   17TCq1    C2  260   3.351   2.666  10.154  0.1373  0.0536 -0.3316
   17TCq1    C3  261   3.345   2.781  10.081  0.9914 -0.2596  0.0298
   17TCq1    C4  262   3.450   2.870  10.091  0.5135  0.6706  0.1606
   17TCq1    C5  263   3.533   2.864  10.195  0.3298  0.0087  0.4534
   17TCq1    C6  264   3.522   2.753  10.274  0.1778  0.4296  0.3797
   17TCq1    C7  265   3.444   2.647  10.250 -0.4902 -0.2680  0.3337
   17TCq1    C8  266   3.603   2.746  10.393  0.8113  0.0383 -0.8481
   17TCq1    O4  267   3.634   2.635  10.439 -0.2392  0.4712 -0.0771
   17TCq1    C9  268   3.456   2.996  10.023  0.7327 -0.1226 -0.0036
   17TCq1    O5  269   3.510   3.090  10.088  0.1195 -0.3057  0.0754
   17TCq1    O6  270   3.368   3.025   9.942  0.7206 -0.4753  0.0707
   17TCq1    H1  271   3.179   2.658   9.997 -2.6455 -0.9167 -1.2870
   17TCq1    H2  272   3.261   2.802  10.015  0.3732  0.2398  0.9807
   17TCq1    H3  273   3.615   2.934  10.202 -0.0194  0.3906  0.7186
   17TCq1    H4  274   3.448   2.559  10.314 -3.2450 -0.5302  0.1587
   18MPD2     C  275   3.608   2.977  10.667  0.4656 -0.5590 -0.1601
   18MPD2    C1  276   3.669   2.894  10.584 -0.1600 -0.4913  0.0643
   18MPD2    C2  277   3.790   2.835  10.610  0.7827 -0.6143 -0.0845
   18MPD2    C3  278   3.855   2.868  10.731 -0.3451 -0.4899 -0.1299
   18MPD2    C4  279   3.789   2.949  10.815 -0.1613  0.5069 -0.6550
   18MPD2    C5  280   3.670   3.011  10.786 -0.4733  0.7517  0.3380
   18MPD2     H  281   3.842   2.780  10.532  1.0911  0.2897 -0.5113
   18MPD2    H1  282   3.825   2.960  10.916 -0.4484  3.3085 -0.8587
   18MPD2    H2  283   3.509   3.013  10.643 -0.3188  0.0850  3.9872
   18MPD2    H3  284   3.616   3.062  10.865 -0.0463  3.8318 -1.3883
   18MPD2     N  285   3.991   2.833  10.762 -0.0432 -0.3896  0.2596
   18MPD2    H5  286   4.022   2.864  10.853 -0.7571 -0.3924  0.5019
   18MPD2    N1  287   3.598   2.869  10.464 -0.0080  0.2340 -0.1598
   18MPD2    H7  288   3.523   2.933  10.439  0.8914  1.7579  1.0520
   19TMC2    C1  289   0.677   3.416  14.009  0.1247 -0.5456  0.4044
   19TMC2    C2  290   0.634   3.486  13.901 -0.2592  0.9195  0.0238
   19TMC2    C3  291   0.514   3.546  13.919 -0.1144 -0.7651 -0.1484
   19TMC2    C4  292   0.589   3.383  14.118 -0.8717 -0.5511 -0.3437
   19TMC2    C5  293   0.464   3.435  14.110  0.1305 -0.0440 -0.9465
   19TMC2    C6  294   0.426   3.523  14.016 -0.5126 -0.1981 -0.2244
   19TMC2     C  295   0.803   3.353  14.008 -0.1286 -0.5013  0.0876
   19TMC2     O  296   0.863   3.348  13.903  0.0123 -0.3925  0.2591
   19TMC2     H  297   0.700   3.522  13.824 -1.7826 -0.0581 -1.7366
   19TMC2    H1  298   0.615   3.307  14.191  1.9598  0.1657 -0.6038
   19TMC2    H2  299   0.330   3.572  14.010 -1.3047 -2.1689 -3.6089
   19TMC2    C7  300   0.351   3.370  14.171  0.6351  0.1832  0.7717
   19TMC2    C8  301   0.481   3.637  13.815 -0.0265 -0.6226  0.3822
   19TMC2    O1  302   0.370   3.294  14.260 -0.2850 -0.4787 -0.0631
   19TMC2    O2  303   0.497   3.605  13.697  0.0446 -0.2865 -0.1514
   19TMC2    O5  304   0.498   3.763  13.859  0.3026 -0.0021  0.5674
   19TMC2    H5  305   0.502   3.778  13.956  1.6606  0.8250  0.3904
   20MPD2     C  306   1.007   3.148  14.048  0.5594  0.9284 -0.0627
   20MPD2    C1  307   0.942   3.215  14.149 -1.0797 -0.3862  0.1964
   20MPD2    C2  308   0.974   3.178  14.282  0.2176 -0.2643  0.4030
   20MPD2    C3  309   1.064   3.076  14.303 -0.4390  0.5871  0.0285
   20MPD2    C4  310   1.121   3.011  14.200 -0.0093  0.7781 -0.2964
   20MPD2    C5  311   1.097   3.051  14.075  0.3411 -0.0111 -0.1384
   20MPD2     H  312   0.934   3.234  14.366 -0.1927 -0.2936  0.2251
   20MPD2    H1  313   1.197   2.936  14.216 -0.8811 -0.2214 -0.8908
   20MPD2    H2  314   0.980   3.165  13.944  2.5448 -0.7906 -0.8604
   20MPD2    H3  315   1.145   2.997  13.994 -0.7963 -0.2502 -0.6417
   20MPD2     N  316   1.099   3.050  14.441 -0.3244 -0.1412 -0.5998
   20MPD2    H5  317   1.172   2.979  14.441 -0.2603 -0.0680 -1.3085
   20MPD2    N1  318   0.847   3.319  14.129 -0.7261 -0.2816  0.1664
   20MPD2    H7  319   0.782   3.335  14.205 -1.0595  0.8044 -0.3451
   21MPD2     C  320   3.194   3.612  14.560 -0.2010 -0.4127 -0.2172
   21MPD2    C1  321   3.155   3.521  14.462 -0.0272  0.1068  0.8421
   21MPD2    C2  322   3.034   3.447  14.467 -0.2960 -0.2134  0.2307
   21MPD2    C3  323   2.968   3.454  14.585  0.3844 -0.5668  0.5630
   21MPD2    C4  324   3.002   3.549  14.680 -1.0568  0.3436 -0.5075
   21MPD2    C5  325   3.112   3.626  14.667 -0.3928 -0.1611  0.6294
   21MPD2     H  326   3.006   3.387  14.382 -0.5317 -0.5311  0.5313
   21MPD2    H1  327   2.952   3.557  14.776 -1.9468  1.7892 -1.0880
   21MPD2    H2  328   3.281   3.677  14.553 -0.0208 -0.5431  0.8963
   21MPD2    H3  329   3.139   3.698  14.743 -2.8245  2.5370 -1.0642
   21MPD2     N  330   2.853   3.374  14.612  0.4584  0.0022  0.6345
   21MPD2    H5  331   2.805   3.401  14.697  1.0480  1.3440  0.5470
   21MPD2    N1  332   3.229   3.492  14.352  0.0915 -0.0552 -0.3687
   21MPD2    H7  333   3.200   3.415  14.291  0.0784  0.5853 -1.1723
   22TCq2    C1  334   2.810   3.272  14.535 -1.0338 -0.2494 -0.1720
   22TCq2    O2  335   2.861   3.215  14.438 -0.1520 -0.5102 -0.3145
   22TCq2    C2  336   2.711   3.193  14.603  0.4869  0.1468 -0.2496
   22TCq2    C3  337   2.737   3.058  14.631 -0.3368 -0.1526 -0.5678
   22TCq2    C4  338   2.651   2.994  14.716 -0.2506 -0.8767  0.4676
   22TCq2    C5  339   2.555   3.059  14.785 -0.1019  0.4485  0.4883
   22TCq2    C6  340   2.539   3.194  14.757 -0.6791  0.0427 -0.2175
   22TCq2    C7  341   2.613   3.261  14.665 -0.1709 -0.7539  0.6219
   22TCq2    C8  342   2.432   3.260  14.832 -0.5754 -0.4962  0.0224
   22TCq2    O4  343   2.413   3.230  14.951 -0.2061  0.9134 -0.0390
   22TCq2    C9  344   2.691   2.862  14.746 -0.0908  0.0171  1.0051
   22TCq2    O5  345   2.741   2.789  14.653  0.0566 -0.0173 -0.1500
   22TCq2    O6  346   2.647   2.822  14.856  0.3396  0.1635  0.0516
   22TCq2    H2  347   2.824   3.011  14.587  0.3089 -0.2407  0.7934
   22TCq2    H3  348   2.518   3.008  14.872 -0.2037 -1.2767 -0.5618
   22TCq2    H4  349   2.606   3.369  14.660  3.9202 -0.5279  0.3879
   23MPD2     C  350   4.279   4.525  14.295  0.2629 -0.5746  0.1556
   23MPD2    C1  351   4.175   4.442  14.334 -0.3902 -0.5658 -0.8242
   23MPD2    C2  352   4.042   4.473  14.311 -0.7355  0.3751  0.1205
   23MPD2    C3  353   4.009   4.587  14.242 -0.1280 -0.5414 -0.3568
   23MPD2    C4  354   4.114   4.678  14.210 -0.6586  0.4544  0.2521
   23MPD2    C5  355   4.248   4.647  14.238  0.0391 -0.1990  0.1540
   23MPD2     H  356   3.969   4.403  14.351 -0.7023  0.3128  0.0724
   23MPD2    H1  357   4.104   0.051  14.158  1.0691  1.9007  2.5473
   23MPD2    H2  358   4.385   4.512  14.316  0.8859  0.5920 -2.2676
   23MPD2    H3  359   4.325   4.714  14.202  0.1248  0.2518  1.1614
   23MPD2     N  360   3.878   4.628  14.219 -0.3345  0.1782  0.7446
   23MPD2    H5  361   3.863   0.006  14.203  1.4113  0.6043  1.7485
   23MPD2    N1  362   4.203   4.325  14.402  0.5630 -0.1949  0.6577
   23MPD2    H7  363   4.125   4.263  14.419 -1.1935  2.0812  0.9188
   24TCq2    C1  364   3.767   4.551  14.241 -0.2021  0.0492 -0.1265
   24TCq2    O2  365   3.762   4.431  14.247  0.0551  0.2992 -0.4416
   24TCq2    C2  366   3.640   4.625  14.255  0.2608  0.2858 -0.6472
   24TCq2    C3  367   3.633   0.040  14.247  0.4820  0.3161 -0.1379
   24TCq2    C4  368   3.513   0.102  14.245 -0.4633  0.6249 -0.2334
   24TCq2    C5  369   3.398   0.025  14.261  0.1314 -0.0684  0.5333
   24TCq2    C6  370   3.406   4.606  14.270  1.0852  0.2235 -0.4490
   24TCq2    C7  371   3.529   4.547  14.274  0.1569 -0.2614  0.7518
   24TCq2    C8  372   3.286   4.520  14.255  0.6111  0.7537  0.5132
   24TCq2    O4  373   3.296   4.399  14.251  0.2651 -0.5048  0.6730
   24TCq2    C9  374   3.500   0.242  14.201  0.8282  0.8599 -0.0300
   24TCq2    O5  375   3.388   0.274  14.158  0.2073 -0.3233 -0.4606
   24TCq2    O6  376   3.596   0.314  14.227 -0.3667 -0.1491  0.5379
   24TCq2    H2  377   3.723   0.098  14.229  0.9841 -0.4685 -0.1430
   24TCq2    H3  378   3.302   0.075  14.254  2.0004  3.4751  0.6548
   24TCq2    H4  379   3.543   4.440  14.277  0.3781 -0.2855 -1.8839
   25TMC2    C1  380   3.323   2.483  11.721  0.3272 -0.3228  0.3095
   25TMC2    C2  381   3.444   2.520  11.773  0.0721 -0.4262 -0.0074
   25TMC2    C3  382   3.455   2.505  11.909  0.0002  0.4195 -0.2455
   25TMC2    C4  383   3.216   2.445  11.795 -0.2031 -1.2454  0.5919
   25TMC2    C5  384   3.230   2.442  11.932  0.0179 -0.3506 -0.7756
   25TMC2    C6  385   3.355   2.466  11.987 -0.7069 -0.0656 -0.0206
   25TMC2     C  386   3.306   2.472  11.575 -0.7944 -0.4014  0.1583
   25TMC2     O  387   3.377   2.540  11.508  0.2958  0.1994 -0.2633
   25TMC2     H  388   3.524   2.554  11.709 -0.4838 -1.7268 -1.3749
   25TMC2    H1  389   3.117   2.424  11.757 -0.2190  0.3183 -0.2109
   25TMC2    H2  390   3.374   2.453  12.093 -1.0571  2.7227  0.3965
   25TMC2    C7  391   3.124   2.382  12.014  0.7313  0.0183  0.1530
   25TMC2    C8  392   3.562   2.565  11.981  0.5453 -0.3001  0.7793
   25TMC2    O1  393   3.169   2.336  12.118 -0.4741 -0.2187 -0.1976
   25TMC2    O2  394   3.557   2.592  12.100 -0.1044 -0.2606 -0.1935
   25TMC2    O5  395   3.669   2.587  11.902 -0.2824  0.6831 -0.3501
   25TMC2    H5  396   3.652   2.563  11.808 -0.4443 -0.8554  0.0573
   26MPD2     C  397   3.147   2.254  11.147  0.4934  0.2108 -0.1666
   26MPD2    C1  398   3.077   2.197  11.248  0.4569 -0.8363 -0.3231
   26MPD2    C2  399   3.089   2.247  11.377  0.4882  0.4635 -0.0051
   26MPD2    C3  400   3.182   2.346  11.397 -1.1194  0.4555  0.2558
   26MPD2    C4  401   3.231   2.422  11.286 -0.2243  0.8462  0.2230
   26MPD2    C5  402   3.213   2.370  11.159  0.1398 -0.2146  0.2736
   26MPD2     H  403   3.034   2.206  11.461  1.0342 -0.1417  0.0619
   26MPD2    H1  404   3.295   2.509  11.293 -1.1649  1.5566  0.0307
   26MPD2    H2  405   3.137   2.209  11.049  0.4813 -0.5564  0.1852
   26MPD2    H3  406   3.265   2.409  11.072 -1.5316  1.5427  0.0435
   26MPD2     N  407   3.216   2.374  11.533 -0.4845  0.0529 -0.2545
   26MPD2    H5  408   3.168   2.317  11.602 -0.4532 -0.1558 -0.4069
   26MPD2    N1  409   2.999   2.082  11.222  0.3988 -0.0753  0.8469
   26MPD2    H7  410   3.000   2.047  11.127  0.3049  1.7742  0.1622
   27TMC2    C1  411   2.101   4.098  12.028 -0.0305  0.2637  0.5221
   27TMC2    C2  412   2.061   4.176  11.918  0.5498  0.2500  0.4431
   27TMC2    C3  413   2.069   4.311  11.922 -0.5816 -0.7505 -0.8146
   27TMC2    C4  414   2.152   4.159  12.139 -1.5815  0.9027 -0.2474
   27TMC2    C5  415   2.155   4.299  12.145  0.0147  0.2670  0.3434
   27TMC2    C6  416   2.119   4.374  12.034 -0.7976  0.8999  0.0014
   27TMC2     C  417   2.006   3.988  12.056  0.0550  0.1871 -0.3157
   27TMC2     O  418   2.021   3.888  11.989 -0.2439  0.5284 -0.2281
   27TMC2     H  419   2.039   4.134  11.821 -0.9548  1.0061  0.4650
   27TMC2    H1  420   2.181   4.100  12.225  0.9911 -0.6320 -2.1450
   27TMC2    H2  421   2.119   4.482  12.034  0.3477  0.8918 -2.0966
   27TMC2    C7  422   2.121   4.353  12.274 -0.2985  1.0086 -0.8189
   27TMC2    C8  423   2.018   4.395  11.815  0.3956 -0.4207 -0.5950
   27TMC2    O1  424   2.124   4.271  12.365  0.5906 -0.3209  0.1903
   27TMC2    O2  425   1.957   4.493  11.844 -0.3494  0.4138  0.2545
   27TMC2    O5  426   2.090   4.369  11.700 -0.4561 -0.0772  0.0577
   27TMC2    H5  427   2.160   4.301  11.711  0.4508  0.8183 -0.1431
   28MPD2     C  428   1.641   3.776  12.354  0.7849  0.2943 -0.5354
   28MPD2    C1  429   1.647   3.913  12.384 -0.5409  0.4818  0.2135
   28MPD2    C2  430   1.742   3.994  12.317 -0.2938 -0.8783  0.0161
   28MPD2    C3  431   1.820   3.938  12.215  0.4519 -0.2266  0.4241
   28MPD2    C4  432   1.814   3.802  12.197 -0.5478 -0.3083 -0.3306
   28MPD2    C5  433   1.730   3.722  12.269  0.0564  0.3393 -0.0256
   28MPD2     H  434   1.766   4.096  12.344 -1.5975 -0.2063 -1.4333
   28MPD2    H1  435   1.877   3.760  12.120  1.4269  1.8429  0.0985
   28MPD2    H2  436   1.554   3.717  12.380  0.4613  1.3674  0.7997
   28MPD2    H3  437   1.725   3.618  12.241  3.8758  0.5160 -1.3574
   28MPD2     N  438   1.913   4.019  12.149 -0.1142 -0.3055 -0.1066
   28MPD2    H5  439   1.922   4.112  12.189 -0.6476  0.5871 -2.0093
   28MPD2    N1  440   1.550   3.965  12.471 -0.0605  0.0024 -0.4884
   28MPD2    H7  441   1.474   3.903  12.495  0.9401 -0.2385  2.1067
   29MPD2     C  442   1.508   1.590  14.086  0.3867  0.0537 -0.1213
   29MPD2    C1  443   1.626   1.539  14.144 -0.7064 -0.2219 -0.4156
   29MPD2    C2  444   1.732   1.622  14.175 -0.9418  0.5962 -0.3093
   29MPD2    C3  445   1.711   1.759  14.168  0.5208  0.5741  0.1926
   29MPD2    C4  446   1.592   1.807  14.118  0.1301  0.7351  0.0761
   29MPD2    C5  447   1.491   1.724  14.082 -0.1692  0.4881  0.5943
   29MPD2     H  448   1.823   1.579  14.216 -0.4598  0.4678 -1.5172
   29MPD2    H1  449   1.571   1.913  14.117  0.6708  0.8368 -0.9001
   29MPD2    H2  450   1.421   1.537  14.048  0.6380  0.1751 -0.8638
   29MPD2    H3  451   1.402   1.770  14.040  1.1945  3.3949  0.8955
   29MPD2     N  452   1.799   1.851  14.235  0.0108  0.1166 -0.3146
   29MPD2    H5  453   1.749   1.928  14.280  0.9829 -0.4915  1.7942
   29MPD2    N1  454   1.645   1.400  14.169 -0.7137 -0.5234 -0.2963
   29MPD2    H7  455   1.738   1.364  14.189 -1.2789 -2.0529 -0.4151
   30TCq2    C1  456   1.929   1.836  14.268 -0.4605 -0.2468  0.0304
   30TCq2    O2  457   2.016   1.774  14.211 -0.4000 -0.1188  0.0212
   30TCq2    C2  458   1.966   1.936  14.364  0.1219 -0.3042 -0.0017
   30TCq2    C3  459   1.867   1.981  14.446 -0.2410 -0.2510 -0.2540
   30TCq2    C4  460   1.891   2.077  14.537  0.7707 -0.1445  0.4967
   30TCq2    C5  461   2.018   2.128  14.559 -0.0573  0.4887 -0.3227
   30TCq2    C6  462   2.104   2.100  14.455 -0.2806 -0.2642 -0.3039
   30TCq2    C7  463   2.089   2.001  14.359 -0.8295 -1.0365 -0.3160
   30TCq2    C8  464   2.240   2.153  14.479  0.1083  0.0950 -0.1180
   30TCq2    O4  465   2.330   2.083  14.433  0.1635  0.4267  0.1803
   30TCq2    C9  466   1.780   2.114  14.618 -0.3930  0.5611 -0.5151
   30TCq2    O5  467   1.801   2.190  14.717  0.1806  0.1226 -0.7689
   30TCq2    O6  468   1.664   2.075  14.578 -0.4815  0.1903 -0.0402
   30TCq2    H2  469   1.774   1.925  14.456  0.5767 -1.6268 -0.3757
   30TCq2    H3  470   2.036   2.193  14.643 -0.7897 -1.7811  1.5975
   30TCq2    H4  471   2.158   1.974  14.280  0.6223  1.9073 -0.0400
   31MPD2     C  472   4.603   0.468  14.584 -0.2188  0.0038  0.6666
   31MPD2    C1  473   4.481   0.516  14.618 -0.4161 -0.5851 -0.5130
   31MPD2    C2  474   4.398   0.427  14.692  0.5149  0.2212  0.6139
   31MPD2    C3  475   4.437   0.303  14.739  0.1601 -0.0877  0.5619
   31MPD2    C4  476   4.562   0.264  14.701 -0.2227 -0.2195  0.3934
   31MPD2    C5  477   4.646   0.344  14.626 -0.3206 -0.4566 -0.5006
   31MPD2     H  478   4.295   0.456  14.708  0.3990 -0.6231  1.3889
   31MPD2    H1  479   4.593   0.163  14.726 -1.1760 -0.6836 -0.3078
   31MPD2    H2  480   4.671   0.527  14.524 -0.2276  0.4083  1.0485
   31MPD2    H3  481   0.023   0.313  14.593  0.5472 -0.1364  1.7242
   31MPD2     N  482   4.356   0.219  14.813 -0.2300 -0.1929  0.0962
   31MPD2    H5  483   4.397   0.141  14.863  2.1814  1.0031 -0.0628
   31MPD2    N1  484   4.437   0.635  14.551  0.4719  0.2065 -0.0261
   31MPD2    H7  485   4.505   0.669  14.484 -0.8790 -1.1458 -2.0883
   32TCq2    C1  486   4.220   0.225  14.826 -0.1414  0.4209 -0.0375
   32TCq2    O2  487   4.150   0.318  14.793 -0.1672 -0.2143  0.2071
   32TCq2    C2  488   4.161   0.124  14.908 -0.0733 -0.6657  0.3842
   32TCq2    C3  489   4.025   0.119  14.889  0.6574 -0.0906 -0.2847
   32TCq2    C4  490   3.947   0.079  14.994 -0.0814 -0.1727  0.4823
   32TCq2    C5  491   4.005   0.054  15.112 -0.7831  0.8388  0.6587
   32TCq2    C6  492   4.137   0.063  15.132 -0.4609 -0.0710  0.0257
   32TCq2    C7  493   4.219   0.111  15.031  0.0704 -0.5314 -0.4493
   32TCq2    C8  494   4.190   0.061  15.263  0.5203  0.3469 -0.0261
   32TCq2    O4  495   4.297   0.002  15.290 -0.5887  0.2938  0.4120
   32TCq2    C9  496   3.799   0.085  14.977 -0.4885  0.5859  0.4587
   32TCq2    O5  497   3.751   0.129  14.868 -0.2658  0.3112  0.0926
   32TCq2    O6  498   3.734   0.093  15.082  0.0577  0.7980  0.3082
   32TCq2    H2  499   3.980   0.124  14.791  0.3224  0.3596 -0.1081
   32TCq2    H3  500   3.932   0.029  15.188  0.4087 -0.7138  1.3128
   32TCq2    H4  501   4.322   0.136  15.050 -0.2144 -1.3194  2.1418
   33MPD2     C  502   4.556   3.254  10.406  0.3168 -0.0201 -0.4356
   33MPD2    C1  503   4.432   3.215  10.455 -0.0342 -0.0592 -0.1182
   33MPD2    C2  504   4.317   3.241  10.377  0.0706  0.0162  0.1996
   33MPD2    C3  505   4.324   3.303  10.251 -0.3033 -0.0909  0.6376
   33MPD2    C4  506   4.453   3.342  10.211  0.4931  0.3890  0.0783
   33MPD2    C5  507   4.563   3.313  10.281  0.0446 -0.0338 -0.0714
   33MPD2     H  508   4.220   3.208  10.412 -0.8841  1.5960 -0.9685
   33MPD2    H1  509   4.471   3.392  10.116  0.6317  0.5343  0.1801
   33MPD2    H2  510   4.638   3.237  10.474  1.1118 -1.2111 -1.7043
   33MPD2    H3  511   4.659   3.333  10.236 -0.4148 -2.0454 -1.8832
   33MPD2     N  512   4.209   3.330  10.168  0.2815  0.1577  0.3924
   33MPD2    H5  513   4.223   3.376  10.079  1.1141  2.0883  1.5311
   33MPD2    N1  514   4.431   3.135  10.569 -0.7137 -1.0129  0.0950
   33MPD2    H7  515   4.517   3.084  10.582 -1.5433 -2.3164  0.5106
   34TCq2    C1  516   4.078   3.326  10.216 -0.0135 -0.4926  0.5146
   34TCq2    O2  517   4.035   3.309  10.330  0.1611 -0.0892  0.0182
   34TCq2    C2  518   3.984   3.350  10.106  0.4455  0.0479  0.5476
   34TCq2    C3  519   3.849   3.351  10.150  0.1619 -0.3344 -0.1305
   34TCq2    C4  520   3.759   3.430  10.087  0.2717 -0.0618  0.0536
   34TCq2    C5  521   3.792   3.482   9.967  0.2532  0.3445 -0.2504
   34TCq2    C6  522   3.918   3.468   9.917 -0.1759  0.4214  0.2218
   34TCq2    C7  523   4.017   3.405   9.987 -0.1880 -0.1970  0.6797
   34TCq2    C8  524   3.975   3.563   9.819  0.0712 -0.2524  0.0785
   34TCq2    O4  525   4.085   3.532   9.779  0.3684 -0.0911 -0.3121
   34TCq2    C9  526   3.621   3.421  10.130 -0.0187  0.6194  0.3609
   34TCq2    O5  527   3.523   3.439  10.056  0.3593 -0.2229  0.0815
   34TCq2    O6  528   3.606   3.358  10.235 -0.1861  0.1319  0.1671
   34TCq2    H2  529   3.817   3.293  10.236 -0.4906 -1.5738 -1.1978
   34TCq2    H3  530   3.714   3.524   9.904 -3.7514 -5.7789  0.6222
   34TCq2    H4  531   4.114   3.375   9.949  0.0030  0.3722  0.7243
   35MPD2     C  532   1.195   0.084  11.836  1.2635 -0.6781  0.3271
   35MPD2    C1  533   1.201   4.681  11.876 -0.3039  0.1949  0.7556
   35MPD2    C2  534   1.165   4.580  11.785  0.4987  0.6245  0.3290
   35MPD2    C3  535   1.120   4.609  11.657  0.3337  0.3451 -0.2812
   35MPD2    C4  536   1.114   0.030  11.626 -0.0677  0.6622  0.2672
   35MPD2    C5  537   1.158   0.123  11.711  0.4307 -0.0759 -0.2586
   35MPD2     H  538   1.173   4.476  11.813 -0.9342  0.3599 -0.2650
   35MPD2    H1  539   1.090   0.073  11.530 -0.8001 -1.6371 -0.5700
   35MPD2    H2  540   1.232   0.157  11.907 -0.5511 -0.3640  0.9504
   35MPD2    H3  541   1.162   0.228  11.684 -1.2797  0.0082 -0.1568
   35MPD2     N  542   1.067   4.507  11.567  0.4313  0.2839  0.1378
   35MPD2    H5  543   1.074   4.408  11.589  0.2024  0.3549  0.5313
   35MPD2    N1  544   1.238   4.650  12.017  0.6226  0.7101 -0.1153
   35MPD2    H7  545   1.243   0.006  12.083  0.6759  1.3454 -0.8586
   36TCq2    C1  546   1.005   4.535  11.451 -0.0787 -0.8397  0.3637
   36TCq2    O2  547   0.983   4.643  11.400 -0.0610 -0.3010 -0.9265
   36TCq2    C2  548   0.960   4.417  11.378  0.1289 -0.6354 -0.3233
   36TCq2    C3  549   0.840   4.435  11.303  0.1082  0.9666 -0.7257
   36TCq2    C4  550   0.771   4.324  11.255 -0.2934 -0.6276 -0.1843
   36TCq2    C5  551   0.828   4.198  11.270 -0.0174  0.0060 -0.7009
   36TCq2    C6  552   0.942   4.183  11.344 -0.2482 -0.5248  0.8791
   36TCq2    C7  553   1.008   4.289  11.401  0.2240  0.0973  0.1649
   36TCq2    C8  554   0.992   4.046  11.367  0.7692 -0.5220  0.3991
   36TCq2    O4  555   0.975   3.957  11.286  0.0195 -0.1160 -0.6534
   36TCq2    C9  556   0.646   4.326  11.181 -0.3523 -0.1173  0.2784
   36TCq2    O5  557   0.598   4.212  11.165  0.4416 -1.0874 -0.2143
   36TCq2    O6  558   0.582   4.433  11.169  0.2861 -0.5137  0.1070
   36TCq2    H2  559   0.795   4.530  11.278  0.8238  0.9997 -1.8884
   36TCq2    H3  560   0.791   4.115  11.211 -0.0105  0.1158 -0.8606
   36TCq2    H4  561   1.102   4.270  11.452  1.3666  2.7691 -0.9143
   37TMC2    C1  562   2.979   4.283  11.750 -0.3568  0.9004 -0.2107
   37TMC2    C2  563   2.986   4.340  11.630  0.9563  0.6766  0.1470
   37TMC2    C3  564   3.096   4.411  11.594  0.0745 -0.3109 -0.2019
   37TMC2    C4  565   3.093   4.279  11.826  0.4382  0.3725 -0.0944
   37TMC2    C5  566   3.207   4.353  11.791 -0.9361 -0.5774 -0.0066
   37TMC2    C6  567   3.201   4.433  11.683 -0.0957  0.1451  0.3885
   37TMC2     C  568   2.847   4.244  11.795  0.0431  0.4090 -0.2759
   37TMC2     O  569   2.748   4.247  11.724  0.1082  0.0742 -0.0568
   37TMC2     H  570   2.895   4.341  11.571  2.0645  0.9192 -1.5617
   37TMC2    H1  571   3.088   4.224  11.919 -2.6244  0.6904 -0.0823
   37TMC2    H2  572   3.286   4.494  11.653 -1.7107  1.3425 -1.7823
   37TMC2    C7  573   3.291   4.393  11.903 -0.2598  0.4396 -0.4815
   37TMC2    C8  574   3.079   4.497  11.479  0.6119 -0.0217  0.5447
   37TMC2    O1  575   3.243   4.384  12.012  0.0956  0.0953 -0.0848
   37TMC2    O2  576   2.968   4.530  11.435 -0.3456  0.1573 -0.0000
   37TMC2    O5  577   3.194   4.506  11.411 -0.2030 -0.3723  0.3253
   37TMC2    H5  578   3.267   4.464  11.461 -0.9579 -2.7042 -0.5608
   38MPD2     C  579   2.513   4.244  12.186  0.5536  0.1170  0.6001
   38MPD2    C1  580   2.641   4.214  12.234 -0.1699  0.7664  0.5365
   38MPD2    C2  581   2.747   4.221  12.146  0.5428  0.0431  0.0883
   38MPD2    C3  582   2.732   4.246  12.012  0.1150  0.0435 -0.0760
   38MPD2    C4  583   2.607   4.288  11.968  0.5715 -0.4259 -0.3338
   38MPD2    C5  584   2.503   4.284  12.052 -0.2904  0.0756  0.1695
   38MPD2     H  585   2.842   4.187  12.186  0.7039 -2.1242 -2.1223
   38MPD2    H1  586   2.577   4.312  11.867  0.9014  2.4172  0.2168
   38MPD2    H2  587   2.424   4.252  12.248 -0.0119  2.1065 -0.4564
   38MPD2    H3  588   2.404   4.307  12.013 -0.2260  2.8476  1.5967
   38MPD2     N  589   2.850   4.234  11.934 -0.0606 -0.1276  0.8698
   38MPD2    H5  590   2.938   4.229  11.984  0.5322  0.8099 -0.0630
   38MPD2    N1  591   2.658   4.184  12.369  0.2285 -0.5821 -0.2148
   38MPD2    H7  592   2.755   4.171  12.397 -0.4839 -2.5962  1.3068
   39MPD2     C  593   1.845   1.616   1.554  0.1329  0.0955 -0.4306
   39MPD2    C1  594   1.756   1.709   1.599 -0.0960  0.3482  0.0336
   39MPD2    C2  595   1.627   1.702   1.557  0.1430 -0.0632  0.1956
   39MPD2    C3  596   1.590   1.593   1.473 -0.3521  0.2110  0.2672
   39MPD2    C4  597   1.679   1.505   1.427 -0.0361  0.1732 -0.2050
   39MPD2    C5  598   1.810   1.519   1.464  0.1047 -0.2512  0.0578
   39MPD2     H  599   1.549   1.764   1.600  0.9666  0.1995  1.3100
   39MPD2    H1  600   1.642   1.418   1.375  0.1882  1.0967 -1.9365
   39MPD2    H2  601   1.950   1.622   1.582 -0.1266  0.3748  0.4922
   39MPD2    H3  602   1.887   1.454   1.424  1.9289  0.9360  1.6034
   39MPD2     N  603   1.450   1.566   1.447 -0.1753  0.2881  0.1669
   39MPD2    H5  604   1.432   1.482   1.394 -1.6956  0.5856  0.2083
   39MPD2    N1  605   1.812   1.813   1.677  0.0224  0.4324  0.0106
   39MPD2    H7  606   1.913   1.814   1.681 -0.0441  2.3083  1.3257
   40TCq2    C1  607   1.745   1.921   1.727 -0.3359 -0.2236 -0.6369
   40TCq2    O2  608   1.631   1.956   1.708  0.1003 -0.3636  0.6227
   40TCq2    C2  609   1.822   2.011   1.807  0.0834 -0.0877 -0.1935
   40TCq2    C3  610   1.773   2.141   1.817  0.0676 -0.1480  0.6788
   40TCq2    C4  611   1.841   2.229   1.900 -0.3891 -0.3747 -0.2557
   40TCq2    C5  612   1.956   2.191   1.958  0.5162  0.6131 -0.3174
   40TCq2    C6  613   2.002   2.069   1.942 -0.2588  0.0661 -0.1050
   40TCq2    C7  614   1.938   1.975   1.866 -0.2679  0.3157 -0.0553
   40TCq2    C8  615   2.129   2.034   2.005  0.3005 -0.1135  0.0484
   40TCq2    O4  616   2.158   1.917   1.987 -0.2278 -0.3177  0.1146
   40TCq2    C9  617   1.800   2.367   1.896  1.1596  0.2162 -0.4314
   40TCq2    O5  618   1.868   2.449   1.956 -0.1543  0.0139  0.6866
   40TCq2    O6  619   1.702   2.399   1.827 -0.3315 -0.2504 -0.7058
   40TCq2    H2  620   1.682   2.174   1.769  1.0767  3.0415  0.9409
   40TCq2    H3  621   2.002   2.273   2.013 -0.1650 -0.1207  1.3256
   40TCq2    H4  622   1.985   1.878   1.855  0.8531  0.6574  1.5819
   41TMC2    C1  623   0.243   4.629  14.188 -0.6800 -0.1734  0.2008
   41TMC2    C2  624   0.337   0.006  14.197  0.0308  0.0500 -0.5732
   41TMC2    C3  625   0.400   0.045  14.082  0.1083  0.3100 -0.5676
   41TMC2    C4  626   0.213   4.566  14.065  0.9263 -0.4219 -0.4230
   41TMC2    C5  627   0.286   4.605  13.952 -0.0996 -0.0039 -0.3883
   41TMC2    C6  628   0.368   4.713  13.961 -0.0051  0.2997  0.4771
   41TMC2     C  629   0.188   4.575  14.312  0.6137 -0.2388  0.1836
   41TMC2     O  630   0.150   4.463  14.316  0.2341  0.3844  0.3044
   41TMC2     H  631   0.384   0.027  14.292 -0.6160 -0.1231 -0.2137
   41TMC2    H1  632   0.131   4.495  14.065  1.0913 -0.6081 -0.9577
   41TMC2    H2  633   0.428   0.037  13.883  1.6076 -2.3291  0.2028
   41TMC2    C7  634   0.218   4.580  13.828  0.1151 -0.1219 -0.0383
   41TMC2    C8  635   0.504   0.144  14.085 -0.2245 -0.0375 -0.2911
   41TMC2    O1  636   0.119   4.508  13.835  0.2264 -0.5133  0.4221
   41TMC2    O2  637   0.583   0.140  14.174 -0.1635 -0.8158 -0.2012
   41TMC2    O5  638   0.446   0.249  14.030  0.5188 -0.0390 -0.2212
   41TMC2    H5  639   0.376   0.218  13.968  0.3021 -1.1653  0.5967
   42MPD2     C  640   0.136   4.504  14.605  0.2868  0.1426 -0.6624
   42MPD2    C1  641   0.157   4.634  14.552 -0.0828 -0.8760 -0.6022
   42MPD2    C2  642   0.155   0.021  14.638  0.0198 -0.4318  0.0118
   42MPD2    C3  643   0.120   0.010  14.770 -0.0541 -0.0032  0.2654
   42MPD2    C4  644   0.098   4.610  14.829 -0.4010  0.0551  0.3758
   42MPD2    C5  645   0.106   4.501  14.740  0.2167  0.8755 -0.0861
   42MPD2     H  646   0.183   0.116  14.592 -2.4614  0.0647 -0.4640
   42MPD2    H1  647   0.084   4.581  14.932 -0.8769  1.7590  0.7809
   42MPD2    H2  648   0.139   4.408  14.555  0.3803 -0.7902  1.1166
   42MPD2    H3  649   0.081   4.407  14.787 -1.1252  1.1449 -0.2697
   42MPD2     N  650   0.114   0.117  14.861  0.5174 -0.0966 -0.7575
   42MPD2    H5  651   0.068   0.100  14.949  1.4401 -1.7715 -0.5887
   42MPD2    N1  652   0.180   4.667  14.413  0.0935  0.1852  0.2767
   42MPD2    H7  653   0.219   0.039  14.397 -2.0404  1.2029  0.9410
   43MPD2     C  654   2.809   2.833   0.877  0.3520  0.7422  1.0894
   43MPD2    C1  655   2.857   2.815   1.006 -0.2519  0.6704  0.5057
   43MPD2    C2  656   2.815   2.905   1.104 -0.8202 -0.1151  0.1692
   43MPD2    C3  657   2.736   3.013   1.066 -0.0540 -0.0256 -0.7908
   43MPD2    C4  658   2.679   3.021   0.942  1.0482  0.1674 -0.2000
   43MPD2    C5  659   2.718   2.936   0.852  0.0397  0.1462 -0.1043
   43MPD2     H  660   2.861   2.892   1.201 -0.7302 -1.2743 -0.0358
   43MPD2    H1  661   2.604   3.092   0.910  2.2652  0.6595 -2.0050
   43MPD2    H2  662   2.839   2.769   0.795  1.4650  3.6067 -0.7770
   43MPD2    H3  663   2.666   2.942   0.757  0.8904 -1.2887 -0.6683
   43MPD2     N  664   2.691   3.113   1.155 -0.0430  0.0922 -0.2405
   43MPD2    H5  665   2.619   3.178   1.126 -0.3594 -0.2339 -0.1881
   43MPD2    N1  666   2.945   2.705   1.041  0.1636 -0.1506  0.5590
   43MPD2    H7  667   2.958   2.698   1.142  0.0777 -0.4894  0.5471
   44TCq2    C1  668   2.361   3.445   1.308 -0.0701  0.0436 -0.5934
   44TCq2    O2  669   2.320   3.402   1.199 -0.1595 -0.4511 -0.5476
   44TCq2    C2  670   2.497   3.417   1.346  1.0190 -0.1775 -0.0370
   44TCq2    C3  671   2.549   3.465   1.462 -0.0664 -0.1859  0.2464
   44TCq2    C4  672   2.662   3.405   1.517  0.2707 -0.1274 -0.0187
   44TCq2    C5  673   2.725   3.300   1.464 -0.4952 -0.5833  0.1638
   44TCq2    C6  674   2.663   3.246   1.349  0.0421  0.1776 -0.2863
   44TCq2    C7  675   2.553   3.307   1.288  0.3102  0.0801 -0.8122
   44TCq2    C8  676   2.728   3.133   1.283 -0.2222  0.5766 -0.1060
   44TCq2    O4  677   2.807   3.074   1.351 -0.5652 -0.8259  0.2585
   44TCq2    C9  678   2.715   3.464   1.639  0.5770 -0.2513  0.0569
   44TCq2    O5  679   2.637   3.547   1.695  0.3561 -0.3786  0.4023
   44TCq2    O6  680   2.823   3.424   1.694  0.2339 -0.0740  0.9783
   44TCq2    H2  681   2.522   3.564   1.495  1.7371  1.3707 -2.9279
   44TCq2    H3  682   2.814   3.255   1.506  0.0837  0.9388  0.5589
   44TCq2    H4  683   2.516   3.276   1.191 -1.2225 -0.7400  0.0487
   45TMC2    C1  684   2.361   0.048   9.818  0.3514  0.0339 -0.2587
   45TMC2    C2  685   2.301   0.101   9.698 -0.4566  0.5396  0.2501
   45TMC2    C3  686   2.344   0.220   9.647  0.0694  1.2357  0.6080
   45TMC2    C4  687   2.471   0.110   9.877 -0.1141  0.0280 -0.0661
   45TMC2    C5  688   2.518   0.225   9.816  0.2824  0.2221  0.2006
   45TMC2    C6  689   2.443   0.290   9.714  0.0388 -0.1020  0.3182
   45TMC2     C  690   2.319   4.650   9.888  0.3093 -0.2207 -0.0763
   45TMC2     O  691   2.396   4.584   9.954  0.2750 -0.1496  0.1676
   45TMC2     H  692   2.220   0.054   9.643  0.8235  0.2116 -1.3615
   45TMC2    H1  693   2.527   0.064   9.957  0.0638 -0.7629 -0.6436
   45TMC2    H2  694   2.487   0.381   9.675 -1.8775 -0.2454 -2.1789
   45TMC2    C7  695   2.656   0.269   9.839 -0.6943 -0.1124  0.0589
   45TMC2    C8  696   2.254   0.288   9.554 -0.4365 -0.3401 -0.1516
   45TMC2    O1  697   2.708   0.312   9.740  0.0319 -0.1593 -0.2649
   45TMC2    O2  698   2.144   0.239   9.522 -0.5186 -0.8830  0.3040
   45TMC2    O5  699   2.274   0.420   9.564  0.8603 -0.3866 -0.2408
   45TMC2    H5  700   2.366   0.446   9.586  0.1019  2.2244 -0.0925
   46MPD2     C  701   2.180   4.386   9.923  0.0821 -0.1520 -0.2926
   46MPD2    C1  702   2.121   4.501   9.871 -0.1787  0.0613 -0.1779
   46MPD2    C2  703   1.986   4.482   9.829 -0.3074 -0.5118  0.0316
   46MPD2    C3  704   1.918   4.364   9.829  0.4520 -0.9109 -0.7679
   46MPD2    C4  705   1.987   4.251   9.880  0.3933  0.3784  0.0762
   46MPD2    C5  706   2.112   4.262   9.927 -0.3467  0.2464  0.0204
   46MPD2     H  707   1.932   4.566   9.787  0.8403 -0.7008 -1.8122
   46MPD2    H1  708   1.935   4.156   9.879 -0.3668  0.7857  0.1723
   46MPD2    H2  709   2.282   4.388   9.960  0.0952  2.2685 -0.4985
   46MPD2    H3  710   2.171   4.174   9.950 -0.2703  0.1954 -0.3747
   46MPD2     N  711   1.779   4.358   9.795  0.0541  0.2503 -0.2675
   46MPD2    H5  712   1.727   4.445   9.790 -1.9550 -0.8846  0.3618
   46MPD2    N1  713   2.194   4.616   9.845 -0.5157  0.0096 -0.1645
   46MPD2    H7  714   2.151   4.692   9.793  0.6190  0.2630 -0.7229
   47TMC2    C1  715   0.260   0.809   9.325  0.7755 -0.2747 -0.0968
   47TMC2    C2  716   0.287   0.729   9.220 -0.4080 -0.0239  1.0133
   47TMC2    C3  717   0.219   0.750   9.103 -0.8685  0.5713 -0.0881
   47TMC2    C4  718   0.188   0.923   9.303 -1.1449 -0.1467 -0.4414
   47TMC2    C5  719   0.125   0.944   9.183 -0.5828 -0.0580 -0.1134
   47TMC2    C6  720   0.141   0.860   9.076  0.9692  0.0276  0.3245
   47TMC2     C  721   0.338   0.796   9.451  0.8781  0.0035 -0.2974
   47TMC2     O  722   0.344   0.897   9.518 -0.1568  0.1312  0.5752
   47TMC2     H  723   0.358   0.647   9.216  3.1589  3.2041 -1.7689
   47TMC2    H1  724   0.150   0.980   9.387 -0.1954 -1.0071  0.5699
   47TMC2    H2  725   0.099   0.876   8.977 -0.6947 -2.6053  0.6063
   47TMC2    C7  726   0.030   1.053   9.179  0.3908  0.2387  0.6887
   47TMC2    C8  727   0.238   0.653   8.994  0.7658  0.1180 -0.1510
   47TMC2    O1  728   0.005   1.112   9.286 -0.3698  0.4696 -0.3885
   47TMC2    O2  729   0.338   0.617   8.939 -0.1958  0.0551 -0.2513
   47TMC2    O5  730   0.111   0.637   8.947  0.0492 -0.4308 -0.0469
   47TMC2    H5  731   0.045   0.681   9.005 -0.5376 -0.6531 -0.5434
   48MPD2     C  732   0.489   0.706   9.700  0.1909  0.3876 -0.1669
   48MPD2    C1  733   0.447   0.623   9.594 -0.0875 -1.0394  0.4231
   48MPD2    C2  734   0.499   0.497   9.598 -0.0569 -0.8791 -0.0849
   48MPD2    C3  735   0.572   0.448   9.706  0.4355 -0.0575  0.4843
   48MPD2    C4  736   0.602   0.529   9.813  0.4061 -0.2373 -0.2763
   48MPD2    C5  737   0.562   0.660   9.808 -0.2087  0.1036 -0.1280
   48MPD2     H  738   0.483   0.446   9.504  0.1896  1.3242 -1.3335
   48MPD2    H1  739   0.666   0.492   9.892 -0.7431 -2.1642 -0.2594
   48MPD2    H2  740   0.460   0.810   9.708 -0.4496  0.3387 -1.8225
   48MPD2    H3  741   0.589   0.731   9.886  1.6071  0.1823 -0.8311
   48MPD2     N  742   0.613   0.316   9.706 -0.2850 -0.5589 -0.2930
   48MPD2    H5  743   0.591   0.261   9.624  2.0592  2.4225 -2.8995
   48MPD2    N1  744   0.381   0.670   9.475 -0.3903 -0.2454  0.0815
   48MPD2    H7  745   0.367   0.597   9.405 -0.8849 -0.2444  0.1739
   49MPD2     C  746   2.610   2.477  10.032  0.6977 -0.1520 -0.7816
   49MPD2    C1  747   2.643   2.430  10.160  0.2069  0.0554 -0.1565
   49MPD2    C2  748   2.722   2.492  10.252 -0.4143  0.5887  0.4907
   49MPD2    C3  749   2.793   2.603  10.198  0.1475 -0.4111 -0.0881
   49MPD2    C4  750   2.774   2.642  10.068  0.5901 -0.2559  0.0633
   49MPD2    C5  751   2.680   2.583   9.987  0.8960 -0.0133 -0.5626
   49MPD2     H  752   2.733   2.458  10.354  3.9174 -0.1475 -0.2404
   49MPD2    H1  753   2.839   2.716  10.025 -0.7580  0.1093 -1.3518
   49MPD2    H2  754   2.548   2.421   9.963 -1.5768  1.0834  0.2564
   49MPD2    H3  755   2.654   2.618   9.888  2.2387  0.4817 -0.7328
   49MPD2     N  756   2.893   2.672  10.274 -0.1776 -0.0968  0.9497
   49MPD2    H5  757   2.958   2.720  10.213 -0.7039 -1.5539 -0.7433
   49MPD2    N1  758   2.570   2.311  10.208  0.8899  0.2794  0.4863
   49MPD2    H7  759   2.597   2.274  10.299  2.9572  0.0187 -0.2367
   50TCq2    C1  760   2.473   2.235  10.143  0.1917  0.1203 -0.2255
   50TCq2    O2  761   2.415   2.256  10.043 -0.0479 -0.4237  0.4925
   50TCq2    C2  762   2.463   2.100  10.192 -0.1114  0.4935  0.4888
   50TCq2    C3  763   2.405   2.012  10.108 -0.4577  0.4259  0.0958
   50TCq2    C4  764   2.369   1.893  10.162 -0.7373 -0.7031  0.3498
   50TCq2    C5  765   2.404   1.857  10.285 -0.2864  0.2279 -0.6355
   50TCq2    C6  766   2.457   1.945  10.372  0.0355 -0.0874 -0.8375
   50TCq2    C7  767   2.480   2.075  10.327 -0.3814  0.6473 -0.3644
   50TCq2    C8  768   2.486   1.891  10.502 -0.1067  0.0545  0.0828
   50TCq2    O4  769   2.447   1.780  10.536  0.5469 -0.1965 -0.2364
   50TCq2    C9  770   2.306   1.797  10.070 -0.9518 -0.0688  0.3308
   50TCq2    O5  771   2.306   1.677  10.106  0.3734 -0.4055  0.4154
   50TCq2    O6  772   2.258   1.835   9.961  0.1841 -0.0236 -0.2832
   50TCq2    H2  773   2.380   2.038  10.006 -1.4218 -2.2217 -0.3417
   50TCq2    H3  774   2.380   1.759  10.324  0.9039  0.2094  0.0462
   50TCq2    H4  775   2.515   2.156  10.389 -1.8383  2.3611 -1.7849
   51MPD2     C  776   4.174   1.083   1.036  0.3251  0.6208 -0.5516
   51MPD2    C1  777   4.068   0.999   1.059 -0.4287  0.6468 -0.2586
   51MPD2    C2  778   4.072   0.909   1.155  0.4163  0.5165 -0.2452
   51MPD2    C3  779   4.172   0.918   1.251  0.1558 -0.1403  0.4941
   51MPD2    C4  780   4.275   1.004   1.233  0.0516 -0.7756 -0.1450
   51MPD2    C5  781   4.279   1.085   1.126  0.0070  0.1569  0.2504
   51MPD2     H  782   4.000   0.828   1.154  1.2346 -0.1920 -1.6366
   51MPD2    H1  783   4.355   1.004   1.306  0.8985 -1.6215 -1.0862
   51MPD2    H2  784   4.177   1.161   0.960  1.1558 -1.1524 -2.3349
   51MPD2    H3  785   4.364   1.150   1.108 -0.2249 -0.3003 -2.5738
   51MPD2     N  786   4.186   0.834   1.368 -0.0873  0.9536  0.7087
   51MPD2    H5  787   4.272   0.849   1.419  0.9775  0.6440 -1.0147
   51MPD2    N1  788   3.959   0.998   0.963  0.7930  0.3846 -0.0044
   51MPD2    H7  789   3.963   1.059   0.882  0.2527  1.4690  0.7808
   52TCq2    C1  790   4.113   0.716   1.395 -1.1063  0.2000 -0.4467
   52TCq2    O2  791   4.009   0.677   1.341  0.2452  0.4646  0.6072
   52TCq2    C2  792   4.177   0.636   1.497  0.5234 -0.3154  0.4678
   52TCq2    C3  793   4.096   0.544   1.559  0.5030  0.7941  0.6476
   52TCq2    C4  794   4.159   0.464   1.650  0.4786 -0.5781  0.1297
   52TCq2    C5  795   4.296   0.468   1.678  0.2138  0.3255 -0.0094
   52TCq2    C6  796   4.368   0.563   1.617  0.1424 -0.6413  0.1557
   52TCq2    C7  797   4.308   0.649   1.524  1.2409 -0.1655  0.4914
   52TCq2    C8  798   4.504   0.577   1.653 -0.2841 -0.1787 -0.2558
   52TCq2    O4  799   4.575   0.621   1.560 -0.0556  0.2812 -0.4859
   52TCq2    C9  800   4.084   0.362   1.721  0.0405  0.0189  0.2616
   52TCq2    O5  801   3.961   0.352   1.690  0.2150  0.1029 -0.3231
   52TCq2    O6  802   4.148   0.296   1.805 -0.4528  0.6975  0.0727
   52TCq2    H2  803   3.992   0.527   1.533  0.9327  1.1478 -1.2834
   52TCq2    H3  804   4.339   0.401   1.750 -2.4634 -2.0101 -0.6033
   52TCq2    H4  805   4.368   0.727   1.478 -0.9680  0.5130 -1.2106
   53TMC2    C1  806   3.581   4.614  12.547 -0.2240 -0.3910 -1.0140
   53TMC2    C2  807   3.661   4.546  12.639  0.0295 -0.7370  0.6170
   53TMC2    C3  808   3.595   4.492  12.741  0.5842 -0.4141  0.0216
   53TMC2    C4  809   3.451   4.647  12.571 -0.9541  0.5678  0.0446
   53TMC2    C5  810   3.395   4.593  12.688  0.0546  0.1150  0.0504
   53TMC2    C6  811   3.467   4.511  12.769  0.2275  0.2748  0.3148
   53TMC2     C  812   3.642   4.623  12.418 -0.7655  0.2984  0.5994
   53TMC2     O  813   3.766   4.637  12.407  0.0274 -0.2944 -0.2535
   53TMC2     H  814   3.761   4.523  12.606  0.0238  2.7294 -1.9030
   53TMC2    H1  815   3.391   4.707  12.504  1.9055 -1.0749 -4.0259
   53TMC2    H2  816   3.416   4.447  12.840  0.4674 -0.5515 -0.2640
   53TMC2    C7  817   3.250   4.575  12.679 -0.5870 -0.4361  0.3359
   53TMC2    C8  818   3.676   4.412  12.837  0.4866 -0.0080  0.7267
   53TMC2    O1  819   3.212   4.608  12.571  0.1003 -0.3457  0.1166
   53TMC2    O2  820   3.639   4.376  12.948 -0.3998  0.1930  0.6039
   53TMC2    O5  821   3.750   4.342  12.752  0.1071  0.5190 -0.4280
   53TMC2    H5  822   3.733   4.361  12.657 -0.3611  1.9471 -0.0627
   54MPD2     C  823   3.702   4.620  12.122 -0.9156  0.1385  0.4613
   54MPD2    C1  824   3.572   4.601  12.176  0.1701  1.0205 -0.1668
   54MPD2    C2  825   3.477   4.544  12.089  0.3112  0.6182  0.3321
   54MPD2    C3  826   3.499   4.520  11.956  0.3491  0.3705 -0.2672
   54MPD2    C4  827   3.620   4.560  11.904 -0.1054  0.4009  0.2988
   54MPD2    C5  828   3.714   4.601  11.990 -0.9303  0.3737 -0.3897
   54MPD2     H  829   3.386   4.514  12.139  0.0151 -0.9395 -1.1333
   54MPD2    H1  830   3.645   4.545  11.800 -0.0990 -0.0922  0.3733
   54MPD2    H2  831   3.785   4.665  12.176 -1.1820  1.5465 -0.3020
   54MPD2    H3  832   3.810   4.627  11.947 -0.4272 -1.6418 -0.4907
   54MPD2     N  833   3.408   4.456  11.868 -0.7029 -0.0055  0.3224
   54MPD2    H5  834   3.434   4.449  11.770  0.9943 -0.0464  0.7771
   54MPD2    N1  835   3.550   4.604  12.314  0.6238 -0.8747 -0.6029
   54MPD2    H7  836   3.453   4.589  12.337  0.9272  0.2027  1.3724
   55MPD2     C  837   0.209   2.067   0.966 -0.5081 -0.0714 -0.7145
   55MPD2    C1  838   0.076   2.008   0.963  0.2333 -0.6567  0.3770
   55MPD2    C2  839   4.698   2.083   0.908 -0.7818 -0.5365  0.0797
   55MPD2    C3  840   4.719   2.203   0.848  0.8998  0.0098 -1.3380
   55MPD2    C4  841   0.126   2.257   0.844  0.0121 -1.0873  0.2233
   55MPD2    C5  842   0.226   2.190   0.910 -0.0589  0.8857  0.6083
   55MPD2     H  843   4.597   2.047   0.919 -0.8602  0.1486  1.6017
   55MPD2    H1  844   0.155   2.350   0.795 -1.6718 -1.0336 -0.6735
   55MPD2    H2  845   0.296   2.025   1.015  0.6864  2.5290 -0.5963
   55MPD2    H3  846   0.326   2.229   0.916 -0.5074  1.6123  3.0785
   55MPD2     N  847   4.605   2.275   0.798 -0.0177 -0.4020  0.8296
   55MPD2    H5  848   4.511   2.241   0.814 -0.6601  0.1384 -1.8250
   55MPD2    N1  849   0.068   1.877   1.017 -0.1595  0.0236 -0.3875
   55MPD2    H7  850   0.150   1.838   1.062 -1.1188 -1.5203  0.0363
   56TCq2    C1  851   4.672   1.806   1.013 -0.4219  0.2244  0.3867
   56TCq2    O2  852   4.568   1.826   0.953 -0.5815  0.3236 -0.9482
   56TCq2    C2  853   4.682   1.672   1.074 -0.3877 -0.5070  0.1217
   56TCq2    C3  854   0.070   1.595   1.097  0.0495  0.5180 -0.2466
   56TCq2    C4  855   0.064   1.469   1.148  0.2638 -0.1819  0.4428
   56TCq2    C5  856   4.664   1.418   1.192 -0.1725  0.3348 -0.9606
   56TCq2    C6  857   4.555   1.492   1.159 -0.2220 -0.3671 -0.4461
   56TCq2    C7  858   4.559   1.618   1.113 -0.1079 -0.1146 -0.3803
   56TCq2    C8  859   4.420   1.443   1.186 -0.6492  0.8519 -0.4246
   56TCq2    O4  860   4.420   1.370   1.286 -0.0713  0.3787  0.0406
   56TCq2    C9  861   0.174   1.382   1.151 -0.3260 -0.5295  0.6837
   56TCq2    O5  862   0.155   1.257   1.159  0.5215 -0.3210  0.3466
   56TCq2    O6  863   0.288   1.427   1.120  0.1421 -0.2368  0.5599
   56TCq2    H2  864   0.167   1.624   1.058 -0.2056  0.9291 -0.5676
   56TCq2    H3  865   4.666   1.320   1.237  0.3918  0.4269 -0.7907
   56TCq2    H4  866   4.466   1.671   1.097  0.3631  0.3717 -1.4979
   57TMC2    C1  867   3.465   3.822  13.492 -0.4147 -0.3979  0.8924
   57TMC2    C2  868   3.411   3.934  13.447  0.2463  0.1735 -1.1461
   57TMC2    C3  869   3.489   4.028  13.390 -0.0883  0.0334 -0.0232
   57TMC2    C4  870   3.599   3.791  13.483 -0.4481  0.7683 -0.1045
   57TMC2    C5  871   3.670   3.884  13.400 -0.2141 -0.4694 -0.1556
   57TMC2    C6  872   3.619   4.003  13.361  0.5504  0.1222  0.5580
   57TMC2     C  873   3.368   3.743  13.576 -0.2912  1.0914  0.3690
   57TMC2     O  874   3.254   3.779  13.586  0.5148  0.2833  0.1488
   57TMC2     H  875   3.305   3.960  13.445  0.3388  0.7713  1.8586
   57TMC2    H1  876   3.648   3.712  13.540 -1.1974 -0.6643 -1.4312
   57TMC2    H2  877   3.689   4.077  13.325  2.0118 -0.9706  1.1722
   57TMC2    C7  878   3.808   3.857  13.372 -0.4379 -0.2754 -0.3257
   57TMC2    C8  879   3.425   4.149  13.362  0.2613 -0.1317 -0.0755
   57TMC2    O1  880   3.878   3.946  13.328 -0.4065  0.3194  0.1783
   57TMC2    O2  881   3.315   4.181  13.415 -0.5435 -0.0660  0.1259
   57TMC2    O5  882   3.482   4.210  13.261 -0.3289  0.5837  0.2414
   57TMC2    H5  883   3.564   4.169  13.226  0.3015  2.2978 -0.2974
   58MPD2     C  884   3.242   3.388  13.902 -0.6497  0.2589 -0.0910
   58MPD2    C1  885   3.200   3.518  13.903  0.3497 -0.1945 -0.3025
   58MPD2    C2  886   3.258   3.596  13.810 -0.2544  0.5444 -0.2104
   58MPD2    C3  887   3.360   3.551  13.725  0.0777 -0.7928 -0.3178
   58MPD2    C4  888   3.409   3.425  13.746 -0.6421  0.8782  0.4343
   58MPD2    C5  889   3.340   3.341  13.824 -0.1886 -0.2016 -0.5946
   58MPD2     H  890   3.233   3.701  13.801  0.8731  0.7101 -1.3675
   58MPD2    H1  891   3.492   3.391  13.686 -0.5316  1.5895  0.1855
   58MPD2    H2  892   3.184   3.324  13.966 -1.4062  1.7046  0.6754
   58MPD2    H3  893   3.366   3.236  13.826 -0.3600 -0.1862  2.6173
   58MPD2     N  894   3.423   3.628  13.623 -0.0625  0.3081 -0.1161
   58MPD2    H5  895   3.505   3.586  13.582 -0.0054  0.8488 -0.5559
   58MPD2    N1  896   3.095   3.574  13.983  0.3782  0.5137  0.5292
   58MPD2    H7  897   3.073   3.670  13.959  1.6846  0.5847 -0.3877
   59MPD2     C  898   1.126   3.534  13.224  0.2888 -0.3469  0.7768
   59MPD2    C1  899   1.226   3.541  13.133  0.4432 -0.6411 -0.0019
   59MPD2    C2  900   1.344   3.605  13.165 -0.5157 -0.6297 -0.2485
   59MPD2    C3  901   1.377   3.628  13.301  0.1870 -0.4582  0.2426
   59MPD2    C4  902   1.275   3.623  13.392 -0.3655  1.0916 -0.5368
   59MPD2    C5  903   1.154   3.577  13.351  0.0615  0.2825 -0.2019
   59MPD2     H  904   1.405   3.633  13.080 -1.2060  0.6649 -0.3229
   59MPD2    H1  905   1.296   3.642  13.496 -3.5037  0.3917  0.2041
   59MPD2    H2  906   1.029   3.490  13.205 -1.1783  1.3811  4.2290
   59MPD2    H3  907   1.078   3.584  13.428  0.6389 -0.5060  0.4367
   59MPD2     N  908   1.502   3.664  13.345 -0.2061  0.0041 -0.1988
   59MPD2    H5  909   1.510   3.690  13.443 -1.2660  0.0770 -0.1369
   59MPD2    N1  910   1.190   3.516  12.999  0.4770 -0.6825 -0.0571
   59MPD2    H7  911   1.100   3.469  12.998  0.1115 -0.0183  1.3308
   60TCq2    C1  912   1.246   3.569  12.883  0.0753  0.8827 -0.0448
   60TCq2    O2  913   1.340   3.650  12.876  0.3269  0.0034  0.4812
   60TCq2    C2  914   1.204   3.498  12.763  0.7626 -0.5112  0.9883
   60TCq2    C3  915   1.138   3.375  12.777 -0.3296  0.4149  0.0312
   60TCq2    C4  916   1.080   3.315  12.669 -0.2688  0.1028 -0.2361
   60TCq2    C5  917   1.102   3.367  12.542 -0.7717 -0.6244  0.2266
   60TCq2    C6  918   1.174   3.479  12.524 -0.5540 -0.0040  0.8175
   60TCq2    C7  919   1.218   3.548  12.636 -0.5424 -0.1250  0.4347
   60TCq2    C8  920   1.221   3.528  12.392  0.0455  0.1594 -0.6885
   60TCq2    O4  921   1.242   3.458  12.292  0.0399 -0.2199  0.7648
   60TCq2    C9  922   0.996   3.203  12.700 -0.9755 -0.2222 -0.1428
   60TCq2    O5  923   0.953   3.152  12.596  0.5190  0.3257  0.4229
   60TCq2    O6  924   0.947   3.189  12.814 -0.1713  0.5931 -0.3294
   60TCq2    H2  925   1.131   3.319  12.869 -0.2905 -2.6990 -1.8688
   60TCq2    H3  926   1.070   3.306  12.459  2.7985  0.7623 -2.1903
   60TCq2    H4  927   1.259   3.649  12.640 -0.2649 -0.2678  1.2594
   61MPD2     C  928   0.801   0.166  14.884  0.1419  0.0316 -0.6125
   61MPD2    C1  929   0.857   0.267  14.960  0.8222  0.3437  0.1636
   61MPD2    C2  930   0.895   0.384  14.894 -0.0830 -0.5790 -0.5059
   61MPD2    C3  931   0.899   0.380  14.755 -0.0217 -0.2075  0.1219
   61MPD2    C4  932   0.854   0.278  14.677  1.2210 -0.2796  0.0338
   61MPD2    C5  933   0.802   0.174  14.748  0.6256  0.0714  0.2335
   61MPD2     H  934   0.930   0.476  14.938 -0.5891 -0.8696  0.5060
   61MPD2    H1  935   0.856   0.284  14.569 -1.3279  0.0829  0.0078
   61MPD2    H2  936   0.751   0.087  14.939  1.3110 -0.2526  0.0562
   61MPD2    H3  937   0.757   0.089  14.697 -0.0295  0.5755 -0.0235
   61MPD2     N  938   0.934   0.498  14.690 -0.1330 -0.2695  0.4343
   61MPD2    H5  939   0.912   0.497  14.591  0.2187 -0.6366  0.3582
   61MPD2    N1  940   0.852   0.269  15.103  0.7502 -0.2922  0.4781
   61MPD2    H7  941   0.870   0.359  15.146 -0.3030 -0.3644  1.0695
   62TCq2    C1  942   0.819   0.168  15.187 -0.5457  0.1686  0.2619
   62TCq2    O2  943   0.831   0.048  15.171 -0.2547 -0.2645  0.1889
   62TCq2    C2  944   0.824   0.228  15.318 -0.6350 -0.3063  0.2790
   62TCq2    C3  945   0.897   0.176  15.418 -0.2341 -0.4889 -0.1099
   62TCq2    C4  946   0.924   0.257  15.526  0.3568  0.5172 -0.2923
   62TCq2    C5  947   0.889   0.388  15.525  0.4025 -0.2351 -0.8730
   62TCq2    C6  948   0.810   0.440  15.422  0.2352  0.0294  0.1462
   62TCq2    C7  949   0.779   0.362  15.316 -0.8574 -0.6255 -0.2170
   62TCq2    C8  950   0.840   0.569  15.381 -0.7732  0.1029 -1.3481
   62TCq2    O4  951   0.841   0.586  15.261  0.7713  0.0283  0.1901
   62TCq2    C9  952   0.981   0.195  15.643  0.9431 -0.5475  0.4955
   62TCq2    O5  953   0.997   0.265  15.744  0.0643  0.0288  0.4709
   62TCq2    O6  954   1.019   0.076  15.636 -0.5843 -1.1950 -0.3992
   62TCq2    H2  955   0.934   0.074  15.414 -0.9207 -0.8144  1.7774
   62TCq2    H3  956   0.921   0.437  15.616  1.1785  1.2987 -1.9573
   62TCq2    H4  957   0.713   0.400  15.239  1.4306  0.5893 -1.5994
   63TMC2    C1  958   0.275   0.465  10.846  0.3447 -0.0001  0.2707
   63TMC2    C2  959   0.377   0.435  10.933  0.4516 -0.2667 -0.4949
   63TMC2    C3  960   0.508   0.451  10.888  0.2453  0.6253 -0.0561
   63TMC2    C4  961   0.303   0.513  10.723  0.4322 -0.6695  0.1012
   63TMC2    C5  962   0.428   0.538  10.684  0.6329  0.4271  0.3377
   63TMC2    C6  963   0.531   0.520  10.775 -0.1813  0.1959 -0.6804
   63TMC2     C  964   0.138   0.455  10.906 -0.1340  0.0794 -0.3426
   63TMC2     O  965   0.124   0.437  11.025  0.0008  0.0581 -0.3778
   63TMC2     H  966   0.351   0.386  11.026  1.3916 -1.0939 -0.6665
   63TMC2    H1  967   0.220   0.547  10.662  2.0601  2.2752 -0.4961
   63TMC2    H2  968   0.634   0.537  10.746  0.3796  1.3112  2.0450
   63TMC2    C7  969   0.433   0.631  10.568 -0.0645 -0.0715  0.2485
   63TMC2    C8  970   0.620   0.398  10.971 -0.2200 -0.2437 -0.3455
   63TMC2    O1  971   0.344   0.622  10.480  0.3888  0.5873  0.2846
   63TMC2    O2  972   0.735   0.422  10.934  0.0604 -0.0269  0.4125
   63TMC2    O5  973   0.577   0.411  11.100  0.5277 -0.8244 -0.0265
   63TMC2    H5  974   0.483   0.400  11.125  0.0690  0.2250 -1.2577
   64MPD2     C  975   4.373   0.320  10.816  0.5601 -0.6702 -0.3653
   64MPD2    C1  976   4.442   0.298  10.704 -0.0294  0.1996  0.8290
   64MPD2    C2  977   4.574   0.343  10.705  0.8509  0.2928 -0.1870
   64MPD2    C3  978   4.632   0.397  10.818 -0.3050  0.9688  0.2846
   64MPD2    C4  979   4.560   0.412  10.936  0.3663  0.0274 -0.5479
   64MPD2    C5  980   4.430   0.367  10.938 -0.0094  0.4608 -0.4333
   64MPD2     H  981   4.621   0.317  10.611  0.9998  3.0037 -0.8557
   64MPD2    H1  982   4.605   0.451  11.027  0.8445  0.8467 -1.1404
   64MPD2    H2  983   4.269   0.289  10.818  0.6050 -0.7713  0.6225
   64MPD2    H3  984   4.384   0.360  11.036  0.2078 -0.3455 -0.3874
   64MPD2     N  985   0.049   0.433  10.803 -0.3171 -0.2715 -0.4985
   64MPD2    H5  986   0.085   0.440  10.708  4.0840  0.4619  1.1979
   64MPD2    N1  987   4.393   0.213  10.601 -0.5095 -0.3444  0.1685
   64MPD2    H7  988   4.447   0.212  10.515 -2.3570  1.6922 -1.0170
   65MPD2     C  989   1.428   4.477  15.819 -0.1038 -0.5803 -0.8866
   65MPD2    C1  990   1.389   4.379  15.732 -0.5203 -0.1966  0.6388
   65MPD2    C2  991   1.331   4.267  15.785 -0.6032 -0.2555 -0.0310
   65MPD2    C3  992   1.301   4.255  15.921 -0.6068 -0.8506  0.4205
   65MPD2    C4  993   1.342   4.358  15.998  0.2127 -0.2680  0.0609
   65MPD2    C5  994   1.405   4.470  15.949 -0.0704 -0.2076 -0.3225
   65MPD2     H  995   1.292   4.191  15.719 -0.0004 -0.3996 -0.2112
   65MPD2    H1  996   1.334   4.349  16.106  1.2348 -1.0799  0.0659
   65MPD2    H2  997   1.456   4.580  15.797  1.4316 -1.0625 -1.2345
   65MPD2    H3  998   1.454   4.541  16.013 -1.9772  0.0396  0.8528
   65MPD2     N  999   1.237   4.143  15.978  0.2586  0.3367 -0.3631
   65MPD2    H5 1000   1.226   4.138  16.079 -0.5064  0.9625 -0.4161
   65MPD2    N1 1001   1.404   4.380  15.592  0.0613 -0.4452  0.0551
   65MPD2    H7 1002   1.346   4.320  15.534 -0.3023 -1.0069  1.0015
   66TCq2    C1 1003   1.479   4.471  15.533 -0.1159  0.5877 -0.0301
   66TCq2    O2 1004   1.568   4.545  15.569 -0.2566  0.4602  0.1353
   66TCq2    C2 1005   1.461   4.484  15.392 -0.4845  0.5885  0.2969
   66TCq2    C3 1006   1.426   4.371  15.314 -0.0575  0.4944 -0.2340
   66TCq2    C4 1007   1.346   4.389  15.206 -0.0481  0.2051 -0.2119
   66TCq2    C5 1008   1.282   4.505  15.169  0.1974  0.8982  0.2664
   66TCq2    C6 1009   1.315   4.616  15.246  0.6220 -0.1771 -0.0808
   66TCq2    C7 1010   1.399   4.606  15.357  0.4662 -0.0610 -0.3220
   66TCq2    C8 1011   1.251   0.025  15.212 -0.5155 -0.5750 -0.3551
   66TCq2    O4 1012   1.190   0.028  15.104 -0.4138  0.1397 -0.0091
   66TCq2    C9 1013   1.324   4.275  15.118 -0.0179  1.0758 -0.1309
   66TCq2    O5 1014   1.339   4.159  15.161 -0.1779  0.5958  0.0922
   66TCq2    O6 1015   1.268   4.294  15.006  0.5178  0.1326  0.3361
   66TCq2    H2 1016   1.436   4.266  15.340  0.7594  1.1978  2.2750
   66TCq2    H3 1017   1.219   4.516  15.082  2.6531  0.4993 -1.5801
   66TCq2    H4 1018   1.439   4.696  15.403 -0.7787  0.0496  0.5379
   67MPD2     C 1019   1.612   3.726  14.286  0.3194  0.2470  0.4026
   67MPD2    C1 1020   1.506   3.727  14.375 -0.3278 -0.4525 -0.4880
   67MPD2    C2 1021   1.382   3.762  14.332 -0.4757  0.0378 -0.6537
   67MPD2    C3 1022   1.362   3.795  14.199  0.2447 -0.1753  0.9181
   67MPD2    C4 1023   1.466   3.794  14.110  0.4475  0.4163  0.4590
   67MPD2    C5 1024   1.588   3.759  14.160  0.9786 -0.9782  0.3399
   67MPD2     H 1025   1.297   3.767  14.399  0.6459  1.4809  0.6586
   67MPD2    H1 1026   1.439   3.807  14.006  1.3421 -0.1363  0.1621
   67MPD2    H2 1027   1.714   3.695  14.304  0.4739  0.5214  0.0047
   67MPD2    H3 1028   1.680   3.744  14.104  0.5182  0.3576 -0.7706
   67MPD2     N 1029   1.238   3.828  14.146  0.1369  0.5845  0.6900
   67MPD2    H5 1030   1.238   3.889  14.064  1.5588  0.2746  0.4557
   67MPD2    N1 1031   1.516   3.693  14.512 -0.0547  0.8076 -0.6724
   67MPD2    H7 1032   1.430   3.705  14.564  1.4436  0.5784  1.8528
   68TCq2    C1 1033   1.632   3.684  14.585  0.0823  0.6550 -0.4837
   68TCq2    O2 1034   1.746   3.701  14.545  0.1874  0.0245  0.4634
   68TCq2    C2 1035   1.599   3.719  14.720  0.0162 -0.0228  0.2098
   68TCq2    C3 1036   1.473   3.711  14.763 -0.2950 -0.0144  0.0052
   68TCq2    C4 1037   1.440   3.782  14.873  1.2972 -0.0771  0.0222
   68TCq2    C5 1038   1.534   3.858  14.934 -0.1103  0.0941 -0.8317
   68TCq2    C6 1039   1.660   3.857  14.888  1.3889  0.2709 -0.1147
   68TCq2    C7 1040   1.697   3.795  14.775 -0.3116 -0.2116  0.3273
   68TCq2    C8 1041   1.772   3.933  14.953 -0.3339 -0.0384  0.1480
   68TCq2    O4 1042   1.878   3.929  14.892  0.5021  0.4298 -0.3906
   68TCq2    C9 1043   1.322   3.749  14.944 -0.5173 -0.5307  0.0050
   68TCq2    O5 1044   1.291   3.630  14.951  0.2360 -0.7055 -0.8344
   68TCq2    O6 1045   1.282   3.843  15.022  0.2143 -0.0709 -0.5483
   68TCq2    H2 1046   1.418   3.625  14.726  1.2741 -0.3419 -1.5740
   68TCq2    H3 1047   1.519   3.889  15.037  0.9242 -1.8647 -0.0888
   68TCq2    H4 1048   1.798   3.799  14.736 -0.6364  0.3902 -0.4578
   69TMC2    C1 1049   3.482   0.175  11.935 -0.2569  0.2957  0.2269
   69TMC2    C2 1050   3.380   0.156  11.850 -0.2012 -0.5021  0.1453
   69TMC2    C3 1051   3.403   0.164  11.717  0.1128 -0.0450 -0.2608
   69TMC2    C4 1052   3.610   0.169  11.897 -0.2103 -0.0876 -0.1644
   69TMC2    C5 1053   3.633   0.173  11.761  0.5395 -0.6046 -0.0676
   69TMC2    C6 1054   3.529   0.187  11.671  0.1465  0.6502  0.2826
   69TMC2     C 1055   3.449   0.174  12.079 -0.5244 -0.4613 -0.5786
   69TMC2     O 1056   3.353   0.113  12.122  0.7726 -0.2325 -0.1030
   69TMC2     H 1057   3.288   0.123  11.897  1.2213 -0.7534  2.7279
   69TMC2    H1 1058   3.692   0.148  11.965 -0.2389  0.8655  0.1672
   69TMC2    H2 1059   3.546   0.195  11.564  1.1751 -1.3329  0.3002
   69TMC2    C7 1060   3.754   0.120  11.712  0.4253 -0.4396  0.1744
   69TMC2    C8 1061   3.330   0.064  11.640 -0.7063 -0.1622  0.2985
   69TMC2    O1 1062   3.858   0.162  11.759 -0.2058  0.3507  0.9683
   69TMC2    O2 1063   3.393   4.702  11.580  0.3113  0.3095 -0.1313
   69TMC2    O5 1064   3.203   0.061  11.687 -0.0684  0.3410  0.6180
   69TMC2    H5 1065   3.182   0.152  11.717  2.4472  0.5755  1.5972
   70MPD2     C 1066   3.676   0.306  12.334 -0.2572  1.0496  0.0169
   70MPD2    C1 1067   3.552   0.258  12.285 -0.2796  0.0464 -0.1754
   70MPD2    C2 1068   3.440   0.254  12.369 -0.6227  0.0647  0.6922
   70MPD2    C3 1069   3.459   0.280  12.506  0.1576 -1.1264  0.4920
   70MPD2    C4 1070   3.585   0.314  12.553 -0.0397 -0.5244 -0.2481
   70MPD2    C5 1071   3.689   0.326  12.466  0.2103  0.1381 -0.0180
   70MPD2     H 1072   3.346   0.244  12.317  0.7461  0.0873 -1.7920
   70MPD2    H1 1073   3.600   0.326  12.660  0.6268  2.3845 -0.6621
   70MPD2    H2 1074   3.760   0.326  12.268 -0.6095 -0.2801 -0.8298
   70MPD2    H3 1075   3.782   0.375  12.494  0.8582 -0.8966 -0.3688
   70MPD2     N 1076   3.356   0.292  12.608 -0.8959  0.1613 -0.2294
   70MPD2    H5 1077   3.384   0.332  12.696 -1.3432 -0.8438  0.3712
   70MPD2    N1 1078   3.543   0.241  12.146 -0.6217  0.3741  0.1735
   70MPD2    H7 1079   3.626   0.277  12.100  0.2628 -1.4970  0.2641
   71TMC2    C1 1080   2.425   0.801   1.859 -0.5082 -0.3914 -0.4161
   71TMC2    C2 1081   2.534   0.799   1.943  0.4457 -0.1080  0.3317
   71TMC2    C3 1082   2.507   0.789   2.073  0.2247 -0.6390  0.1422
   71TMC2    C4 1083   2.296   0.798   1.908 -0.5187  0.1501  0.4050
   71TMC2    C5 1084   2.271   0.787   2.040  0.0365 -0.0776  0.6988
   71TMC2    C6 1085   2.380   0.783   2.128 -0.3095 -1.0254 -0.5574
   71TMC2     C 1086   2.438   0.841   1.721  0.2133  0.1373 -0.7232
   71TMC2     O 1087   2.342   0.888   1.658  0.4811 -0.2253 -0.4948
   71TMC2     H 1088   2.635   0.808   1.904  1.1631 -1.9580  1.7923
   71TMC2    H1 1089   2.218   0.804   1.832 -1.3395 -0.6357  1.1846
   71TMC2    H2 1090   2.363   0.775   2.235  0.8269 -0.7785 -0.3609
   71TMC2    C7 1091   2.136   0.765   2.085  0.0054 -0.0829  0.7113
   71TMC2    C8 1092   2.626   0.790   2.151 -0.1187  0.8736 -0.5147
   71TMC2    O1 1093   2.128   0.757   2.206 -0.1570  0.1200  0.1435
   71TMC2    O2 1094   2.731   0.758   2.098 -0.3426  0.2054 -0.0697
   71TMC2    O5 1095   2.610   0.871   2.259 -0.3881 -0.4418 -0.2233
   71TMC2    H5 1096   2.521   0.911   2.263 -1.1949 -1.9911 -2.2902
   72MPD2     C 1097   2.725   0.877   1.286  0.7283 -0.0473  0.4003
   72MPD2    C1 1098   2.622   0.958   1.334 -0.0128 -0.7132  0.6362
   72MPD2    C2 1099   2.561   0.938   1.458 -0.2301  0.1941  0.4683
   72MPD2    C3 1100   2.610   0.836   1.542 -0.9472  0.2451  0.4666
   72MPD2    C4 1101   2.714   0.762   1.494 -0.9160 -0.1044  0.1904
   72MPD2    C5 1102   2.762   0.772   1.366  0.8101 -0.4200 -0.2294
   72MPD2     H 1103   2.484   1.004   1.498 -1.2006  0.1387 -1.3456
   72MPD2    H1 1104   2.751   0.686   1.561 -1.8846  0.7247  1.6512
   72MPD2    H2 1105   2.774   0.881   1.190  0.4009  3.1478  0.3966
   72MPD2    H3 1106   2.843   0.706   1.337  0.9806  0.8688 -2.6559
   72MPD2     N 1107   2.567   0.815   1.672  0.1163  0.1489  0.3017
   72MPD2    H5 1108   2.637   0.765   1.726 -1.3445 -1.9431  0.2551
   72MPD2    N1 1109   2.565   1.057   1.250 -0.5200  0.3985 -0.3907
   72MPD2    H7 1110   2.476   1.095   1.279 -0.1894 -0.1508  1.3570
   73TMC2    C1 1111   0.700   2.785  14.377  0.0363 -0.3369 -0.5700
   73TMC2    C2 1112   0.690   2.890  14.466 -0.7870 -0.0020  0.0905
   73TMC2    C3 1113   0.766   2.882  14.588 -1.0540  0.4758 -0.0545
   73TMC2    C4 1114   0.781   2.681  14.403 -0.2259 -0.1971 -0.3394
   73TMC2    C5 1115   0.876   2.693  14.495 -0.5349 -0.5283  0.6971
   73TMC2    C6 1116   0.873   2.798  14.588  0.2545 -0.0854  0.6360
   73TMC2     C 1117   0.708   2.828  14.240  0.2994  0.3766 -0.4753
   73TMC2     O 1118   0.789   2.763  14.178  0.2046  0.5342  0.0589
   73TMC2     H 1119   0.637   2.983  14.449  0.6975  0.7729 -0.2703
   73TMC2    H1 1120   0.787   2.594  14.339 -1.0545 -0.3186 -0.2425
   73TMC2    H2 1121   0.943   2.809  14.670  0.1605  1.9799  0.4180
   73TMC2    C7 1122   1.011   2.668  14.447 -0.2901 -0.2339  0.3981
   73TMC2    C8 1123   0.743   2.967  14.701 -0.5111 -0.0246  0.5369
   73TMC2    O1 1124   1.092   2.638  14.529 -0.1529 -0.2113 -0.1288
   73TMC2    O2 1125   0.829   3.004  14.778 -0.3336  0.1220 -0.3361
   73TMC2    O5 1126   0.617   2.940  14.736  1.4228  0.2843 -0.1042
   73TMC2    H5 1127   0.564   2.903  14.662 -0.0754  3.4118 -0.6182
   74MPD2     C 1128   0.613   3.068  13.798  0.9460 -0.1029  0.3917
   74MPD2    C1 1129   0.716   2.982  13.836 -0.1389 -0.1352 -0.0842
   74MPD2    C2 1130   0.729   2.943  13.972  0.2239 -0.0965  0.1715
   74MPD2    C3 1131   0.630   2.982  14.067  0.1425  0.0253 -0.4356
   74MPD2    C4 1132   0.528   3.064  14.026  0.5000 -0.5956 -0.1688
   74MPD2    C5 1133   0.520   3.109  13.892 -0.4542 -0.6514 -0.0989
   74MPD2     H 1134   0.827   2.908  14.000  2.0988  3.4024 -2.0061
   74MPD2    H1 1135   0.442   3.080  14.089  0.6808 -0.8884  0.1473
   74MPD2    H2 1136   0.604   3.103  13.696  2.7380  1.3326  0.7385
   74MPD2    H3 1137   0.433   3.166  13.864  0.4440  0.4466 -0.6740
   74MPD2     N 1138   0.628   2.935  14.199  0.7694 -0.6266 -0.0007
   74MPD2    H5 1139   0.547   2.963  14.253  0.2152 -2.0635 -0.0784
   74MPD2    N1 1140   0.809   2.933  13.735 -0.0898 -0.5984  0.1414
   74MPD2    H7 1141   0.798   2.979  13.645 -0.4865 -1.0986 -0.0613
   75TCq2    C1 1142   1.114   3.790  14.195  0.3323  0.2396  0.5886
   75TCq2    O2 1143   1.091   3.713  14.288  0.3888 -0.5790 -0.5652
   75TCq2    C2 1144   0.997   3.831  14.121 -0.3389 -0.0320 -0.3386
   75TCq2    C3 1145   0.877   3.774  14.166 -0.9457  0.2601  0.0972
   75TCq2    C4 1146   0.755   3.831  14.128 -0.3385  0.1239 -0.2069
   75TCq2    C5 1147   0.751   3.946  14.061  0.2578 -0.0717 -0.1319
   75TCq2    C6 1148   0.868   3.993  14.012 -0.2545 -0.8873  0.5450
   75TCq2    C7 1149   0.994   3.942  14.036  0.5506 -0.2382  0.1800
   75TCq2    C8 1150   0.848   4.101  13.917 -0.0515 -0.3189  0.1241
   75TCq2    O4 1151   0.933   4.185  13.926  0.2091  0.1262  0.0921
   75TCq2    C9 1152   0.624   3.773  14.169  0.0881 -0.3250  0.9540
   75TCq2    O5 1153   0.524   3.814  14.105 -0.0268 -0.0641  0.0532
   75TCq2    O6 1154   0.621   3.697  14.272 -0.0757  0.4853  0.3261
   75TCq2    H2 1155   0.870   3.675  14.210 -1.1726 -0.7105 -2.1598
   75TCq2    H3 1156   0.656   3.988  14.032  0.5061 -1.6390 -3.3477
   75TCq2    H4 1157   1.079   4.003  14.008  1.5163 -1.1772  1.0531
   76MPD2     C 1158   0.186   4.684  11.727  0.2716 -0.0170  0.2275
   76MPD2    C1 1159   0.058   4.647  11.753 -0.9564 -0.5438  0.7763
   76MPD2    C2 1160   0.039   4.536  11.845 -0.2400 -0.2756 -0.8663
   76MPD2    C3 1161   0.149   4.468  11.906  0.7046  0.9996 -0.5797
   76MPD2    C4 1162   0.277   4.518  11.885 -0.4826  0.6578 -0.3839
   76MPD2    C5 1163   0.292   4.616  11.793  0.2389  0.6298 -0.1023
   76MPD2     H 1164   4.661   4.503  11.876 -0.8185  0.1557 -2.2195
   76MPD2    H1 1165   0.366   4.478  11.931  0.1293  1.3639 -0.9481
   76MPD2    H2 1166   0.223   0.028  11.648 -1.7370  1.2902  0.3650
   76MPD2    H3 1167   0.393   4.649  11.775  0.3863  1.2460  1.8939
   76MPD2     N 1168   0.127   4.383  12.016  0.5968  0.1412 -0.8374
   76MPD2    H5 1169   0.216   4.359  12.058  0.3756 -0.4741 -0.7124
   76MPD2    N1 1170   4.664   4.701  11.682 -0.4172 -0.1490 -0.0848
   76MPD2    H7 1171   4.578   4.652  11.703 -0.3743 -0.2693 -0.1900
   77TCq2    C1 1172   0.006   4.334  12.058 -0.0570  0.1113 -0.3417
   77TCq2    O2 1173   4.618   4.330  12.005  0.4193 -0.1168 -0.4092
   77TCq2    C2 1174   0.013   4.270  12.191  0.3778 -0.1624  0.7375
   77TCq2    C3 1175   4.649   4.168  12.213 -0.2650 -0.5746  0.1077
   77TCq2    C4 1176   4.679   4.078  12.309  0.2596 -1.0759 -0.8338
   77TCq2    C5 1177   0.075   4.094  12.377 -0.6331 -0.2840 -0.5197
   77TCq2    C6 1178   0.158   4.197  12.356 -0.2878 -0.0022 -0.8508
   77TCq2    C7 1179   0.137   4.286  12.255 -0.5427 -0.1665  0.2051
   77TCq2    C8 1180   0.284   4.188  12.419  0.5756  0.2429  0.0805
   77TCq2    O4 1181   0.318   4.070  12.435 -0.0092  0.4942  0.1902
   77TCq2    C9 1182   4.596   3.954  12.328 -0.1487 -0.7826  0.5907
   77TCq2    O5 1183   4.496   3.930  12.255  0.0830 -0.1553  0.4939
   77TCq2    O6 1184   4.654   3.866  12.400  0.1955 -0.1041 -0.9387
   77TCq2    H2 1185   4.562   4.145  12.153 -2.6121 -2.0471  4.1540
   77TCq2    H3 1186   0.098   4.017  12.449 -0.7496  0.7309  0.6049
   77TCq2    H4 1187   0.213   4.354  12.219  2.2647 -2.3418  2.1330
   78MPD1     C 1188   0.413   0.040   1.832 -0.2747  0.8001  0.2474
   78MPD1    C1 1189   0.491   0.086   1.727 -0.3814 -0.4989  0.4819
   78MPD1    C2 1190   0.615   0.145   1.749  0.8148 -0.1838  0.5314
   78MPD1    C3 1191   0.657   0.166   1.879 -0.3908 -0.1897  0.4915
   78MPD1    C4 1192   0.577   0.128   1.984 -0.0150  0.0409  0.3081
   78MPD1    C5 1193   0.457   0.070   1.957  0.3862  0.6217 -1.3615
   78MPD1     H 1194   0.675   0.165   1.661 -1.4786  1.2025 -0.7172
   78MPD1    H1 1195   0.612   0.141   2.086  1.7869  3.4933 -0.7576
   78MPD1    H2 1196   0.320   4.708   1.813  0.1081  0.2985 -0.2171
   78MPD1    H3 1197   0.393   0.050   2.042  1.6750 -0.6824 -0.7141
   78MPD1     N 1198   0.777   0.229   1.908 -0.4406  0.0333 -0.1446
   78MPD1    H5 1199   0.807   0.216   2.004 -0.8098 -1.2205 -0.2016
   78MPD1    N1 1200   0.463   0.031   1.599 -0.2768  0.1656 -0.1978
   78MPD1    H6 1201   0.498   0.075   1.514  3.5268  0.5060  1.5541
   78MPD1    H7 1202   0.364   0.013   1.581 -0.4691 -0.0439  1.0809
   79TCq2    C1 1203   0.863   0.283   1.820 -0.5133 -0.4993 -0.0318
   79TCq2    O2 1204   0.836   0.309   1.702 -0.5937  0.4448 -0.1242
   79TCq2    C2 1205   0.996   0.319   1.882 -0.4790 -0.0674 -0.4443
   79TCq2    C3 1206   1.007   0.315   2.012 -0.6027  0.9271  0.1509
   79TCq2    C4 1207   1.120   0.359   2.065  0.1516 -0.7678  0.4285
   79TCq2    C5 1208   1.221   0.401   1.990  1.1094  0.2910  0.5601
   79TCq2    C6 1209   1.210   0.412   1.854 -0.5329  0.0468  1.0694
   79TCq2    C7 1210   1.091   0.371   1.800 -0.8275  0.3829 -0.7006
   79TCq2    C8 1211   1.330   0.450   1.785  0.7849  0.1499  0.0697
   79TCq2    O4 1212   1.432   0.456   1.849 -0.2600  0.4712 -0.1695
   79TCq2    C9 1213   1.151   0.330   2.200 -0.3025  0.3698 -0.4033
   79TCq2    O5 1214   1.063   0.277   2.275 -0.2370 -0.9891  0.1266
   79TCq2    O6 1215   1.266   0.360   2.243  0.0775  0.4876  0.2269
   79TCq2    H2 1216   0.942   0.266   2.084 -0.4673  0.5909  0.0477
   79TCq2    H3 1217   1.313   0.429   2.040  0.3831  2.1419  0.8659
   79TCq2    H4 1218   1.073   0.366   1.693 -0.9632  1.4647 -0.7249
   80MPD2     C 1219   3.483   4.185  12.676  0.1228  0.0386 -0.4830
   80MPD2    C1 1220   3.405   4.222  12.569  0.3387  0.2597  0.3793
   80MPD2    C2 1221   3.268   4.206  12.580 -0.1862  0.7317  0.5601
   80MPD2    C3 1222   3.219   4.150  12.698 -0.7001 -0.2704 -0.5585
   80MPD2    C4 1223   3.301   4.113  12.801  0.0820  0.9060  1.2062
   80MPD2    C5 1224   3.434   4.135  12.787  0.0687  0.0122 -0.4843
   80MPD2     H 1225   3.200   4.228  12.498 -1.6707  0.4165  1.7061
   80MPD2    H1 1226   3.261   4.077  12.895  3.1828 -2.6630  1.1533
   80MPD2    H2 1227   3.591   4.185  12.669  0.0643 -0.3065 -1.3610
   80MPD2    H3 1228   3.504   4.107  12.865 -1.6264 -2.1959  0.2673
   80MPD2     N 1229   3.081   4.138  12.720 -0.4027 -0.0508  0.5086
   80MPD2    H5 1230   3.054   4.110  12.814  0.7201 -3.1829 -0.1071
   80MPD2    N1 1231   3.459   4.257  12.440 -0.6243  0.0497  0.7065
   80MPD2    H7 1232   3.390   4.255  12.366 -0.8332 -0.3833  0.9183
   81TCq2    C1 1233   3.588   4.272  12.408 -0.1590  0.2646  0.2538
   81TCq2    O2 1234   3.677   4.312  12.485  0.3016 -0.4967 -0.6243
   81TCq2    C2 1235   3.613   4.262  12.268  0.6395 -0.2452 -1.6472
   81TCq2    C3 1236   3.744   4.294  12.228 -0.1630  0.3473  0.0962
   81TCq2    C4 1237   3.772   4.276  12.092 -0.3174 -0.1645 -0.2722
   81TCq2    C5 1238   3.684   4.211  12.009  0.2044 -0.0462 -0.7173
   81TCq2    C6 1239   3.560   4.181  12.056  0.2705  0.3190 -0.0141
   81TCq2    C7 1240   3.523   4.198  12.188  0.3916 -0.0762 -0.0300
   81TCq2    C8 1241   3.494   4.076  11.982  0.3394  0.2687 -0.2086
   81TCq2    O4 1242   3.502   4.077  11.857  0.3597 -0.0506 -0.0124
   81TCq2    C9 1243   3.910   4.306  12.046 -0.2663 -0.2827 -0.1336
   81TCq2    O5 1244   3.942   4.272  11.932 -0.7748  0.1504 -0.7159
   81TCq2    O6 1245   3.990   4.358  12.128 -0.1922  0.4174  0.1418
   81TCq2    H2 1246   3.810   4.347  12.295  0.8882 -1.9651  0.8923
   81TCq2    H3 1247   3.713   4.188  11.907 -2.0197 -0.4006 -1.2599
   81TCq2    H4 1248   3.427   4.160  12.222  0.1323  2.1499  1.7391
   82MPD2     C 1249   1.231   3.903  10.760 -0.1761 -0.3035 -0.0619
   82MPD2    C1 1250   1.238   3.782  10.694  0.7109 -0.0267 -0.2917
   82MPD2    C2 1251   1.348   3.702  10.694  0.1001  0.3539 -0.1216
   82MPD2    C3 1252   1.461   3.751  10.758  0.0944  0.3648  0.1540
   82MPD2    C4 1253   1.454   3.870  10.819  0.4170  0.3515 -0.0450
   82MPD2    C5 1254   1.344   3.944  10.828  0.2935  0.1691  0.0529
   82MPD2     H 1255   1.354   3.612  10.634 -1.2584  0.8237 -0.9765
   82MPD2    H1 1256   1.536   3.909  10.878  0.2883  0.0544  0.3303
   82MPD2    H2 1257   1.150   3.974  10.752  0.3613  0.5456  1.9140
   82MPD2    H3 1258   1.337   4.044  10.868 -1.9407  0.2155 -0.4571
   82MPD2     N 1259   1.591   3.691  10.753 -0.2266 -0.3185  0.6379
   82MPD2    H5 1260   1.663   3.724  10.816  0.3784  1.5612 -1.0115
   82MPD2    N1 1261   1.130   3.746  10.618  0.1998 -0.0860 -0.9703
   82MPD2    H7 1262   1.069   3.823  10.590 -0.5828 -0.9392 -1.6150
   83TCq2    C1 1263   1.622   3.589  10.670 -0.1044 -0.3277 -0.0894
   83TCq2    O2 1264   1.556   3.556  10.568  0.6379 -0.1264  0.2743
   83TCq2    C2 1265   1.747   3.521  10.702 -0.3515 -0.3254  0.4063
   83TCq2    C3 1266   1.848   3.581  10.771  0.3309  0.0557  0.4130
   83TCq2    C4 1267   1.933   3.503  10.842 -0.2733 -0.3627  0.1252
   83TCq2    C5 1268   1.936   3.360  10.817 -0.3408 -0.4906  0.9567
   83TCq2    C6 1269   1.830   3.302  10.744  0.0073  0.2978 -0.3476
   83TCq2    C7 1270   1.736   3.385  10.695 -0.2167 -0.4054  0.2535
   83TCq2    C8 1271   1.795   3.163  10.775 -0.4227  0.0605  0.3426
   83TCq2    O4 1272   1.849   3.107  10.865 -0.0220  0.0661  0.2709
   83TCq2    C9 1273   2.026   3.560  10.934  0.2321 -0.2890  0.4955
   83TCq2    O5 1274   1.980   3.678  10.965  0.0416  0.0131 -0.1925
   83TCq2    O6 1275   2.127   3.497  10.977 -0.1705 -0.2352  0.2776
   83TCq2    H2 1276   1.853   3.688  10.785 -2.2645  0.2212 -0.0091
   83TCq2    H3 1277   2.007   3.295  10.865  1.0437  2.0962  2.4047
   83TCq2    H4 1278   1.639   3.348  10.662  0.3576  0.0557 -1.9458
   84TCq2    C1 1279   2.908   2.654  10.410 -0.0941  0.5106 -0.2577
   84TCq2    O2 1280   2.828   2.616  10.494 -0.4517 -0.5057 -0.4211
   84TCq2    C2 1281   3.027   2.722  10.460  0.7309 -0.1563  0.4439
   84TCq2    C3 1282   3.089   2.817  10.380  0.4236  0.6811 -0.9245
   84TCq2    C4 1283   3.191   2.894  10.436 -0.2253  0.1370  0.5105
   84TCq2    C5 1284   3.226   2.865  10.564  0.6032 -0.2839 -0.4947
   84TCq2    C6 1285   3.159   2.772  10.642 -0.3278  0.4528  0.1194
   84TCq2    C7 1286   3.052   2.705  10.593  0.0331 -0.4474 -0.5000
   84TCq2    C8 1287   3.162   2.782  10.785 -0.2204 -0.5004 -0.4210
   84TCq2    O4 1288   3.059   2.788  10.847  0.1660  0.1368  0.0121
   84TCq2    C9 1289   3.259   2.997  10.365 -0.0946  0.1275  0.4008
   84TCq2    O5 1290   3.183   3.075  10.301  0.0986 -0.8477 -0.2019
   84TCq2    O6 1291   3.378   3.024  10.402 -0.2390 -0.1656 -0.1143
   84TCq2    H2 1292   3.076   2.830  10.274 -1.8664 -0.4293 -0.7827
   84TCq2    H3 1293   3.308   2.928  10.596 -0.1948  0.3533  0.2829
   84TCq2    H4 1294   2.999   2.625  10.644 -0.5074  0.2506  0.0322
   85MPD2     C 1295   3.829   0.484  16.281 -0.4403  0.7662  0.0735
   85MPD2    C1 1296   3.712   0.507  16.210 -0.3247 -0.0655 -0.1976
   85MPD2    C2 1297   3.715   0.613  16.121 -0.1286  0.1968 -0.4089
   85MPD2    C3 1298   3.813   0.713  16.124 -0.3724 -0.6903  0.3038
   85MPD2    C4 1299   3.918   0.687  16.208 -0.1457 -0.6764 -0.2816
   85MPD2    C5 1300   3.928   0.570  16.284 -0.7302  0.6537  0.2572
   85MPD2     H 1301   3.630   0.631  16.056 -0.9414  0.0523  0.6019
   85MPD2    H1 1302   3.995   0.756  16.241 -0.2834 -1.1347  0.9959
   85MPD2    H2 1303   3.843   0.396  16.343 -1.8673 -0.5484 -1.4506
   85MPD2    H3 1304   4.006   0.549  16.356 -0.0953 -0.3814 -0.7452
   85MPD2     N 1305   3.798   0.829  16.039  0.3696  0.4043 -0.5620
   85MPD2    H5 1306   3.705   0.840  16.001  0.8974 -0.2875 -2.0293
   85MPD2    N1 1307   3.605   0.416  16.203  0.0714  0.0416 -0.2382
   85MPD2    H7 1308   3.542   0.424  16.124 -0.2176 -0.9775 -0.1151
   86TCq2    C1 1309   3.901   0.922  16.022  0.2437  0.2642 -0.3255
   86TCq2    O2 1310   4.022   0.899  16.046 -0.0867 -0.1515  0.7514
   86TCq2    C2 1311   3.873   1.023  15.917 -0.1738 -0.0025 -0.4188
   86TCq2    C3 1312   3.983   1.084  15.868 -0.3944 -0.1354 -0.4843
   86TCq2    C4 1313   3.975   1.133  15.738  0.5815 -0.2034  0.3090
   86TCq2    C5 1314   3.866   1.119  15.661  0.7001 -1.1480  0.5213
   86TCq2    C6 1315   3.759   1.068  15.722 -0.0685  0.4733  0.4845
   86TCq2    C7 1316   3.755   1.030  15.856 -0.0343  0.2058  0.1260
   86TCq2    C8 1317   3.631   1.058  15.661 -0.0881  0.0535 -0.1851
   86TCq2    O4 1318   3.532   1.047  15.731  0.4469 -0.0523 -0.5869
   86TCq2    C9 1319   4.092   1.195  15.675  0.1206 -0.6102  0.1421
   86TCq2    O5 1320   4.074   1.240  15.560  0.5258  0.0676 -0.1182
   86TCq2    O6 1321   4.206   1.186  15.733  0.1899  0.2601 -0.2677
   86TCq2    H2 1322   4.077   1.094  15.919 -0.9371  4.0838 -0.3510
   86TCq2    H3 1323   3.864   1.152  15.557 -1.1038 -2.4460  0.1381
   86TCq2    H4 1324   3.663   1.006  15.909 -0.2215 -1.2247 -0.8559
   87MPD2     C 1325   0.873   4.044   1.595 -0.7374  0.0635  0.2295
   87MPD2    C1 1326   0.889   4.088   1.469  0.5802 -0.6169  0.1641
   87MPD2    C2 1327   0.849   4.215   1.425  0.6234  0.1736 -0.3756
   87MPD2    C3 1328   0.805   4.307   1.518 -0.4956  0.7855 -0.3177
   87MPD2    C4 1329   0.786   4.251   1.642 -0.3658 -0.6047  0.3807
   87MPD2    C5 1330   0.808   4.127   1.680 -0.3805 -0.0337 -0.1833
   87MPD2     H 1331   0.867   4.248   1.323  1.3040 -1.0451 -0.6585
   87MPD2    H1 1332   0.738   4.317   1.713 -3.4177 -1.5299 -0.8077
   87MPD2    H2 1333   0.888   3.939   1.617  1.5029  0.2615 -0.3330
   87MPD2    H3 1334   0.784   4.091   1.780  0.0043 -0.9310 -0.4097
   87MPD2     N 1335   0.766   4.442   1.489  0.2962 -0.3219  0.3295
   87MPD2    H5 1336   0.734   4.496   1.569  0.5957 -0.7657  0.7463
   87MPD2    N1 1337   0.937   3.991   1.378  0.1811 -0.1801  0.6036
   87MPD2    H7 1338   0.951   3.898   1.416 -1.1299 -1.0241 -0.9957
   88TCq2    C1 1339   0.987   4.014   1.250 -0.2767 -0.4194 -0.3672
   88TCq2    O2 1340   1.019   4.121   1.200 -0.3952 -0.0524 -0.2112
   88TCq2    C2 1341   1.014   3.893   1.176  0.0977 -0.5239  0.3555
   88TCq2    C3 1342   0.948   3.773   1.210  0.1968 -0.2381 -1.0619
   88TCq2    C4 1343   0.964   3.655   1.136  0.5345 -0.3158  0.6857
   88TCq2    C5 1344   1.050   3.664   1.027  0.3110  0.5149 -0.4021
   88TCq2    C6 1345   1.116   3.782   1.003 -0.2553  0.6255 -0.3144
   88TCq2    C7 1346   1.088   3.904   1.065 -0.0672  0.4612  0.1252
   88TCq2    C8 1347   1.230   3.787   0.908 -0.7338 -0.1466 -0.4348
   88TCq2    O4 1348   1.248   3.897   0.855 -0.0754 -0.2143 -0.3075
   88TCq2    C9 1349   0.890   3.536   1.159 -0.0714 -0.0107  0.5155
   88TCq2    O5 1350   0.784   3.522   1.237 -0.1533  0.4179 -0.4361
   88TCq2    O6 1351   0.934   3.441   1.097  0.6668  0.3676  0.1325
   88TCq2    H2 1352   0.880   3.767   1.294  0.6149 -1.5396 -0.8120
   88TCq2    H3 1353   1.059   3.588   0.950 -0.0407 -1.3669  1.4491
   88TCq2    H4 1354   1.130   3.997   1.030  0.7334  1.6678  4.2280
   89MPD2     C 1355   2.418   1.998   2.105 -0.0347  0.4194 -0.2949
   89MPD2    C1 1356   2.358   2.120   2.052  0.7532  0.4376 -0.1331
   89MPD2    C2 1357   2.442   2.223   2.017 -0.0997 -0.6240 -0.5510
   89MPD2    C3 1358   2.582   2.212   2.035  0.4546 -0.2373  0.1816
   89MPD2    C4 1359   2.636   2.094   2.091 -0.5652 -0.1935 -0.1590
   89MPD2    C5 1360   2.558   1.985   2.113 -0.8070 -0.1213  0.2550
   89MPD2     H 1361   2.399   2.306   1.962 -1.4092 -1.4697 -0.8141
   89MPD2    H1 1362   2.742   2.083   2.110 -0.5539 -1.1939 -0.7844
   89MPD2    H2 1363   2.351   1.920   2.139  0.6882 -0.7419 -1.5632
   89MPD2    H3 1364   2.602   1.897   2.157  2.7439  0.0679 -2.8841
   89MPD2     N 1365   2.662   2.321   1.997 -0.1958  0.0539 -0.6813
   89MPD2    H5 1366   2.611   2.398   1.955 -4.2834 -0.3799  3.5132
   89MPD2    N1 1367   2.220   2.140   2.018 -0.0104  0.3584  0.4595
   89MPD2    H7 1368   2.185   2.228   1.982 -0.9387  0.4691  1.6118
   90TCq2    C1 1369   2.799   2.340   2.006 -0.2431 -0.2064  0.1884
   90TCq2    O2 1370   2.885   2.247   2.016 -0.0955  0.3866  0.0703
   90TCq2    C2 1371   2.851   2.466   1.948  0.6395 -0.2194 -0.2763
   90TCq2    C3 1372   2.766   2.573   1.932 -0.4784  0.4586 -0.0660
   90TCq2    C4 1373   2.808   2.665   1.837  0.3651  0.5987 -0.1064
   90TCq2    C5 1374   2.929   2.649   1.774  0.0333 -0.2561 -0.0772
   90TCq2    C6 1375   3.011   2.545   1.806  0.5237  0.5927 -0.3740
   90TCq2    C7 1376   2.976   2.452   1.895 -0.3377 -0.2025 -0.2860
   90TCq2    C8 1377   3.140   2.534   1.737  0.9292  0.1793 -0.3519
   90TCq2    O4 1378   3.164   2.627   1.660  0.1913  0.2972  0.2041
   90TCq2    C9 1379   2.730   2.778   1.798 -0.0069  0.5090 -0.1614
   90TCq2    O5 1380   2.612   2.785   1.843 -0.0623  0.0865  0.8071
   90TCq2    O6 1381   2.784   2.861   1.724  0.0494  0.4120 -0.5432
   90TCq2    H2 1382   2.671   2.576   1.983  0.6798  3.4220  1.9116
   90TCq2    H3 1383   2.955   2.720   1.697  2.4989 -1.3681 -0.2744
   90TCq2    H4 1384   3.024   2.356   1.877  1.1116  0.3558  0.6374
   91TMC2    C1 1385   3.947   1.775  16.254 -0.3897  0.0133  0.4169
   91TMC2    C2 1386   4.036   1.783  16.363 -0.2131 -0.3759  0.7518
   91TMC2    C3 1387   3.971   1.814  16.483  0.2345  0.0341 -0.0335
   91TMC2    C4 1388   3.813   1.802  16.266  0.3191 -0.6580 -0.4536
   91TMC2    C5 1389   3.764   1.848  16.386 -0.1473 -0.3692  0.1781
   91TMC2    C6 1390   3.841   1.845  16.497 -0.4107  0.1644  0.0846
   91TMC2     C 1391   3.986   1.700  16.136 -1.0629 -0.4590 -0.6185
   91TMC2     O 1392   3.902   1.654  16.060 -0.1301 -0.1771 -1.0524
   91TMC2     H 1393   4.143   1.766  16.360 -0.0230  0.7710  0.9477
   91TMC2    H1 1394   3.757   1.783  16.175  1.8969  1.4122 -1.8730
   91TMC2    H2 1395   3.810   1.887  16.592 -1.9815  0.0660 -0.3880
   91TMC2    C7 1396   3.628   1.832  16.414 -0.5484 -0.6846  0.0243
   91TMC2    C8 1397   4.065   1.827  16.592 -0.0265 -0.2329  0.2115
   91TMC2    O1 1398   3.604   1.801  16.529 -0.0129  0.7997 -0.1929
   91TMC2    O2 1399   4.181   1.859  16.567  0.7489  0.1272  0.4079
   91TMC2    O5 1400   4.010   1.815  16.715 -0.8631  0.1831  0.2316
   91TMC2    H5 1401   3.915   1.791  16.717 -0.5967 -0.9002  0.0549
   92MPD2     C 1402   4.147   1.547  15.938  0.2930 -0.1145 -0.0785
   92MPD2    C1 1403   4.207   1.635  16.030 -0.1281  0.2240 -0.0622
   92MPD2    C2 1404   4.345   1.667  16.034 -0.1827  0.2976  0.3836
   92MPD2    C3 1405   4.427   1.622  15.934  0.5547  0.2383 -0.4489
   92MPD2    C4 1406   4.358   1.552  15.832 -0.4681 -0.1946  0.3140
   92MPD2    C5 1407   4.224   1.524  15.827  0.1212 -0.6733  0.2874
   92MPD2     H 1408   4.384   1.736  16.108  1.3733 -0.4388  0.2478
   92MPD2    H1 1409   4.413   1.504  15.752 -1.6571 -0.9176 -0.0810
   92MPD2    H2 1410   4.042   1.522  15.933  0.8357 -2.2219 -0.7847
   92MPD2    H3 1411   4.196   1.465  15.741  0.2976  0.7993 -0.7811
   92MPD2     N 1412   4.561   1.652  15.933  0.5934 -0.3678  0.0666
   92MPD2    H5 1413   4.595   1.708  16.010 -0.4444  0.3319  0.0152
   92MPD2    N1 1414   4.123   1.709  16.119  0.1940 -0.0864 -0.4948
   92MPD2    H7 1415   4.175   1.777  16.173  1.0499 -0.1478 -1.2461
   93MPD2     C 1416   0.585   1.764  13.714 -0.0690  0.0906 -0.3704
   93MPD2    C1 1417   0.580   1.859  13.813  0.4805  0.7362  0.3902
   93MPD2    C2 1418   0.466   1.894  13.880  0.0506  0.5015  0.5127
   93MPD2    C3 1419   0.345   1.841  13.840 -0.5630 -0.1865 -0.4568
   93MPD2    C4 1420   0.347   1.750  13.736  0.3147 -0.6957  0.2113
   93MPD2    C5 1421   0.462   1.707  13.680 -0.2591 -0.2235 -0.6019
   93MPD2     H 1422   0.468   1.947  13.974 -0.2668 -1.0923  1.4054
   93MPD2    H1 1423   0.255   1.710  13.695  0.2602  0.8065 -1.1610
   93MPD2    H2 1424   0.670   1.719  13.665  0.0563  1.0414 -1.0340
   93MPD2    H3 1425   0.464   1.635  13.600  0.7428 -0.2864 -0.5213
   93MPD2     N 1426   0.219   1.879  13.892 -0.3928 -0.0589 -0.0407
   93MPD2    H5 1427   0.134   1.843  13.851  0.2450  1.9624 -3.1382
   93MPD2    N1 1428   0.693   1.928  13.857 -0.2038 -0.7525  1.0369
   93MPD2    H7 1429   0.679   2.001  13.926  0.0467  1.9066 -1.7640
   94TCq2    C1 1430   0.825   1.909  13.815 -0.6565  0.5496 -0.5787
   94TCq2    O2 1431   0.883   1.824  13.749  0.1054 -0.2213 -0.5839
   94TCq2    C2 1432   0.917   2.017  13.862  0.4614  0.5723 -0.0790
   94TCq2    C3 1433   0.861   2.140  13.872  0.2844 -0.5368 -0.3530
   94TCq2    C4 1434   0.945   2.249  13.883 -0.1164  0.0128 -0.2975
   94TCq2    C5 1435   1.082   2.225  13.886  0.2233 -1.0683 -0.1956
   94TCq2    C6 1436   1.130   2.096  13.879 -0.0134  0.3931 -0.3530
   94TCq2    C7 1437   1.052   1.985  13.865  0.3529 -0.3859 -0.1219
   94TCq2    C8 1438   1.268   2.080  13.907  0.3608  0.6581  0.1385
   94TCq2    O4 1439   1.323   1.970  13.888 -0.3764 -0.4695  0.2608
   94TCq2    C9 1440   0.893   2.381  13.902 -0.0710  1.0916 -0.3039
   94TCq2    O5 1441   0.779   2.398  13.854  0.2924  0.3030 -0.1911
   94TCq2    O6 1442   0.956   2.461  13.974  0.8351  0.0875  0.1679
   94TCq2    H2 1443   0.760   2.168  13.844  0.0121  0.5551  1.7628
   94TCq2    H3 1444   1.139   2.317  13.889  0.0303 -0.9239 -0.9586
   94TCq2    H4 1445   1.092   1.884  13.860 -1.1422 -0.9515 -0.6439
   95TMC2    C1 1446   1.025   4.226  16.934 -0.1783  0.0932  0.4960
   95TMC2    C2 1447   0.970   4.193  17.054  0.1410 -0.4773 -0.0028
   95TMC2    C3 1448   0.971   4.293  17.150 -0.7600 -0.3323  0.3119
   95TMC2    C4 1449   1.092   4.342  16.907  0.1375  0.1286 -0.4160
   95TMC2    C5 1450   1.103   4.430  17.015  0.0871 -0.0739  0.3140
   95TMC2    C6 1451   1.038   4.405  17.132  0.3718  0.3000 -0.0741
   95TMC2     C 1452   1.005   4.144  16.814 -0.2458  0.2584  0.3503
   95TMC2     O 1453   1.012   4.198  16.703  0.1776 -0.3354 -0.3986
   95TMC2     H 1454   0.889   4.122  17.066  3.7064 -4.5355  0.0329
   95TMC2    H1 1455   1.140   4.365  16.812  1.5645 -0.8420  0.0700
   95TMC2    H2 1456   1.047   4.466  17.221  1.5767  1.5908 -1.0840
   95TMC2    C7 1457   1.194   4.548  17.000  0.1827  0.1818  0.0919
   95TMC2    C8 1458   0.979   4.252  17.290 -0.8446  0.1867 -0.8692
   95TMC2    O1 1459   1.220   4.589  16.888  0.4701  0.2021 -0.1703
   95TMC2    O2 1460   0.966   4.332  17.381 -0.0770  0.3178  0.6237
   95TMC2    O5 1461   0.997   4.124  17.307 -0.2617 -0.1620 -0.4197
   95TMC2    H5 1462   1.006   4.068  17.226  0.0669 -3.0852  1.6446
   96MPD2     C 1463   0.895   3.685  16.607  0.0413 -0.2095 -0.0870
   96MPD2    C1 1464   0.924   3.800  16.542  0.7945  0.3149 -0.2390
   96MPD2    C2 1465   0.950   3.913  16.625 -0.0264  0.4279  0.0364
   96MPD2    C3 1466   0.950   3.900  16.767  0.0688 -1.0144 -0.1217
   96MPD2    C4 1467   0.926   3.775  16.822 -0.0176 -1.1734 -0.0608
   96MPD2    C5 1468   0.894   3.673  16.737 -0.3567  0.7261 -0.4780
   96MPD2     H 1469   0.980   4.009  16.585 -0.0917 -0.1146 -1.3052
   96MPD2    H1 1470   0.933   3.774  16.930 -0.4682 -1.5266 -0.0393
   96MPD2    H2 1471   0.860   3.604  16.544  0.0571 -0.2978  0.0199
   96MPD2    H3 1472   0.881   3.575  16.782  0.9715 -0.0660 -1.7949
   96MPD2     N 1473   0.981   4.014  16.845 -0.3729  0.1521 -0.1223
   96MPD2    H5 1474   0.992   3.988  16.942 -0.1905  0.7911  0.0326
   96MPD2    N1 1475   0.946   3.803  16.404 -0.2611 -0.2530  0.3568
   96MPD2    H7 1476   0.943   3.718  16.348 -0.9064 -0.4012  0.6210
   97MPD2     C 1477   3.495   1.102   1.160 -0.0087 -0.1191  0.6079
   97MPD2    C1 1478   3.372   1.085   1.109 -0.4609  0.3865  0.0587
   97MPD2    C2 1479   3.353   1.139   0.980  0.0384 -0.0075  0.1672
   97MPD2    C3 1480   3.438   1.223   0.919  0.1566 -0.3887 -0.0458
   97MPD2    C4 1481   3.553   1.248   0.984  0.1428  0.4935 -0.6718
   97MPD2    C5 1482   3.588   1.177   1.096 -0.6290 -0.3362 -0.1903
   97MPD2     H 1483   3.255   1.135   0.934 -1.3021  2.4186  2.7728
   97MPD2    H1 1484   3.638   1.305   0.948 -0.0688  0.4826 -1.1791
   97MPD2    H2 1485   3.522   1.067   1.259  3.7366  0.6612 -0.1488
   97MPD2    H3 1486   3.681   1.197   1.148 -0.8080  0.6072 -0.2298
   97MPD2     N 1487   3.406   1.279   0.787 -0.3287 -0.0043 -0.1568
   97MPD2    H5 1488   3.310   1.271   0.754 -0.0837 -2.9269 -0.1428
   97MPD2    N1 1489   3.267   1.032   1.193  0.4651 -0.0682 -0.3987
   97MPD2    H7 1490   3.293   1.014   1.290 -0.2463  2.3461  0.2434
   98TCq2    C1 1491   3.486   1.367   0.718 -0.1390 -0.0352 -0.0553
   98TCq2    O2 1492   3.609   1.393   0.728  0.8634  0.0269  0.2827
   98TCq2    C2 1493   3.417   1.434   0.608  0.1622  0.1093 -1.0944
   98TCq2    C3 1494   3.277   1.412   0.602  0.5878  0.1550  0.0383
   98TCq2    C4 1495   3.213   1.416   0.484  0.1938  0.5056  0.4042
   98TCq2    C5 1496   3.272   1.450   0.367  0.6122  0.5235  0.2019
   98TCq2    C6 1497   3.410   1.462   0.376 -0.1410 -0.0716 -0.3726
   98TCq2    C7 1498   3.486   1.451   0.490 -0.3025  0.0828 -0.4666
   98TCq2    C8 1499   3.486   1.493   0.257  0.0967 -0.1851  0.6951
   98TCq2    O4 1500   3.601   1.465   0.247 -0.6637  0.1168 -0.5375
   98TCq2    C9 1501   3.067   1.407   0.486 -0.8214  0.3826  0.5136
   98TCq2    O5 1502   3.011   1.401   0.599  0.7888  0.1025  0.4221
   98TCq2    O6 1503   3.013   1.431   0.376  0.5155  0.2230 -0.4567
   98TCq2    H2 1504   3.223   1.393   0.695 -0.2933 -1.2536 -0.7625
   98TCq2    H3 1505   3.218   1.449   0.273 -0.4603  0.0832  0.8215
   98TCq2    H4 1506   3.594   1.461   0.483 -0.3174 -1.1156 -2.5186
   99MPD2     C 1507   1.860   3.416   1.460 -0.0018 -0.2366 -0.5892
   99MPD2    C1 1508   1.950   3.420   1.566  0.6105  0.5777 -0.0785
   99MPD2    C2 1509   2.084   3.439   1.553  0.6821 -0.0084 -0.1556
   99MPD2    C3 1510   2.142   3.453   1.426  0.7284  0.1132  0.3376
   99MPD2    C4 1511   2.058   3.452   1.320 -0.0722 -0.5869  0.6056
   99MPD2    C5 1512   1.923   3.430   1.338 -0.4425 -0.4153  0.0078
   99MPD2     H 1513   2.140   3.431   1.645  0.6493  0.6126 -0.0794
   99MPD2    H1 1514   2.093   3.469   1.219 -2.6388 -1.1301 -0.3609
   99MPD2    H2 1515   1.752   3.411   1.467  0.0098  1.2581  0.6000
   99MPD2    H3 1516   1.864   3.431   1.247  1.2716  1.3133 -1.0952
   99MPD2     N 1517   2.282   3.474   1.417 -0.6994  0.0915 -0.8724
   99MPD2    H5 1518   2.330   3.489   1.505 -1.8348  1.5549 -0.4993
   99MPD2    N1 1519   1.903   3.408   1.704 -0.1938 -0.5811 -0.3294
   99MPD2    H7 1520   1.978   3.417   1.772  0.5729  2.2821 -1.5647
  100TCq2    C1 1521   1.778   3.383   1.746 -0.0161 -0.3868 -0.2066
  100TCq2    O2 1522   1.676   3.368   1.685  0.1702  0.1409 -0.0512
  100TCq2    C2 1523   1.772   3.361   1.892  0.0265  0.1768  0.5561
  100TCq2    C3 1524   1.881   3.351   1.970 -0.0910 -0.0738 -0.3476
  100TCq2    C4 1525   1.864   3.332   2.106  0.6451  1.0992  0.1030
  100TCq2    C5 1526   1.740   3.320   2.155 -0.9478 -0.3853 -0.8311
  100TCq2    C6 1527   1.632   3.322   2.074  0.5507 -0.1766 -0.2604
  100TCq2    C7 1528   1.648   3.351   1.943 -0.8578  0.2268  0.5183
  100TCq2    C8 1529   1.499   3.288   2.128  0.4576  0.0629  0.2200
  100TCq2    O4 1530   1.492   3.278   2.250 -0.3284  0.2342 -0.3337
  100TCq2    C9 1531   1.986   3.311   2.186 -0.0333  1.0885  0.3749
  100TCq2    O5 1532   2.095   3.345   2.140 -0.2554 -0.0253  0.5922
  100TCq2    O6 1533   1.974   3.300   2.314 -0.2964  0.2647  0.2805
  100TCq2    H2 1534   1.982   3.371   1.938  0.3090 -0.1993  0.8590
  100TCq2    H3 1535   1.734   3.290   2.259  1.7787 -0.5908 -0.7450
  100TCq2    H4 1536   1.561   3.360   1.880 -0.4335  1.3164  0.0764
  101MPD2     C 1537   2.009   4.515  12.956 -1.5116 -0.1044  0.3711
  101MPD2    C1 1538   1.896   4.522  13.033  0.1141  0.8571  0.5820
  101MPD2    C2 1539   1.865   4.408  13.116  0.3862  0.3287 -0.3245
  101MPD2    C3 1540   1.937   4.291  13.120  0.0349 -0.5045 -0.7054
  101MPD2    C4 1541   2.040   4.274  13.025  0.0104  0.0618  0.2527
  101MPD2    C5 1542   2.074   4.386  12.952 -0.5300 -0.3080  0.6094
  101MPD2     H 1543   1.784   4.407  13.189  1.2806 -3.5389  0.6062
  101MPD2    H1 1544   2.091   4.178  13.020  0.4751  0.3837 -1.1165
  101MPD2    H2 1545   2.041   4.599  12.897 -0.8617 -0.4717  0.1994
  101MPD2    H3 1546   2.157   4.384  12.882  0.0428  0.3835  1.2689
  101MPD2     N 1547   1.887   4.182  13.202 -0.1345  0.1373 -0.1082
  101MPD2    H5 1548   1.834   4.203  13.286 -0.7027  0.5741 -0.5721
  101MPD2    N1 1549   1.811   4.638  13.029 -0.1830 -0.4405 -0.2794
  101MPD2    H7 1550   1.847   4.713  12.971 -0.8861  0.4102  0.3811
  102TCq2    C1 1551   1.801   0.238  12.759 -0.1071  0.1472 -0.7501
  102TCq2    O2 1552   1.898   0.171  12.792  0.1933 -0.3746  0.1007
  102TCq2    C2 1553   1.685   0.208  12.852  0.0055  0.2686  0.0540
  102TCq2    C3 1554   1.562   0.190  12.806  0.8033 -0.5495 -0.0225
  102TCq2    C4 1555   1.481   0.102  12.868  0.4726  0.3923 -0.3091
  102TCq2    C5 1556   1.512   0.045  12.985 -0.0484 -0.1627 -0.3791
  102TCq2    C6 1557   1.638   0.064  13.034 -0.2521 -0.5785 -0.3698
  102TCq2    C7 1558   1.726   0.149  12.968 -0.4487  0.1780 -0.0863
  102TCq2    C8 1559   1.697   4.665  13.089 -0.7293 -0.2537  0.0823
  102TCq2    O4 1560   1.624   4.590  13.152  0.0288  0.6007  0.1142
  102TCq2    C9 1561   1.347   0.078  12.816  0.0804 -0.3465  0.6427
  102TCq2    O5 1562   1.266   0.013  12.889 -0.0944  0.5181  0.5050
  102TCq2    O6 1563   1.316   0.147  12.719 -0.2560 -0.3560  0.1677
  102TCq2    H2 1564   1.528   0.237  12.715  0.7216  0.0714  0.3288
  102TCq2    H3 1565   1.439   4.703  13.035  0.6607 -0.2113  0.5893
  102TCq2    H4 1566   1.826   0.169  13.003  0.3548 -3.4756 -0.2976
  103TMC2    C1 1567   0.519   0.070  12.903 -0.2175  0.0511 -0.4006
  103TMC2    C2 1568   0.650   0.108  12.905 -0.0725 -0.8830  0.2809
  103TMC2    C3 1569   0.710   0.156  13.016  0.3730  0.1822  0.0175
  103TMC2    C4 1570   0.439   0.069  13.011 -0.8928 -0.0068 -0.0000
  103TMC2    C5 1571   0.511   0.103  13.131 -0.2361 -0.1005 -0.2667
  103TMC2    C6 1572   0.633   0.158  13.132  0.4865  0.5115  0.4521
  103TMC2     C 1573   0.474   4.699  12.800 -0.2942  0.3695 -0.1894
  103TMC2     O 1574   0.397   0.009  12.712  0.3181 -0.5951  0.2732
  103TMC2     H 1575   0.703   0.081  12.814  1.3227 -2.0750  1.4383
  103TMC2    H1 1576   0.340   0.026  13.000 -1.6845  1.9112 -0.3529
  103TMC2    H2 1577   0.683   0.175  13.226  1.7294  1.0550 -0.3027
  103TMC2    C7 1578   0.447   0.078  13.260  0.4775  0.1652 -0.1076
  103TMC2    C8 1579   0.851   0.130  13.032 -0.2555  0.1312  0.4409
  103TMC2    O1 1580   0.517   0.079  13.358  0.0923 -0.2277 -0.4843
  103TMC2    O2 1581   0.899   0.044  12.962 -0.4596  0.0373 -0.0208
  103TMC2    O5 1582   0.897   0.192  13.141  0.4261  0.0032 -0.5900
  103TMC2    H5 1583   0.846   0.273  13.161 -0.2047 -0.3610 -0.7550
  104MPD2     C 1584   0.625   4.359  12.762 -0.0260  0.1123  0.6706
  104MPD2    C1 1585   0.536   4.462  12.740  0.5624 -0.0092  0.1563
  104MPD2    C2 1586   0.435   4.441  12.646 -0.2224  0.1392 -0.4571
  104MPD2    C3 1587   0.424   4.324  12.575  0.6876  0.2121  0.2942
  104MPD2    C4 1588   0.526   4.229  12.589  0.6109  0.3877 -0.9943
  104MPD2    C5 1589   0.624   4.245  12.684 -0.6766 -0.1428 -0.1633
  104MPD2     H 1590   0.368   4.522  12.620 -2.3941 -1.7504 -0.6492
  104MPD2    H1 1591   0.523   4.129  12.547 -0.1462 -0.4491  1.0159
  104MPD2    H2 1592   0.707   4.380  12.829  0.3418  3.6703 -0.8974
  104MPD2    H3 1593   0.694   4.164  12.703 -0.0775  0.4185  0.0474
  104MPD2     N 1594   0.308   4.298  12.494  0.3737  0.4824 -0.0891
  104MPD2    H5 1595   0.242   4.375  12.498  0.6392  0.6760  0.6075
  104MPD2    N1 1596   0.547   4.581  12.815  0.3374  0.3359  0.3282
  104MPD2    H7 1597   0.609   4.576  12.895 -1.1092  0.5072  1.4766
  105MPD2     C 1598   2.418   3.977  17.523 -0.3813  0.9515 -0.7065
  105MPD2    C1 1599   2.321   4.066  17.497  0.1567 -0.5684  0.0281
  105MPD2    C2 1600   2.216   4.066  17.586 -0.0568  0.0216 -0.1280
  105MPD2    C3 1601   2.206   3.976  17.686 -0.1302  0.0337 -0.5863
  105MPD2    C4 1602   2.298   3.874   0.009  0.6537  0.7994 -0.1334
  105MPD2    C5 1603   2.411   3.886  17.621 -0.1617  0.3224  0.5891
  105MPD2     H 1604   2.140   4.143  17.575  0.7084  1.0321  1.5423
  105MPD2    H1 1605   2.300   3.790   0.077  0.1118  0.7831 -0.1368
  105MPD2    H2 1606   2.495   3.968  17.447  2.5252  0.8418  2.2573
  105MPD2    H3 1607   2.480   3.803  17.610 -0.1445  0.4346 -0.1825
  105MPD2     N 1608   2.104   3.996   0.089  0.1999 -0.0126 -0.4666
  105MPD2    H5 1609   2.036   4.068   0.067  0.1075  0.2277  0.6229
  105MPD2    N1 1610   2.309   4.154  17.388 -0.7347  0.1176 -0.2041
  105MPD2    H7 1611   2.226   4.212  17.378  0.3547  1.6781 -0.1911
  106TCq2    C1 1612   2.071   3.904   0.183 -0.2528  0.2207  0.3720
  106TCq2    O2 1613   2.117   3.793   0.193 -0.5656  0.7231 -0.3228
  106TCq2    C2 1614   1.944   3.937   0.245 -0.2605  0.9582  0.4158
  106TCq2    C3 1615   1.891   4.063   0.236  0.3458 -0.0914  0.1080
  106TCq2    C4 1616   1.793   4.099   0.325  0.2146  0.2220  0.0614
  106TCq2    C5 1617   1.759   4.013   0.428  0.4684 -0.0616  0.3647
  106TCq2    C6 1618   1.805   3.890   0.426 -0.1555 -0.9867  0.5978
  106TCq2    C7 1619   1.901   3.851   0.339  0.5530 -0.1848 -0.8050
  106TCq2    C8 1620   1.790   3.806   0.547 -0.5321  1.0206  0.7756
  106TCq2    O4 1621   1.888   3.746   0.587  0.4139  0.3162  0.4450
  106TCq2    C9 1622   1.725   4.226   0.316 -0.3089  0.0749 -0.2372
  106TCq2    O5 1623   1.761   4.309   0.227 -0.0080 -0.6507  0.1016
  106TCq2    O6 1624   1.637   4.249   0.405 -0.4903  0.2294  0.1760
  106TCq2    H2 1625   1.925   4.141   0.169 -0.0953  0.1587  0.1709
  106TCq2    H3 1626   1.682   4.043   0.498 -0.6416  0.0395 -0.8927
  106TCq2    H4 1627   1.949   3.755   0.349  0.9810  0.2404  1.2454
  107TMC2    C1 1628   2.973   2.943  11.582 -1.7946 -0.3218 -0.2689
  107TMC2    C2 1629   2.996   2.899  11.707 -0.0052  0.5697  0.3327
  107TMC2    C3 1630   3.113   2.826  11.731 -0.2825  0.1804 -0.1084
  107TMC2    C4 1631   3.070   2.932  11.489 -0.1084 -0.0889 -0.5764
  107TMC2    C5 1632   3.181   2.864  11.516  0.1741 -0.5918  0.0510
  107TMC2    C6 1633   3.204   2.809  11.637 -0.2262 -0.4406  0.3952
  107TMC2     C 1634   2.874   3.051  11.557  0.1043 -0.2977  0.4497
  107TMC2     O 1635   2.871   3.112  11.450  0.1796 -0.1991 -0.2650
  107TMC2     H 1636   2.950   2.943  11.794 -2.5600  0.4295 -0.9559
  107TMC2    H1 1637   3.065   2.976  11.391 -3.2430 -0.7303 -0.7120
  107TMC2    H2 1638   3.295   2.754  11.659  0.5041  0.4772 -0.3482
  107TMC2    C7 1639   3.290   2.867  11.420  0.7205  0.0964  1.5209
  107TMC2    C8 1640   3.137   2.782  11.867  0.5684 -0.4458 -0.7307
  107TMC2    O1 1641   3.394   2.923  11.456  0.1200 -0.3488  0.1187
  107TMC2    O2 1642   3.243   2.744  11.915  0.2353 -0.2829  0.0172
  107TMC2    O5 1643   3.024   2.783  11.944 -0.1201 -0.0011  0.3157
  107TMC2    H5 1644   2.937   2.799  11.902  0.6078  1.7255 -0.5416
  108MPD2     C 1645   2.662   3.263  11.581 -1.1520  0.2652 -0.0517
  108MPD2    C1 1646   2.670   3.154  11.670  0.0246 -0.0553  0.4070
  108MPD2    C2 1647   2.563   3.133  11.758 -1.1321 -0.3198  0.4568
  108MPD2    C3 1648   2.455   3.218  11.757 -0.0553 -0.1149 -0.6492
  108MPD2    C4 1649   2.451   3.333  11.682  0.2339  0.6375  0.6795
  108MPD2    C5 1650   2.550   3.345  11.585 -0.4287  0.0766 -0.3388
  108MPD2     H 1651   2.569   3.047  11.824  0.4004 -1.7815 -1.5862
  108MPD2    H1 1652   2.362   3.395  11.680 -0.9909 -1.1052 -0.2721
  108MPD2    H2 1653   2.740   3.292  11.512 -0.3042 -2.0159 -0.0402
  108MPD2    H3 1654   2.556   3.432  11.520 -2.2654  0.2754 -0.2630
  108MPD2     N 1655   2.348   3.210  11.853 -0.1720  0.0598 -0.3255
  108MPD2    H5 1656   2.298   3.296  11.875  2.2887  1.1379  1.0845
  108MPD2    N1 1657   2.780   3.057  11.667  0.1683 -0.9251 -0.4033
  108MPD2    H7 1658   2.791   2.995  11.747 -0.6917 -0.4595  0.0703
  109MPD2     C 1659   2.210   0.336   2.150  1.4507  0.3016 -0.2109
  109MPD2    C1 1660   2.289   0.402   2.058  0.1287 -0.9240 -0.1442
  109MPD2    C2 1661   2.427   0.410   2.072 -0.7791 -0.6473  0.8619
  109MPD2    C3 1662   2.485   0.363   2.187  0.5173 -0.4502 -0.1513
  109MPD2    C4 1663   2.405   0.306   2.283 -0.2257  0.5467  0.2438
  109MPD2    C5 1664   2.274   0.291   2.262 -0.0487  0.2386 -0.6300
  109MPD2     H 1665   2.494   0.434   1.991 -2.7524  0.3986 -0.4296
  109MPD2    H1 1666   2.447   0.265   2.374 -0.6458 -0.4601 -0.0137
  109MPD2    H2 1667   2.103   0.326   2.138  1.5177  2.3961 -2.7823
  109MPD2    H3 1668   2.206   0.251   2.337  1.2517 -0.8462 -0.0460
  109MPD2     N 1669   2.627   0.380   2.190 -0.0467  0.1782  0.3361
  109MPD2    H5 1670   2.670   0.412   2.104  0.1741  1.1219  0.7988
  109MPD2    N1 1671   2.224   0.443   1.940  0.2224  0.9041 -0.1807
  109MPD2    H7 1672   2.124   0.430   1.936  0.4270 -1.5732  2.2426
  110TCq2    C1 1673   2.714   0.320   2.282 -0.3200 -0.4393  0.5230
  110TCq2    O2 1674   2.687   0.265   2.389  0.6010  0.4234 -0.3301
  110TCq2    C2 1675   2.851   0.346   2.255 -0.1160  0.1046 -0.2625
  110TCq2    C3 1676   2.939   0.284   2.339  0.1717  0.5012 -0.4140
  110TCq2    C4 1677   3.071   0.299   2.312 -0.5930  0.1598  0.4636
  110TCq2    C5 1678   3.115   0.362   2.202  0.4593  0.0859 -0.5045
  110TCq2    C6 1679   3.022   0.421   2.130  0.0941  0.1586  0.0270
  110TCq2    C7 1680   2.891   0.416   2.147 -0.5611 -0.2542  0.2644
  110TCq2    C8 1681   3.066   0.490   2.012 -0.1060 -0.5027 -0.2104
  110TCq2    O4 1682   3.006   0.592   1.988  0.0974  0.0367 -0.3694
  110TCq2    C9 1683   3.169   0.243   2.401  0.1649  0.5681  0.7711
  110TCq2    O5 1684   3.283   0.261   2.352  0.4728 -0.2766  0.7603
  110TCq2    O6 1685   3.133   0.205   2.513 -0.2402 -0.1893  0.3258
  110TCq2    H2 1686   2.911   0.234   2.431 -1.5190  2.1189 -0.0674
  110TCq2    H3 1687   3.221   0.367   2.177  0.8406  0.9029  1.2659
  110TCq2    H4 1688   2.826   0.482   2.090  2.5789  1.4020 -1.3816
  111TMC2    C1 1689   2.420   4.556  11.322  0.2462  0.4203  0.1985
  111TMC2    C2 1690   2.514   4.591  11.226  0.0975  0.0477 -0.2032
  111TMC2    C3 1691   2.634   4.628  11.268  0.2935  0.1042 -0.4872
  111TMC2    C4 1692   2.446   4.567  11.457 -0.3463 -0.1667  0.5481
  111TMC2    C5 1693   2.571   4.605  11.493 -0.4957 -0.7109  0.6507
  111TMC2    C6 1694   2.669   4.638  11.401  0.1368  0.5393 -0.5104
  111TMC2     C 1695   2.286   4.605  11.289  0.1447 -0.2174  0.4858
  111TMC2     O 1696   2.279   4.663  11.183  0.7548 -0.6974 -0.3952
  111TMC2     H 1697   2.486   4.582  11.122  0.6299 -3.0818 -0.0785
  111TMC2    H1 1698   2.374   4.538  11.534 -0.9594 -1.1161 -0.3861
  111TMC2    H2 1699   2.771   4.653  11.433 -0.5974  0.9691  1.6970
  111TMC2    C7 1700   2.615   4.582  11.632  0.7841 -0.4687 -0.0513
  111TMC2    C8 1701   2.734   4.675  11.176  0.2278 -0.2946  0.5555
  111TMC2    O1 1702   2.522   4.574  11.710  0.0512  0.6965  0.0673
  111TMC2    O2 1703   2.822   0.026  11.215 -1.1715 -0.3710 -0.1330
  111TMC2    O5 1704   2.759   4.570  11.097 -1.0776 -0.6987 -0.2115
  111TMC2    H5 1705   2.699   4.492  11.100 -1.9460 -0.0122  0.0732
  112MPD2     C 1706   1.823   0.075  11.428 -0.2021 -0.2179 -0.7516
  112MPD2    C1 1707   1.917   0.120  11.337 -0.1868  0.2713  0.4339
  112MPD2    C2 1708   2.041   0.050  11.320 -0.1300  0.5409 -0.0572
  112MPD2    C3 1709   2.066   4.657  11.394 -0.3107  0.3993  0.0841
  112MPD2    C4 1710   1.973   4.617  11.488  0.0593 -0.3526  0.5279
  112MPD2    C5 1711   1.853   4.681  11.499 -0.8744  0.4324  0.1404
  112MPD2     H 1712   2.118   0.094  11.256  0.5782 -0.7040 -0.0585
  112MPD2    H1 1713   1.992   4.518  11.527 -3.0783 -1.4149 -0.6291
  112MPD2    H2 1714   1.733   0.130  11.452 -0.5819 -0.1518 -2.3149
  112MPD2    H3 1715   1.773   4.640  11.560 -1.0624  0.8292  0.1572
  112MPD2     N 1716   2.184   4.578  11.379  0.4216 -0.4808  0.0701
  112MPD2    H5 1717   2.195   4.515  11.457  0.6193 -1.7347 -0.9651
  112MPD2    N1 1718   1.905   0.240  11.267 -0.3922  0.3813 -0.0012
  112MPD2    H7 1719   1.983   0.279  11.215 -0.5092  2.3696  1.3245
  113MPD2     C 1720   0.830   3.031   1.264  0.5196 -0.2825 -0.4661
  113MPD2    C1 1721   0.794   3.160   1.233 -0.2554  0.2123 -0.2147
  113MPD2    C2 1722   0.704   3.179   1.128 -0.2974 -0.7644  0.6421
  113MPD2    C3 1723   0.658   3.072   1.056 -0.5636 -0.2267 -0.0805
  113MPD2    C4 1724   0.697   2.946   1.089  0.8835  0.3621 -0.1539
  113MPD2    C5 1725   0.788   2.922   1.189 -0.7450 -0.0326  0.1547
  113MPD2     H 1726   0.674   3.281   1.108 -1.3505 -1.3758 -0.9060
  113MPD2    H1 1727   0.670   2.856   1.035  1.1145  0.2646 -0.1057
  113MPD2    H2 1728   0.901   3.014   1.344 -1.4263 -0.5463  1.2187
  113MPD2    H3 1729   0.835   2.825   1.195 -1.3693 -0.2046  2.3084
  113MPD2     N 1730   0.558   3.078   0.957 -0.1919 -0.5627  0.0614
  113MPD2    H5 1731   0.519   2.994   0.915  0.1137 -0.5578 -0.2323
  113MPD2    N1 1732   0.824   3.272   1.319  0.6685  1.1101 -0.8645
  113MPD2    H7 1733   0.768   3.355   1.299  2.2255  2.1057 -1.0444
  114TCq2    C1 1734   0.508   3.196   0.911 -0.1176 -0.1852 -0.6944
  114TCq2    O2 1735   0.560   3.306   0.906  0.1987  0.3949  0.2696
  114TCq2    C2 1736   0.411   3.164   0.812  0.1686 -0.6393 -0.0032
  114TCq2    C3 1737   0.418   3.236   0.698  0.3620 -0.3841 -0.7208
  114TCq2    C4 1738   0.367   3.186   0.584  0.6770  0.1167 -0.5485
  114TCq2    C5 1739   0.294   3.069   0.588  0.2377 -0.2623 -0.6924
  114TCq2    C6 1740   0.270   3.011   0.711 -0.7204 -0.8331 -0.1987
  114TCq2    C7 1741   0.338   3.055   0.823 -0.8280  1.0183 -0.1189
  114TCq2    C8 1742   0.162   2.916   0.726 -0.2565 -0.3012  0.0273
  114TCq2    O4 1743   0.080   2.900   0.638 -0.2019  0.1709 -0.0418
  114TCq2    C9 1744   0.380   3.271   0.458  0.0625  0.1636  0.5549
  114TCq2    O5 1745   0.314   3.228   0.363 -0.1019 -0.4521 -0.0583
  114TCq2    O6 1746   0.405   3.393   0.472 -0.3822 -0.6049  0.4088
  114TCq2    H2 1747   0.476   3.327   0.702  0.3766 -0.4026 -0.5186
  114TCq2    H3 1748   0.243   3.042   0.496 -0.2327 -1.3770 -0.1095
  114TCq2    H4 1749   0.315   3.009   0.918  0.0485 -0.0349 -0.4165
  115TMC2    C1 1750   1.488   1.178   0.118  0.3043 -0.0684 -0.3422
  115TMC2    C2 1751   1.441   1.160  17.671 -0.1745  0.1813 -0.2638
  115TMC2    C3 1752   1.418   1.265  17.593 -1.1874 -0.1232 -0.3895
  115TMC2    C4 1753   1.500   1.301   0.173 -0.1611  0.3512 -0.1576
  115TMC2    C5 1754   1.461   1.402   0.085 -0.6470 -0.3136  0.3591
  115TMC2    C6 1755   1.427   1.390  17.640 -0.6107  0.1330 -0.1753
  115TMC2     C 1756   1.525   1.061   0.184 -0.5536  0.1512 -0.7764
  115TMC2     O 1757   1.453   0.970   0.149 -0.2694  0.2986  0.3155
  115TMC2     H 1758   1.439   1.063  17.624  0.0199  0.8642 -1.6712
  115TMC2    H1 1759   1.556   1.321   0.263  0.7842  0.8257 -0.8483
  115TMC2    H2 1760   1.391   1.477  17.587 -1.0296 -0.6295 -1.1225
  115TMC2    C7 1761   1.508   1.530   0.131  0.4510 -0.8294 -0.2721
  115TMC2    C8 1762   1.329   1.250  17.473 -0.1646  0.3002 -0.3472
  115TMC2    O1 1763   1.525   1.538   0.249  0.1860  0.1963  0.4756
  115TMC2    O2 1764   1.257   1.152  17.457  0.3077 -0.1461  0.5424
  115TMC2    O5 1765   1.383   1.336  17.382 -0.2472  0.0238  0.3138
  115TMC2    H5 1766   1.451   1.397  17.418 -1.7506  1.1021  1.3860
  116MPD2     C 1767   1.706   0.759   0.561 -0.0825  0.2832 -0.4346
  116MPD2    C1 1768   1.637   0.727   0.444  0.6671  0.0415 -0.1014
  116MPD2    C2 1769   1.611   0.835   0.354 -0.3203 -0.3363 -0.3221
  116MPD2    C3 1770   1.652   0.970   0.378 -0.2462  0.3921  0.5048
  116MPD2    C4 1771   1.719   0.989   0.498 -0.5129 -0.7582  0.5194
  116MPD2    C5 1772   1.735   0.886   0.585 -1.1822  0.4073 -0.6318
  116MPD2     H 1773   1.556   0.815   0.263 -1.6593 -1.6804  0.7697
  116MPD2    H1 1774   1.740   1.088   0.538  1.0443 -1.4619  1.4464
  116MPD2    H2 1775   1.725   0.686   0.640 -0.0472  2.6422  1.7511
  116MPD2    H3 1776   1.780   0.911   0.680 -0.7588 -0.1760 -0.6836
  116MPD2     N 1777   1.618   1.075   0.287  0.8263  0.3823  0.3098
  116MPD2    H5 1778   1.660   1.165   0.304 -0.8888  1.6963 -2.4892
  116MPD2    N1 1779   1.585   0.599   0.415 -0.2819 -0.0739  0.2894
  116MPD2    H7 1780   1.534   0.589   0.328  0.6746 -1.2054 -0.1299
  117TMC2    C1 1781   4.683   2.560  14.303  0.3271 -0.1910 -0.1669
  117TMC2    C2 1782   0.074   2.477  14.284  0.1016 -0.7854  0.1328
  117TMC2    C3 1783   0.192   2.542  14.287  0.1080  0.7917  0.0872
  117TMC2    C4 1784   4.686   2.698  14.326 -0.0380 -0.0496 -0.5402
  117TMC2    C5 1785   0.091   2.752  14.322  0.4715  0.0376  0.3682
  117TMC2    C6 1786   0.204   2.679  14.324 -0.2259  0.2447  0.3977
  117TMC2     C 1787   4.551   2.498  14.290  0.5057  0.1560 -0.2880
  117TMC2     O 1788   4.526   2.380  14.323 -0.3445  0.2754 -0.4410
  117TMC2     H 1789   0.067   2.370  14.265 -0.5522 -1.0618  1.8648
  117TMC2    H1 1790   4.595   2.752  14.348 -0.7067 -1.3079 -0.2437
  117TMC2    H2 1791   0.296   2.732  14.303  0.0132  0.6479  2.4794
  117TMC2    C7 1792   0.107   2.892  14.304 -0.0108  0.8016 -0.8250
  117TMC2    C8 1793   0.305   2.459  14.306  0.2908 -0.2429 -0.2656
  117TMC2    O1 1794   0.204   2.942  14.357  0.5593 -0.0873 -0.5490
  117TMC2    O2 1795   0.347   2.381  14.221  0.4059  0.0094  0.2189
  117TMC2    O5 1796   0.365   2.487  14.423 -0.0382 -0.0952  0.0083
  117TMC2    H5 1797   0.306   2.541  14.480  0.5497 -0.5842  1.0878
  118MPD2     C 1798   4.615   3.124  14.113 -0.4653  0.1929 -0.2984
  118MPD2    C1 1799   0.009   3.086  14.175 -0.1732 -1.0714  0.1564
  118MPD2    C2 1800   0.113   3.175  14.187  0.5448  0.4947  0.0141
  118MPD2    C3 1801   0.117   3.290  14.117  0.2715 -0.7819 -1.0029
  118MPD2    C4 1802   0.004   3.331  14.051 -0.8177  0.1223 -0.2226
  118MPD2    C5 1803   4.613   3.249  14.053  0.1043 -0.1278  0.0631
  118MPD2     H 1804   0.194   3.157  14.256  0.0541 -0.5781  0.3113
  118MPD2    H1 1805   0.011   3.421  13.991 -0.0326 -0.7459 -1.4501
  118MPD2    H2 1806   4.527   3.062  14.099 -0.0200 -0.5973  0.4134
  118MPD2    H3 1807   4.520   3.279  14.005 -0.4457 -1.6529  0.1828
  118MPD2     N 1808   0.233   3.375  14.102  0.4402  0.3355  0.0459
  118MPD2    H5 1809   0.234   3.454  14.038 -1.1200  1.1608  1.0614
  118MPD2    N1 1810   0.012   2.953  14.223 -0.2486  0.2189 -0.5599
  118MPD2    H7 1811   4.661   2.897  14.178 -1.9879  0.6414  1.6693
  119MPD2     C 1812   3.295   4.007  13.964 -0.1472  0.0437 -0.5046
  119MPD2    C1 1813   3.160   4.016  13.962 -0.2200 -0.0287 -0.0091
  119MPD2    C2 1814   3.090   4.054  13.850  0.0024 -0.0058  0.6267
  119MPD2    C3 1815   3.157   4.064  13.727 -0.1202 -0.8620 -0.4304
  119MPD2    C4 1816   3.291   4.062  13.736 -0.6316  1.0820  0.6697
  119MPD2    C5 1817   3.365   4.038  13.848 -0.9200  0.1273  0.2067
  119MPD2     H 1818   2.983   4.067  13.846 -0.2220 -0.7868  4.3393
  119MPD2    H1 1819   3.353   4.073  13.648  0.7785 -2.7891  1.1607
  119MPD2    H2 1820   3.347   3.980  14.055 -0.1952 -0.0482 -0.5036
  119MPD2    H3 1821   3.473   4.035  13.838 -1.2442 -2.6352 -2.3463
  119MPD2     N 1822   3.089   4.082  13.593  0.5071 -0.4984  0.5472
  119MPD2    H5 1823   3.153   4.088  13.514  4.8059  1.2685  4.1035
  119MPD2    N1 1824   3.092   3.993  14.080  0.0063  0.3714  0.0349
  119MPD2    H7 1825   3.141   3.974  14.167 -0.3228  1.3077  0.4194
  120TCq2    C1 1826   2.961   4.046  13.568  0.4870  0.0362  0.3143
  120TCq2    O2 1827   2.869   4.011  13.643  0.4403 -0.1186  0.3486
  120TCq2    C2 1828   2.926   4.034  13.425 -0.6648 -0.3000 -0.8979
  120TCq2    C3 1829   3.025   4.044  13.326  0.6906 -0.1999  0.5538
  120TCq2    C4 1830   2.977   4.051  13.198  0.7697  0.2974 -0.6573
  120TCq2    C5 1831   2.841   4.045  13.159  0.1199  0.1652 -0.2599
  120TCq2    C6 1832   2.752   4.036  13.263  0.0599 -0.2684 -0.6063
  120TCq2    C7 1833   2.793   4.030  13.395  0.0034 -0.5582  0.8253
  120TCq2    C8 1834   2.614   4.013  13.228  0.0152 -0.3665 -0.5248
  120TCq2    O4 1835   2.572   4.045  13.116  0.1176  0.3492 -0.1169
  120TCq2    C9 1836   3.065   4.084  13.089 -0.5914 -0.6307 -0.4034
  120TCq2    O5 1837   3.179   4.128  13.120  0.8620  0.4916 -0.1928
  120TCq2    O6 1838   3.031   4.043  12.976 -0.7049 -0.5578  0.1749
  120TCq2    H2 1839   3.129   4.053  13.353  1.0375  0.1447 -0.8623
  120TCq2    H3 1840   2.807   4.058  13.057 -2.8629  2.9294  1.0638
  120TCq2    H4 1841   2.724   4.009  13.476  0.3902  0.2406  1.3665
  121TMC2    C1 1842   4.349   0.619  14.120 -0.3180  0.6096  0.2192
  121TMC2    C2 1843   4.324   0.553  14.234  0.4717  0.1905 -0.1951
  121TMC2    C3 1844   4.196   0.526  14.268  0.2604 -0.2172 -0.0109
  121TMC2    C4 1845   4.249   0.647  14.029  0.2692  0.0610 -0.4509
  121TMC2    C5 1846   4.122   0.613  14.059 -0.4461  0.4703  0.9566
  121TMC2    C6 1847   4.091   0.562  14.185  0.1585  0.1798 -1.0484
  121TMC2     C 1848   4.488   0.661  14.098  0.4742  0.5035  0.3728
  121TMC2     O 1849   4.576   0.628  14.175  0.2931  0.0267  0.0859
  121TMC2     H 1850   4.405   0.515  14.296  1.1468  1.2907 -0.4026
  121TMC2    H1 1851   4.262   0.693  13.932 -1.5787  0.4719 -0.5089
  121TMC2    H2 1852   3.989   0.536  14.213  0.2626 -0.2995 -1.1173
  121TMC2    C7 1853   4.013   0.645  13.973  0.2621  0.3917 -0.2527
  121TMC2    C8 1854   4.170   0.428  14.372  0.1716 -0.2931 -0.2274
  121TMC2    O1 1855   4.046   0.711  13.875 -0.3960 -0.5789 -0.1026
  121TMC2    O2 1856   4.064   0.432  14.434 -0.6444  0.6178  0.4325
  121TMC2    O5 1857   4.208   0.308  14.315  0.5126  0.5693 -0.0915
  121TMC2    H5 1858   4.248   0.331  14.229  2.3449  1.1120  0.9111
  122MPD2     C 1859   0.008   0.782  13.988  0.4079 -0.6847  0.5050
  122MPD2    C1 1860   4.601   0.816  13.944  0.1720 -0.3955  1.3596
  122MPD2    C2 1861   4.584   0.916  13.846 -0.7563  0.5815  0.3504
  122MPD2    C3 1862   4.694   0.965  13.780  0.2707  0.5402 -0.1239
  122MPD2    C4 1863   0.095   0.939  13.832 -0.4978  0.2542  0.4632
  122MPD2    C5 1864   0.117   0.842  13.927  0.1224  0.5423 -0.2147
  122MPD2     H 1865   4.486   0.941  13.805 -0.2851 -0.5107 -1.4571
  122MPD2    H1 1866   0.183   0.977  13.781 -0.5730  0.8118  0.7518
  122MPD2    H2 1867   0.035   0.707  14.061 -0.5819 -2.0098 -0.4929
  122MPD2    H3 1868   0.215   0.804  13.956 -0.3895  0.2503  1.1258
  122MPD2     N 1869   4.689   1.049  13.666 -0.7137 -0.5388 -0.0689
  122MPD2    H5 1870   0.057   1.085  13.634 -1.1397  0.5985  0.0118
  122MPD2    N1 1871   4.489   0.751  13.992  0.1815 -0.7852 -0.6866
  122MPD2    H7 1872   4.397   0.779  13.961 -0.1391  1.0241  1.9409
  123MPD2     C 1873   2.024   2.796   9.016  0.6083  0.2444  0.0913
  123MPD2    C1 1874   2.005   2.927   9.058 -0.2617 -0.4790  0.2645
  123MPD2    C2 1875   2.093   3.028   9.008  0.6066  0.3758 -0.1657
  123MPD2    C3 1876   2.194   2.995   8.920 -0.0742  0.2106 -0.1931
  123MPD2    C4 1877   2.214   2.858   8.882 -0.0448  0.0235 -0.0324
  123MPD2    C5 1878   2.129   2.762   8.930  0.1878  0.0914  0.8341
  123MPD2     H 1879   2.077   3.134   9.022  2.3565  0.7519 -1.0062
  123MPD2    H1 1880   2.295   2.817   8.822  0.7155  0.4005  0.7314
  123MPD2    H2 1881   1.975   2.706   9.051 -0.8776  0.9902 -0.0697
  123MPD2    H3 1882   2.136   2.657   8.904  1.2824 -0.1379  2.0571
  123MPD2     N 1883   2.263   3.096   8.859  0.3219 -0.6234 -0.1579
  123MPD2    H5 1884   2.228   3.190   8.873  1.8246  0.1202 -1.3010
  123MPD2    N1 1885   1.894   2.953   9.144  0.3046  0.4097 -0.6910
  123MPD2    H7 1886   1.834   2.874   9.165  0.9177 -0.6692 -2.9600
  124TCq2    C1 1887   2.369   3.089   8.776 -0.2211  0.2981 -1.2309
  124TCq2    O2 1888   2.417   2.994   8.711  0.2875  0.1734  0.2212
  124TCq2    C2 1889   2.415   3.225   8.742 -0.8542 -0.3771  0.3431
  124TCq2    C3 1890   2.477   3.238   8.618  0.5713 -0.4106 -0.3193
  124TCq2    C4 1891   2.541   3.359   8.598 -0.7237  0.4561  0.0964
  124TCq2    C5 1892   2.527   3.459   8.683  0.2390  0.1323  0.2957
  124TCq2    C6 1893   2.464   3.438   8.804  0.3395 -0.4858  0.4788
  124TCq2    C7 1894   2.402   3.324   8.836  0.1919 -0.0888  0.4465
  124TCq2    C8 1895   2.451   3.559   8.882  0.1010 -0.5397 -0.2142
  124TCq2    O4 1896   2.455   3.668   8.829  0.0281  0.1919 -0.0402
  124TCq2    C9 1897   2.623   3.374   8.480 -0.3186 -0.5424 -0.0183
  124TCq2    O5 1898   2.698   3.476   8.479 -0.4053  0.2509  0.1763
  124TCq2    O6 1899   2.612   3.285   8.389 -0.5585 -0.4087 -0.0929
  124TCq2    H2 1900   2.487   3.156   8.547  1.3843 -1.9490  1.5804
  124TCq2    H3 1901   2.572   3.556   8.660 -0.0959  0.5813  1.5284
  124TCq2    H4 1902   2.347   3.316   8.930 -1.2216  0.3410 -0.3433
  125TMC2    C1 1903   4.065   1.717   9.389 -0.4895  0.0006 -0.4075
  125TMC2    C2 1904   4.032   1.627   9.485 -0.1331 -0.2039  0.2392
  125TMC2    C3 1905   4.086   1.500   9.483 -0.8461 -0.0054 -0.2690
  125TMC2    C4 1906   4.159   1.677   9.297 -0.5785  0.3749  0.4690
  125TMC2    C5 1907   4.214   1.548   9.292  0.7225 -0.1148 -0.3325
  125TMC2    C6 1908   4.174   1.452   9.383 -0.0062  0.2070  0.5401
  125TMC2     C 1909   4.020   1.848   9.412  0.0849 -0.0464  0.4080
  125TMC2     O 1910   3.921   1.858   9.478 -0.8408  0.2756 -0.0505
  125TMC2     H 1911   3.972   1.652   9.572  1.5695  1.1107  1.0555
  125TMC2    H1 1912   4.179   1.745   9.215  0.5424 -0.3698  0.1326
  125TMC2    H2 1913   4.209   1.350   9.385 -0.6748 -0.0092  1.1057
  125TMC2    C7 1914   4.272   1.511   9.170  0.0091 -0.1587  0.1131
  125TMC2    C8 1915   4.053   1.400   9.581  0.2864 -0.5512  0.9480
  125TMC2    O1 1916   4.274   1.596   9.080  0.0482 -0.2031 -0.1541
  125TMC2    O2 1917   4.135   1.319   9.618 -0.0370 -0.5630 -0.1351
  125TMC2    O5 1918   3.940   1.430   9.645  0.3445  0.2730 -0.6459
  125TMC2    H5 1919   3.873   1.476   9.590  1.6901 -0.2624 -2.7619
  126MPD1     C 1920   4.047   2.361   9.358 -0.0952  0.6752  0.5397
  126MPD1    C1 1921   4.156   2.303   9.299 -0.4898 -0.2197 -0.2727
  126MPD1    C2 1922   4.172   2.165   9.310  0.1861  1.0098 -0.6761
  126MPD1    C3 1923   4.063   2.084   9.349  0.2687  0.0943 -0.2577
  126MPD1    C4 1924   3.945   2.143   9.388  0.1054  0.0847  0.6078
  126MPD1    C5 1925   3.941   2.283   9.394  0.5830  0.5465  0.5145
  126MPD1     H 1926   4.250   2.120   9.250 -0.1464  1.5655 -1.5235
  126MPD1    H1 1927   3.853   2.090   9.410  0.0279 -0.2269 -0.4326
  126MPD1    H2 1928   4.046   2.468   9.379  1.4394  0.7446  0.3089
  126MPD1    H3 1929   3.853   2.327   9.440 -0.5964  1.6809 -2.8160
  126MPD1     N 1930   4.091   1.942   9.349 -0.2615 -0.2921  0.1696
  126MPD1    H5 1931   4.179   1.908   9.311  0.0743  0.2496  0.4434
  126MPD1    N1 1932   4.263   2.387   9.274 -0.7135 -0.3498 -0.3806
  126MPD1    H6 1933   4.324   2.344   9.204 -0.4049  0.1533 -0.4225
  126MPD1    H7 1934   4.229   2.476   9.239 -2.2631 -0.2807  1.3422
  127MPD2     C 1935   0.185   4.394   9.189 -1.0943 -1.0485  0.9083
  127MPD2    C1 1936   0.173   4.326   9.312  0.4875  0.0048  0.1823
  127MPD2    C2 1937   0.230   4.371   9.428  0.5860  0.3237 -0.6609
  127MPD2    C3 1938   0.323   4.476   9.423 -0.3676  0.9980  0.8940
  127MPD2    C4 1939   0.344   4.535   9.299 -0.3170 -0.0541  0.2996
  127MPD2    C5 1940   0.272   4.497   9.189 -0.2216 -0.0226  0.1585
  127MPD2     H 1941   0.218   4.317   9.521 -0.4532  1.6903 -0.0104
  127MPD2    H1 1942   0.422   4.608   9.282 -1.1945  1.2127  1.6873
  127MPD2    H2 1943   0.137   4.370   9.095  0.9768  0.6676 -0.5899
  127MPD2    H3 1944   0.288   4.537   9.089 -1.7383 -2.0147 -0.8975
  127MPD2     N 1945   0.399   4.509   9.538 -1.1079 -0.1230 -0.0723
  127MPD2    H5 1946   0.400   4.455   9.624  3.2660  1.8027  1.0695
  127MPD2    N1 1947   0.074   4.230   9.307  0.7555  0.4845  0.3359
  127MPD2    H7 1948   0.046   4.200   9.214 -3.8248  0.2199  1.7987
  128TCq2    C1 1949   4.712   4.194   9.411 -0.1745  0.0100 -0.4164
  128TCq2    O2 1950   4.705   4.234   9.526 -0.0214 -0.0775 -0.2313
  128TCq2    C2 1951   4.613   4.106   9.360  0.5558 -0.5092 -0.3450
  128TCq2    C3 1952   4.637   4.024   9.251  0.6194 -0.2597 -0.5241
  128TCq2    C4 1953   4.537   3.929   9.223 -0.0418  0.0435 -0.0268
  128TCq2    C5 1954   4.434   3.910   9.310 -1.0171  0.4488  0.1307
  128TCq2    C6 1955   4.418   3.994   9.411  0.4173 -0.2350  0.1389
  128TCq2    C7 1956   4.503   4.095   9.434  0.7443 -0.1786 -0.4025
  128TCq2    C8 1957   4.285   4.026   9.464 -0.1369  0.0712  0.0369
  128TCq2    O4 1958   4.251   4.139   9.501  0.1213  0.7741  0.0318
  128TCq2    C9 1959   4.554   3.841   9.112  0.5227  0.0960 -0.0849
  128TCq2    O5 1960   4.642   3.856   9.029 -0.1815 -0.3837  0.4738
  128TCq2    O6 1961   4.480   3.738   9.119 -0.2579 -0.3505 -0.6707
  128TCq2    H2 1962   0.011   3.999   9.206 -0.3115 -1.0446 -2.0552
  128TCq2    H3 1963   4.367   3.826   9.295  0.0019 -0.1977 -0.8244
  128TCq2    H4 1964   4.494   4.160   9.520  1.0442  1.1341 -1.3619
  129MPD2     C 1965   3.023   0.670   1.098 -0.6046  0.4300  0.0528
  129MPD2    C1 1966   3.147   0.644   1.148 -0.4708 -0.6476  0.3447
  129MPD2    C2 1967   3.261   0.686   1.087  0.5447 -0.4573  0.3913
  129MPD2    C3 1968   3.256   0.743   0.961 -0.3084  0.3559  0.7258
  129MPD2    C4 1969   3.133   0.764   0.907  0.5421  0.2940  0.0825
  129MPD2    C5 1970   3.017   0.735   0.977 -0.3025 -0.4603 -0.1807
  129MPD2     H 1971   3.358   0.684   1.135  0.1480  2.6703  1.3759
  129MPD2    H1 1972   3.115   0.811   0.811  0.2750  0.4527  0.2122
  129MPD2    H2 1973   2.927   0.635   1.134  0.5590 -2.8736 -0.0426
  129MPD2    H3 1974   2.920   0.751   0.931  0.3862  2.0562 -0.7501
  129MPD2     N 1975   3.373   0.789   0.902  0.1476 -0.2030  0.0563
  129MPD2    H5 1976   3.453   0.781   0.965  1.3222  0.4757 -1.3386
  129MPD2    N1 1977   3.166   0.554   1.259  0.2384  0.2513  0.3236
  129MPD2    H7 1978   3.262   0.553   1.291  0.8033  3.4241 -1.2827
  130TCq2    C1 1979   3.070   0.491   1.328 -0.8396 -0.1758 -0.6732
  130TCq2    O2 1980   2.950   0.494   1.316  0.2808  1.0520  0.4391
  130TCq2    C2 1981   3.125   0.398   1.427 -0.1266 -0.1138 -0.2611
  130TCq2    C3 1982   3.237   0.329   1.400 -0.1201 -0.1325  0.3459
  130TCq2    C4 1983   3.280   0.236   1.494  0.2013 -0.3197 -0.4740
  130TCq2    C5 1984   3.207   0.199   1.604 -0.2652  0.0382 -0.4525
  130TCq2    C6 1985   3.092   0.274   1.627 -0.4537  0.3741 -0.2302
  130TCq2    C7 1986   3.053   0.367   1.533 -0.3417 -0.2681  0.0777
  130TCq2    C8 1987   2.996   0.248   1.737  0.3639  0.5021  0.5428
  130TCq2    O4 1988   2.886   0.296   1.723  0.1157 -0.2956  0.2794
  130TCq2    C9 1989   3.387   0.155   1.441 -0.0712 -0.6018 -0.0098
  130TCq2    O5 1990   3.440   0.182   1.331 -0.4809  0.1053  0.3211
  130TCq2    O6 1991   3.427   0.063   1.516  0.1074 -0.6183  0.5233
  130TCq2    H2 1992   3.275   0.332   1.299 -0.4897  0.9848  0.2355
  130TCq2    H3 1993   3.240   0.108   1.652 -0.5843  0.0661 -0.1819
  130TCq2    H4 1994   2.954   0.410   1.547  0.5818  1.9513 -0.2425
  131MPD2     C 1995   1.670   3.781   9.705  0.0532 -0.1327 -0.1204
  131MPD2    C1 1996   1.787   3.728   9.659 -0.0452  0.0146 -0.2829
  131MPD2    C2 1997   1.780   3.602   9.602  1.3911  0.6353  0.2267
  131MPD2    C3 1998   1.669   3.518   9.612 -0.1293 -0.4271  0.0271
  131MPD2    C4 1999   1.556   3.568   9.671 -0.2644 -0.6154  0.6602
  131MPD2    C5 2000   1.554   3.701   9.699 -0.3626  0.5163  1.0313
  131MPD2     H 2001   1.849   3.563   9.528  0.6867 -1.4767  0.6734
  131MPD2    H1 2002   1.457   3.525   9.659  0.7257 -2.3614 -1.1813
  131MPD2    H2 2003   1.666   3.886   9.733  1.4215 -0.2225  0.4240
  131MPD2    H3 2004   1.453   3.735   9.723 -1.2666 -2.0621  0.8400
  131MPD2     N 2005   1.675   3.393   9.545 -0.5235  0.6283  0.5076
  131MPD2    H5 2006   1.766   3.359   9.515 -1.4985 -1.9670  0.5001
  131MPD2    N1 2007   1.901   3.813   9.637  0.5133 -0.2068  0.5691
  131MPD2    H7 2008   1.888   3.908   9.669 -0.8792 -0.2886  0.2605
  132TCq2    C1 2009   2.158   4.229   9.587  0.1330 -0.5747 -0.5117
  132TCq2    O2 2010   2.062   4.261   9.525  0.9710 -0.0694 -0.1023
  132TCq2    C2 2011   2.189   4.095   9.627 -0.1343 -0.1099 -0.1459
  132TCq2    C3 2012   2.321   4.062   9.661 -0.4810 -0.0822  0.2773
  132TCq2    C4 2013   2.351   3.930   9.666 -0.0693  0.1811 -0.3473
  132TCq2    C5 2014   2.258   3.831   9.639  0.2724 -1.0366 -0.8073
  132TCq2    C6 2015   2.132   3.871   9.595  0.2668  0.4883  0.0610
  132TCq2    C7 2016   2.090   4.002   9.595 -0.0926 -0.3110  0.2579
  132TCq2    C8 2017   2.031   3.765   9.608 -0.4807  0.2279 -0.4202
  132TCq2    O4 2018   2.072   3.651   9.596  0.0459  0.6145  0.2187
  132TCq2    C9 2019   2.494   3.897   9.680 -0.1998 -0.8836  0.5962
  132TCq2    O5 2020   2.514   3.774   9.704  0.4702  0.3227  0.7156
  132TCq2    O6 2021   2.571   3.995   9.693  0.8400  0.0229 -0.2997
  132TCq2    H2 2022   2.398   4.137   9.675 -0.9122  0.4385 -0.1581
  132TCq2    H3 2023   2.278   3.725   9.640  1.5106 -0.7368  2.9906
  132TCq2    H4 2024   1.993   4.035   9.559 -0.7025 -1.0745  1.1858
  133MPD2     C 2025   0.865   3.767   9.842 -0.2319 -0.6936  0.8258
  133MPD2    C1 2026   0.991   3.727   9.802  0.3686  0.4495 -0.0335
  133MPD2    C2 2027   1.090   3.817   9.822 -0.2593 -0.5390  0.2060
  133MPD2    C3 2028   1.073   3.944   9.869  0.5144  0.1531  0.3910
  133MPD2    C4 2029   0.951   3.979   9.919  0.3982  0.1495  0.0542
  133MPD2    C5 2030   0.848   3.893   9.895  0.7558 -0.5852  0.1907
  133MPD2     H 2031   1.191   3.785   9.796  1.3346  3.2734  1.7145
  133MPD2    H1 2032   0.933   4.079   9.958  0.8006  0.0477  0.5067
  133MPD2    H2 2033   0.779   3.705   9.821  0.0041  0.3401 -3.1598
  133MPD2    H3 2034   0.746   3.918   9.924  0.8286 -0.4739  0.3486
  133MPD2     N 2035   1.170   4.040   9.887  0.1279 -0.0527 -0.3134
  133MPD2    H5 2036   1.137   4.118   9.942  0.5378 -0.0319 -0.0974
  133MPD2    N1 2037   1.011   3.598   9.754 -0.0918 -0.3174  0.2978
  133MPD2    H7 2038   0.926   3.544   9.738 -0.4408  0.5046 -0.6499
  134TCq2    C1 2039   1.132   3.537   9.722  0.6886 -0.2602 -0.0522
  134TCq2    O2 2040   1.248   3.569   9.749  0.0172 -0.1603 -0.2520
  134TCq2    C2 2041   1.104   3.402   9.670  0.6979  0.0273  0.0578
  134TCq2    C3 2042   0.999   3.384   9.583 -0.2170 -0.0333 -0.6107
  134TCq2    C4 2043   0.963   3.255   9.558 -0.1536  0.5844 -0.2808
  134TCq2    C5 2044   1.031   3.145   9.597 -0.5452 -0.1268  0.2365
  134TCq2    C6 2045   1.141   3.167   9.669 -0.7198 -0.3237 -0.4166
  134TCq2    C7 2046   1.181   3.292   9.708  0.0784  0.2655 -0.5057
  134TCq2    C8 2047   1.228   3.049   9.691 -0.0157  0.0008 -0.1369
  134TCq2    O4 2048   1.166   2.945   9.697 -0.6435 -0.5209  0.0707
  134TCq2    C9 2049   0.844   3.239   9.481 -0.0836  0.0194 -0.1029
  134TCq2    O5 2050   0.786   3.124   9.484  0.0049 -0.1381  0.2296
  134TCq2    O6 2051   0.829   3.324   9.388  0.3736  0.4540 -0.7852
  134TCq2    H2 2052   0.957   3.472   9.537 -0.8434 -0.7106 -1.3361
  134TCq2    H3 2053   0.987   3.052   9.562  2.1834 -1.6318  0.8013
  134TCq2    H4 2054   1.259   3.300   9.783  0.8625 -1.3520 -1.1421
  135MPD2     C 2055   4.271   1.846   9.685 -0.0689 -0.4012 -0.0445
  135MPD2    C1 2056   4.300   1.711   9.671 -0.3796  0.0510 -0.1880
  135MPD2    C2 2057   4.394   1.671   9.573 -0.5400  0.6206 -0.7029
  135MPD2    C3 2058   4.448   1.770   9.494  0.1626  0.3411  0.5759
  135MPD2    C4 2059   4.423   1.904   9.506 -0.3153 -0.3278 -0.7407
  135MPD2    C5 2060   4.332   1.943   9.602 -0.3082 -0.6097 -0.1530
  135MPD2     H 2061   4.419   1.566   9.564 -1.0978  0.4732 -0.5326
  135MPD2    H1 2062   4.477   1.977   9.448 -1.1047  2.0114  1.4771
  135MPD2    H2 2063   4.215   1.885   9.769 -0.8361 -0.7165 -0.4100
  135MPD2    H3 2064   4.295   2.044   9.615 -2.1293 -1.3211  0.2175
  135MPD2     N 2065   4.540   1.732   9.397 -0.1201 -0.2914 -0.1856
  135MPD2    H5 2066   4.581   1.797   9.330  1.7064 -2.2417 -0.9903
  135MPD2    N1 2067   4.242   1.610   9.754 -0.2166  0.0300  0.3601
  135MPD2    H7 2068   4.272   1.514   9.742  0.3103  0.1445  0.7226
  136TCq2    C1 2069   4.151   1.633   9.852  0.7603  0.3183 -0.4341
  136TCq2    O2 2070   4.084   1.733   9.865 -0.2182  0.2238 -0.5860
  136TCq2    C2 2071   4.123   1.513   9.924  0.2098  0.0888 -0.4096
  136TCq2    C3 2072   4.218   1.413   9.927  0.4271 -0.5284  0.0365
  136TCq2    C4 2073   4.170   1.294   9.973  0.0186 -0.2641  1.2556
  136TCq2    C5 2074   4.046   1.268  10.015  0.0390 -0.5698  0.4645
  136TCq2    C6 2075   3.957   1.373  10.018 -0.1134  1.0726 -0.1722
  136TCq2    C7 2076   3.995   1.495   9.972 -0.4402 -0.5881  0.6233
  136TCq2    C8 2077   3.826   1.363  10.073  0.4592  0.3944 -0.0626
  136TCq2    O4 2078   3.760   1.461  10.102 -0.3451 -0.4837 -0.3837
  136TCq2    C9 2079   4.253   1.173   9.969  0.1991 -0.8560  0.0456
  136TCq2    O5 2080   4.375   1.188   9.942 -0.1412  0.0802 -0.2099
  136TCq2    O6 2081   4.213   1.063  10.016  0.3093  0.5071  0.1796
  136TCq2    H2 2082   4.324   1.425   9.908  0.8367 -1.8027  1.4587
  136TCq2    H3 2083   4.016   1.165  10.029 -0.5348 -0.6156 -1.0367
  136TCq2    H4 2084   3.920   1.573   9.971  0.8821  0.6539 -1.5832
  137MPD2     C 2085   3.898   4.383   9.486 -0.6821  0.9871 -0.8859
  137MPD2    C1 2086   3.958   4.485   9.419  0.5134 -0.9047 -0.3788
  137MPD2    C2 2087   4.056   4.565   9.486 -0.6481 -0.2650 -0.2995
  137MPD2    C3 2088   4.079   4.544   9.622 -0.0957 -0.1920  0.7516
  137MPD2    C4 2089   4.008   4.453   9.689 -0.2540  0.1646 -0.0572
  137MPD2    C5 2090   3.926   4.366   9.619 -0.2272  0.1679 -0.6584
  137MPD2     H 2091   4.103   4.650   9.437 -0.6146 -0.0752  0.0594
  137MPD2    H1 2092   4.036   4.433   9.792 -0.3729 -2.1181 -0.4636
  137MPD2    H2 2093   3.822   4.316   9.449  0.3496  0.4818 -2.0751
  137MPD2    H3 2094   3.880   4.284   9.673 -0.0736  0.0237 -0.7469
  137MPD2     N 2095   4.167   4.636   9.678  0.0268  0.1249 -0.2103
  137MPD2    H5 2096   4.208   4.710   9.622 -1.6722  0.1593 -1.4190
  137MPD2    N1 2097   3.913   4.509   9.291  0.6744 -0.1546 -0.5456
  137MPD2    H7 2098   3.839   4.448   9.259 -0.0243 -0.4071  1.6018
  138TCq2    C1 2099   3.974   4.588   9.194 -0.0504 -0.6047 -0.4818
  138TCq2    O2 2100   4.071   4.659   9.201  0.0800 -0.0245 -0.2929
  138TCq2    C2 2101   3.899   4.590   9.072 -0.6199 -0.8606 -0.4496
  138TCq2    C3 2102   3.968   4.613   8.951  0.0975  0.7331  0.4376
  138TCq2    C4 2103   3.903   4.587   8.839 -0.5647 -0.0705  0.7476
  138TCq2    C5 2104   3.770   4.546   8.850  0.6932 -0.2452 -0.9976
  138TCq2    C6 2105   3.701   4.551   8.966  0.5645 -0.3990 -0.5454
  138TCq2    C7 2106   3.765   4.572   9.084 -0.4552 -0.4847 -0.1927
  138TCq2    C8 2107   3.553   4.541   8.957 -0.2080 -0.2132 -0.2246
  138TCq2    O4 2108   3.507   4.537   8.845 -0.0196  0.4337  0.3414
  138TCq2    C9 2109   3.969   4.599   8.708 -0.2079  0.6014  0.0247
  138TCq2    O5 2110   3.904   4.575   8.601  0.1287  0.5032  0.1941
  138TCq2    O6 2111   4.080   4.658   8.708 -0.0280 -0.3643 -0.4032
  138TCq2    H2 2112   4.073   4.639   8.947  0.5534 -1.4501 -1.4372
  138TCq2    H3 2113   3.718   4.540   8.755 -2.1087 -0.6997  0.5767
  138TCq2    H4 2114   3.714   4.564   9.179  0.7355 -0.7495  0.4270
  139TMC2    C1 2115   4.460   3.885  13.491 -0.2247 -0.0332 -0.3726
  139TMC2    C2 2116   4.523   4.002  13.450  0.2674 -0.2657 -0.2056
  139TMC2    C3 2117   4.451   4.114  13.457  0.3883  0.3926  0.7879
  139TMC2    C4 2118   4.340   3.876  13.555  0.7171  0.6007  0.3291
  139TMC2    C5 2119   4.275   3.997  13.558 -0.4525 -0.5125  0.2612
  139TMC2    C6 2120   4.323   4.116  13.510  0.1418  0.5643 -0.1674
  139TMC2     C 2121   4.535   3.766  13.495  0.3364  0.3785  0.2047
  139TMC2     O 2122   4.476   3.662  13.527  0.4330  0.3650  0.3094
  139TMC2     H 2123   4.620   4.008  13.401  0.8347  0.9107  1.0541
  139TMC2    H1 2124   4.296   3.788  13.600 -1.3505  2.5706  2.1955
  139TMC2    H2 2125   4.272   4.209  13.534  0.1217  0.4235  0.3223
  139TMC2    C7 2126   4.144   3.994  13.627  0.2099 -0.3873 -0.4659
  139TMC2    C8 2127   4.512   4.241  13.413  0.4032  0.3178  0.1707
  139TMC2    O1 2128   4.119   3.907  13.709 -0.6814 -0.2419 -0.0911
  139TMC2    O2 2129   4.461   4.303  13.321  0.1067 -0.0866  0.4343
  139TMC2    O5 2130   4.636   4.236  13.454  0.4981  0.4274  0.4428
  139TMC2    H5 2131   4.630   4.200  13.544 -0.4522 -1.9298 -0.5616
  140MPD2     C 2132   0.166   3.714  13.405 -0.7020  0.8094  0.5033
  140MPD2    C1 2133   0.037   3.672  13.448  0.0948  0.4945 -0.1745
  140MPD2    C2 2134   0.010   3.539  13.467  0.0058 -0.4829  0.2158
  140MPD2    C3 2135   0.108   3.443  13.437 -1.1511  0.1488  0.1724
  140MPD2    C4 2136   0.231   3.486  13.391  0.2861  0.2695  0.4472
  140MPD2    C5 2137   0.261   3.619  13.378  0.3915  0.0270 -0.1383
  140MPD2     H 2138   4.637   3.505  13.509 -1.3305  0.6258 -1.8957
  140MPD2    H1 2139   0.308   3.410  13.386  0.7594  0.8762 -1.2991
  140MPD2    H2 2140   0.190   3.818  13.388 -0.4741  0.8302  0.9488
  140MPD2    H3 2141   0.361   3.642  13.342  0.7936 -0.2778  0.7764
  140MPD2     N 2142   0.072   3.305  13.436  0.1875  0.1784 -0.0712
  140MPD2    H5 2143   4.706   3.274  13.478 -0.6977  2.1110 -0.4938
  140MPD2    N1 2144   4.669   3.778  13.466  0.1090  0.5331 -0.2568
  140MPD2    H7 2145   4.697   3.876  13.465  0.0152  0.5468 -1.1776
  141TCq2    C1 2146   0.167   0.239  14.842  0.0667 -0.0830 -0.4708
  141TCq2    O2 2147   0.243   0.271  14.752 -0.7368  0.4568 -0.6693
  141TCq2    C2 2148   0.122   0.343  14.928  0.1513  0.2907 -0.2761
  141TCq2    C3 2149   0.012   0.320  15.003  0.8596  0.5879  0.4951
  141TCq2    C4 2150   4.666   0.423  15.062 -0.6919 -0.0355 -0.3710
  141TCq2    C5 2151   0.000   0.546  15.054 -0.2907 -1.1486  0.0212
  141TCq2    C6 2152   0.111   0.570  14.983 -0.0692 -0.1491 -0.3119
  141TCq2    C7 2153   0.176   0.467  14.911  0.4148  0.1332  0.4396
  141TCq2    C8 2154   0.149   0.708  14.969  0.1204  0.0722  1.2574
  141TCq2    O4 2155   0.063   0.790  15.005  0.3598 -0.2385  0.0284
  141TCq2    C9 2156   4.556   0.396  15.140 -0.4358 -0.3184  0.2586
  141TCq2    O5 2157   4.487   0.495  15.176  0.3097 -0.4605 -0.4922
  141TCq2    O6 2158   4.567   0.290  15.208 -0.0914  0.2201 -0.5285
  141TCq2    H2 2159   4.688   0.222  15.008  0.2539  0.8514  0.2244
  141TCq2    H3 2160   4.675   0.624  15.113 -2.5313 -1.0313 -1.8764
  141TCq2    H4 2161   0.263   0.483  14.848  1.1785  0.5225  1.6110
  142MPD2     C 2162   2.529   2.816  10.267  0.1374 -0.1737  0.5612
  142MPD2    C1 2163   2.442   2.819  10.161  0.5121  0.2494 -0.2639
  142MPD2    C2 2164   2.456   2.916  10.064 -0.1529  0.1786 -0.0484
  142MPD2    C3 2165   2.545   3.024  10.084  0.0322  0.7604 -0.9475
  142MPD2    C4 2166   2.623   3.020  10.197  0.2974 -0.4840 -0.4620
  142MPD2    C5 2167   2.623   2.914  10.287  0.1420  0.1653  0.6221
  142MPD2     H 2168   2.392   2.911   9.976  0.4748 -1.4788 -0.4176
  142MPD2    H1 2169   2.696   3.097  10.220 -0.6515  0.3446 -0.2532
  142MPD2    H2 2170   2.522   2.752  10.354  1.8634  0.4384  1.1594
  142MPD2    H3 2171   2.692   2.896  10.369 -1.3504  0.5244  1.9629
  142MPD2     N 2172   2.566   3.129   9.994  0.2169 -0.3956 -0.1404
  142MPD2    H5 2173   2.638   3.196  10.021  0.7297  0.8234 -4.5161
  142MPD2    N1 2174   2.352   2.711  10.157 -0.5628  0.1153 -0.0213
  142MPD2    H7 2175   2.343   2.644  10.233 -2.2741  1.2085  0.7465
  143TCq2    C1 2176   2.500   3.146   9.870  0.2713  0.1123  0.0257
  143TCq2    O2 2177   2.415   3.081   9.810  0.2541 -0.1532  0.4546
  143TCq2    C2 2178   2.560   3.262   9.799  0.7843  0.1984  0.9565
  143TCq2    C3 2179   2.693   3.294   9.833  0.0461 -0.3299  0.5586
  143TCq2    C4 2180   2.737   3.408   9.769  0.8440  0.3826  0.1564
  143TCq2    C5 2181   2.662   3.486   9.689  0.0466 -0.3398  0.0749
  143TCq2    C6 2182   2.536   3.448   9.655 -0.6261 -0.4332 -0.4657
  143TCq2    C7 2183   2.483   3.333   9.711  0.5546 -0.6717 -0.0740
  143TCq2    C8 2184   2.484   3.488   9.523 -0.1606 -0.0091 -0.0151
  143TCq2    O4 2185   2.414   3.417   9.453 -1.0064  0.0955  0.0894
  143TCq2    C9 2186   2.871   3.450   9.793  0.0065 -0.2269 -0.2122
  143TCq2    O5 2187   2.938   3.364   9.860  0.3868 -0.3250 -0.3300
  143TCq2    O6 2188   2.923   3.530   9.707 -0.4275 -0.2775  0.2672
  143TCq2    H2 2189   2.753   3.246   9.909 -0.1722  0.6537  1.3410
  143TCq2    H3 2190   2.704   3.582   9.662  2.1920 -1.7947 -1.6682
  143TCq2    H4 2191   2.381   3.304   9.688  0.2425 -0.7320  1.4232
  144MPD2     C 2192   0.372   2.192   0.541 -0.5453  0.2868 -0.2639
  144MPD2    C1 2193   0.460   2.259   0.460 -0.0367  0.0556 -0.2100
  144MPD2    C2 2194   0.584   2.287   0.508 -0.3114 -0.2053  0.6190
  144MPD2    C3 2195   0.628   2.233   0.627 -0.4212  0.3063 -0.1300
  144MPD2    C4 2196   0.546   2.149   0.700 -0.4315 -0.3820 -0.4924
  144MPD2    C5 2197   0.413   2.139   0.660 -0.0183 -0.0606  0.6825
  144MPD2     H 2198   0.656   2.335   0.443 -1.4840  1.9540  0.9116
  144MPD2    H1 2199   0.576   2.086   0.783 -1.0804 -1.1969 -0.8800
  144MPD2    H2 2200   0.274   2.167   0.503 -0.5423 -0.7390  0.3832
  144MPD2    H3 2201   0.340   2.078   0.711 -1.0723  2.0503  1.6979
  144MPD2     N 2202   0.763   2.252   0.677  0.8064 -0.1516 -0.6888
  144MPD2    H5 2203   0.792   2.204   0.761 -0.6384  0.7969  0.3630
  144MPD2    N1 2204   0.432   2.308   0.330  0.0293  0.4892  0.2928
  144MPD2    H7 2205   0.508   2.361   0.288  1.1964 -1.0537  0.4247
  145TCq2    C1 2206   0.849   2.345   0.628  0.4348  0.7583 -0.0256
  145TCq2    O2 2207   0.834   2.426   0.539 -0.1303  0.3989 -0.0084
  145TCq2    C2 2208   0.987   2.333   0.684 -0.4398 -0.2933  0.2787
  145TCq2    C3 2209   1.088   2.336   0.592 -0.4483 -0.4811 -0.4200
  145TCq2    C4 2210   1.217   2.332   0.632  0.0120  0.6985 -0.3897
  145TCq2    C5 2211   1.255   2.330   0.766 -0.6052 -0.6343 -0.2168
  145TCq2    C6 2212   1.147   2.319   0.859  0.1158 -0.7114  0.6756
  145TCq2    C7 2213   1.013   2.316   0.823 -0.3856  0.6043 -1.1608
  145TCq2    C8 2214   1.182   2.311   1.003  0.2241 -1.1267 -0.2676
  145TCq2    O4 2215   1.298   2.277   1.017  0.1370 -0.2761 -0.3138
  145TCq2    C9 2216   1.316   2.324   0.535  0.1481  0.3350 -0.7482
  145TCq2    O5 2217   1.291   2.252   0.440  0.2873 -0.0690  0.5879
  145TCq2    O6 2218   1.429   2.365   0.570  0.4386 -0.7977 -0.5065
  145TCq2    H2 2219   1.063   2.338   0.487 -0.8834 -0.2231 -0.3117
  145TCq2    H3 2220   1.361   2.338   0.786 -0.8053 -0.0515  0.6133
  145TCq2    H4 2221   0.925   2.319   0.886 -0.7382 -0.3119 -1.6143
  146TMC2    C1 2222   1.563   1.288  12.518 -0.0841 -0.0920 -0.2468
  146TMC2    C2 2223   1.466   1.344  12.447  0.2070  0.1096 -0.0843
  146TMC2    C3 2224   1.431   1.287  12.331  0.1239  0.3928  0.2663
  146TMC2    C4 2225   1.620   1.166  12.483  0.3342 -0.1939 -0.2317
  146TMC2    C5 2226   1.583   1.117  12.359 -0.2305 -0.3790  0.0340
  146TMC2    C6 2227   1.487   1.176  12.280  0.0506 -0.6525  0.4269
  146TMC2     C 2228   1.638   1.365  12.621  0.0413  0.0664 -0.3289
  146TMC2     O 2229   1.642   1.487  12.621  0.2519  0.1574  0.1210
  146TMC2     H 2230   1.415   1.434  12.478 -0.0559  0.0564 -0.3684
  146TMC2    H1 2231   1.703   1.125  12.539  1.2729 -1.5219 -2.5885
  146TMC2    H2 2232   1.487   1.153  12.174  0.5145 -0.0686  0.3027
  146TMC2    C7 2233   1.661   1.011  12.305 -0.0533  0.1344 -0.9176
  146TMC2    C8 2234   1.328   1.347  12.259  0.2218 -0.4424  0.0260
  146TMC2    O1 2235   1.638   0.983  12.188 -0.6572  0.7099 -0.0562
  146TMC2    O2 2236   1.289   1.458  12.293 -0.0163 -0.2199  0.2829
  146TMC2    O5 2237   1.265   1.266  12.174  0.2922  0.3221 -0.2785
  146TMC2    H5 2238   1.281   1.169  12.181 -2.2715 -0.1938 -1.5628
  147MPD2     C 2239   2.071   0.707  12.345 -0.2077  0.2224  0.1691
  147MPD2    C1 2240   2.008   0.701  12.465 -0.2661 -0.1582 -0.0831
  147MPD2    C2 2241   1.889   0.774  12.475  0.5274  0.7368  0.0862
  147MPD2    C3 2242   1.834   0.845  12.369 -0.2023  0.3371  0.0896
  147MPD2    C4 2243   1.895   0.839  12.252  0.8409  0.1851 -0.1232
  147MPD2    C5 2244   2.013   0.769  12.244  0.3238 -0.1548  0.3803
  147MPD2     H 2245   1.829   0.765  12.564 -2.5226  2.1687 -1.8218
  147MPD2    H1 2246   1.852   0.889  12.166 -1.9268  0.2391  1.2839
  147MPD2    H2 2247   2.171   0.666  12.340 -0.5879 -0.6650 -0.1305
  147MPD2    H3 2248   2.061   0.770  12.146  0.8996 -0.8532  0.6562
  147MPD2     N 2249   1.727   0.932  12.398  0.4279 -0.1678  0.3389
  147MPD2    H5 2250   1.702   0.952  12.494  1.6723 -0.8146  0.8025
  147MPD2    N1 2251   2.081   0.637  12.569  0.7959  0.5218  0.2537
  147MPD2    H7 2252   2.159   0.580  12.540 -1.2900 -1.5514 -1.3148
  148MPD2     C 2253   2.154   3.384  10.479 -0.3757  0.0322  0.0392
  148MPD2    C1 2254   2.193   3.513  10.511  0.1720  0.4184 -0.4064
  148MPD2    C2 2255   2.106   3.613  10.482  0.0197 -0.4071  0.0567
  148MPD2    C3 2256   1.990   3.595  10.418  0.2494  0.7819 -0.1834
  148MPD2    C4 2257   1.949   3.471  10.383  0.4014  0.3271 -0.0699
  148MPD2    C5 2258   2.028   3.363  10.418 -0.6174  0.6510 -0.4881
  148MPD2     H 2259   2.140   3.712  10.513 -0.7818 -0.2408  0.4205
  148MPD2    H1 2260   1.848   3.457  10.346  0.7179 -0.2451 -0.7295
  148MPD2    H2 2261   2.222   3.301  10.499  0.0580  0.6759  1.2429
  148MPD2    H3 2262   1.987   3.263  10.408 -1.5822  0.9503  0.4973
  148MPD2     N 2263   1.898   3.701  10.398  0.2402 -0.6690 -0.2400
  148MPD2    H5 2264   1.812   3.683  10.347  0.0072  0.8143 -0.3863
  148MPD2    N1 2265   2.320   3.542  10.568  0.7325  0.8287  0.6929
  148MPD2    H7 2266   2.345   3.639  10.582  0.3367  0.6581  2.5651
  149TCq2    C1 2267   2.409   3.447  10.610 -0.3267 -0.1982 -0.0147
  149TCq2    O2 2268   2.424   3.329  10.581 -0.6046 -0.1261 -0.0609
  149TCq2    C2 2269   2.531   3.512  10.662  0.6124 -0.6599 -0.4223
  149TCq2    C3 2270   2.528   3.624  10.743  0.5467 -0.6469 -0.1566
  149TCq2    C4 2271   2.642   3.703  10.761 -0.0511  0.3156  0.2396
  149TCq2    C5 2272   2.745   3.688  10.668  0.1454 -0.0242  0.0087
  149TCq2    C6 2273   2.748   3.575  10.591 -0.6822  0.8587 -0.1937
  149TCq2    C7 2274   2.642   3.483  10.580  0.2761  0.0718 -0.2030
  149TCq2    C8 2275   2.795   3.615  10.460  0.1155 -0.2159 -0.4286
  149TCq2    O4 2276   2.906   3.672  10.460  0.2433  0.3241 -0.1680
  149TCq2    C9 2277   2.617   3.830  10.814  0.3347 -0.2075 -0.6600
  149TCq2    O5 2278   2.710   3.918  10.826 -0.4027 -0.2431 -0.1670
  149TCq2    O6 2279   2.492   3.857  10.816  0.1888 -0.0768  0.8059
  149TCq2    H2 2280   2.430   3.650  10.782  0.1031 -3.4465  0.6465
  149TCq2    H3 2281   2.820   3.765  10.671 -0.4972  0.6626 -1.6234
  149TCq2    H4 2282   2.646   3.390  10.526 -0.7873  2.0674 -3.7432
  150MPD2     C 2283   4.012   3.509  12.372  0.1541 -0.2012  0.1014
  150MPD2    C1 2284   3.979   3.624  12.305 -0.5273  0.9675  0.5656
  150MPD2    C2 2285   4.027   3.742  12.359  0.3821 -0.3915  0.3386
  150MPD2    C3 2286   4.117   3.748  12.461 -0.0305 -0.1643  0.2244
  150MPD2    C4 2287   4.150   3.626  12.526 -0.3704  0.3356 -0.6556
  150MPD2    C5 2288   4.092   3.514  12.484  0.1295 -0.4098  0.6423
  150MPD2     H 2289   3.991   3.836  12.318  0.8765  0.1081  1.0616
  150MPD2    H1 2290   4.220   3.629  12.608 -0.7609  1.3350 -0.3654
  150MPD2    H2 2291   3.977   3.412  12.336  1.4712  0.1934 -2.2856
  150MPD2    H3 2292   4.108   3.425  12.544  3.8936  0.6291  1.2071
  150MPD2     N 2293   4.176   3.874  12.498  0.2654  0.1417 -0.0605
  150MPD2    H5 2294   4.130   3.957  12.462  1.7697  0.3140 -1.5690
  150MPD2    N1 2295   3.883   3.618  12.200  0.4086  0.1297 -0.3207
  150MPD2    H7 2296   3.874   3.522  12.167  1.1487  0.5286 -1.6647
  151TCq2    C1 2297   4.277   3.890  12.587 -0.1971  0.1230 -0.0112
  151TCq2    O2 2298   4.350   3.808  12.641  0.7557  0.4717  0.0014
  151TCq2    C2 2299   4.327   4.030  12.596 -0.3739 -0.4512  0.2113
  151TCq2    C3 2300   4.288   4.123  12.504 -0.0908 -0.5279  0.4602
  151TCq2    C4 2301   4.350   4.243  12.488 -0.1055  0.1099 -1.1506
  151TCq2    C5 2302   4.449   4.281  12.573 -0.4058  0.3128  0.1155
  151TCq2    C6 2303   4.489   4.186  12.665 -0.0256  0.0609  0.4683
  151TCq2    C7 2304   4.440   4.060  12.670  0.2371 -0.1121  0.4722
  151TCq2    C8 2305   4.623   4.193  12.722  0.4081 -0.1927 -0.9130
  151TCq2    O4 2306   4.667   4.306  12.730 -0.0575  0.1893 -0.5202
  151TCq2    C9 2307   4.307   4.334  12.390  0.1323 -0.1819  0.8403
  151TCq2    O5 2308   4.352   4.451  12.392  0.8150  0.1598  0.1738
  151TCq2    O6 2309   4.220   4.302  12.307  0.2286  0.3254  0.3562
  151TCq2    H2 2310   4.215   4.106  12.426 -1.9696  0.3496  2.0331
  151TCq2    H3 2311   4.516   4.366  12.565  0.5418 -0.6855 -2.4972
  151TCq2    H4 2312   4.452   3.999  12.759  0.4803  0.4178  0.7979
  152MPD2     C 2313   3.654   3.198  12.970 -0.8969 -0.3372 -0.0415
  152MPD2    C1 2314   3.695   3.283  12.865 -0.4798  0.0854  0.0357
  152MPD2    C2 2315   3.615   3.302  12.755  0.0976 -0.8894 -0.2314
  152MPD2    C3 2316   3.489   3.244  12.751  0.4517  0.7586 -0.8228
  152MPD2    C4 2317   3.449   3.157  12.851  0.0379 -0.2211 -0.0097
  152MPD2    C5 2318   3.533   3.139  12.957 -1.0488 -0.0527  0.2446
  152MPD2     H 2319   3.663   3.362  12.679  0.1313  0.7607  1.0803
  152MPD2    H1 2320   3.358   3.098  12.858  1.1463 -1.9661 -0.3929
  152MPD2    H2 2321   3.716   3.175  13.056 -2.9628 -0.2903  1.4573
  152MPD2    H3 2322   3.515   3.064  13.034 -0.8540 -0.0867  0.2561
  152MPD2     N 2323   3.415   3.261  12.635  0.1743  0.0604 -0.0949
  152MPD2    H5 2324   3.467   3.311  12.564  0.9182 -0.6070 -0.0175
  152MPD2    N1 2325   3.814   3.345  12.892 -0.0037 -0.4932  0.1921
  152MPD2    H7 2326   3.863   3.316  12.976 -1.3793 -0.6828  0.9308
  153TCq2    C1 2327   3.863   3.452  12.817  0.0385  0.0274 -0.4200
  153TCq2    O2 2328   3.808   3.530  12.738 -0.9380 -0.0645  0.4656
  153TCq2    C2 2329   3.993   3.487  12.852  0.3720 -0.5347 -0.1791
  153TCq2    C3 2330   4.086   3.391  12.869  0.1346 -0.0534 -0.1046
  153TCq2    C4 2331   4.218   3.429  12.883 -0.0344 -0.0866  0.3181
  153TCq2    C5 2332   4.261   3.561  12.899 -0.5724 -0.0590 -0.8838
  153TCq2    C6 2333   4.159   3.653  12.895 -0.4623  0.1765 -0.7154
  153TCq2    C7 2334   4.023   3.617  12.875  1.0957 -0.1418  0.5290
  153TCq2    C8 2335   4.176   3.793  12.927 -0.4411  0.4491  0.2471
  153TCq2    O4 2336   4.091   3.877  12.900  0.1401 -0.4188  0.3011
  153TCq2    C9 2337   4.318   3.329  12.872  0.2103 -0.6463  0.2270
  153TCq2    O5 2338   4.279   3.209  12.873  0.0240  0.1481  0.8389
  153TCq2    O6 2339   4.427   3.365  12.920  0.3303  0.1402 -0.3672
  153TCq2    H2 2340   4.053   3.288  12.872 -0.7078  0.1104 -4.5016
  153TCq2    H3 2341   4.368   3.581  12.906 -1.2423  2.9589  0.5378
  153TCq2    H4 2342   3.937   3.682  12.891  2.3301  1.5868  0.1862
  154MPD2     C 2343   1.240   3.364   0.562 -0.5136  0.3920  0.3612
  154MPD2    C1 2344   1.107   3.344   0.585  0.5292 -0.1176  0.2212
  154MPD2    C2 2345   1.023   3.455   0.601 -0.4906  0.2318  0.5397
  154MPD2    C3 2346   1.079   3.582   0.587 -0.7792 -0.3901  0.2295
  154MPD2    C4 2347   1.209   3.596   0.562 -0.3672 -0.0950 -0.0708
  154MPD2    C5 2348   1.290   3.493   0.551  0.0110  0.6489  0.6770
  154MPD2     H 2349   0.919   3.438   0.627  0.0163 -0.1522  2.3124
  154MPD2    H1 2350   1.255   3.694   0.561 -1.6599  0.5319  2.5150
  154MPD2    H2 2351   1.303   3.276   0.566 -1.8125 -0.7237 -3.1239
  154MPD2    H3 2352   1.396   3.512   0.534  0.6186 -2.9134  0.5592
  154MPD2     N 2353   0.990   3.691   0.624  0.3429  0.6432  0.1666
  154MPD2    H5 2354   0.906   3.656   0.668  0.8032 -1.5660 -0.7314
  154MPD2    N1 2355   1.057   3.212   0.601  0.0567 -0.3697  0.1506
  154MPD2    H7 2356   1.131   3.143   0.607  0.2591 -0.2089 -0.5075
  155TCq2    C1 2357   0.922   3.179   0.614 -0.0113 -0.0342 -0.2876
  155TCq2    O2 2358   0.828   3.242   0.570 -0.3552 -0.3043 -0.0210
  155TCq2    C2 2359   0.907   3.035   0.657  0.1765 -0.2000 -0.0292
  155TCq2    C3 2360   1.006   2.970   0.730  0.1816  0.6032  1.1056
  155TCq2    C4 2361   0.970   2.848   0.785  0.1516  0.2202 -0.3625
  155TCq2    C5 2362   0.847   2.795   0.782 -0.3113  0.4892  0.5277
  155TCq2    C6 2363   0.756   2.859   0.700  0.0012  0.0939 -0.4515
  155TCq2    C7 2364   0.780   2.981   0.638  0.2919  0.3202 -0.0355
  155TCq2    C8 2365   0.633   2.788   0.690 -0.5836 -0.0179 -0.0402
  155TCq2    O4 2366   0.609   2.701   0.772  0.8054 -0.4986 -0.3365
  155TCq2    C9 2367   1.066   2.775   0.864  0.1310  0.5866  0.4223
  155TCq2    O5 2368   1.027   2.690   0.951 -0.0134 -0.0296 -0.5954
  155TCq2    O6 2369   1.184   2.811   0.850  0.1757  0.1650  0.2072
  155TCq2    H2 2370   1.106   3.012   0.737  0.2043  0.8273 -0.7029
  155TCq2    H3 2371   0.825   2.696   0.821  1.0244  0.6258  1.6330
  155TCq2    H4 2372   0.709   3.028   0.571  2.0192  1.4194 -1.1059
  156MPD2     C 2373   3.425   0.714  12.544 -0.1079  0.5809 -0.8595
  156MPD2    C1 2374   3.465   0.815  12.461 -0.2414  0.0254  0.1453
  156MPD2    C2 2375   3.577   0.886  12.490 -0.9784 -0.1399  0.3746
  156MPD2    C3 2376   3.651   0.863  12.603  0.8996 -0.4135 -0.5505
  156MPD2    C4 2377   3.621   0.749  12.673 -0.0899  0.5016  0.3298
  156MPD2    C5 2378   3.512   0.681  12.649  0.4421  0.8759 -0.2681
  156MPD2     H 2379   3.612   0.966  12.425 -2.0418 -1.5631 -1.9309
  156MPD2    H1 2380   3.679   0.710  12.756 -1.9311 -1.0278  0.8916
  156MPD2    H2 2381   3.334   0.656  12.537 -0.5923  1.5417 -2.6396
  156MPD2    H3 2382   3.482   0.602  12.718  0.7235  0.8719 -0.1522
  156MPD2     N 2383   3.769   0.939  12.617  0.6888  0.0209  0.3636
  156MPD2    H5 2384   3.786   1.005  12.541  0.1210  0.6667  0.7916
  156MPD2    N1 2385   3.385   0.840  12.341 -0.1566 -0.0342 -0.4947
  156MPD2    H7 2386   3.312   0.770  12.335  1.2311 -1.5112 -0.2515
  157TCq2    C1 2387   3.417   0.925  12.234 -0.2514  0.0922 -0.2435
  157TCq2    O2 2388   3.500   1.011  12.225  0.0089  0.2530  0.1693
  157TCq2    C2 2389   3.326   0.906  12.120 -0.4096 -0.4990 -0.2404
  157TCq2    C3 2390   3.207   0.835  12.113  0.0132  0.0541  0.1394
  157TCq2    C4 2391   3.139   0.816  11.999  0.3108  0.1615  0.2123
  157TCq2    C5 2392   3.175   0.889  11.888  0.5434  1.1910  0.3754
  157TCq2    C6 2393   3.295   0.956  11.891  0.3522  0.2377  0.3919
  157TCq2    C7 2394   3.379   0.957  12.000 -0.2576  0.2515  0.0434
  157TCq2    C8 2395   3.359   1.017  11.772 -0.1364  0.0056 -0.4247
  157TCq2    O4 2396   3.462   1.085  11.789 -0.3841 -0.9122 -0.3766
  157TCq2    C9 2397   3.014   0.741  12.014  0.5241  0.3832  0.7391
  157TCq2    O5 2398   2.966   0.741  12.129  0.1090 -0.5446  0.0989
  157TCq2    O6 2399   2.951   0.719  11.906 -0.4332 -0.3371  0.0159
  157TCq2    H2 2400   3.177   0.785  12.204 -0.0234 -0.5785 -0.2159
  157TCq2    H3 2401   3.112   0.882  11.800  1.2930 -0.4264 -0.0239
  157TCq2    H4 2402   3.476   1.005  11.991 -0.3487  0.4910  0.3310
  158TMC2    C1 2403   4.672   0.274  13.456 -0.0548 -0.8538 -0.6251
  158TMC2    C2 2404   0.061   0.279  13.380 -0.4085  0.3526  0.5540
  158TMC2    C3 2405   0.053   0.296  13.243 -0.5415  0.5647  0.3306
  158TMC2    C4 2406   4.545   0.300  13.398  0.2296 -0.3695  0.6081
  158TMC2    C5 2407   4.540   0.320  13.266 -0.6686 -0.3018 -0.3046
  158TMC2    C6 2408   4.653   0.327  13.184  0.1520 -0.1761 -0.7262
  158TMC2     C 2409   4.681   0.205  13.582  0.3464 -0.3068  0.2706
  158TMC2     O 2410   0.068   0.211  13.643  0.2857  0.0292 -0.3127
  158TMC2     H 2411   0.160   0.286  13.423  0.2007  1.3402 -1.0356
  158TMC2    H1 2412   4.456   0.304  13.461 -0.7419  0.4521 -0.8159
  158TMC2    H2 2413   4.646   0.335  13.076  1.9135 -0.1406 -0.8367
  158TMC2    C7 2414   4.412   0.361  13.209  0.0320  0.5387  0.7890
  158TMC2    C8 2415   0.162   0.351  13.175 -0.0597 -0.7118 -0.6101
  158TMC2    O1 2416   4.419   0.427  13.108  0.2618 -0.1995 -0.5460
  158TMC2    O2 2417   0.244   0.419  13.227 -0.5504 -0.1202 -0.0038
  158TMC2    O5 2418   0.153   0.308  13.044  0.4653  0.0164  0.4293
  158TMC2    H5 2419   0.080   0.246  13.021  0.8750  0.1581 -1.2207
  159MPD2     C 2420   4.495   4.668  13.978 -0.0146 -0.4881 -0.6723
  159MPD2    C1 2421   4.399   4.662  13.878  0.0775 -0.4868  0.6887
  159MPD2    C2 2422   4.428   0.005  13.753  0.8376  0.0938 -0.7398
  159MPD2    C3 2423   4.551   0.074  13.741  0.6723  0.3175 -0.1866
  159MPD2    C4 2424   4.653   0.052  13.839 -0.1962  0.1190 -0.8740
  159MPD2    C5 2425   4.625   4.705  13.953 -0.3496 -0.3525  0.0044
  159MPD2     H 2426   4.352   0.002  13.676 -0.3921  1.3282  0.4303
  159MPD2    H1 2427   0.034   0.087  13.840 -0.1456 -0.0401 -0.4221
  159MPD2    H2 2428   4.467   4.634  14.077  2.6686  2.4379  1.0917
  159MPD2    H3 2429   4.699   4.703  14.033 -0.8768 -1.5332  0.4616
  159MPD2     N 2430   4.564   0.138  13.619 -0.6853  0.1039  0.3776
  159MPD2    H5 2431   4.490   0.141  13.550 -0.0129  0.4531 -0.3355
  159MPD2    N1 2432   4.278   4.602  13.905  0.6591  0.1055 -0.2156
  159MPD2    H7 2433   4.259   4.554  13.993 -1.2907  0.2567 -0.5404
  160TMC2    C1 2434   4.284   2.738   1.417 -0.0333 -0.6610 -0.0690
  160TMC2    C2 2435   4.399   2.697   1.478 -0.6183 -0.4494 -0.1080
  160TMC2    C3 2436   4.515   2.709   1.414 -0.0152 -0.0138  0.3232
  160TMC2    C4 2437   4.294   2.804   1.298 -0.0476  0.3737 -0.2472
  160TMC2    C5 2438   4.417   2.824   1.243 -0.3174  0.3612 -0.0803
  160TMC2    C6 2439   4.531   2.779   1.301  0.4104 -0.3721 -0.2097
  160TMC2     C 2440   4.158   2.702   1.473  0.3115 -0.4387  0.2151
  160TMC2     O 2441   4.154   2.667   1.589  0.5245  0.1694  0.0677
  160TMC2     H 2442   4.395   2.668   1.583  2.4784 -0.2712  0.0597
  160TMC2    H1 2443   4.213   2.845   1.238 -1.7582  0.7209  2.3213
  160TMC2    H2 2444   4.626   2.775   1.248 -0.4110  1.8244 -1.8292
  160TMC2    C7 2445   4.427   2.905   1.125 -0.0142  0.3620  0.4373
  160TMC2    C8 2446   4.625   2.638   1.476  0.2801  0.4624  0.7288
  160TMC2    O1 2447   4.323   2.931   1.065 -0.2393  0.6594  0.1029
  160TMC2    O2 2448   4.619   2.526   1.521 -0.1686 -0.1185  0.0799
  160TMC2    O5 2449   0.014   2.712   1.472  0.4587  0.5375 -0.2001
  160TMC2    H5 2450   4.704   2.803   1.450 -0.7524  0.6615  2.0112
  161MPD2     C 2451   3.868   2.752   1.557  0.6222  1.2720 -0.4225
  161MPD2    C1 2452   3.922   2.764   1.425 -0.4488  0.8646  0.6337
  161MPD2    C2 2453   3.841   2.813   1.325  0.7793 -0.1372  0.3631
  161MPD2    C3 2454   3.715   2.863   1.351 -1.1206 -0.3799 -0.3883
  161MPD2    C4 2455   3.665   2.856   1.480  0.1503  0.6162 -0.4200
  161MPD2    C5 2456   3.747   2.809   1.584 -0.0057  0.3764 -0.1043
  161MPD2     H 2457   3.885   2.829   1.228  2.5877 -0.9767  1.0461
  161MPD2    H1 2458   3.576   2.910   1.511  0.5747  2.7175 -2.8885
  161MPD2    H2 2459   3.926   2.705   1.636  0.8312 -1.8084 -2.4182
  161MPD2    H3 2460   3.718   2.809   1.688  0.0326  0.7443 -0.0909
  161MPD2     N 2461   3.647   2.941   1.260  1.2052  0.6621  0.4052
  161MPD2    H5 2462   3.559   2.981   1.292  0.5292 -1.0957  0.7532
  161MPD2    N1 2463   4.054   2.743   1.392 -0.3125 -0.2021  0.1040
  161MPD2    H7 2464   4.089   2.767   1.300 -1.1309 -4.2314 -1.2556
  162TMC2    C1 2465   2.297   0.355   1.016 -0.8646 -0.4032  0.5425
  162TMC2    C2 2466   2.267   0.469   0.943  0.4604 -0.2169 -0.4325
  162TMC2    C3 2467   2.156   0.544   0.979  0.3049  0.2010 -0.0137
  162TMC2    C4 2468   2.217   0.313   1.122 -0.4268  0.0034 -0.2520
  162TMC2    C5 2469   2.116   0.395   1.150  0.1019  0.2430 -0.5474
  162TMC2    C6 2470   2.079   0.509   1.087  0.8080  0.4892 -0.3763
  162TMC2     C 2471   2.409   0.269   0.977 -0.6990 -0.4856  0.0211
  162TMC2     O 2472   2.458   0.296   0.867  0.4716  0.0291  0.6873
  162TMC2     H 2473   2.313   0.497   0.848  0.0094  0.3915 -0.4667
  162TMC2    H1 2474   2.211   0.208   1.147 -1.3026 -0.0408 -0.6557
  162TMC2    H2 2475   2.009   0.580   1.128  1.6435  2.0300 -1.6394
  162TMC2    C7 2476   2.023   0.360   1.249  0.2866 -0.1560  0.8016
  162TMC2    C8 2477   2.127   0.661   0.910  0.2465  0.0891 -0.5754
  162TMC2    O1 2478   1.927   0.435   1.260  0.4647 -0.1874  0.2922
  162TMC2    O2 2479   2.210   0.728   0.847  0.0249 -0.2683  0.1159
  162TMC2    O5 2480   1.996   0.671   0.889  0.0347  0.2064 -0.0876
  162TMC2    H5 2481   1.944   0.595   0.924  1.9688 -1.3496 -0.6199
  163MPD2     C 2482   2.770   4.636   1.056 -0.6845 -0.0322 -0.6085
  163MPD2    C1 2483   2.751   4.715   0.954 -0.5796 -0.1817 -0.0106
  163MPD2    C2 2484   2.644   0.084   0.959 -0.4828 -0.0850  0.0555
  163MPD2    C3 2485   2.573   0.102   1.071 -0.2334 -0.0418  0.1697
  163MPD2    C4 2486   2.606   0.016   1.179 -0.4154  0.2003  0.1895
  163MPD2    C5 2487   2.704   4.637   1.166 -0.0407 -0.0709  0.1970
  163MPD2     H 2488   2.621   0.136   0.867 -1.0736  2.4606  1.6459
  163MPD2    H1 2489   2.551   0.004   1.272 -0.7164  1.5537  0.1855
  163MPD2    H2 2490   2.855   4.569   1.051 -0.4499 -0.1070  4.0872
  163MPD2    H3 2491   2.724   4.562   1.243  1.4271  1.2597  1.1004
  163MPD2     N 2492   2.457   0.185   1.078 -0.0347 -0.5039 -0.7538
  163MPD2    H5 2493   2.411   0.177   1.168 -1.8830 -0.2038 -1.6791
  163MPD2    N1 2494   2.831   4.695   0.838  0.2065 -0.0247 -0.3933
  163MPD2    H7 2495   2.872   4.603   0.827  2.1622  0.6414  1.2272
  164TCq2    C1 2496   2.607   3.793  11.260  0.3988 -0.0076  0.2539
  164TCq2    O2 2497   2.540   3.733  11.345 -0.4029 -0.4471 -0.3288
  164TCq2    C2 2498   2.563   3.930  11.238  0.5157  0.2497  0.3428
  164TCq2    C3 2499   2.626   4.009  11.153 -0.6945  0.1009  0.1380
  164TCq2    C4 2500   2.582   4.136  11.136  0.3615  0.1230  0.7496
  164TCq2    C5 2501   2.461   4.175  11.190  0.0524  0.0270 -0.3531
  164TCq2    C6 2502   2.389   4.093  11.275 -0.3587 -0.8670  0.2547
  164TCq2    C7 2503   2.447   3.971  11.304  0.2410 -0.3915  0.2073
  164TCq2    C8 2504   2.267   4.146  11.328 -0.3373  0.6767  0.1306
  164TCq2    O4 2505   2.239   4.259  11.292  0.5724  0.1607 -0.3749
  164TCq2    C9 2506   2.655   4.230  11.057 -0.4672  0.8993 -0.4333
  164TCq2    O5 2507   2.619   4.349  11.064 -0.2002  0.2804  0.1915
  164TCq2    O6 2508   2.764   4.193  11.000  0.3741 -0.3574  0.1299
  164TCq2    H2 2509   2.719   3.978  11.108 -0.5111 -0.8657  1.1733
  164TCq2    H3 2510   2.431   4.276  11.164 -2.1532 -0.4125  0.4804
  164TCq2    H4 2511   2.403   3.915  11.385 -0.6980  0.9710  0.6264
  165MPD2     C 2512   4.679   0.576   1.979  0.3581 -0.2161  0.0870
  165MPD2    C1 2513   4.649   0.616   1.845 -0.2750  0.2117 -0.5165
  165MPD2    C2 2514   0.013   0.715   1.795  0.4968 -0.3098  0.8904
  165MPD2    C3 2515   0.114   0.774   1.860 -0.0116 -0.3299  0.4126
  165MPD2    C4 2516   0.155   0.717   1.978  0.3732  0.1410 -0.0289
  165MPD2    C5 2517   0.075   0.623   2.038 -0.3445 -0.3822 -0.2132
  165MPD2     H 2518   4.700   0.746   1.697  0.3351 -4.3525 -0.3070
  165MPD2    H1 2519   0.247   0.748   2.026  0.2815  1.6442 -0.8430
  165MPD2    H2 2520   4.621   0.504   2.034  0.5734  0.1541  0.7951
  165MPD2    H3 2521   0.109   0.586   2.134  0.5947  1.5549  0.1971
  165MPD2     N 2522   0.174   0.889   1.807 -0.0108 -0.1198 -0.5031
  165MPD2    H5 2523   0.260   0.917   1.854 -1.1237  1.7609  0.4231
  165MPD2    N1 2524   4.534   0.559   1.782  0.3375 -0.0162 -0.1675
  165MPD2    H7 2525   4.467   0.511   1.841 -1.7607  2.0342 -0.8793
  166TCq2    C1 2526   0.116   0.978   1.715 -0.7994 -0.1596 -0.3180
  166TCq2    O2 2527   4.717   0.998   1.693 -0.2429 -0.3138 -0.3483
  166TCq2    C2 2528   0.206   1.095   1.691 -0.4245  0.5689 -0.5127
  166TCq2    C3 2529   0.333   1.077   1.730 -0.9832  0.2778 -0.4713
  166TCq2    C4 2530   0.423   1.174   1.683 -0.0380  0.0106  0.3690
  166TCq2    C5 2531   0.383   1.292   1.628  0.6479  0.0625 -1.1263
  166TCq2    C6 2532   0.251   1.307   1.602  0.6410 -0.0110 -0.0854
  166TCq2    C7 2533   0.156   1.214   1.647 -0.1990 -0.5199  0.3425
  166TCq2    C8 2534   0.211   1.425   1.536  0.1875 -0.9300  0.3220
  166TCq2    O4 2535   0.293   1.499   1.484  0.4333  0.4164  0.0641
  166TCq2    C9 2536   0.559   1.151   1.717 -0.0194 -0.0049 -0.2499
  166TCq2    O5 2537   0.645   1.236   1.668  0.2323  0.3588 -0.2416
  166TCq2    O6 2538   0.571   1.067   1.811 -0.6705  0.7165 -0.3136
  166TCq2    H2 2539   0.373   0.978   1.752  1.1017  1.1721 -0.2843
  166TCq2    H3 2540   0.457   1.368   1.605  0.5614  0.5693  0.2621
  166TCq2    H4 2541   0.053   1.229   1.615  0.4635  0.3910 -1.3531
  167TMC2    C1 2542   1.677   4.320  12.842  0.6146  0.0816 -0.5325
  167TMC2    C2 2543   1.602   4.340  12.948  0.3437 -0.2257  0.5415
  167TMC2    C3 2544   1.559   4.234  13.017 -0.2063 -0.4053  0.3729
  167TMC2    C4 2545   1.709   4.193  12.798  0.7097 -0.6677 -0.4307
  167TMC2    C5 2546   1.667   4.088  12.877 -0.2197  0.0123 -0.5427
  167TMC2    C6 2547   1.595   4.106  12.993 -0.5470 -0.0748  0.2368
  167TMC2     C 2548   1.689   4.437  12.754 -0.3999  0.0707 -0.8429
  167TMC2     O 2549   1.600   4.518  12.739 -0.1567  0.5501  0.4046
  167TMC2     H 2550   1.572   4.441  12.975 -1.9672 -0.4940 -1.0395
  167TMC2    H1 2551   1.753   4.180  12.699 -1.1862 -0.5480 -1.2898
  167TMC2    H2 2552   1.551   4.033  13.059 -1.9002  0.7549  0.2548
  167TMC2    C7 2553   1.690   3.952  12.846 -0.1590  0.4620  0.1846
  167TMC2    C8 2554   1.479   4.263  13.131  0.6705 -0.2953  0.8293
  167TMC2    O1 2555   1.616   3.869  12.901 -0.2037  0.3394  0.1253
  167TMC2    O2 2556   1.482   4.199  13.233  0.1217  0.3074 -0.0794
  167TMC2    O5 2557   1.410   4.381  13.122  0.5035 -0.1873  0.6047
  167TMC2    H5 2558   1.398   4.414  13.030 -1.1295  0.5639  1.0705
  168MPD2     C 2559   1.778   4.635  12.544  0.2265  0.4250  0.4834
  168MPD2    C1 2560   1.833   4.511  12.566 -0.5978 -0.4851  0.0934
  168MPD2    C2 2561   1.936   4.458  12.486  0.0552  0.5956  0.0037
  168MPD2    C3 2562   1.980   4.530  12.375 -0.1113 -0.0793  0.4936
  168MPD2    C4 2563   1.914   4.652  12.344  0.2902  0.4529  0.4271
  168MPD2    C5 2564   1.813   4.701  12.428 -0.8705 -0.2027 -0.2311
  168MPD2     H 2565   1.988   4.364  12.503  0.5907  1.0187  0.6874
  168MPD2    H1 2566   1.942   4.713  12.259 -0.1392 -0.0823 -0.0956
  168MPD2    H2 2567   1.714   4.686  12.615 -1.4365 -1.1572  0.0983
  168MPD2    H3 2568   1.769   0.077  12.408  0.2686  0.5422  0.9212
  168MPD2     N 2569   2.075   4.480  12.278 -0.3051  1.0211 -0.0049
  168MPD2    H5 2570   2.113   4.540  12.205  1.2696  1.3061  1.0741
  168MPD2    N1 2571   1.802   4.425  12.676 -0.6790  0.9470 -0.1739
  168MPD2    H7 2572   1.866   4.346  12.690  0.0953  1.5737 -0.1892
  169MPD1     C 2573   4.490   4.457   8.305 -0.4653 -0.1539  0.0608
  169MPD1    C1 2574   4.459   4.466   8.439 -0.0035  0.2907  0.0409
  169MPD1    C2 2575   4.448   4.346   8.506  0.1755  0.3018  0.0535
  169MPD1    C3 2576   4.469   4.223   8.452 -0.2847 -0.3360 -0.1703
  169MPD1    C4 2577   4.507   4.221   8.317  0.0191 -0.0592 -0.0703
  169MPD1    C5 2578   4.514   4.339   8.248 -0.1097  1.1701  0.4783
  169MPD1     H 2579   4.440   4.355   8.614  2.1289  1.7890  0.0646
  169MPD1    H1 2580   4.529   4.129   8.263  0.2204 -0.4209  0.6222
  169MPD1    H2 2581   4.499   4.550   8.250 -2.0728  0.2538  0.4859
  169MPD1    H3 2582   4.538   4.327   8.143  1.3660  1.5992  0.7621
  169MPD1     N 2583   4.453   4.102   8.528  0.0727  0.1630 -0.3132
  169MPD1    H5 2584   4.441   4.112   8.628  1.6714  1.5323 -0.2557
  169MPD1    N1 2585   4.445   4.589   8.505  0.6185  0.2487  0.0860
  169MPD1    H6 2586   4.421   4.660   8.436  1.3879 -0.2846 -0.7174
  169MPD1    H7 2587   4.377   4.599   8.580 -0.2917  0.7675 -0.8061
  170MPD1     C 2588   3.047   1.521  13.213 -0.2479  0.1487 -0.2750
  170MPD1    C1 2589   2.987   1.501  13.337 -0.0737 -0.1117  0.3588
  170MPD1    C2 2590   3.049   1.567  13.443  0.2254  0.1608  0.0405
  170MPD1    C3 2591   3.138   1.671  13.425 -0.1308  0.0902 -0.1206
  170MPD1    C4 2592   3.181   1.704  13.293 -0.0329  0.0171 -0.3813
  170MPD1    C5 2593   3.140   1.620  13.196  0.2155 -0.0281 -0.0239
  170MPD1     H 2594   3.030   1.526  13.542 -0.6084  0.9250  0.2035
  170MPD1    H1 2595   3.253   1.782  13.268  0.1786  0.7973  2.6682
  170MPD1    H2 2596   3.022   1.442  13.143  1.8206 -0.8174  0.0792
  170MPD1    H3 2597   3.177   1.632  13.094 -0.0895  1.3337  0.0221
  170MPD1     N 2598   3.169   1.746  13.541  0.0052  0.0308  0.4216
  170MPD1    H5 2599   3.133   1.729  13.635  1.9089 -0.1856  1.0992
  170MPD1    N1 2600   2.893   1.399  13.351  0.0340 -0.9522 -0.6785
  170MPD1    H6 2601   2.822   1.414  13.280 -1.6486  0.3764  1.2857
  170MPD1    H7 2602   2.841   1.389  13.438 -0.1242  3.2811 -0.2530
  171MPD1     C 2603   1.436   2.691  15.948 -0.3153  0.5926 -0.6947
  171MPD1    C1 2604   1.527   2.750  16.030 -0.4332 -0.2405  0.0496
  171MPD1    C2 2605   1.658   2.705  16.044  0.5208  0.5982  0.9227
  171MPD1    C3 2606   1.698   2.591  15.982  0.1666  0.2251 -0.0432
  171MPD1    C4 2607   1.612   2.532  15.891  0.5297 -0.3993 -0.1005
  171MPD1    C5 2608   1.480   2.583  15.877  0.3470  0.3236 -0.4716
  171MPD1     H 2609   1.720   2.759  16.115 -1.5131  0.4858  2.7845
  171MPD1    H1 2610   1.629   2.436  15.844 -1.5588 -1.1077  0.6154
  171MPD1    H2 2611   1.330   2.713  15.943 -0.3667 -0.0461 -2.3931
  171MPD1    H3 2612   1.406   2.535  15.814 -1.8160  0.4137  2.0459
  171MPD1     N 2613   1.827   2.533  16.004 -0.0016 -0.3815 -0.5243
  171MPD1    H5 2614   1.840   2.453  15.943  0.6429 -1.8895  1.5923
  171MPD1    N1 2615   1.497   2.873  16.093 -0.1324 -0.1817  0.1424
  171MPD1    H6 2616   1.549   2.889  16.179  0.8050 -2.7604  0.0521
  171MPD1    H7 2617   1.397   2.891  16.103 -0.6749 -2.3233 -1.5343
  172MPD1     C 2618   1.076   1.855   0.787  0.8566 -0.4250  0.3653
  172MPD1    C1 2619   0.951   1.864   0.728  0.4608  0.0246 -1.1217
  172MPD1    C2 2620   0.939   1.944   0.617  0.5391 -0.5257  0.3149
  172MPD1    C3 2621   1.048   2.014   0.560  0.1566  0.3326 -0.6600
  172MPD1    C4 2622   1.173   1.993   0.617 -0.0569 -0.1073  0.4181
  172MPD1    C5 2623   1.181   1.918   0.734  1.0420  0.5673 -0.0956
  172MPD1     H 2624   0.841   1.966   0.577  0.2987 -1.9863  0.1080
  172MPD1    H1 2625   1.261   2.037   0.571  0.9206 -1.1020  1.3646
  172MPD1    H2 2626   1.101   1.807   0.880  0.7949  0.4405  0.8267
  172MPD1    H3 2627   1.275   1.901   0.787  0.3396  0.3933  1.0968
  172MPD1     N 2628   1.026   2.091   0.440 -0.4638  0.3884  0.1367
  172MPD1    H5 2629   1.105   2.147   0.411  0.7790 -1.1990  0.4176
  172MPD1    N1 2630   0.836   1.821   0.803  0.1901  0.0214  0.8279
  172MPD1    H6 2631   0.752   1.801   0.749  0.4848 -1.2185  0.8412
  172MPD1    H7 2632   0.850   1.727   0.839 -1.0704 -1.1695 -1.8543
  173MPD1     C 2633   2.455   1.951  13.788  0.2688 -0.0830  0.2094
  173MPD1    C1 2634   2.397   1.994  13.902  0.5400  0.0446 -0.7165
  173MPD1    C2 2635   2.324   1.900  13.972  0.0812 -0.8232  0.5285
  173MPD1    C3 2636   2.313   1.762  13.931 -0.7193 -0.4182  0.4347
  173MPD1    C4 2637   2.382   1.717  13.816 -0.9357 -0.1338 -0.2847
  173MPD1    C5 2638   2.443   1.820  13.748  0.1060 -0.1897 -0.2798
  173MPD1     H 2639   2.278   1.924  14.067  1.2037  4.0548 -0.1455
  173MPD1    H1 2640   2.373   1.621  13.766  1.9867  0.3473 -1.7116
  173MPD1    H2 2641   2.515   2.015  13.723 -0.4690  0.2603 -0.1298
  173MPD1    H3 2642   2.475   1.792  13.649 -0.5655  0.5476 -0.7010
  173MPD1     N 2643   2.227   1.684  14.004  0.0448 -0.0019  0.2161
  173MPD1    H5 2644   2.186   1.731  14.084 -1.8898  1.8515 -1.8666
  173MPD1    N1 2645   2.400   2.129  13.943  0.7003 -0.0382  0.4477
  173MPD1    H6 2646   2.456   2.191  13.885  0.9227  0.2965  1.0235
  173MPD1    H7 2647   2.441   2.147  14.034  1.8400 -1.4166  0.2183
  174MPD1     C 2648   1.777   0.706  14.236  0.1937 -0.2010  0.1154
  174MPD1    C1 2649   1.735   0.802  14.144  0.5055  0.5154 -0.2189
  174MPD1    C2 2650   1.798   0.923  14.141 -0.0254 -0.0129  0.2843
  174MPD1    C3 2651   1.896   0.957  14.225 -0.2627 -0.0744  0.0452
  174MPD1    C4 2652   1.936   0.864  14.319 -0.5791 -0.6095 -0.0133
  174MPD1    C5 2653   1.882   0.738  14.318 -0.0419  0.4147 -0.2179
  174MPD1     H 2654   1.768   0.995  14.066  0.9542  0.5122  0.4038
  174MPD1    H1 2655   2.010   0.895  14.392  1.3042 -2.0150 -1.3213
  174MPD1    H2 2656   1.723   0.614  14.249 -0.2523  0.0443 -0.0245
  174MPD1    H3 2657   1.911   0.669  14.396 -1.7192 -0.0392 -0.0015
  174MPD1     N 2658   1.975   1.076  14.225 -0.5177  0.1234 -0.3360
  174MPD1    H5 2659   2.053   1.083  14.290  1.2286  1.2028 -2.5441
  174MPD1    N1 2660   1.611   0.782  14.075 -0.2290 -0.3822 -0.8366
  174MPD1    H6 2661   1.605   0.830  13.986 -2.5226  1.2413  0.1798
  174MPD1    H7 2662   1.600   0.682  14.055  0.5422 -0.9506  1.5052
  175MPD1     C 2663   0.605   2.894  15.167  0.1876  0.2178  0.3637
  175MPD1    C1 2664   0.559   3.017  15.197  0.0732 -0.5308 -0.0103
  175MPD1    C2 2665   0.601   3.080  15.317  0.6189 -0.3071  0.4031
  175MPD1    C3 2666   0.670   3.014  15.415 -0.0507 -0.1085 -0.2700
  175MPD1    C4 2667   0.710   2.885  15.380 -0.7507 -0.0779 -0.0651
  175MPD1    C5 2668   0.689   2.832  15.256  0.0070 -0.0593 -0.4618
  175MPD1     H 2669   0.581   3.186  15.328 -1.3275 -0.7223  0.8224
  175MPD1    H1 2670   0.778   2.830  15.444  0.5867  1.1352 -0.4367
  175MPD1    H2 2671   0.577   2.840  15.078  0.3998  1.0090 -0.1776
  175MPD1    H3 2672   0.723   2.733  15.228  0.3152 -0.2964  0.7525
  175MPD1     N 2673   0.725   3.079  15.535  1.1142 -0.0882  0.3425
  175MPD1    H5 2674   0.770   3.021  15.605  0.0056 -1.2236  0.1167
  175MPD1    N1 2675   0.507   3.093  15.094 -0.3154 -0.4098 -0.1911
  175MPD1    H6 2676   0.448   3.040  15.031 -1.5481  0.6297  0.0963
  175MPD1    H7 2677   0.455   3.174  15.128 -1.6301 -3.0195  4.0476
  176MPD1     C 2678   2.879   0.713   0.621  0.0932 -0.4545  0.4652
  176MPD1    C1 2679   2.894   0.831   0.555 -0.5078 -0.0535  0.5562
  176MPD1    C2 2680   2.925   0.816   0.422  0.0935  0.2405  0.4500
  176MPD1    C3 2681   2.939   0.693   0.351  0.5138  0.6876  0.2130
  176MPD1    C4 2682   2.931   0.580   0.427  0.0311 -0.5041  0.1935
  176MPD1    C5 2683   2.895   0.588   0.558 -0.5130  0.0724 -0.1714
  176MPD1     H 2684   2.947   0.912   0.378 -0.9159  0.9416  1.4739
  176MPD1    H1 2685   2.957   0.485   0.384  1.1641  0.4193 -1.1703
  176MPD1    H2 2686   2.865   0.710   0.729  0.3506  2.2115  0.5838
  176MPD1    H3 2687   2.877   0.502   0.622 -1.0639  1.6436  1.7858
  176MPD1     N 2688   2.979   0.704   0.213 -0.5634 -0.6114 -0.2775
  176MPD1    H5 2689   2.998   0.793   0.167  0.1047 -0.6483 -0.0810
  176MPD1    N1 2690   2.908   0.953   0.619  0.3046  0.8819  0.0776
  176MPD1    H6 2691   2.869   1.033   0.570  0.1947 -1.0327 -2.9786
  176MPD1    H7 2692   2.854   0.948   0.705 -0.3795  1.0818 -0.3378
  177MPD1     C 2693   1.212   4.196   9.560 -0.2437  0.0268  0.0010
  177MPD1    C1 2694   1.089   4.143   9.586  0.2937  0.5967  0.4165
  177MPD1    C2 2695   0.984   4.220   9.628  0.0052 -0.8241  1.0462
  177MPD1    C3 2696   0.999   4.352   9.663 -0.1138 -0.1449 -0.0492
  177MPD1    C4 2697   1.122   4.410   9.638 -0.6563  0.4382 -0.2486
  177MPD1    C5 2698   1.224   4.330   9.583 -0.1386 -0.0138 -0.0833
  177MPD1     H 2699   0.884   4.180   9.641  0.2326 -1.0177  2.2382
  177MPD1    H1 2700   1.144   4.515   9.655  2.2426 -0.2181  0.0133
  177MPD1    H2 2701   1.299   4.138   9.533  1.3235  3.0193 -1.2861
  177MPD1    H3 2702   1.323   4.372   9.571  0.0951 -0.9912 -1.6059
  177MPD1     N 2703   0.884   4.422   9.718  0.7686  0.3663 -0.0852
  177MPD1    H5 2704   0.807   4.362   9.745 -1.0949  1.7176 -2.4515
  177MPD1    N1 2705   1.063   4.015   9.536 -0.1752  0.0129 -0.3751
  177MPD1    H6 2706   1.008   3.965   9.605  0.0284  1.6419  0.9733
  177MPD1    H7 2707   1.144   3.954   9.524  1.0255  2.3932 -4.3927
  178MPD1     C 2708   3.429   1.083   0.392 -0.7161  0.5018  0.1251
  178MPD1    C1 2709   3.363   0.971   0.347  0.5030 -0.0632  0.5839
  178MPD1    C2 2710   3.401   0.914   0.230 -0.9696 -0.1273 -0.2567
  178MPD1    C3 2711   3.526   0.946   0.172 -0.3413 -0.1757 -0.6122
  178MPD1    C4 2712   3.596   1.052   0.224  0.1049  0.1167 -0.5351
  178MPD1    C5 2713   3.543   1.128   0.330 -0.0681 -0.1223 -0.0432
  178MPD1     H 2714   3.338   0.834   0.194 -0.5218 -0.4594 -0.3008
  178MPD1    H1 2715   3.692   1.080   0.183  1.2707 -1.2950  1.2079
  178MPD1    H2 2716   3.396   1.139   0.479  0.1085  3.7180 -1.6215
  178MPD1    H3 2717   3.592   1.212   0.378  0.3183 -0.6486  0.4748
  178MPD1     N 2718   3.580   0.876   0.056  0.0133  0.2060 -0.2240
  178MPD1    H5 2719   3.674   0.899   0.025 -0.3884 -0.4030 -1.8855
  178MPD1    N1 2720   3.240   0.946   0.409  0.0498  0.0306 -0.6457
  178MPD1    H6 2721   3.248   0.963   0.509  1.8259 -0.1201 -0.7610
  178MPD1    H7 2722   3.206   0.851   0.399 -0.5538  0.2122 -0.3550
  179MPD1     C 2723   2.901   4.128  16.237 -0.2071  0.5238 -0.1071
  179MPD1    C1 2724   2.772   4.082  16.256  0.0397 -0.0217  0.6266
  179MPD1    C2 2725   2.728   3.985  16.169 -0.2307 -0.0367 -0.1298
  179MPD1    C3 2726   2.807   3.921  16.076 -1.0940 -0.3623 -0.3729
  179MPD1    C4 2727   2.946   3.957  16.069  0.4246  0.1956 -0.4562
  179MPD1    C5 2728   2.981   4.068  16.137 -0.0820  0.3410  0.2104
  179MPD1     H 2729   2.625   3.959  16.192  0.1277 -1.7222 -0.4379
  179MPD1    H1 2730   3.016   3.917  15.997 -1.6693  0.0949 -2.4428
  179MPD1    H2 2731   2.947   4.213  16.284 -0.1206  0.6369 -0.3971
  179MPD1    H3 2732   3.082   4.106  16.141  0.6138 -1.2651 -2.3607
  179MPD1     N 2733   2.764   3.823  15.992  0.1899  0.0348 -0.5880
  179MPD1    H5 2734   2.834   3.791  15.926 -0.4384 -1.2379 -0.6446
  179MPD1    N1 2735   2.689   4.152  16.344  0.1095  0.2983 -0.2664
  179MPD1    H6 2736   2.747   4.200  16.413  0.4751 -0.2655 -0.1872
  179MPD1    H7 2737   2.623   4.098  16.399 -1.8284  1.6396 -1.2776
  180MPD1     C 2738   3.288   0.866  14.902  0.0985 -0.4617  0.2112
  180MPD1    C1 2739   3.254   0.954  14.806 -0.0379  0.3811 -0.4347
  180MPD1    C2 2740   3.128   0.957  14.749  0.6248 -0.2900 -0.8656
  180MPD1    C3 2741   3.034   0.860  14.789 -0.5148 -0.0811 -0.5932
  180MPD1    C4 2742   3.073   0.770  14.884 -0.4800  0.3275  0.3137
  180MPD1    C5 2743   3.193   0.774  14.941  0.1001 -0.6732 -0.4296
  180MPD1     H 2744   3.100   1.023  14.668 -1.0403  0.0907  0.0184
  180MPD1    H1 2745   3.005   0.694  14.921 -1.7610  0.9328 -0.7857
  180MPD1    H2 2746   3.390   0.860  14.938 -0.1675 -0.2018  1.0064
  180MPD1    H3 2747   3.215   0.708  15.024 -2.0546  2.0499  2.3202
  180MPD1     N 2748   2.901   0.863  14.741  0.0758  0.0332 -0.5943
  180MPD1    H5 2749   2.894   0.919  14.656 -1.0175 -1.5859 -1.5613
  180MPD1    N1 2750   3.344   1.051  14.753 -0.1850 -0.1567  0.7180
  180MPD1    H6 2751   3.437   1.013  14.772  0.3914  2.0230  2.2335
  180MPD1    H7 2752   3.327   1.063  14.654  3.9123 -1.3001 -0.1408
  181MPD1     C 2753   3.906   2.576  10.984  0.2925 -0.9293 -0.3914
  181MPD1    C1 2754   4.028   2.523  10.996  0.3043  0.6758 -0.2217
  181MPD1    C2 2755   4.084   2.464  10.879  0.2606 -0.3047  0.4904
  181MPD1    C3 2756   4.010   2.442  10.767  0.0353  0.0390  1.2989
  181MPD1    C4 2757   3.884   2.489  10.763  0.7489  0.4844 -0.6097
  181MPD1    C5 2758   3.831   2.567  10.864 -0.5977  0.2996 -0.2382
  181MPD1     H 2759   4.189   2.436  10.889  0.5269  0.5679  0.0999
  181MPD1    H1 2760   3.830   2.483  10.669  3.5751 -1.9472 -2.0382
  181MPD1    H2 2761   3.864   2.632  11.066  1.5904  0.0818 -0.4231
  181MPD1    H3 2762   3.738   2.621  10.849 -1.6294 -1.2246  0.6643
  181MPD1     N 2763   4.065   2.388  10.646 -0.2867  0.1163  0.1639
  181MPD1    H5 2764   3.998   2.383  10.571  0.9529  3.1452 -1.1734
  181MPD1    N1 2765   4.091   2.542  11.119 -0.3712  1.0273  0.2218
  181MPD1    H6 2766   4.028   2.536  11.198 -1.3985 -0.4193 -0.7206
  181MPD1    H7 2767   4.162   2.470  11.131 -1.8735 -0.7010 -1.1592
  182MPD1     C 2768   1.398   1.263   1.632  0.4085 -0.4717 -0.1498
  182MPD1    C1 2769   1.454   1.200   1.520  0.7603 -0.1479  0.0931
  182MPD1    C2 2770   1.375   1.145   1.420  0.0837 -0.3372 -0.0625
  182MPD1    C3 2771   1.239   1.175   1.426  0.1026  0.0909 -0.0129
  182MPD1    C4 2772   1.179   1.220   1.542  0.0695  0.2157 -0.1563
  182MPD1    C5 2773   1.261   1.268   1.639  0.0826  0.3265  0.1275
  182MPD1     H 2774   1.422   1.072   1.355 -0.5138 -1.8133  1.1816
  182MPD1    H1 2775   1.072   1.238   1.552  0.3504  1.4100  0.6957
  182MPD1    H2 2776   1.458   1.297   1.717 -0.0761 -0.4177  0.1701
  182MPD1    H3 2777   1.217   1.309   1.729 -2.1297 -0.4729 -0.5935
  182MPD1     N 2778   1.154   1.123   1.322 -0.1642 -0.2211 -0.2424
  182MPD1    H5 2779   1.054   1.124   1.340  0.0459 -2.0096  1.0239
  182MPD1    N1 2780   1.583   1.169   1.544  0.2174  0.3053  0.3354
  182MPD1    H6 2781   1.639   1.157   1.460  0.7212 -0.0176  0.7162
  182MPD1    H7 2782   1.629   1.233   1.609  1.4499 -0.1477 -0.0906
  183MPD1     C 2783   0.490   1.421   8.837  0.0960 -0.0261  0.7938
  183MPD1    C1 2784   0.570   1.421   8.949 -0.2758  0.7871  0.6221
  183MPD1    C2 2785   0.544   1.523   9.038 -0.3207  0.1315 -0.0810
  183MPD1    C3 2786   0.441   1.612   9.022  0.0522 -0.1286 -0.7885
  183MPD1    C4 2787   0.357   1.594   8.916  0.3537 -0.1796 -0.3075
  183MPD1    C5 2788   0.384   1.497   8.823  0.0221 -0.6731 -0.1974
  183MPD1     H 2789   0.604   1.523   9.129 -1.2576  3.2004  0.5352
  183MPD1    H1 2790   0.271   1.658   8.897  1.9778  2.0010 -0.2756
  183MPD1    H2 2791   0.504   1.359   8.749 -1.1802 -0.4269  0.8700
  183MPD1    H3 2792   0.323   1.483   8.734  1.5125  0.0885 -1.3316
  183MPD1     N 2793   0.430   1.719   9.115  0.0029 -0.3401  0.3472
  183MPD1    H5 2794   0.507   1.727   9.180  1.9448 -0.5986 -1.9117
  183MPD1    N1 2795   0.686   1.332   8.952  0.1615  0.5809 -0.8501
  183MPD1    H6 2796   0.665   1.239   8.917  2.0749 -0.2437  0.1925
  183MPD1    H7 2797   0.718   1.325   9.048  2.1320  1.0322 -1.4685
  184MPD1     C 2798   4.170   4.049  10.045  0.4836  0.3823  0.0678
  184MPD1    C1 2799   4.261   4.146  10.094  1.0232 -0.4685 -0.3548
  184MPD1    C2 2800   4.314   4.237  10.007 -0.1394 -0.7273 -0.7966
  184MPD1    C3 2801   4.281   4.224   9.877 -0.1737  0.5274  0.4924
  184MPD1    C4 2802   4.185   4.135   9.824 -0.6816  0.4901  0.0632
  184MPD1    C5 2803   4.137   4.042   9.914  0.3979  0.2207  0.2379
  184MPD1     H 2804   4.376   4.318  10.044  2.0255 -2.3981 -0.7757
  184MPD1    H1 2805   4.153   4.136   9.721  0.6333  0.7081 -0.3398
  184MPD1    H2 2806   4.130   3.970  10.107 -1.5301  0.3899 -1.2148
  184MPD1    H3 2807   4.072   3.969   9.867  0.6320 -0.3699  0.8258
  184MPD1     N 2808   4.341   4.304   9.777 -0.1115  0.5284  0.4359
  184MPD1    H5 2809   4.305   4.286   9.683 -1.8613 -2.4383  1.6617
  184MPD1    N1 2810   4.314   4.126  10.222  0.5403  0.1121  0.0767
  184MPD1    H6 2811   4.337   4.212  10.272 -0.0876 -0.0817  0.6986
  184MPD1    H7 2812   4.246   4.077  10.280  0.8205  0.1977  0.4794
  185MPD1     C 2813   4.080   4.238   8.985 -0.4969  0.0650  0.3971
  185MPD1    C1 2814   4.179   4.328   8.957  0.5739  0.5566  0.3582
  185MPD1    C2 2815   4.259   4.369   9.066 -1.1381  0.2062 -0.3749
  185MPD1    C3 2816   4.222   4.339   9.197 -0.1179  0.6824  0.6661
  185MPD1    C4 2817   4.112   4.267   9.216 -0.1104  0.0246 -0.0555
  185MPD1    C5 2818   4.046   4.210   9.116 -0.1312  0.2563 -0.3905
  185MPD1     H 2819   4.350   4.419   9.036 -1.2946 -0.8006 -2.5703
  185MPD1    H1 2820   4.073   4.243   9.314  2.2379 -2.4357  0.2786
  185MPD1    H2 2821   4.021   4.192   8.906  2.2231 -2.5138 -0.1274
  185MPD1    H3 2822   3.962   4.143   9.129 -1.5396  1.7666 -1.7661
  185MPD1     N 2823   4.296   4.385   9.306  0.0527 -0.2943  0.0893
  185MPD1    H5 2824   4.261   4.356   9.397  4.1384 -0.6500  1.5633
  185MPD1    N1 2825   4.228   4.335   8.828  0.0464  0.5988  0.2249
  185MPD1    H6 2826   4.156   4.314   8.759  0.7508  1.2963 -0.7353
  185MPD1    H7 2827   4.272   4.427   8.828  0.5211  0.3798 -1.4075
  186MPD1     C 2828   3.379   3.582  15.767 -0.2916  0.5156  0.0723
  186MPD1    C1 2829   3.294   3.567  15.870  0.5754  0.5536 -0.9756
  186MPD1    C2 2830   3.308   3.658  15.974 -0.1791  0.4922 -0.2221
  186MPD1    C3 2831   3.368   3.780  15.958  0.9290 -0.9414 -0.0347
  186MPD1    C4 2832   3.422   3.812  15.834 -0.0722  0.4852  0.2895
  186MPD1    C5 2833   3.436   3.707  15.744  0.2250  0.1575 -0.5985
  186MPD1     H 2834   3.287   3.622  16.074  0.6042  0.3133 -0.1223
  186MPD1    H1 2835   3.476   3.905  15.822  1.3754 -0.0634  2.5030
  186MPD1    H2 2836   3.382   3.508  15.688  1.2577  0.7837 -0.1063
  186MPD1    H3 2837   3.486   3.725  15.650 -0.6693 -2.0523 -1.4894
  186MPD1     N 2838   3.365   3.882  16.056 -0.2126  0.0476 -0.0515
  186MPD1    H5 2839   3.434   3.956  16.045  0.3125 -0.3986  0.2226
  186MPD1    N1 2840   3.233   3.442  15.898  0.6731  0.1132 -0.0907
  186MPD1    H6 2841   3.156   3.445  15.965 -0.0174  0.4719 -0.8890
  186MPD1    H7 2842   3.204   3.402  15.809  1.3157 -0.4793 -0.0317
  187MPD1     C 2843   2.546   0.829   0.471  0.7215 -0.9662 -0.3160
  187MPD1    C1 2844   2.584   0.737   0.375 -0.5661  0.7283 -0.3354
  187MPD1    C2 2845   2.631   0.785   0.256  0.1801  0.2614 -1.1214
  187MPD1    C3 2846   2.657   0.929   0.241  0.5652  0.2538 -0.7449
  187MPD1    C4 2847   2.630   1.014   0.343  0.4986  0.2697  0.3848
  187MPD1    C5 2848   2.570   0.963   0.452  0.3918 -0.4829  0.2294
  187MPD1     H 2849   2.646   0.721   0.171 -3.4477  1.6557 -2.8386
  187MPD1    H1 2850   2.655   1.119   0.334  0.2810  0.3245  0.4014
  187MPD1    H2 2851   2.504   0.787   0.561 -1.2877  1.7643  0.0109
  187MPD1    H3 2852   2.556   1.031   0.535 -1.0382 -2.7598  1.8442
  187MPD1     N 2853   2.716   0.984   0.128 -0.4931  0.9049  0.2112
  187MPD1    H5 2854   2.744   1.081   0.124 -1.2878  1.1737  1.1000
  187MPD1    N1 2855   2.534   0.611   0.384  0.9528 -0.1193  0.0441
  187MPD1    H6 2856   2.589   0.545   0.329  0.9430 -1.4695  1.6552
  187MPD1    H7 2857   2.545   0.577   0.479 -2.6205  0.5109  0.6654
  188MPD1     C 2858   2.785   1.139  10.397  0.3872 -0.2287 -0.1558
  188MPD1    C1 2859   2.678   1.206  10.452  0.5873  0.4617  0.0376
  188MPD1    C2 2860   2.553   1.158  10.428  0.5627 -0.0747  0.2711
  188MPD1    C3 2861   2.526   1.032  10.384  0.1884  0.0367 -0.0425
  188MPD1    C4 2862   2.635   0.958  10.357 -0.4760  0.5368 -0.0720
  188MPD1    C5 2863   2.759   1.014  10.358  0.2758  0.6107  0.3802
  188MPD1     H 2864   2.478   1.235  10.444 -1.9678 -2.1074 -1.8956
  188MPD1    H1 2865   2.628   0.860  10.312 -1.2340 -1.5459  4.6401
  188MPD1    H2 2866   2.887   1.177  10.401 -0.1286  0.7536  3.7493
  188MPD1    H3 2867   2.841   0.949  10.332 -0.4814 -0.2529  0.1715
  188MPD1     N 2868   2.398   0.976  10.382  0.1824 -0.1241  0.4019
  188MPD1    H5 2869   2.393   0.875  10.375 -1.6221 -0.0545  0.5933
  188MPD1    N1 2870   2.690   1.339  10.508 -1.1757 -0.6040 -0.1403
  188MPD1    H6 2871   2.633   1.346  10.592 -0.8227  1.9746 -0.1277
  188MPD1    H7 2872   2.786   1.361  10.531 -1.6027  0.3798  0.7073
  189MPD1     C 2873   4.662   1.408   0.214 -0.5447  0.0850 -0.8340
  189MPD1    C1 2874   4.549   1.334   0.192 -0.4492 -0.0011  0.0327
  189MPD1    C2 2875   4.439   1.391   0.124  0.0060 -0.5158  0.3584
  189MPD1    C3 2876   4.452   1.520   0.078  0.8349  0.0068  0.7608
  189MPD1    C4 2877   4.569   1.591   0.094  0.0937  0.2632  0.5971
  189MPD1    C5 2878   4.670   1.537   0.171  0.4976 -0.1713 -0.3326
  189MPD1     H 2879   4.349   1.339   0.092 -0.1162  0.0599 -0.2242
  189MPD1    H1 2880   4.588   1.691   0.057  1.5237 -0.7511 -1.4149
  189MPD1    H2 2881   0.030   1.366   0.260  0.1963  1.3855 -1.0926
  189MPD1    H3 2882   0.045   1.586   0.190  0.6232 -0.7362  0.4781
  189MPD1     N 2883   4.345   1.572   0.001 -0.3968 -0.1380  0.4432
  189MPD1    H5 2884   4.266   1.512  17.666 -0.6259 -0.7021  2.9234
  189MPD1    N1 2885   4.532   1.203   0.244 -0.1761 -0.6829 -0.0493
  189MPD1    H6 2886   4.470   1.151   0.182 -1.1256  0.4413 -0.0471
  189MPD1    H7 2887   4.615   1.145   0.258  1.6518  1.9803  0.1998
  190MPD1     C 2888   2.125   0.569  16.261 -0.3532 -0.5125  0.2201
  190MPD1    C1 2889   2.216   0.674  16.268  0.5324  0.0896 -1.1878
  190MPD1    C2 2890   2.348   0.636  16.234  0.1090  0.1581 -0.2585
  190MPD1    C3 2891   2.376   0.510  16.171 -0.2946 -0.0777  0.0536
  190MPD1    C4 2892   2.279   0.420  16.147 -0.7227 -0.2138  0.1072
  190MPD1    C5 2893   2.160   0.445  16.204 -0.7361 -0.6253 -0.9415
  190MPD1     H 2894   2.424   0.714  16.231 -0.4119  0.6330 -1.5752
  190MPD1    H1 2895   2.293   0.320  16.109  0.3642 -0.7037  1.7679
  190MPD1    H2 2896   2.024   0.573  16.300 -0.2703  1.7928  0.1804
  190MPD1    H3 2897   2.072   0.382  16.197 -1.0481 -0.3604  0.6296
  190MPD1     N 2898   2.511   0.484  16.137 -0.1368  0.3616  1.0595
  190MPD1    H5 2899   2.572   0.551  16.183  1.5935 -0.7746  0.4418
  190MPD1    N1 2900   2.178   0.789  16.345 -0.0363  0.3531 -0.2107
  190MPD1    H6 2901   2.234   0.868  16.314  2.0639 -0.5844  1.1421
  190MPD1    H7 2902   2.080   0.815  16.343  0.1583  1.1619  0.4113
  191MPD1     C 2903   1.803   2.346  12.998  0.0889  0.7439  0.9630
  191MPD1    C1 2904   1.731   2.435  12.929 -0.2689 -0.0861  0.4680
  191MPD1    C2 2905   1.789   2.509  12.829 -0.6625 -0.8058  0.8263
  191MPD1    C3 2906   1.925   2.500  12.811 -1.1068 -1.0721 -0.1534
  191MPD1    C4 2907   1.992   2.411  12.888  0.7691  0.0609  0.0827
  191MPD1    C5 2908   1.932   2.329  12.981  0.7840  0.0884  0.1492
  191MPD1     H 2909   1.728   2.574  12.766  1.1730  1.2241  1.1327
  191MPD1    H1 2910   2.099   2.392  12.886  0.9656  1.2885 -0.5806
  191MPD1    H2 2911   1.756   2.282  13.073  0.2486 -0.1641  0.2800
  191MPD1    H3 2912   1.984   2.251  13.035  1.4635  0.4591  0.0374
  191MPD1     N 2913   1.993   2.582  12.717 -0.6194  0.0729 -0.7490
  191MPD1    H5 2914   1.935   2.656  12.678  2.2037  1.2754 -2.6166
  191MPD1    N1 2915   1.593   2.440  12.922 -0.5956 -0.5811  0.1428
  191MPD1    H6 2916   1.544   2.395  12.999 -0.5839  0.6954  0.8990
  191MPD1    H7 2917   1.552   2.530  12.898  0.1243 -0.1841  0.4067
  192MPD1     C 2918   1.766   2.939  11.840 -0.6266 -0.0804  0.1824
  192MPD1    C1 2919   1.702   2.952  11.966  0.2709  0.3572  0.4064
  192MPD1    C2 2920   1.778   2.911  12.074  0.0566  0.3208  0.4694
  192MPD1    C3 2921   1.911   2.869  12.049 -0.9767 -0.7285 -0.4027
  192MPD1    C4 2922   1.970   2.868  11.925 -0.6435 -0.0091  0.1341
  192MPD1    C5 2923   1.900   2.911  11.818  0.0438 -0.1287  0.2573
  192MPD1     H 2924   1.742   2.923  12.175  0.2474 -2.5734  0.8777
  192MPD1    H1 2925   2.073   2.840  11.904 -1.0419 -1.8723  0.6366
  192MPD1    H2 2926   1.703   2.952  11.752 -0.4899 -0.8364 -0.0282
  192MPD1    H3 2927   1.941   2.912  11.718  1.0824  0.4724  0.6820
  192MPD1     N 2928   1.994   2.815  12.153  0.1044  0.2596 -0.1019
  192MPD1    H5 2929   2.092   2.800  12.129  0.9116  0.5062  3.1310
  192MPD1    N1 2930   1.567   2.983  11.976 -0.0119  0.2575  0.5539
  192MPD1    H6 2931   1.533   3.008  12.068 -0.7008 -0.0195  0.3706
  192MPD1    H7 2932   1.549   3.064  11.917 -0.0356  0.3708  0.7186
  193MPD1     C 2933   2.119   2.432  16.528 -0.2218  0.3375 -0.2267
  193MPD1    C1 2934   2.096   2.556  16.581 -0.5168 -0.9375  0.3317
  193MPD1    C2 2935   2.204   2.619  16.649 -0.7039 -0.1198 -0.6301
  193MPD1    C3 2936   2.324   2.550  16.671 -0.9278  0.2495 -0.1587
  193MPD1    C4 2937   2.336   2.419  16.625  0.3380 -0.2828  0.0907
  193MPD1    C5 2938   2.237   2.359  16.552  0.3179 -0.9945 -0.0619
  193MPD1     H 2939   2.187   2.719  16.688  0.5848 -0.3182  0.4203
  193MPD1    H1 2940   2.424   2.359  16.646  1.3978  0.7385 -1.4584
  193MPD1    H2 2941   2.052   2.369  16.470 -0.0000 -1.1963  1.1737
  193MPD1    H3 2942   2.249   2.259  16.512  1.8718 -0.4305 -1.0241
  193MPD1     N 2943   2.436   2.607  16.732 -0.2802 -0.0659 -0.4484
  193MPD1    H5 2944   2.520   2.551  16.745 -1.0841 -1.2419 -0.3590
  193MPD1    N1 2945   1.975   2.621  16.548 -0.0745 -0.1127 -0.1956
  193MPD1    H6 2946   1.954   2.690  16.621 -0.8114 -0.0910 -0.4275
  193MPD1    H7 2947   1.893   2.564  16.528 -0.2773  1.2079 -3.1446
  194MPD1     C 2948   4.288   0.615  17.296  0.3461  0.3488  0.0422
  194MPD1    C1 2949   4.256   0.512  17.212 -0.2673 -0.2022  0.4614
  194MPD1    C2 2950   4.372   0.431  17.184  0.1088 -0.3045 -0.2313
  194MPD1    C3 2951   4.502   0.473  17.222 -0.1953 -0.6035  0.4483
  194MPD1    C4 2952   4.525   0.591  17.297 -0.2810 -0.5619 -0.3736
  194MPD1    C5 2953   4.412   0.650  17.341  0.5537  0.7548 -0.2650
  194MPD1     H 2954   4.347   0.343  17.126 -0.1852 -0.5100  0.2008
  194MPD1    H1 2955   4.629   0.614  17.319 -0.4356  0.0462 -0.2852
  194MPD1    H2 2956   4.210   0.677  17.339 -0.2828  0.6925 -1.5820
  194MPD1    H3 2957   4.421   0.741  17.400  2.7891  1.2431 -1.3321
  194MPD1     N 2958   4.613   0.395  17.206  0.0167  0.1307 -0.3658
  194MPD1    H5 2959   4.700   0.435  17.241 -0.6487  2.3820 -1.3568
  194MPD1    N1 2960   4.124   0.479  17.172 -0.0010  0.0293  0.1806
  194MPD1    H6 2961   4.064   0.555  17.143  0.7416 -0.5679 -2.9104
  194MPD1    H7 2962   4.121   0.423  17.087 -2.1424  1.1678 -0.4667
  195MPD1     C 2963   2.044   1.525   0.309  1.0436 -0.2393 -0.6879
  195MPD1    C1 2964   2.000   1.488   0.188 -1.0643  0.9090  0.1689
  195MPD1    C2 2965   2.013   1.354   0.145  0.7375 -0.7762 -0.3215
  195MPD1    C3 2966   2.061   1.262   0.240 -0.1652 -0.4187  0.6176
  195MPD1    C4 2967   2.093   1.305   0.367 -0.0742 -0.2784 -0.2307
  195MPD1    C5 2968   2.081   1.439   0.401  0.5751  0.6827  0.0776
  195MPD1     H 2969   1.972   1.326   0.048 -0.4500  0.8745 -0.2874
  195MPD1    H1 2970   2.138   1.231   0.431  2.0195  0.8978 -0.3638
  195MPD1    H2 2971   2.052   1.628   0.343 -0.6118 -0.0711 -0.7882
  195MPD1    H3 2972   2.118   1.479   0.495 -0.0350 -1.9002  1.4225
  195MPD1     N 2973   2.071   1.129   0.206  0.0815  0.4339  0.7228
  195MPD1    H5 2974   2.095   1.066   0.282  0.7095  1.6792  1.5446
  195MPD1    N1 2975   1.954   1.583   0.095  0.9870 -0.2900 -0.1067
  195MPD1    H6 2976   1.909   1.544   0.012 -2.3916 -0.0547  1.6338
  195MPD1    H7 2977   1.887   1.644   0.141 -0.1589 -1.0511 -0.7601
  196MPD1     C 2978   2.540   1.408   0.232 -0.7785 -0.0622 -0.1348
  196MPD1    C1 2979   2.639   1.443   0.324  0.3273 -0.1818  0.8377
  196MPD1    C2 2980   2.620   1.427   0.459 -0.1527  0.3878  0.5366
  196MPD1    C3 2981   2.516   1.345   0.500 -0.5244 -0.0710  0.1875
  196MPD1    C4 2982   2.432   1.285   0.411  0.0865 -0.3711  0.1555
  196MPD1    C5 2983   2.444   1.318   0.277 -0.2548 -0.1234  0.3405
  196MPD1     H 2984   2.688   1.473   0.530 -1.5304  0.3754  1.8615
  196MPD1    H1 2985   2.361   1.210   0.444  2.0548 -1.1941  2.4674
  196MPD1    H2 2986   2.543   1.432   0.126  2.5538 -0.2465 -0.0857
  196MPD1    H3 2987   2.367   1.276   0.213  0.3843 -0.6863 -0.0568
  196MPD1     N 2988   2.495   1.313   0.636  0.0366  0.4545 -0.4029
  196MPD1    H5 2989   2.411   1.267   0.669  1.3596 -0.8768  1.1320
  196MPD1    N1 2990   2.751   1.515   0.276 -0.2443 -1.0254  0.4539
  196MPD1    H6 2991   2.833   1.475   0.321 -0.5530 -0.4999  1.4795
  196MPD1    H7 2992   2.764   1.498   0.176 -1.2632 -1.2187  0.3517
  197MPD1     C 2993   1.057   2.649   0.471 -0.9477 -0.2564  0.8983
  197MPD1    C1 2994   0.968   2.652   0.364 -0.0829 -0.1693 -0.2109
  197MPD1    C2 2995   1.021   2.669   0.234  0.3344 -0.2072  0.5594
  197MPD1    C3 2996   1.161   2.678   0.209  0.3192 -0.4523  0.0507
  197MPD1    C4 2997   1.243   2.675   0.316  0.1524 -0.8648 -0.2481
  197MPD1    C5 2998   1.195   2.660   0.444 -0.4888  0.1100 -0.5810
  197MPD1     H 2999   0.949   2.682   0.154  0.7500 -2.3590 -0.1784
  197MPD1    H1 3000   1.351   2.688   0.309  0.1548 -0.3596  0.6685
  197MPD1    H2 3001   1.015   2.648   0.571  0.4526 -0.8002  1.4691
  197MPD1    H3 3002   1.257   2.674   0.532 -1.3670  1.7496 -0.2285
  197MPD1     N 3003   1.218   2.711   0.087  0.6730 -0.9116  0.4086
  197MPD1    H5 3004   1.311   2.749   0.096  0.5675 -0.3250 -1.0801
  197MPD1    N1 3005   0.826   2.649   0.387  0.0510  0.4878  0.5017
  197MPD1    H6 3006   0.778   2.598   0.313  1.2261  1.7984 -1.1692
  197MPD1    H7 3007   0.811   2.588   0.467 -1.8535  1.8878  1.2059
  198MPD1     C 3008   2.514   1.345  15.773  0.3369  0.0372  0.3197
  198MPD1    C1 3009   2.426   1.446  15.806  0.2304  0.3012 -0.4531
  198MPD1    C2 3010   2.488   1.570  15.829  0.0829 -0.5269 -0.2835
  198MPD1    C3 3011   2.623   1.600  15.784 -0.1825 -0.2144 -0.6338
  198MPD1    C4 3012   2.703   1.492  15.756  0.4631  0.2028 -0.1200
  198MPD1    C5 3013   2.650   1.368  15.753  0.1317  0.6487  0.1096
  198MPD1     H 3014   2.433   1.645  15.885  2.8074  0.2292  1.4054
  198MPD1    H1 3015   2.809   1.495  15.736  0.4499 -2.1778 -0.4575
  198MPD1    H2 3016   2.474   1.245  15.764  2.6489 -0.6404 -2.2160
  198MPD1    H3 3017   2.713   1.285  15.724 -1.6250 -0.0659 -1.7456
  198MPD1     N 3018   2.677   1.728  15.802  0.2664  0.4547  0.7407
  198MPD1    H5 3019   2.613   1.791  15.850 -0.3788  0.6885 -0.4238
  198MPD1    N1 3020   2.310   1.405  15.866  1.2929  0.2244 -1.2897
  198MPD1    H6 3021   2.243   1.477  15.893 -0.8071 -2.3780  0.5145
  198MPD1    H7 3022   2.268   1.317  15.834  1.0300 -0.3900  0.7130
  199MPD1     C 3023   4.711   2.855   9.645 -0.5190 -0.2750  0.5051
  199MPD1    C1 3024   4.595   2.802   9.697 -0.2159 -0.0189 -0.3618
  199MPD1    C2 3025   4.476   2.881   9.687 -0.3856 -0.6951  0.3702
  199MPD1    C3 3026   4.488   3.014   9.669 -0.1740  0.0866 -0.1195
  199MPD1    C4 3027   4.609   3.069   9.636 -0.5713 -0.0609 -0.2364
  199MPD1    C5 3028   4.720   2.992   9.627 -0.2475 -0.1768  0.0182
  199MPD1     H 3029   4.374   2.844   9.689 -0.8252  0.4621 -0.8698
  199MPD1    H1 3030   4.620   3.176   9.623  0.7259  0.1553  2.7414
  199MPD1    H2 3031   0.083   2.802   9.631  1.0589  2.3244  1.0319
  199MPD1    H3 3032   0.096   3.039   9.613 -1.0798  1.5859  0.1446
  199MPD1     N 3033   4.377   3.107   9.668  0.1804 -0.1021  0.0474
  199MPD1    H5 3034   4.398   3.198   9.627 -1.3748  0.3402  0.2516
  199MPD1    N1 3035   4.588   2.662   9.712 -0.0472 -0.3404 -0.8591
  199MPD1    H6 3036   4.674   2.624   9.751 -0.7211 -0.6149  0.3611
  199MPD1    H7 3037   4.507   2.621   9.758  0.8209  1.2663  2.1154
  200MPD1     C 3038   3.955   2.976  15.487  0.1016 -0.3848  0.0999
  200MPD1    C1 3039   3.841   2.905  15.441 -0.7068 -0.8203 -0.2899
  200MPD1    C2 3040   3.835   2.892  15.306  0.0061 -0.6118  0.0595
  200MPD1    C3 3041   3.916   2.949  15.215  0.1450  0.3479 -0.3251
  200MPD1    C4 3042   4.015   3.033  15.262 -0.1904  0.4266  0.2216
  200MPD1    C5 3043   4.040   3.025  15.395 -0.3770  0.5462  0.7706
  200MPD1     H 3044   3.754   2.836  15.261 -2.3676  1.9747  1.0438
  200MPD1    H1 3045   4.084   3.081  15.194 -0.8247  0.3176 -0.5022
  200MPD1    H2 3046   3.969   2.972  15.594  1.8900 -2.0886 -0.2089
  200MPD1    H3 3047   4.120   3.086  15.437 -0.0428  0.4864  0.2177
  200MPD1     N 3048   3.886   2.928  15.077 -0.0776  0.0620 -0.5922
  200MPD1    H5 3049   3.793   2.891  15.059 -0.1788  0.6338 -1.2346
  200MPD1    N1 3050   3.763   2.826  15.527 -0.1701  1.0753 -0.7148
  200MPD1    H6 3051   3.667   2.810  15.498 -0.2696  1.2593 -0.4828
  200MPD1    H7 3052   3.760   2.856  15.624 -1.7009  0.1417 -0.4683
  201MPD1     C 3053   1.420   2.327  13.206  0.4776  0.2670 -0.2705
  201MPD1    C1 3054   1.525   2.257  13.256 -0.1160  0.1357 -0.5016
  201MPD1    C2 3055   1.537   2.127  13.205  0.6721  0.4223  1.0793
  201MPD1    C3 3056   1.448   2.077  13.108  0.2374  0.2927 -0.5234
  201MPD1    C4 3057   1.353   2.153  13.054  0.0759  0.0667  0.0629
  201MPD1    C5 3058   1.341   2.280  13.109 -0.2732  0.1025 -0.6266
  201MPD1     H 3059   1.617   2.067  13.246 -0.4424 -0.9625  1.2294
  201MPD1    H1 3060   1.271   2.121  12.990  1.0475  1.0331 -1.6533
  201MPD1    H2 3061   1.397   2.425  13.246 -0.8224 -0.5085  0.8575
  201MPD1    H3 3062   1.261   2.343  13.070 -1.2488  0.4427  1.9171
  201MPD1     N 3063   1.469   1.938  13.078 -0.0443  0.3716 -0.4169
  201MPD1    H5 3064   1.551   1.888  13.108  0.6225  1.4420 -0.4457
  201MPD1    N1 3065   1.597   2.294  13.369  0.5842 -0.3528  0.4829
  201MPD1    H6 3066   1.695   2.269  13.366  1.0098  1.0988  2.8767
  201MPD1    H7 3067   1.589   2.395  13.376  1.4818 -0.1183 -1.8997
  202MPD1     C 3068   1.081   0.801   9.154  0.3726 -0.8606  0.8876
  202MPD1    C1 3069   1.068   0.936   9.130 -0.1012 -0.1253  0.2074
  202MPD1    C2 3070   1.036   1.012   9.249 -0.5312 -0.0224  0.0472
  202MPD1    C3 3071   1.082   0.967   9.370  0.4661 -0.0076  1.0057
  202MPD1    C4 3072   1.110   0.830   9.379 -0.4190  0.1830 -0.1369
  202MPD1    C5 3073   1.113   0.747   9.279  0.3916  0.0027 -0.0254
  202MPD1     H 3074   1.007   1.116   9.242 -0.5023  0.0621  1.2121
  202MPD1    H1 3075   1.141   0.788   9.474  4.0531  2.1890 -0.6903
  202MPD1    H2 3076   1.077   0.738   9.067  0.1149 -0.9417  0.9568
  202MPD1    H3 3077   1.123   0.639   9.284 -0.7997 -0.1316 -0.4036
  202MPD1     N 3078   1.087   1.033   9.496 -0.3078  0.4211  0.5247
  202MPD1    H5 3079   1.134   0.984   9.571  2.8757 -0.7483 -2.2471
  202MPD1    N1 3080   1.025   0.986   9.006 -0.1184 -0.3504  0.0622
  202MPD1    H6 3081   1.088   0.947   8.937  0.9333 -0.0503  0.8557
  202MPD1    H7 3082   1.054   1.083   9.008  1.1585 -0.7409  0.3049
  203MPD1     C 3083   4.394   2.463  13.018  0.2340 -0.2904  0.0371
  203MPD1    C1 3084   4.343   2.338  13.036  0.7894  0.7870 -0.6409
  203MPD1    C2 3085   4.394   2.236  12.961  0.5906 -0.2450 -0.5458
  203MPD1    C3 3086   4.503   2.257  12.877 -0.3803  0.3106 -0.0899
  203MPD1    C4 3087   4.566   2.378  12.872  0.8589 -0.0521  0.6461
  203MPD1    C5 3088   4.507   2.485  12.941  0.2220 -0.5505 -0.0671
  203MPD1     H 3089   4.371   2.133  12.982 -1.6434  0.5406  0.9094
  203MPD1    H1 3090   4.659   2.398  12.821 -0.1033  0.1197 -1.0715
  203MPD1    H2 3091   4.362   2.547  13.078  0.2708  0.3584 -0.8571
  203MPD1    H3 3092   4.554   2.582  12.956 -1.6663  0.2707  0.4671
  203MPD1     N 3093   4.560   2.139  12.816  0.4017 -0.0071  0.7511
  203MPD1    H5 3094   4.529   2.048  12.848 -2.5037  0.4829 -0.6731
  203MPD1    N1 3095   4.223   2.326  13.112 -0.0478  0.0969 -0.6417
  203MPD1    H6 3096   4.225   2.380  13.199  1.1426 -0.8140 -0.1172
  203MPD1    H7 3097   4.208   2.226  13.125  1.0401  0.1792  1.2182
  204MPD1     C 3098   4.541   2.171  17.541  0.3719  0.4542 -0.3129
  204MPD1    C1 3099   4.646   2.088  17.505  0.1151 -0.0189  0.9900
  204MPD1    C2 3100   0.015   2.128  17.414  0.0453  0.6851  0.3563
  204MPD1    C3 3101   0.011   2.255  17.360 -0.3411  0.2788 -0.0527
  204MPD1    C4 3102   4.633   2.338  17.404  0.1884  0.1492  0.2293
  204MPD1    C5 3103   4.537   2.296  17.492 -0.5710 -0.3221 -0.2831
  204MPD1     H 3104   0.093   2.058  17.386 -2.4085 -2.1862  0.8003
  204MPD1    H1 3105   4.635   2.443  17.377  1.4785 -0.7144 -3.1059
  204MPD1    H2 3106   4.458   2.143  17.605  0.0601  1.2082 -0.3867
  204MPD1    H3 3107   4.470   2.373  17.528  1.9301  2.8272 -2.3806
  204MPD1     N 3108   0.114   2.285  17.269  0.1493 -0.3968 -0.4487
  204MPD1    H5 3109   0.182   2.215  17.244 -1.2502 -1.5944 -0.9332
  204MPD1    N1 3110   4.639   1.950  17.533 -0.3306 -0.2440  0.4518
  204MPD1    H6 3111   0.007   1.902  17.520 -1.2434 -1.8495  0.2368
  204MPD1    H7 3112   4.603   1.930  17.626 -0.1941  0.3746  0.6418
  205MPD1     C 3113   4.647   1.149  16.095 -0.0708 -0.7562 -0.1839
  205MPD1    C1 3114   4.694   1.280  16.095  0.1351 -0.1582 -0.0913
  205MPD1    C2 3115   0.055   1.325  16.200 -0.8497 -0.3179 -0.5759
  205MPD1    C3 3116   0.096   1.244  16.302 -0.6782  1.0373  0.6341
  205MPD1    C4 3117   0.036   1.116  16.303 -0.2307 -1.2833  0.1456
  205MPD1    C5 3118   4.673   1.069  16.203  0.0153  1.0536 -0.0015
  205MPD1     H 3119   0.084   1.429  16.193  1.3519 -0.9154 -0.4353
  205MPD1    H1 3120   0.044   1.049  16.388 -1.1677  0.1424  1.3764
  205MPD1    H2 3121   4.591   1.107  16.012  1.2593 -0.1735 -1.3587
  205MPD1    H3 3122   4.626   0.971  16.208 -0.2951  1.0824 -2.2186
  205MPD1     N 3123   0.167   1.289  16.418 -0.2216  0.4380  0.2642
  205MPD1    H5 3124   0.174   1.223  16.495  1.7364  0.9742  0.5432
  205MPD1    N1 3125   4.661   1.358  15.979  0.3418 -0.2687 -0.7958
  205MPD1    H6 3126   4.679   1.458  15.988 -3.4440  0.2008  1.0630
  205MPD1    H7 3127   4.579   1.332  15.925 -0.4542 -0.5426  0.5605
  206MPD1     C 3128   4.301   4.503  16.766 -0.7232 -0.1682  0.3729
  206MPD1    C1 3129   4.271   4.382  16.697 -0.4476  0.2068 -0.0325
  206MPD1    C2 3130   4.310   4.379  16.565 -0.7407  0.4539  0.2109
  206MPD1    C3 3131   4.351   4.487  16.492 -0.3024 -0.0066 -1.0523
  206MPD1    C4 3132   4.361   4.609  16.556  0.2917 -0.1367 -0.0798
  206MPD1    C5 3133   4.327   4.610  16.692 -0.8749 -0.0484  0.0039
  206MPD1     H 3134   4.288   4.288  16.510 -0.5276  0.8225 -0.4895
  206MPD1    H1 3135   4.384   4.701  16.504  2.1875 -0.3537  0.3726
  206MPD1    H2 3136   4.275   4.515  16.871 -0.9569 -0.0889  0.3053
  206MPD1    H3 3137   4.340   4.701  16.748 -0.1003 -0.6819  0.8512
  206MPD1     N 3138   4.368   4.490  16.353  0.1885 -0.9056 -0.2967
  206MPD1    H5 3139   4.397   4.579  16.314 -1.7431 -0.4672 -0.7292
  206MPD1    N1 3140   4.232   4.271  16.775 -0.3898  0.1696  0.4357
  206MPD1    H6 3141   4.166   4.219  16.717  0.1889 -0.4053  0.2854
  206MPD1    H7 3142   4.184   4.306  16.857  1.8019  1.4011  1.1917
  207MPD1     C 3143   1.703   2.098   9.509  0.4676 -0.1912 -0.1824
  207MPD1    C1 3144   1.740   2.235   9.502 -0.4210 -0.3553 -0.2598
  207MPD1    C2 3145   1.800   2.295   9.615 -0.2874  0.5912 -0.0766
  207MPD1    C3 3146   1.831   2.224   9.725  0.9322 -1.1571  0.3859
  207MPD1    C4 3147   1.796   2.090   9.731  0.1634 -0.9412 -0.0730
  207MPD1    C5 3148   1.734   2.031   9.623 -0.2870 -0.0215 -0.0584
  207MPD1     H 3149   1.850   2.391   9.609  0.4424  0.2677  0.6917
  207MPD1    H1 3150   1.829   2.023   9.810  0.4685  0.6660  1.1661
  207MPD1    H2 3151   1.651   2.058   9.423  0.6482 -0.5160 -0.1401
  207MPD1    H3 3152   1.702   1.928   9.631  1.4512 -0.6073 -0.5459
  207MPD1     N 3153   1.892   2.282   9.845  0.2365  0.4151  0.2900
  207MPD1    H5 3154   1.905   2.211   9.917  4.1106  0.0994 -0.7612
  207MPD1    N1 3155   1.709   2.300   9.379  0.7794 -0.3000 -0.2122
  207MPD1    H6 3156   1.678   2.395   9.399  1.8107 -0.3604  1.5923
  207MPD1    H7 3157   1.639   2.256   9.319  1.1961 -0.8306 -0.3053
  208MPD1     C 3158   1.319   1.909   0.021  0.1179  0.4176 -0.8378
  208MPD1    C1 3159   1.263   1.854   0.134 -0.6798 -0.0915  0.1033
  208MPD1    C2 3160   1.184   1.738   0.119 -0.0389 -0.1248  0.3663
  208MPD1    C3 3161   1.171   1.675  17.686  0.0418 -0.4393 -0.3522
  208MPD1    C4 3162   1.238   1.727  17.576 -0.5918 -0.6458 -0.4508
  208MPD1    C5 3163   1.308   1.844  17.583  0.3127 -0.0156  0.1978
  208MPD1     H 3164   1.133   1.693   0.204  0.3847 -1.8922 -0.3204
  208MPD1    H1 3165   1.221   1.694  17.474  3.6774 -0.0691 -1.3295
  208MPD1    H2 3166   1.376   2.002   0.025 -0.1587  0.4528  2.3965
  208MPD1    H3 3167   1.353   1.883  17.492  2.4349 -3.4674 -0.2106
  208MPD1     N 3168   1.095   1.553  17.677 -0.2601  0.4401 -0.4027
  208MPD1    H5 3169   1.044   1.529   0.075 -0.7684  2.1701 -0.2313
  208MPD1    N1 3170   1.268   1.913   0.260  0.0433 -1.1146 -0.3382
  208MPD1    H6 3171   1.366   1.932   0.280 -0.8124  0.8955  1.9688
  208MPD1    H7 3172   1.259   1.843   0.333  1.9766 -1.3319 -0.3003
  209MPD1     C 3173   1.856   1.303  11.256  0.7308  0.3915 -0.1578
  209MPD1    C1 3174   1.906   1.299  11.120  0.1000  0.4515  0.1111
  209MPD1    C2 3175   1.960   1.416  11.078  0.5273 -0.1874 -0.0537
  209MPD1    C3 3176   1.985   1.528  11.156 -0.0137  0.2733 -0.4370
  209MPD1    C4 3177   1.940   1.520  11.287  1.6756 -0.6564  0.2332
  209MPD1    C5 3178   1.868   1.417  11.335  0.4048 -0.0311 -0.1067
  209MPD1     H 3179   2.001   1.419  10.978  0.0229  0.2011 -0.2505
  209MPD1    H1 3180   1.952   1.605  11.353 -0.8537 -0.6770  0.7099
  209MPD1    H2 3181   1.808   1.211  11.287  1.5781  0.2590  0.7680
  209MPD1    H3 3182   1.833   1.410  11.437  2.0266 -0.2424  0.4282
  209MPD1     N 3183   2.059   1.639  11.103  0.4255 -0.1855  0.1722
  209MPD1    H5 3184   2.099   1.624  11.011 -0.3168  0.2737 -0.2217
  209MPD1    N1 3185   1.914   1.180  11.044 -0.3105  0.0544  0.3636
  209MPD1    H6 3186   1.924   1.209  10.947  1.6888 -0.3492  0.4428
  209MPD1    H7 3187   1.837   1.119  11.070  1.5722 -3.0638 -1.2854
  210MPD1     C 3188   2.699   2.505  11.278 -0.1000 -0.4954  0.3768
  210MPD1    C1 3189   2.711   2.378  11.329  0.7094  0.7533 -0.1257
  210MPD1    C2 3190   2.623   2.285  11.282  0.1324  0.4058  0.3647
  210MPD1    C3 3191   2.535   2.302  11.178  0.6847 -0.7055  0.5993
  210MPD1    C4 3192   2.538   2.421  11.113  0.3871 -0.0800  0.2280
  210MPD1    C5 3193   2.612   2.520  11.167  0.1291  0.2130 -0.6745
  210MPD1     H 3194   2.631   2.185  11.323  1.3602 -0.0152 -0.8928
  210MPD1    H1 3195   2.473   2.457  11.035 -0.6496 -2.6516 -0.0921
  210MPD1    H2 3196   2.755   2.595  11.299 -4.2691  2.4160 -0.8608
  210MPD1    H3 3197   2.606   2.611  11.110 -0.2808 -0.0277 -1.0170
  210MPD1     N 3198   2.444   2.207  11.126  0.5780  0.7266  0.0527
  210MPD1    H5 3199   2.382   2.225  11.048 -1.7674 -0.6629  1.6020
  210MPD1    N1 3200   2.797   2.352  11.439  0.2140  0.6604  0.2381
  210MPD1    H6 3201   2.818   2.252  11.442 -0.0660  0.6358  1.5568
  210MPD1    H7 3202   2.885   2.403  11.444 -0.0343  1.1406 -0.2714
  211MPD1     C 3203   0.741   1.372  15.601  0.6535  0.3637 -0.4052
  211MPD1    C1 3204   0.618   1.311  15.589  0.1463  0.4673 -1.0281
  211MPD1    C2 3205   0.501   1.378  15.628 -0.0461 -0.0075  0.0965
  211MPD1    C3 3206   0.519   1.517  15.665 -0.1818 -0.0141  0.8597
  211MPD1    C4 3207   0.646   1.574  15.648  0.7055  0.2978  0.3270
  211MPD1    C5 3208   0.758   1.502  15.612 -0.7977 -0.9246 -0.8656
  211MPD1     H 3209   0.405   1.328  15.642 -0.1365  0.2173  0.2804
  211MPD1    H1 3210   0.661   1.679  15.670 -2.1761  0.4377  1.5969
  211MPD1    H2 3211   0.825   1.304  15.596  3.5481  3.9448  0.3677
  211MPD1    H3 3212   0.857   1.544  15.622 -1.1078 -1.1974  3.4532
  211MPD1     N 3213   0.398   1.595  15.700 -0.0269 -0.0286 -0.0415
  211MPD1    H5 3214   0.316   1.537  15.714 -1.6031  2.2060 -0.1616
  211MPD1    N1 3215   0.614   1.169  15.590  0.5859 -0.5748 -0.0673
  211MPD1    H6 3216   0.694   1.130  15.541  0.9090  1.2789 -1.0205
  211MPD1    H7 3217   0.536   1.126  15.542  0.8066  0.7546 -1.6386
  212MPD1     C 3218   4.266   0.345  16.217 -0.0395  0.0722  0.4035
  212MPD1    C1 3219   4.266   0.372  16.350 -0.2782 -0.1825 -0.9074
  212MPD1    C2 3220   4.198   0.282  16.434 -0.0878  0.2350 -0.0680
  212MPD1    C3 3221   4.129   0.176  16.379 -0.0361  0.1788 -0.1977
  212MPD1    C4 3222   4.117   0.167  16.240 -0.1969  0.9639  0.2709
  212MPD1    C5 3223   4.192   0.250  16.164 -0.5676  1.3121  0.3780
  212MPD1     H 3224   4.209   0.291  16.541 -0.6967  1.1222 -0.0787
  212MPD1    H1 3225   4.047   0.100  16.192  0.4978 -0.0430  0.6517
  212MPD1    H2 3226   4.312   0.408  16.142  1.0634 -1.1746  0.0480
  212MPD1    H3 3227   4.184   0.247  16.056  0.0474 -0.3814  0.3782
  212MPD1     N 3228   4.070   0.071  16.459  0.2649  0.7459 -0.2430
  212MPD1    H5 3229   4.043   4.714  16.399  0.3986 -0.3554  1.1416
  212MPD1    N1 3230   4.351   0.470  16.410 -0.4691 -0.1056 -0.1009
  212MPD1    H6 3231   4.326   0.504  16.502 -0.9214 -0.5110 -0.0749
  212MPD1    H7 3232   4.348   0.554  16.353 -0.0903  0.5860  0.8985
  213MPD1     C 3233   1.959   1.245  16.253  0.4053 -0.0884 -0.3410
  213MPD1    C1 3234   1.843   1.190  16.197 -0.2519  0.2668  0.3207
  213MPD1    C2 3235   1.842   1.169  16.064 -0.2179  0.4996 -0.0802
  213MPD1    C3 3236   1.953   1.163  15.985  0.2249  0.9731  0.4993
  213MPD1    C4 3237   2.074   1.204  16.049  0.3251 -0.7276  0.3924
  213MPD1    C5 3238   2.075   1.250  16.180 -0.0329  0.0429 -0.9620
  213MPD1     H 3239   1.749   1.137  16.019 -1.8449  1.3647  2.6677
  213MPD1    H1 3240   2.165   1.195  15.991 -0.6393 -0.0317 -1.2108
  213MPD1    H2 3241   1.966   1.260  16.360 -0.0540 -1.1235 -0.1644
  213MPD1    H3 3242   2.174   1.273  16.219 -0.8416 -0.6072  1.4560
  213MPD1     N 3243   1.944   1.120  15.852 -0.3442 -0.0905 -0.0668
  213MPD1    H5 3244   1.852   1.111  15.810 -0.8348 -1.4290  1.2772
  213MPD1    N1 3245   1.714   1.214  16.263  0.6335  0.2354 -0.5868
  213MPD1    H6 3246   1.644   1.148  16.230  1.9152 -1.3343 -0.1589
  213MPD1    H7 3247   1.735   1.200  16.361 -2.2777 -0.8331 -0.1190
  214MPD1     C 3248   1.628   0.455  15.172  1.1074  1.1435 -0.5552
  214MPD1    C1 3249   1.734   0.512  15.117 -0.1248  0.5918 -0.3340
  214MPD1    C2 3250   1.777   0.633  15.176 -0.4992  0.5206 -0.0164
  214MPD1    C3 3251   1.733   0.676  15.303 -0.2479 -0.0695  0.5594
  214MPD1    C4 3252   1.634   0.605  15.362 -0.4007 -0.1164  0.1688
  214MPD1    C5 3253   1.587   0.493  15.294 -0.4981 -0.2555 -0.1297
  214MPD1     H 3254   1.862   0.686  15.136 -1.5732  0.8897 -1.8134
  214MPD1    H1 3255   1.596   0.631  15.460  0.2238 -0.4107  0.4950
  214MPD1    H2 3256   1.568   0.382  15.120  1.8891  1.4791 -1.9238
  214MPD1    H3 3257   1.505   0.448  15.350  0.7032 -1.7924  0.3795
  214MPD1     N 3258   1.798   0.789  15.359 -0.3995  0.0352  0.7051
  214MPD1    H5 3259   1.864   0.839  15.300  0.8978 -1.5558  0.8052
  214MPD1    N1 3260   1.772   0.489  14.983  0.1065 -0.8487  0.4501
  214MPD1    H6 3261   1.871   0.505  14.966  0.2411 -2.7177 -0.5662
  214MPD1    H7 3262   1.752   0.392  14.957  0.2037 -1.1748  1.5815
  215MPD1     C 3263   1.608   1.395  10.968  0.5707  0.3069  0.6481
  215MPD1    C1 3264   1.606   1.463  11.089  0.2069  0.1542 -0.2023
  215MPD1    C2 3265   1.642   1.599  11.079  0.8606 -0.7174 -0.8178
  215MPD1    C3 3266   1.702   1.656  10.967  0.4640  0.3074  0.5196
  215MPD1    C4 3267   1.714   1.578  10.855  0.3814  0.0997  0.3564
  215MPD1    C5 3268   1.662   1.449  10.853  0.2034 -0.0812 -0.3660
  215MPD1     H 3269   1.624   1.670  11.159  1.7550 -1.7522  0.3025
  215MPD1    H1 3270   1.770   1.601  10.765 -1.0706  0.5974 -0.4121
  215MPD1    H2 3271   1.579   1.290  10.963  2.1131 -0.1345  0.7531
  215MPD1    H3 3272   1.682   1.388  10.765 -0.0962 -2.1245  0.9771
  215MPD1     N 3273   1.748   1.789  10.984  0.2994  0.5475 -0.7958
  215MPD1    H5 3274   1.728   1.841  11.069  0.4891 -0.1875 -0.3007
  215MPD1    N1 3275   1.541   1.411  11.198  0.5466  0.1184  0.1267
  215MPD1    H6 3276   1.559   1.311  11.209  0.9393  0.2562  0.6807
  215MPD1    H7 3277   1.556   1.451  11.290 -1.4999 -0.0802  0.5610
  216MPD1     C 3278   4.643   3.144  16.433  0.0370  0.2171 -0.0920
  216MPD1    C1 3279   4.607   3.266  16.488  0.1872  0.3664  0.6470
  216MPD1    C2 3280   4.606   3.292  16.625  0.8375  0.1163 -0.0334
  216MPD1    C3 3281   4.626   3.187  16.707 -0.2880 -0.5038  0.5558
  216MPD1    C4 3282   4.648   3.062  16.656  0.2498 -0.3148 -0.3087
  216MPD1    C5 3283   4.649   3.041  16.524 -0.2899 -0.8231 -0.3982
  216MPD1     H 3284   4.597   3.389  16.673  0.7117  0.1172 -0.0593
  216MPD1    H1 3285   4.668   2.972  16.714  0.0420 -1.2021 -1.5970
  216MPD1    H2 3286   4.637   3.121  16.328  0.6983 -2.0626  0.3734
  216MPD1    H3 3287   4.647   2.938  16.492  0.9579 -1.2967  1.0619
  216MPD1     N 3288   4.618   3.219  16.845  0.3341  0.0532  0.4958
  216MPD1    H5 3289   4.624   3.318  16.868  2.4723  0.1639 -0.5097
  216MPD1    N1 3290   4.589   3.368  16.394  0.1593  0.3268 -0.1849
  216MPD1    H6 3291   4.529   3.445  16.420 -0.3035 -0.8475  2.2679
  216MPD1    H7 3292   4.564   3.339  16.300 -2.6419 -1.7675  1.2166
  217MPD1     C 3293   4.361   1.980   8.613 -0.3343  0.9745 -0.2322
  217MPD1    C1 3294   4.486   1.930   8.594  0.3789  0.8656 -0.0364
  217MPD1    C2 3295   4.546   1.854   8.693  0.2336 -0.3596  0.1233
  217MPD1    C3 3296   4.483   1.828   8.808 -0.0770  0.3990 -0.4276
  217MPD1    C4 3297   4.356   1.874   8.826 -0.4317  0.3234  0.1916
  217MPD1    C5 3298   4.294   1.950   8.731 -0.8162 -0.5129  0.3659
  217MPD1     H 3299   4.640   1.805   8.674 -0.7578 -3.0054  2.0644
  217MPD1    H1 3300   4.313   1.868   8.926  1.5428 -0.3193  1.0004
  217MPD1    H2 3301   4.318   2.051   8.543  0.2417  0.4252 -1.1407
  217MPD1    H3 3302   4.204   2.008   8.746 -0.7633 -0.4185  0.3162
  217MPD1     N 3303   4.536   1.745   8.906 -0.0668  0.0341 -0.7456
  217MPD1    H5 3304   4.476   1.726   8.986 -0.2860  1.4225 -0.5813
  217MPD1    N1 3305   4.560   1.961   8.478 -0.2671  0.3534  0.5611
  217MPD1    H6 3306   4.631   1.890   8.460 -1.5378 -0.8980  0.4225
  217MPD1    H7 3307   4.506   1.991   8.397 -1.2252 -1.1658  0.6380
  218MPD1     C 3308   1.155   2.385  12.683 -0.1739  0.4310  0.3927
  218MPD1    C1 3309   1.223   2.272  12.721 -0.1231  0.3211 -0.2617
  218MPD1    C2 3310   1.356   2.252  12.684 -0.7504  0.5836 -0.3792
  218MPD1    C3 3311   1.430   2.346  12.621  0.1515  0.0558  0.1675
  218MPD1    C4 3312   1.365   2.465  12.588 -0.5345 -0.2470 -0.7104
  218MPD1    C5 3313   1.234   2.483  12.620  0.3788 -0.0970 -0.5352
  218MPD1     H 3314   1.406   2.157  12.698  0.4022  1.4309  1.2290
  218MPD1    H1 3315   1.416   2.544  12.534 -1.4772  0.5910 -0.3606
  218MPD1    H2 3316   1.051   2.414  12.694  0.5059  1.9865  2.7551
  218MPD1    H3 3317   1.191   2.579  12.594  2.7726  0.7314 -1.4304
  218MPD1     N 3318   1.565   2.311  12.585 -0.1803  0.0491  0.1890
  218MPD1    H5 3319   1.609   2.232  12.632  0.2653 -0.1262 -0.5273
  218MPD1    N1 3320   1.149   2.162  12.758 -0.0544  0.0565  0.4081
  218MPD1    H6 3321   1.060   2.188  12.800 -0.2823  0.6001 -0.4120
  218MPD1    H7 3322   1.206   2.096  12.811  3.0242  0.8656 -1.9090
  219MPD1     C 3323   2.194   2.588  11.816  0.1926 -0.2461  0.1790
  219MPD1    C1 3324   2.267   2.573  11.930  0.0480 -0.4616 -0.0832
  219MPD1    C2 3325   2.206   2.511  12.036  0.3281  0.3778 -0.2467
  219MPD1    C3 3326   2.071   2.485  12.043 -0.5095 -0.1046 -0.0756
  219MPD1    C4 3327   1.995   2.526  11.936 -0.3960  0.1978  0.2054
  219MPD1    C5 3328   2.057   2.570  11.822  0.2596 -0.0437 -1.0431
  219MPD1     H 3329   2.262   2.510  12.128 -1.2184  1.8315  0.7152
  219MPD1    H1 3330   1.891   2.500  11.920 -0.3524 -0.1357  0.4623
  219MPD1    H2 3331   2.223   2.629  11.720 -0.8474 -1.1648 -0.5243
  219MPD1    H3 3332   1.996   2.592  11.735  2.5100  2.0222 -2.1034
  219MPD1     N 3333   2.012   2.439  12.159 -0.2340 -0.0945 -0.5412
  219MPD1    H5 3334   1.911   2.438  12.147 -0.4848  0.4976  1.4498
  219MPD1    N1 3335   2.405   2.593  11.937  0.7893  0.3772  0.6062
  219MPD1    H6 3336   2.430   2.626  12.031 -0.1710 -0.5563  1.1901
  219MPD1    H7 3337   2.443   2.645  11.859 -0.0625  0.8973  0.5418
  220MPD1     C 3338   1.299   2.224   9.216  0.2470  0.0637  0.5696
  220MPD1    C1 3339   1.252   2.128   9.310  0.0048  0.3167 -0.4589
  220MPD1    C2 3340   1.271   2.151   9.445 -0.1799 -0.2271 -0.4961
  220MPD1    C3 3341   1.318   2.274   9.488 -0.3641 -0.4917 -0.2528
  220MPD1    C4 3342   1.348   2.371   9.401 -0.0580  0.0878 -0.3075
  220MPD1    C5 3343   1.344   2.350   9.264  1.0621 -0.2247  0.2019
  220MPD1     H 3344   1.251   2.071   9.515  0.2148 -0.5462 -0.7481
  220MPD1    H1 3345   1.376   2.471   9.431 -2.0272  0.4163  0.4488
  220MPD1    H2 3346   1.279   2.214   9.110 -0.6398  0.4429  0.6980
  220MPD1    H3 3347   1.372   2.431   9.197  1.3557  0.2705  0.9205
  220MPD1     N 3348   1.346   2.279   9.622  0.1621  0.3572  0.2834
  220MPD1    H5 3349   1.333   2.193   9.674  2.5890  0.1821  0.6193
  220MPD1    N1 3350   1.221   2.000   9.267 -0.0438 -0.6805  0.0943
  220MPD1    H6 3351   1.158   1.957   9.334 -1.0378  1.4172  0.5148
  220MPD1    H7 3352   1.168   1.998   9.180 -1.0312 -0.8764  0.6985
  221MPD1     C 3353   4.257   1.030  16.583 -0.0498  0.2156 -0.2719
  221MPD1    C1 3354   4.356   0.942  16.548  0.5965 -0.0745 -0.4689
  221MPD1    C2 3355   4.348   0.882  16.421 -0.8637 -0.3878 -0.7277
  221MPD1    C3 3356   4.251   0.907  16.329  0.1049  0.1612  0.0457
  221MPD1    C4 3357   4.148   0.992  16.366 -0.1346  0.2133 -0.3621
  221MPD1    C5 3358   4.151   1.055  16.490  0.0463  0.1970  0.0042
  221MPD1     H 3359   4.426   0.813  16.394 -0.1334  0.9627 -2.0554
  221MPD1    H1 3360   4.067   1.013  16.298  0.4756  1.0515 -0.8362
  221MPD1    H2 3361   4.252   1.061  16.687  1.4371  1.0667 -0.4437
  221MPD1    H3 3362   4.068   1.118  16.520  0.1648  0.5831 -0.4789
  221MPD1     N 3363   4.254   0.855  16.198 -0.0389  0.1328  0.1119
  221MPD1    H5 3364   4.185   0.893  16.134 -1.9764 -1.5539  1.2027
  221MPD1    N1 3365   4.443   0.894  16.647 -0.2968 -0.4972 -1.0431
  221MPD1    H6 3366   4.461   0.956  16.726 -2.3716 -0.4434 -0.6278
  221MPD1    H7 3367   4.526   0.860  16.598  1.4092 -0.1766  1.6097
  222MPD1     C 3368   0.984   0.300   0.292  0.6596  0.1514  0.1634
  222MPD1    C1 3369   0.968   0.174   0.351  0.2655  0.0502 -0.0836
  222MPD1    C2 3370   0.869   0.088   0.304 -0.5239 -0.0642  0.2310
  222MPD1    C3 3371   0.766   0.149   0.235 -0.2292 -0.1969  0.2283
  222MPD1    C4 3372   0.763   0.279   0.201  0.4758 -0.1551  0.8957
  222MPD1    C5 3373   0.881   0.349   0.218  0.2930  0.7988 -0.7494
  222MPD1     H 3374   0.862   4.704   0.329  0.0937 -0.1319  0.1132
  222MPD1    H1 3375   0.684   0.317   0.137  0.2825  0.3473  1.4304
  222MPD1    H2 3376   1.063   0.369   0.319 -1.8649  1.5926  3.8254
  222MPD1    H3 3377   0.878   0.450   0.180 -1.6006  1.4653  1.2073
  222MPD1     N 3378   0.639   0.080   0.213  0.5837 -0.2830  0.6509
  222MPD1    H5 3379   0.563   0.133   0.171  0.3525 -2.5810 -1.8230
  222MPD1    N1 3380   1.065   0.133   0.440  0.2915 -0.1956  0.3323
  222MPD1    H6 3381   1.027   0.058   0.497  1.5369 -1.2505 -0.2206
  222MPD1    H7 3382   1.116   0.190   0.507  2.7981 -1.3638 -0.5620
  223MPD1     C 3383   0.053   3.885   0.059  1.0522 -0.4571  0.2240
  223MPD1    C1 3384   0.070   3.970  17.644  0.4296  0.2317  0.3168
  223MPD1    C2 3385   0.127   4.096  17.646  0.9709  0.2028 -0.7234
  223MPD1    C3 3386   0.182   4.136   0.076  0.4804  0.9782 -0.5976
  223MPD1    C4 3387   0.171   4.051   0.184  0.3485  0.0198  0.1538
  223MPD1    C5 3388   0.104   3.928   0.179  0.0578  0.0264  0.1666
  223MPD1     H 3389   0.123   4.170  17.567  0.0249  0.1288 -0.7549
  223MPD1    H1 3390   0.225   4.085   0.272 -0.0309  1.5126 -0.1957
  223MPD1    H2 3391   0.008   3.787   0.045 -0.0811  0.2023 -0.7927
  223MPD1    H3 3392   0.106   3.857   0.261 -1.3781 -1.4948 -1.1173
  223MPD1     N 3393   0.259   4.253   0.075  0.1078  0.3351 -0.6177
  223MPD1    H5 3394   0.254   4.320  17.684 -2.2595  1.3356  0.4093
  223MPD1    N1 3395   0.010   3.932  17.521 -0.5580 -0.3126 -0.1510
  223MPD1    H6 3396   4.718   3.831  17.511  0.7582 -0.3879 -1.0708
  223MPD1    H7 3397   0.068   3.973  17.448 -1.7653  1.8736  0.1121
  224MPD1     C 3398   4.673   2.135   9.283 -0.0910  0.1354 -0.0009
  224MPD1    C1 3399   0.021   2.021   9.245 -0.3105 -0.6036  0.3067
  224MPD1    C2 3400   0.090   1.960   9.347  0.0315 -0.0729 -0.6854
  224MPD1    C3 3401   0.099   2.015   9.469  0.1177  0.0989 -0.0841
  224MPD1    C4 3402   0.047   2.135   9.506  0.3249 -0.0800  0.3102
  224MPD1    C5 3403   4.682   2.192   9.410 -0.6774 -0.3739 -0.0940
  224MPD1     H 3404   0.125   1.858   9.335 -0.1150 -0.3219  0.8876
  224MPD1    H1 3405   0.051   2.181   9.605  0.6716 -1.5946  0.9950
  224MPD1    H2 3406   4.610   2.183   9.209  1.8030  0.2604 -1.5443
  224MPD1    H3 3407   4.645   2.293   9.425  0.6489  0.4713 -2.4949
  224MPD1     N 3408   0.175   1.962   9.567 -0.0836  0.7010 -0.1271
  224MPD1    H5 3409   0.201   2.022   9.645 -2.0804  1.2576  0.1062
  224MPD1    N1 3410   4.705   1.950   9.130 -0.1962  1.2785  0.2851
  224MPD1    H6 3411   4.669   2.000   9.049 -0.2859  0.1627 -0.3472
  224MPD1    H7 3412   0.062   1.890   9.105 -2.5759 -1.2590 -0.9253
  225MPD1     C 3413   1.744   3.329  12.494  0.0135  0.2705 -0.2817
  225MPD1    C1 3414   1.726   3.203  12.443 -0.0234  0.2297 -0.1674
  225MPD1    C2 3415   1.619   3.179  12.357  0.0881  0.2556  0.8598
  225MPD1    C3 3416   1.541   3.283  12.324  0.4395 -0.4204  0.1058
  225MPD1    C4 3417   1.570   3.415  12.364 -0.8576 -0.1470 -0.1165
  225MPD1    C5 3418   1.675   3.436  12.445 -0.9341 -0.2926  0.0309
  225MPD1     H 3419   1.596   3.078  12.322 -1.5000  1.4718 -1.6632
  225MPD1    H1 3420   1.503   3.497  12.340 -0.3043  0.5090  0.5876
  225MPD1    H2 3421   1.822   3.349  12.565 -1.3263 -1.1636  1.6051
  225MPD1    H3 3422   1.692   3.530  12.498 -1.6848 -0.2945  0.2715
  225MPD1     N 3423   1.432   3.267  12.240 -0.2082 -0.5141  0.9096
  225MPD1    H5 3424   1.374   3.349  12.225 -1.6268 -1.2114  2.5165
  225MPD1    N1 3425   1.808   3.097  12.486  0.3016  0.0201  0.5628
  225MPD1    H6 3426   1.801   3.015  12.426  2.5734  0.0029  0.3052
  225MPD1    H7 3427   1.901   3.139  12.480  0.7695 -1.3825 -1.8692
  226MPD1     C 3428   3.754   3.329   9.174  0.6857 -0.3621 -0.3279
  226MPD1    C1 3429   3.719   3.208   9.231 -0.0342 -0.1329  0.1237
  226MPD1    C2 3430   3.806   3.120   9.283 -0.6116 -0.1648  0.1068
  226MPD1    C3 3431   3.937   3.137   9.277 -0.2605 -0.0016 -0.5138
  226MPD1    C4 3432   3.983   3.257   9.228  0.4458 -0.4782 -0.4390
  226MPD1    C5 3433   3.892   3.345   9.171 -0.1802 -0.4306  0.0950
  226MPD1     H 3434   3.774   3.030   9.336 -2.4359  0.5392  0.2097
  226MPD1    H1 3435   4.087   3.286   9.227  0.1521  0.6311  0.3797
  226MPD1    H2 3436   3.678   3.399   9.142 -1.6645 -2.4853  0.5938
  226MPD1    H3 3437   3.924   3.435   9.119 -1.5385 -2.1348 -3.7150
  226MPD1     N 3438   4.027   3.033   9.320 -0.6524  0.0105  0.0599
  226MPD1    H5 3439   3.977   2.952   9.355  0.3555  0.3314  2.2243
  226MPD1    N1 3440   3.589   3.168   9.210 -0.0908  1.0937  0.4713
  226MPD1    H6 3441   3.559   3.100   9.279  2.0685 -0.3708 -0.0380
  226MPD1    H7 3442   3.516   3.237   9.194 -0.2080  0.5075 -1.5584
  227MPD1     C 3443   4.372   2.275   9.911  0.0093  0.5252 -0.3070
  227MPD1    C1 3444   4.455   2.266   9.801 -0.2665  0.3726 -0.2499
  227MPD1    C2 3445   4.432   2.345   9.689  0.2300 -0.2586 -0.0284
  227MPD1    C3 3446   4.335   2.433   9.685 -0.3029 -0.1212  0.1520
  227MPD1    C4 3447   4.261   2.452   9.800 -0.2788  0.7757 -0.3991
  227MPD1    C5 3448   4.275   2.373   9.905  0.0342 -0.1315  0.5269
  227MPD1     H 3449   4.497   2.336   9.603  0.1013 -5.9568  0.4196
  227MPD1    H1 3450   4.192   2.534   9.812  0.6462  1.6920 -1.4314
  227MPD1    H2 3451   4.390   2.216  10.000 -2.1193  0.2376 -0.0762
  227MPD1    H3 3452   4.213   2.389   9.993 -0.8406 -2.4216  0.3354
  227MPD1     N 3453   4.327   2.523   9.570 -0.7913 -0.4071 -0.7549
  227MPD1    H5 3454   4.398   2.506   9.500 -0.9486 -1.5384 -0.6292
  227MPD1    N1 3455   4.566   2.176   9.804  0.1801 -0.5516  0.3828
  227MPD1    H6 3456   4.536   2.100   9.865 -0.8166 -0.4002  0.0792
  227MPD1    H7 3457   4.593   2.138   9.714  2.4448  1.9871 -0.0027
  228MPD1     C 3458   2.913   0.459  13.063  0.2182 -0.1188  0.0507
  228MPD1    C1 3459   2.815   0.418  13.151 -0.4179 -0.7795  0.9914
  228MPD1    C2 3460   2.694   0.405  13.097  0.3284  0.1907  0.3097
  228MPD1    C3 3461   2.661   0.429  12.963  0.3550  0.2753  0.4445
  228MPD1    C4 3462   2.764   0.469  12.879 -0.3644 -0.3430 -0.2813
  228MPD1    C5 3463   2.893   0.484  12.929  0.3594 -0.9334 -0.5407
  228MPD1     H 3464   2.608   0.384  13.160  0.5177  0.7997  0.7677
  228MPD1    H1 3465   2.744   0.492  12.775  1.8256  1.1322 -0.3666
  228MPD1    H2 3466   3.014   0.481  13.097 -0.0416  0.1000  0.6817
  228MPD1    H3 3467   2.983   0.512  12.875  1.5084  2.7344  3.2286
  228MPD1     N 3468   2.529   0.418  12.929 -0.7193  0.0207 -0.1672
  228MPD1    H5 3469   2.469   0.386  13.004 -0.8199  1.5208  0.3949
  228MPD1    N1 3470   2.833   0.414  13.291  0.8444  0.7208  0.4624
  228MPD1    H6 3471   2.926   0.394  13.325  0.7861  1.9698  1.3339
  228MPD1    H7 3472   2.765   0.350  13.332  2.6243 -0.9853  0.7438
  229MPD1     C 3473   2.469   3.930  15.675  0.8816  0.4876  0.0029
  229MPD1    C1 3474   2.435   3.814  15.624 -0.3557 -1.2038 -0.0142
  229MPD1    C2 3475   2.537   3.724  15.586 -0.3180 -0.6523 -0.1171
  229MPD1    C3 3476   2.675   3.754  15.589  0.2049  0.2981  0.5025
  229MPD1    C4 3477   2.709   3.873  15.645 -0.7597 -0.4505 -0.3257
  229MPD1    C5 3478   2.604   3.958  15.693 -0.1510 -0.2040 -0.2593
  229MPD1     H 3479   2.496   3.635  15.539  0.1480 -1.4175  0.9300
  229MPD1    H1 3480   2.813   3.902  15.651 -0.8710  0.1931 -1.7214
  229MPD1    H2 3481   2.398   4.002  15.713 -1.4490 -1.2158 -1.1167
  229MPD1    H3 3482   2.630   4.058  15.726  1.2786 -0.8233  0.5177
  229MPD1     N 3483   2.769   3.674  15.523  0.0434  0.0452  0.8672
  229MPD1    H5 3484   2.867   3.701  15.526  0.7980 -2.3393 -2.4682
  229MPD1    N1 3485   2.298   3.778  15.643 -0.2162 -0.2559 -0.2000
  229MPD1    H6 3486   2.289   3.695  15.584 -0.3932 -0.2668 -0.1578
  229MPD1    H7 3487   2.229   3.842  15.604 -1.8373 -2.1349 -0.4745
  230MPD1     C 3488   3.710   3.729  15.288  0.2282 -0.3402 -0.0336
  230MPD1    C1 3489   3.685   3.630  15.197  0.3252  0.6810  0.1429
  230MPD1    C2 3490   3.561   3.573  15.191 -0.3683  0.7755 -0.5108
  230MPD1    C3 3491   3.459   3.610  15.282  0.3793 -0.2099  0.6265
  230MPD1    C4 3492   3.488   3.707  15.377 -0.1233 -0.6075  0.0856
  230MPD1    C5 3493   3.614   3.764  15.378  0.2224 -0.4939  0.1528
  230MPD1     H 3494   3.539   3.513  15.103  2.4035  0.5989 -1.0736
  230MPD1    H1 3495   3.424   3.733  15.461  1.2533 -1.1759  1.3219
  230MPD1    H2 3496   3.801   3.789  15.295 -0.5172  0.5505  2.1345
  230MPD1    H3 3497   3.643   3.848  15.441  0.0868  0.8579 -1.5729
  230MPD1     N 3498   3.335   3.544  15.275  0.1029  0.0289 -0.0669
  230MPD1    H5 3499   3.328   3.476  15.200  0.2487 -1.5691  1.3619
  230MPD1    N1 3500   3.784   3.609  15.101 -0.3601  0.3863 -0.3617
  230MPD1    H6 3501   3.774   3.516  15.061  3.3420 -1.7991  3.8686
  230MPD1    H7 3502   3.878   3.615  15.140 -0.6299 -0.1550  0.3721
  231MPD1     C 3503   2.111   1.667  15.949  0.0917 -0.2042  0.4631
  231MPD1    C1 3504   2.113   1.736  15.829  0.1889  0.2636 -0.3749
  231MPD1    C2 3505   2.049   1.687  15.718  0.0993 -0.3522  0.0378
  231MPD1    C3 3506   1.982   1.570  15.723 -0.2711 -0.2256  0.4134
  231MPD1    C4 3507   1.970   1.509  15.846 -0.5461  0.5327 -0.7442
  231MPD1    C5 3508   2.040   1.553  15.952  0.1497  1.1128 -0.4309
  231MPD1     H 3509   2.055   1.736  15.622  0.3832  0.0523  0.2637
  231MPD1    H1 3510   1.912   1.420  15.868  0.4250  0.1242  0.1649
  231MPD1    H2 3511   2.145   1.702  16.045  0.0257 -0.4621  0.5801
  231MPD1    H3 3512   2.025   1.493  16.041 -2.5627  1.7442 -0.4638
  231MPD1     N 3513   1.914   1.532  15.597 -0.1031  0.2070  0.5740
  231MPD1    H5 3514   1.934   1.585  15.513  1.2158 -1.9351 -0.4743
  231MPD1    N1 3515   2.190   1.856  15.824 -0.5290  0.4005  0.3103
  231MPD1    H6 3516   2.164   1.924  15.752 -0.2375 -0.0249 -0.1913
  231MPD1    H7 3517   2.209   1.895  15.916 -0.9628  0.5627  0.3358
  232MPD1     C 3518   3.491   2.564   0.130  0.4444  0.9928  0.5167
  232MPD1    C1 3519   3.449   2.530   0.257 -0.9625 -0.4244  0.4632
  232MPD1    C2 3520   3.365   2.623   0.317 -0.0383 -0.4336  0.1968
  232MPD1    C3 3521   3.312   2.734   0.255 -0.0291 -0.4446  0.7193
  232MPD1    C4 3522   3.362   2.766   0.127  0.0090 -0.1320  0.2856
  232MPD1    C5 3523   3.450   2.682   0.071  0.5905  0.9318  0.0290
  232MPD1     H 3524   3.341   2.605   0.421 -1.5775 -0.0683 -0.0867
  232MPD1    H1 3525   3.338   2.855   0.070  3.3071  0.0709 -0.7791
  232MPD1    H2 3526   3.563   2.505   0.075 -1.0793  1.5948 -2.1591
  232MPD1    H3 3527   3.480   2.702  17.655  0.3238  4.1465  0.5682
  232MPD1     N 3528   3.212   2.800   0.319  0.0287  0.3895  0.1346
  232MPD1    H5 3529   3.193   2.762   0.412  2.3132 -0.6512  0.1873
  232MPD1    N1 3530   3.526   2.435   0.331  0.2198 -0.0717  0.1629
  232MPD1    H6 3531   3.483   2.405   0.418 -1.8140  0.3230 -0.6790
  232MPD1    H7 3532   3.551   2.350   0.281 -0.8023 -0.6823  0.6914
  233MPD1     C 3533   4.565   0.006   2.019  0.1048  0.1294 -0.2657
  233MPD1    C1 3534   4.584   0.035   1.888 -0.1011 -0.2676  0.5114
  233MPD1    C2 3535   4.674   0.131   1.851  0.3296  0.0851 -0.0995
  233MPD1    C3 3536   0.032   0.192   1.944  0.6514 -0.8079  0.2422
  233MPD1    C4 3537   0.016   0.161   2.073 -0.0655  0.5987  0.1134
  233MPD1    C5 3538   4.638   0.071   2.111  0.7139  0.1102 -0.0366
  233MPD1     H 3539   4.687   0.146   1.745 -1.1866 -2.7984 -0.6699
  233MPD1    H1 3540   0.067   0.208   2.156  1.0833  1.2253 -0.9506
  233MPD1    H2 3541   4.491   4.658   2.058  1.3050 -2.2020 -2.1543
  233MPD1    H3 3542   4.617   0.048   2.215  1.7397 -2.7003 -0.4486
  233MPD1     N 3543   0.135   0.286   1.910  0.6479 -0.5453  0.1698
  233MPD1    H5 3544   0.182   0.332   1.987  1.0013 -1.0821  0.2766
  233MPD1    N1 3545   4.496   4.702   1.791  0.0891 -0.0538  1.2416
  233MPD1    H6 3546   4.535   4.703   1.697  1.3282  0.8621  1.7702
  233MPD1    H7 3547   4.454   4.612   1.814 -0.3760  0.2943  1.7707
  234MPD1     C 3548   0.828   0.112   9.494 -0.8749 -0.3140  0.0047
  234MPD1    C1 3549   0.935   0.175   9.548  0.2049 -0.1227  0.1917
  234MPD1    C2 3550   0.942   0.314   9.513  0.2406 -0.1638 -0.0073
  234MPD1    C3 3551   0.841   0.378   9.449  0.0869 -0.3661  0.0456
  234MPD1    C4 3552   0.737   0.306   9.395  0.2519  0.1080 -0.5555
  234MPD1    C5 3553   0.737   0.170   9.413  0.3174  0.0628 -0.0919
  234MPD1     H 3554   1.033   0.368   9.536  0.7146 -1.1093  0.3721
  234MPD1    H1 3555   0.650   0.343   9.341 -0.7515 -0.5389  0.6078
  234MPD1    H2 3556   0.818   0.004   9.507 -4.1849 -0.2253 -1.8041
  234MPD1    H3 3557   0.654   0.112   9.374 -1.4500  2.0722  0.6877
  234MPD1     N 3558   0.849   0.519   9.424  0.2155 -0.0455  0.5374
  234MPD1    H5 3559   0.923   0.567   9.474 -0.2880 -0.2967  1.5210
  234MPD1    N1 3560   1.040   0.109   9.604  0.0232  0.6674 -0.6514
  234MPD1    H6 3561   1.001   0.022   9.639  1.5677  0.7756  1.3672
  234MPD1    H7 3562   1.065   0.158   9.690  0.1786  0.0223 -0.3258
  235MPD1     C 3563   0.966   2.712   9.299 -0.1998  0.2287  0.5471
  235MPD1    C1 3564   0.971   2.846   9.325 -0.4219 -0.0802 -0.2123
  235MPD1    C2 3565   1.092   2.904   9.343  0.9609  0.5380 -0.1832
  235MPD1    C3 3566   1.208   2.832   9.338  0.0937 -0.9339  0.0441
  235MPD1    C4 3567   1.202   2.696   9.313 -0.2125  0.4977 -0.2711
  235MPD1    C5 3568   1.085   2.641   9.289  0.5376 -0.4884 -0.0864
  235MPD1     H 3569   1.089   3.011   9.361 -0.4126  0.7029 -1.3721
  235MPD1    H1 3570   1.287   2.631   9.297  1.7495  2.6000  1.5276
  235MPD1    H2 3571   0.873   2.662   9.277  0.2219  1.0037 -2.9566
  235MPD1    H3 3572   1.073   2.542   9.246 -0.7858 -0.4005  0.0756
  235MPD1     N 3573   1.321   2.905   9.357 -0.1997 -0.0218 -0.1939
  235MPD1    H5 3574   1.303   3.004   9.370 -1.5278 -0.4192  0.9706
  235MPD1    N1 3575   0.867   2.932   9.308  0.1343  0.3297  0.5361
  235MPD1    H6 3576   0.866   3.006   9.378 -1.6122  0.7235  0.0913
  235MPD1    H7 3577   0.777   2.885   9.311  0.8062 -1.1688 -2.4369
  236MPD1     C 3578   1.885   4.688  10.638 -0.8266 -0.6850  0.0454
  236MPD1    C1 3579   1.788   4.655  10.549 -0.1699  0.2656  0.2574
  236MPD1    C2 3580   1.771   4.526  10.513 -0.3318  0.2237 -0.2705
  236MPD1    C3 3581   1.843   4.425  10.574 -0.0803 -0.2805  0.2814
  236MPD1    C4 3582   1.949   4.455  10.652 -0.1430  0.1372  0.9459
  236MPD1    C5 3583   1.965   4.588  10.685  0.2807 -0.6386  0.9185
  236MPD1     H 3584   1.698   4.491  10.441 -0.9673  0.6070  0.1808
  236MPD1    H1 3585   2.000   4.375  10.705  1.2211  0.1222 -0.3892
  236MPD1    H2 3586   1.904   0.069  10.669 -0.9900 -1.1118  1.5816
  236MPD1    H3 3587   2.038   4.624  10.757 -0.8893 -1.5014  2.5638
  236MPD1     N 3588   1.803   4.287  10.566  0.3180 -0.0415  0.1676
  236MPD1    H5 3589   1.874   4.218  10.587  0.0556 -0.1054  0.8484
  236MPD1    N1 3590   1.703   0.035  10.495  0.5835  0.1278 -0.9922
  236MPD1    H6 3591   1.629   0.001  10.433  1.2698  0.2880 -1.9076
  236MPD1    H7 3592   1.654   0.078  10.573 -0.3074  1.5340 -2.3204
  237MPD1     C 3593   2.308   2.156  14.943  0.6060 -0.2239  0.9175
  237MPD1    C1 3594   2.249   2.210  15.050 -0.1069  0.0209  0.2294
  237MPD1    C2 3595   2.113   2.196  15.068  0.1789 -0.1615  0.6539
  237MPD1    C3 3596   2.033   2.125  14.981  0.1037  0.0804 -0.0062
  237MPD1    C4 3597   2.097   2.068  14.872  0.1586 -0.6623  0.3481
  237MPD1    C5 3598   2.233   2.079  14.854  0.4998 -0.0961  0.6010
  237MPD1     H 3599   2.060   2.247  15.148  2.3556 -0.1414  2.0742
  237MPD1    H1 3600   2.051   2.007  14.794 -0.7530 -1.3767  1.4459
  237MPD1    H2 3601   2.415   2.167  14.929  0.6945 -0.0334  1.7246
  237MPD1    H3 3602   2.289   2.027  14.777 -0.3728 -0.6738  0.3563
  237MPD1     N 3603   1.896   2.099  15.003  0.5403  0.0650  0.1032
  237MPD1    H5 3604   1.843   2.073  14.920 -1.9498  3.2107  0.7100
  237MPD1    N1 3605   2.329   2.288  15.141  0.5131  0.2289 -0.1765
  237MPD1    H6 3606   2.315   2.257  15.237  2.4606  1.8370  0.6407
  237MPD1    H7 3607   2.427   2.273  15.115  1.4260  2.0742  2.2080
  238MPD1     C 3608   3.579   1.405  15.387 -0.3536  0.4591 -0.2828
  238MPD1    C1 3609   3.472   1.387  15.465  0.5349  0.8665  0.0559
  238MPD1    C2 3610   3.353   1.332  15.417  0.1568 -0.5936 -0.1567
  238MPD1    C3 3611   3.349   1.287  15.282 -0.1436  0.1032  0.0404
  238MPD1    C4 3612   3.454   1.309  15.195  0.9323  0.1493  0.6648
  238MPD1    C5 3613   3.565   1.374  15.251  0.0204 -0.0476 -0.0084
  238MPD1     H 3614   3.268   1.320  15.482 -1.1110 -0.7534 -1.8547
  238MPD1    H1 3615   3.462   1.271  15.094 -0.8518 -0.9831  0.9532
  238MPD1    H2 3616   3.674   1.448  15.417 -0.5689  0.5807  0.2341
  238MPD1    H3 3617   3.655   1.387  15.192 -0.4234  1.9898 -0.2301
  238MPD1     N 3618   3.229   1.233  15.223  0.3170 -0.0857  0.1675
  238MPD1    H5 3619   3.235   1.209  15.125 -2.8025 -0.2621  0.0152
  238MPD1    N1 3620   3.478   1.439  15.596  0.5768 -0.5662  0.0330
  238MPD1    H6 3621   3.576   1.452  15.621  1.4740 -2.9073 -2.2029
  238MPD1    H7 3622   3.453   1.366  15.663  0.3507 -0.5969 -0.0879
  239MPD1     C 3623   3.689   1.746  15.184  1.0438 -0.3262 -0.3840
  239MPD1    C1 3624   3.776   1.825  15.120  0.2640 -0.6623  0.7772
  239MPD1    C2 3625   3.738   1.900  15.009 -0.0326 -0.7150 -0.2261
  239MPD1    C3 3626   3.617   1.880  14.948 -0.0110 -0.2608  0.1154
  239MPD1    C4 3627   3.524   1.808  15.023  0.2781  0.3432  0.4417
  239MPD1    C5 3628   3.562   1.734  15.137  0.4558 -0.4255 -0.6637
  239MPD1     H 3629   3.818   1.957  14.964  1.4603  0.0249  3.4014
  239MPD1    H1 3630   3.422   1.795  14.987  0.8678 -0.0479 -1.0766
  239MPD1    H2 3631   3.728   1.678  15.259 -1.0775  1.0184  1.9349
  239MPD1    H3 3632   3.503   1.664  15.195 -1.4480  0.4162 -1.6048
  239MPD1     N 3633   3.570   1.939  14.827  0.4461 -0.5311 -0.5518
  239MPD1    H5 3634   3.471   1.926  14.810  0.6478 -2.3359 -0.4309
  239MPD1    N1 3635   3.902   1.858  15.175 -0.0629  0.1461 -0.4186
  239MPD1    H6 3636   3.964   1.857  15.094 -1.4738 -0.3459 -1.4839
  239MPD1    H7 3637   3.939   1.785  15.235 -1.1578  1.1093  1.4075
  240MPD1     C 3638   2.724   2.022  14.223  0.6923  0.3555  0.0004
  240MPD1    C1 3639   2.760   2.021  14.357  0.4371  0.2756  0.1822
  240MPD1    C2 3640   2.735   1.905  14.427  0.1673 -0.5716  0.6877
  240MPD1    C3 3641   2.674   1.796  14.367  0.2155  0.4511  0.0316
  240MPD1    C4 3642   2.632   1.802  14.234 -0.1874  0.2277  0.1899
  240MPD1    C5 3643   2.657   1.919  14.168  0.4083  0.1830  0.4097
  240MPD1     H 3644   2.758   1.890  14.532  0.3532 -1.4101  0.5276
  240MPD1    H1 3645   2.591   1.722  14.173 -1.5242 -0.6091  2.1937
  240MPD1    H2 3646   2.736   2.114  14.166 -0.2664  1.0914  0.9664
  240MPD1    H3 3647   2.641   1.914  14.061 -0.2772 -4.4726  0.6935
  240MPD1     N 3648   2.641   1.688  14.450 -0.5623 -0.1044  0.1246
  240MPD1    H5 3649   2.649   1.704  14.550 -1.7220  0.0474  0.1978
  240MPD1    N1 3650   2.828   2.133  14.413 -0.2505 -0.4465 -0.3407
  240MPD1    H6 3651   2.794   2.219  14.371  3.3146  0.8301 -0.6506
  240MPD1    H7 3652   2.818   2.140  14.514  0.9795 -0.7770 -0.1854
  241MPD1     C 3653   2.774   1.387  15.381 -0.0785 -0.8651 -0.7006
  241MPD1    C1 3654   2.845   1.457  15.286 -0.0719 -0.0903 -0.3237
  241MPD1    C2 3655   2.800   1.443  15.157 -0.4595  0.5054 -0.3406
  241MPD1    C3 3656   2.679   1.380  15.124  0.6780 -0.7550 -0.1348
  241MPD1    C4 3657   2.605   1.326  15.231 -0.5104  0.0227 -0.7724
  241MPD1    C5 3658   2.659   1.323  15.354 -0.1182  0.5159 -0.0700
  241MPD1     H 3659   2.847   1.499  15.078  0.3796 -1.0970 -0.9754
  241MPD1    H1 3660   2.505   1.285  15.220 -0.4446 -0.4439  0.3843
  241MPD1    H2 3661   2.812   1.379  15.482 -0.0465 -1.1498 -0.7333
  241MPD1    H3 3662   2.598   1.275  15.430  0.9221 -0.7043 -0.0085
  241MPD1     N 3663   2.626   1.376  14.994 -0.2651  0.1554  0.0518
  241MPD1    H5 3664   2.539   1.325  14.986 -1.8762  3.2282 -2.4598
  241MPD1    N1 3665   2.949   1.550  15.311 -0.0499 -0.3551  0.5885
  241MPD1    H6 3666   3.006   1.525  15.392  2.0328 -1.7569 -1.3007
  241MPD1    H7 3667   3.010   1.566  15.231  1.2468  1.7335  2.0009
  242MPD1     C 3668   2.358   0.470  15.752 -0.5559  0.0445 -0.2445
  242MPD1    C1 3669   2.246   0.396  15.756  0.2730  0.7366  0.2400
  242MPD1    C2 3670   2.222   0.304  15.652  0.1702  0.1307  0.1115
  242MPD1    C3 3671   2.304   0.286  15.543  0.1337  0.2564  0.0989
  242MPD1    C4 3672   2.408   0.366  15.536 -0.4638 -0.8991  0.7807
  242MPD1    C5 3673   2.441   0.453  15.641  0.0178  0.0686  0.3749
  242MPD1     H 3674   2.135   0.242  15.668  0.7148 -0.8689 -0.8264
  242MPD1    H1 3675   2.475   0.354  15.452  0.2061 -1.6034  1.4084
  242MPD1    H2 3676   2.390   0.537  15.831 -1.6555  1.4210 -0.9682
  242MPD1    H3 3677   2.531   0.511  15.626  0.2943 -0.1738  1.1179
  242MPD1     N 3678   2.285   0.178  15.449  0.3987 -0.0801  0.4555
  242MPD1    H5 3679   2.350   0.167  15.372  1.2652  0.2095  1.1360
  242MPD1    N1 3680   2.151   0.411  15.861  0.0829  0.2113  0.0078
  242MPD1    H6 3681   2.052   0.409  15.839 -0.4642 -1.7142  2.6047
  242MPD1    H7 3682   2.171   0.502  15.902  0.3684  1.4480 -2.8838
  243MPD1     C 3683   4.271   2.735  17.498  0.5882 -0.4448 -0.7191
  243MPD1    C1 3684   4.407   2.725  17.477 -0.5398  0.3506  0.4435
  243MPD1    C2 3685   4.463   2.728  17.348  0.1059  0.5620 -0.0280
  243MPD1    C3 3686   4.378   2.747  17.248 -0.3678  0.1054  0.0191
  243MPD1    C4 3687   4.244   2.767  17.270  0.0266  0.3466  0.9337
  243MPD1    C5 3688   4.188   2.751  17.392 -0.2270  0.4823 -0.3291
  243MPD1     H 3689   4.566   2.715  17.318 -0.6010 -0.6775 -1.9377
  243MPD1    H1 3690   4.174   2.787  17.190  1.0447 -0.2204 -0.1057
  243MPD1    H2 3691   4.227   2.718  17.595  1.0439  0.8992 -0.2760
  243MPD1    H3 3692   4.080   2.763  17.396 -0.1920  0.5274  0.6329
  243MPD1     N 3693   4.435   2.736  17.119 -0.3552  0.5171 -0.6120
  243MPD1    H5 3694   4.530   2.703  17.113 -0.5682 -0.3592  0.8298
  243MPD1    N1 3695   4.486   2.690  17.586  0.1623 -0.3126 -0.5784
  243MPD1    H6 3696   4.587   2.691  17.585  0.1510  1.1075 -0.2737
  243MPD1    H7 3697   4.445   2.716  17.676 -0.9680 -0.0407 -1.1689
  244MPD1     C 3698   0.472   2.407  16.550  0.3995  0.4045 -0.2510
  244MPD1    C1 3699   0.370   2.317  16.516  0.1784 -0.7311  0.6850
  244MPD1    C2 3700   0.244   2.338  16.562 -0.7841  0.3558  0.2624
  244MPD1    C3 3701   0.218   2.440  16.659 -0.0035  0.0993 -0.3627
  244MPD1    C4 3702   0.318   2.528  16.688 -0.4216 -0.1109 -0.6678
  244MPD1    C5 3703   0.443   2.517  16.630 -0.2492 -0.1902 -0.0592
  244MPD1     H 3704   0.159   2.276  16.537 -1.3007  1.8495 -1.6883
  244MPD1    H1 3705   0.296   2.621  16.740 -1.2800 -0.5625 -0.2290
  244MPD1    H2 3706   0.573   2.409  16.513  0.4769 -0.7219 -0.0902
  244MPD1    H3 3707   0.527   2.582  16.654 -0.6338  0.5858 -0.7938
  244MPD1     N 3708   0.080   2.453  16.697  0.1555  0.1765  0.2550
  244MPD1    H5 3709   0.008   2.398  16.652 -1.5007  1.7067  1.0013
  244MPD1    N1 3710   0.391   2.238  16.398 -0.7670  0.3239 -0.1322
  244MPD1    H6 3711   0.338   2.151  16.404  0.9843 -0.7400 -0.1082
  244MPD1    H7 3712   0.492   2.232  16.385 -0.9663  0.0089 -1.5949
  245MPD1     C 3713   0.825   3.731  13.381 -0.5360  0.1570  0.4291
  245MPD1    C1 3714   0.839   3.746  13.516  0.1295 -0.2237  0.9310
  245MPD1    C2 3715   0.890   3.866  13.568 -0.5731 -0.4158  0.4214
  245MPD1    C3 3716   0.932   3.964  13.488 -0.1075  0.2460  0.7369
  245MPD1    C4 3717   0.915   3.946  13.353 -0.3846  0.4564  0.1334
  245MPD1    C5 3718   0.859   3.831  13.301 -0.6371  0.7043 -0.4196
  245MPD1     H 3719   0.903   3.869  13.676 -0.2872  1.5870  0.3269
  245MPD1    H1 3720   0.959   4.016  13.283 -1.0631  0.1404 -0.6074
  245MPD1    H2 3721   0.773   3.643  13.345 -0.3456  0.2061  0.0345
  245MPD1    H3 3722   0.854   3.820  13.193  1.6070  3.4638 -0.8018
  245MPD1     N 3723   0.985   4.079  13.550 -0.3568  0.3722 -0.5719
  245MPD1    H5 3724   0.959   4.084  13.648 -1.3514 -1.0470 -0.7741
  245MPD1    N1 3725   0.791   3.649  13.600 -0.1111 -0.0701  0.1966
  245MPD1    H6 3726   0.808   3.554  13.567 -0.3980  0.8094 -2.4651
  245MPD1    H7 3727   0.831   3.648  13.693  3.5535 -0.2694 -1.3804
  246MPD1     C 3728   1.700   2.866   9.779  0.3553  0.0123  0.0045
  246MPD1    C1 3729   1.697   3.001   9.799 -0.0056  0.5212  0.6475
  246MPD1    C2 3730   1.582   3.073   9.775  0.0592 -0.3809 -1.0795
  246MPD1    C3 3731   1.471   3.007   9.730 -0.1742 -0.2743  0.0536
  246MPD1    C4 3732   1.469   2.872   9.715  0.1190  0.5632 -0.0361
  246MPD1    C5 3733   1.585   2.798   9.749 -0.0740 -0.2825  0.4267
  246MPD1     H 3734   1.576   3.181   9.780  2.6943 -0.2697 -0.3126
  246MPD1    H1 3735   1.385   2.815   9.678  2.6534 -1.2242 -3.1050
  246MPD1    H2 3736   1.786   2.802   9.791  2.6861  3.3568  1.2568
  246MPD1    H3 3737   1.584   2.691   9.733 -0.0426 -0.1614 -0.4242
  246MPD1     N 3738   1.357   3.085   9.705 -0.0412  0.0890 -0.1011
  246MPD1    H5 3739   1.372   3.185   9.718  0.6427  0.0498 -0.6255
  246MPD1    N1 3740   1.814   3.082   9.809 -0.1159  0.1775  0.9242
  246MPD1    H6 3741   1.898   3.033   9.840 -0.3361  0.1619  1.4978
  246MPD1    H7 3742   1.800   3.151   9.883 -0.6467  1.5824 -0.4941
  247MPD1     C 3743   1.366   0.268  17.212 -0.5735 -0.6497 -0.7516
  247MPD1    C1 3744   1.385   0.224  17.087  0.9673  0.5864 -0.4775
  247MPD1    C2 3745   1.330   0.103  17.052 -0.2020  0.0580 -0.5231
  247MPD1    C3 3746   1.263   0.021  17.144  1.2418 -0.6905 -0.0347
  247MPD1    C4 3747   1.258   0.062  17.276  0.3114  0.5553 -0.4366
  247MPD1    C5 3748   1.309   0.182  17.301  0.6604 -0.4104 -0.4584
  247MPD1     H 3749   1.325   0.070  16.949  1.4344 -0.3348 -0.4823
  247MPD1    H1 3750   1.213   0.003  17.355  3.0012  0.0651  0.7062
  247MPD1    H2 3751   1.408   0.361  17.250 -1.0166 -1.0265  0.6541
  247MPD1    H3 3752   1.301   0.209  17.406 -0.5801 -2.6093  0.0142
  247MPD1     N 3753   1.207   4.613  17.121 -0.4543 -0.3773 -0.5202
  247MPD1    H5 3754   1.166   4.569  17.203 -0.7445  1.0834  0.1094
  247MPD1    N1 3755   1.433   0.299  16.980 -0.7183 -0.7700 -0.4007
  247MPD1    H6 3756   1.500   0.367  17.014 -1.1698 -0.4150 -0.2235
  247MPD1    H7 3757   1.486   0.237  16.919  0.3653 -0.8421  0.6060
  248MPD1     C 3758   0.239   2.611   0.413 -0.6272 -1.0046 -0.4308
  248MPD1    C1 3759   0.305   2.708   0.335 -0.0254 -0.5340  0.1177
  248MPD1    C2 3760   0.416   2.762   0.390 -1.0592 -0.0677 -0.3904
  248MPD1    C3 3761   0.455   2.744   0.521 -0.8141  0.2059 -0.4183
  248MPD1    C4 3762   0.383   2.649   0.593 -0.3509  0.1444 -0.2740
  248MPD1    C5 3763   0.275   2.582   0.539 -0.0840  0.5725 -0.1682
  248MPD1     H 3764   0.467   2.833   0.326  2.4315 -0.4290  2.0474
  248MPD1    H1 3765   0.405   2.617   0.694 -1.3578 -0.5484 -0.2727
  248MPD1    H2 3766   0.146   2.568   0.378 -1.8898 -0.6222  2.4136
  248MPD1    H3 3767   0.230   2.503   0.599  0.0695 -0.1865 -1.0545
  248MPD1     N 3768   0.571   2.815   0.571  0.5683  0.6887  0.5161
  248MPD1    H5 3769   0.610   2.887   0.511  0.9972  0.9562  1.1092
  248MPD1    N1 3770   0.264   2.723   0.200 -0.7857 -0.1464 -0.2817
  248MPD1    H6 3771   0.301   2.813   0.172 -1.9805  0.0919 -1.1183
  248MPD1    H7 3772   0.162   2.726   0.192 -0.9144 -2.9215  0.1926
  249MPD1     C 3773   2.640   1.955  10.989  0.2165  0.4595 -0.4040
  249MPD1    C1 3774   2.663   2.068  10.924  0.7401  0.5584 -0.2623
  249MPD1    C2 3775   2.627   2.074  10.786  1.1093 -0.1615 -0.3896
  249MPD1    C3 3776   2.564   1.964  10.722  0.3969 -0.0667 -0.1552
  249MPD1    C4 3777   2.549   1.847  10.800  0.3183 -0.0569  0.5128
  249MPD1    C5 3778   2.589   1.844  10.929 -0.3084 -0.2951  1.0614
  249MPD1     H 3779   2.652   2.164  10.732 -2.0440  0.5237 -0.7057
  249MPD1    H1 3780   2.502   1.754  10.770  1.7764 -0.4864 -0.4367
  249MPD1    H2 3781   2.665   1.931  11.092 -2.8486  1.5872  0.6069
  249MPD1    H3 3782   2.576   1.749  10.979  0.2155 -1.5867 -1.2858
  249MPD1     N 3783   2.545   1.979  10.584  0.6662  0.0999 -0.8317
  249MPD1    H5 3784   2.559   2.073  10.547 -1.5565  0.6996 -0.1359
  249MPD1    N1 3785   2.754   2.171  10.971 -0.3415 -0.1086  0.0682
  249MPD1    H6 3786   2.725   2.191  11.066  1.2871 -0.4065  0.6304
  249MPD1    H7 3787   2.745   2.256  10.917 -1.1772 -0.3066 -0.1139
  250MPD2     C 3788   4.046   2.504  13.486 -0.5480 -0.0659  0.5099
  250MPD2    C1 3789   3.991   2.565  13.373 -0.0440  0.2831  0.2795
  250MPD2    C2 3790   3.933   2.485  13.272  0.1484  0.5856  0.1239
  250MPD2    C3 3791   3.926   2.346  13.288  0.7062 -0.1347 -0.5135
  250MPD2    C4 3792   3.980   2.294  13.407  0.8612 -0.9195 -0.0132
  250MPD2    C5 3793   4.032   2.372  13.506  0.2581 -0.3474 -0.5253
  250MPD2     H 3794   3.888   2.538  13.189  0.7736 -0.8914 -1.1570
  250MPD2    H1 3795   3.961   2.192  13.438  2.6067 -1.5283 -0.9388
  250MPD2    H2 3796   4.100   2.559  13.562 -2.6887  2.0768  0.4854
  250MPD2    H3 3797   4.078   2.321  13.589 -0.5061 -0.7493 -0.3508
  250MPD2     N 3798   3.877   2.262  13.190 -0.2388  0.3067 -0.5200
  250MPD2    H5 3799   3.869   2.163  13.213 -2.2643  0.3503 -1.0656
  250MPD2    N1 3800   4.011   2.702  13.365 -0.0780  0.1086 -0.1872
  250MPD2    H7 3801   4.061   2.756  13.435 -1.4033 -0.5750  1.2812
  251TMC3    C1 3802   4.037   2.900  13.240  0.1215 -0.5376  0.2045
  251TMC3    C2 3803   3.981   3.019  13.208 -0.4847 -0.7449 -0.7140
  251TMC3    C3 3804   4.059   3.118  13.162  0.2740  0.7800  0.0984
  251TMC3    C4 3805   4.169   2.877  13.227  0.5744  0.0579 -0.2485
  251TMC3    C5 3806   4.248   2.981  13.175  0.0570 -0.7728 -0.6789
  251TMC3    C6 3807   4.190   3.100  13.145 -0.3807 -1.1098 -0.3312
  251TMC3     C 3808   3.951   2.785  13.267 -0.5191  0.4780 -0.4044
  251TMC3     O 3809   3.852   2.762  13.199 -0.3706  0.2821 -0.5733
  251TMC3     H 3810   3.876   3.032  13.230 -0.4788  0.0952 -1.1628
  251TMC3    H1 3811   4.214   2.781  13.247 -1.3836 -0.9071 -0.4534
  251TMC3    H2 3812   4.249   3.177  13.097 -0.9501 -0.3871  0.1404
  251TMC3    C7 3813   4.378   2.946  13.125 -0.3049 -0.8888  0.0869
  251TMC3    C8 3814   4.005   3.254  13.163 -0.6169 -0.1416 -0.3286
  251TMC3    O1 3815   4.415   2.834  13.162 -0.2366  0.5869 -0.4512
  251TMC3    O2 3816   3.889   3.272  13.139  0.3607  0.4738 -0.1824
  252TMC3    C1 3817   4.420   3.875   8.589 -0.1157 -0.0732  0.4700
  252TMC3    C2 3818   4.492   3.759   8.595  0.0133 -0.0529  0.0615
  252TMC3    C3 3819   4.488   3.691   8.716 -0.5859 -0.1319 -0.2941
  252TMC3    C4 3820   4.344   3.919   8.700  0.9290  0.2560  0.3996
  252TMC3    C5 3821   4.336   3.838   8.812  0.1797  0.0193 -0.2682
  252TMC3    C6 3822   4.409   3.726   8.821  0.9902  0.0937 -0.7391
  252TMC3     C 3823   4.458   3.972   8.487  0.5320  0.1356  0.6640
  252TMC3     O 3824   4.528   3.925   8.397 -0.2255 -0.1105 -0.1154
  252TMC3     H 3825   4.534   3.711   8.508  0.9193 -0.0109  0.4770
  252TMC3    H1 3826   4.274   4.000   8.685 -0.5245 -1.1901 -0.7554
  252TMC3    H2 3827   4.397   3.662   8.907 -0.0907  0.4092 -0.6532
  252TMC3    C7 3828   4.224   3.871   8.902 -0.2571  0.5313  0.5151
  252TMC3    C8 3829   4.576   3.582   8.734  0.6660  0.4268  0.3681
  252TMC3    O1 3830   4.130   3.934   8.854  0.4348 -1.1743 -0.5397
  252TMC3    O2 3831   4.613   3.512   8.638 -0.6469  0.7647 -0.1304
  253MPD2     C 3832   0.969   2.220  14.972 -0.2915 -0.2137 -0.1188
  253MPD2    C1 3833   0.824   2.227  14.998  0.2783  0.1677  0.6307
  253MPD2    C2 3834   0.769   2.292  15.110 -0.7680  0.8124  0.4683
  253MPD2    C3 3835   0.861   2.352  15.190  0.1393  0.0459 -0.6060
  253MPD2    C4 3836   0.997   2.351  15.157 -0.2869 -0.7235  0.6499
  253MPD2    C5 3837   1.056   2.287  15.055  0.2327  0.5537 -0.1845
  253MPD2     H 3838   0.664   2.283  15.137 -0.2569 -2.5077  1.3714
  253MPD2    H1 3839   1.056   2.422  15.213 -2.9992  0.3424  2.1425
  253MPD2    H2 3840   1.018   2.175  14.887 -0.9747 -1.7436  0.3096
  253MPD2    H3 3841   1.159   2.306  15.026 -0.1917 -0.5650 -2.4460
  253MPD2     N 3842   0.829   2.411  15.312  0.2442 -0.4974  0.9972
  253MPD2    H5 3843   0.906   2.432  15.374  1.6270 -1.4426 -0.3898
  253MPD2    N1 3844   0.734   2.181  14.896  0.6451 -0.6117 -0.0088
  253MPD2    H7 3845   0.638   2.186  14.929  0.3253  0.2591 -1.0765
  254TMC3    C1 3846   0.690   2.486  15.478  0.2919  0.5456 -0.5355
  254TMC3    C2 3847   0.604   2.580  15.525  0.2223  0.1907 -0.1057
  254TMC3    C3 3848   0.564   2.557  15.654 -0.0451 -0.4707 -0.6935
  254TMC3    C4 3849   0.748   2.390  15.559  0.2749  0.2951 -0.4584
  254TMC3    C5 3850   0.699   2.372  15.686 -0.0490  0.5075 -1.3561
  254TMC3    C6 3851   0.604   2.454  15.737 -0.1991  0.1147  0.4230
  254TMC3     C 3852   0.703   2.452  15.343  0.1868 -0.3546 -0.4939
  254TMC3     O 3853   0.614   2.489  15.266  0.1847  0.0651 -0.2654
  254TMC3     H 3854   0.568   2.663  15.465 -0.1038  0.6136  0.6736
  254TMC3    H1 3855   0.828   2.326  15.522  0.3786 -0.0455  0.3434
  254TMC3    H2 3856   0.558   2.439  15.834 -0.0909  2.8326  0.8863
  254TMC3    C7 3857   0.780   2.297  15.780 -0.3425 -0.0449  0.6311
  254TMC3    C8 3858   0.516   2.672  15.726 -0.7747 -0.2212 -0.3453
  254TMC3    O1 3859   0.726   2.236  15.871 -0.1111 -0.1434 -0.0412
  254TMC3    O2 3860   0.486   2.645  15.842  0.3955 -0.1517 -0.3881
  255MPD2     C 3861   4.111   0.467  10.468 -0.0062  0.0402 -0.0679
  255MPD2    C1 3862   4.027   0.421  10.373  0.6667  0.2426  0.0691
  255MPD2    C2 3863   4.079   0.337  10.272  0.5665 -0.5679  0.0353
  255MPD2    C3 3864   4.216   0.312  10.263 -0.3312  0.5985  0.0520
  255MPD2    C4 3865   4.296   0.370  10.362  0.1792 -0.7425  0.1652
  255MPD2    C5 3866   4.247   0.445  10.465  1.0268  0.4833 -0.1842
  255MPD2     H 3867   4.012   0.282  10.206 -2.1128  2.7324  0.0276
  255MPD2    H1 3868   4.403   0.356  10.376  0.0003  0.5837  2.8103
  255MPD2    H2 3869   4.063   0.522  10.549  0.8384  0.3273  0.2393
  255MPD2    H3 3870   4.310   0.491  10.540  1.7281  0.6707 -0.8854
  255MPD2     N 3871   4.263   0.226  10.156  0.2234 -0.1765 -0.8044
  255MPD2    H5 3872   4.198   0.188  10.089  0.5714  0.8668 -1.7356
  255MPD2    N1 3873   3.892   0.446  10.387  0.4649  0.7352  0.3720
  255MPD2    H7 3874   3.866   0.519  10.452 -1.3618  0.1648  0.2669
  256TMC3    C1 3875   3.672   0.467  10.327 -0.1323  0.1757  0.4884
  256TMC3    C2 3876   3.653   0.599  10.359 -0.5264  0.1247  0.7630
  256TMC3    C3 3877   3.519   0.644  10.366 -0.8542 -0.2201  0.4526
  256TMC3    C4 3878   3.573   0.389  10.290 -0.1654 -0.0808 -0.0519
  256TMC3    C5 3879   3.446   0.440  10.293  0.8054 -0.0561  0.4879
  256TMC3    C6 3880   3.410   0.570  10.326  0.0355 -0.5647  0.4468
  256TMC3     C 3881   3.795   0.420  10.292  0.4956 -0.5624 -0.1637
  256TMC3     O 3882   3.792   0.364  10.182 -0.5293 -0.0776  0.6049
  256TMC3     H 3883   3.734   0.661  10.394 -0.0233 -1.0895  1.7620
  256TMC3    H1 3884   3.574   0.288  10.250  0.1969 -0.9569  2.1759
  256TMC3    H2 3885   3.307   0.604  10.317  0.9875  1.9812 -0.6986
  256TMC3    C7 3886   3.349   0.357  10.224  0.8938  0.4727 -0.3869
  256TMC3    C8 3887   3.502   0.786  10.392  0.3369  0.0936  0.0276
  256TMC3    O1 3888   3.379   0.314  10.114 -0.3887  0.2435 -0.3702
  256TMC3    O2 3889   3.390   0.832  10.421  0.3927  1.0673 -0.1187
  257MPD2     C 3890   3.278   2.723  13.492  0.3318  0.3875  0.6885
  257MPD2    C1 3891   3.217   2.629  13.414  0.3879 -0.1958  0.0771
  257MPD2    C2 3892   3.184   2.503  13.468  0.0775  0.0498  0.1036
  257MPD2    C3 3893   3.220   2.468  13.597 -0.0999 -0.2314  0.2567
  257MPD2    C4 3894   3.281   2.565  13.672  0.2043  0.1555  0.1921
  257MPD2    C5 3895   3.316   2.689  13.622  0.2411 -0.5015  0.7084
  257MPD2     H 3896   3.147   2.427  13.401 -0.1174  1.6080 -1.5631
  257MPD2    H1 3897   3.316   2.544  13.773 -0.8973  0.5401  0.6490
  257MPD2    H2 3898   3.318   2.818  13.460  0.4479  0.5589  1.3282
  257MPD2    H3 3899   3.361   2.763  13.686 -1.7918  3.1612 -2.1098
  257MPD2     N 3900   3.198   2.331  13.633 -0.1360  0.1253 -0.6266
  257MPD2    H5 3901   3.140   2.276  13.570 -1.1332  0.1790  0.2475
  257MPD2    N1 3902   3.195   2.667  13.274  0.1176 -0.3743  0.4105
  257MPD2    H7 3903   3.226   2.759  13.248  1.7992 -0.8812  0.6308
  258TMC3    C1 3904   3.221   2.133  13.770 -0.3262 -0.6121 -0.4465
  258TMC3    C2 3905   3.240   2.060  13.659 -0.5514 -0.2520  0.7482
  258TMC3    C3 3906   3.259   1.925  13.660 -0.8653  0.1492 -0.0026
  258TMC3    C4 3907   3.218   2.073  13.892 -0.4402  0.2463 -0.0237
  258TMC3    C5 3908   3.240   1.937  13.900 -0.4252 -0.0066  0.3111
  258TMC3    C6 3909   3.260   1.862  13.784 -0.1776 -0.0576 -0.6712
  258TMC3     C 3910   3.229   2.276  13.752  0.0148  0.0997  0.0989
  258TMC3     O 3911   3.289   2.327  13.848  0.2412  0.2842  0.1390
  258TMC3     H 3912   3.224   2.095  13.558  1.5421 -0.1281  0.4709
  258TMC3    H1 3913   3.204   2.139  13.977 -2.7453 -1.5034  0.9472
  258TMC3    H2 3914   3.288   1.758  13.792 -2.1554 -0.4778  0.7117
  258TMC3    C7 3915   3.278   1.874  14.027  0.0953  0.0618 -0.3794
  258TMC3    C8 3916   3.248   1.859  13.528  0.7238 -0.3483  0.3809
  258TMC3    O1 3917   3.335   1.764  14.020 -0.1290 -0.2569  0.5777
  258TMC3    O2 3918   3.298   1.914  13.429  0.3356  0.4182 -0.0172
  259MPD2     C 3919   2.357   3.863   1.292  0.0100 -0.1516  0.4470
  259MPD2    C1 3920   2.237   3.813   1.253 -0.9569 -0.3990 -0.0830
  259MPD2    C2 3921   2.214   3.793   1.118 -0.1742 -0.6773  0.0922
  259MPD2    C3 3922   2.301   3.827   1.019 -0.0465 -0.6703  0.1871
  259MPD2    C4 3923   2.422   3.876   1.057  0.7283  0.2361  0.2925
  259MPD2    C5 3924   2.454   3.895   1.193 -0.1099  0.3099 -0.2770
  259MPD2     H 3925   2.126   3.737   1.088 -0.7051  0.2514 -0.0931
  259MPD2    H1 3926   2.491   3.915   0.983 -0.6093  0.7581 -0.6786
  259MPD2    H2 3927   2.379   3.877   1.397 -0.4213 -2.4436  0.8558
  259MPD2    H3 3928   2.546   3.934   1.235 -0.2790 -0.4849  0.8361
  259MPD2     N 3929   2.258   3.796   0.889  0.7823 -0.5105  0.4417
  259MPD2    H5 3930   2.165   3.755   0.883 -0.3342  1.7182  2.3185
  259MPD2    N1 3931   2.148   3.797   1.364  0.1125  0.8876 -0.3738
  259MPD2    H7 3932   2.182   3.799   1.459 -0.2744  1.4833 -0.2444
  260TMC3    C1 3933   2.273   3.731   0.660 -0.2697 -0.4689 -0.3152
  260TMC3    C2 3934   2.314   3.773   0.537  0.0034  0.3349  0.7651
  260TMC3    C3 3935   2.275   3.698   0.434 -0.3981 -0.1682  0.2371
  260TMC3    C4 3936   2.197   3.616   0.677  0.3266 -0.2357  0.1629
  260TMC3    C5 3937   2.163   3.550   0.570 -0.1907 -1.6290 -0.4014
  260TMC3    C6 3938   2.192   3.593   0.446 -0.4435 -0.0326 -0.1976
  260TMC3     C 3939   2.327   3.803   0.768 -0.2464 -0.0231 -0.3308
  260TMC3     O 3940   2.434   3.859   0.746  0.1722  0.2862  0.5518
  260TMC3     H 3941   2.362   3.869   0.523  0.3047 -0.0454 -0.8240
  260TMC3    H1 3942   2.166   3.587   0.777 -0.5055  1.4283  0.3815
  260TMC3    H2 3943   2.162   3.532   0.362 -0.5337  1.6874 -1.4009
  260TMC3    C7 3944   2.158   3.405   0.593 -0.0061  0.4478  0.3132
  260TMC3    C8 3945   2.371   3.685   0.336 -0.2591 -0.6274  0.2583
  260TMC3    O1 3946   2.128   3.332   0.498 -0.2594  0.4586  0.1733
  260TMC3    O2 3947   2.435   3.781   0.299 -0.0658 -0.9813  0.7481
  261MPD2     C 3948   3.553   2.132  12.397  0.0842  0.8783 -0.0494
  261MPD2    C1 3949   3.630   2.220  12.471 -0.2109  0.4564  0.0220
  261MPD2    C2 3950   3.720   2.306  12.407 -0.4436 -0.3361 -0.3384
  261MPD2    C3 3951   3.736   2.298  12.274 -0.0940  1.0158 -0.3306
  261MPD2    C4 3952   3.657   2.220  12.191 -0.1086 -0.3465 -0.7562
  261MPD2    C5 3953   3.565   2.139  12.259  0.2433  0.0115 -0.3618
  261MPD2     H 3954   3.783   2.368  12.470  1.7786 -1.6257 -1.3105
  261MPD2    H1 3955   3.680   2.210  12.085  0.0067  1.7779 -0.9219
  261MPD2    H2 3956   3.480   2.062  12.434 -2.4329  2.6601 -1.5710
  261MPD2    H3 3957   3.513   2.074  12.190 -0.4968 -1.8368  1.9470
  261MPD2     N 3958   3.829   2.388  12.221 -0.2084 -0.3519 -0.0468
  261MPD2    H5 3959   3.880   2.456  12.277  0.4922 -1.7474  0.9793
  261MPD2    N1 3960   3.632   2.230  12.611  0.2615 -0.5186  0.1460
  261MPD2    H7 3961   3.693   2.295  12.659  0.9626 -0.1298 -1.2788
  262TMC3    C1 3962   3.942   2.525  12.062 -0.2409 -0.0335 -0.0922
  262TMC3    C2 3963   3.909   2.645  12.126  0.6762  0.5190 -0.3339
  262TMC3    C3 3964   3.941   2.764  12.070 -0.9648 -0.3830  0.1003
  262TMC3    C4 3965   4.009   2.523  11.940  0.1349  0.1574  0.0795
  262TMC3    C5 3966   4.038   2.649  11.886 -0.2563 -0.1429  0.0229
  262TMC3    C6 3967   4.008   2.767  11.950  1.0050 -0.2741  0.1358
  262TMC3     C 3968   3.860   2.411  12.089  0.3376  0.5143  0.2919
  262TMC3     O 3969   3.833   2.346  11.989 -0.1158 -0.1742  0.2233
  262TMC3     H 3970   3.843   2.648  12.212 -1.6908 -1.7082 -2.0318
  262TMC3    H1 3971   4.005   2.439  11.872 -1.5326  0.7645 -0.6021
  262TMC3    H2 3972   4.033   2.867  11.915  1.1122 -0.6019 -0.7344
  262TMC3    C7 3973   4.089   2.652  11.750 -0.1752 -0.8690  1.0835
  262TMC3    C8 3974   3.873   2.886  12.110  1.0678 -0.0107 -0.7627
  262TMC3    O1 3975   4.031   2.567  11.678  0.3145  0.1343 -0.4490
  262TMC3    O2 3976   3.927   2.988  12.082 -0.9185  0.1300 -0.0054
  263MPD2     C 3977   4.376   1.605  11.688  0.0283 -0.7577 -0.3977
  263MPD2    C1 3978   4.495   1.594  11.617  0.2476 -0.4377  0.0060
  263MPD2    C2 3979   4.482   1.637  11.485 -0.4719 -0.1039  0.4790
  263MPD2    C3 3980   4.372   1.715  11.438 -0.2841  0.3291 -0.2014
  263MPD2    C4 3981   4.268   1.727  11.518 -0.2973 -0.3484 -0.1783
  263MPD2    C5 3982   4.268   1.674  11.642 -0.3706  0.5203 -0.4150
  263MPD2     H 3983   4.568   1.636  11.419 -0.9937 -0.0134 -0.2044
  263MPD2    H1 3984   4.187   1.786  11.477 -1.2593 -2.9859 -2.0609
  263MPD2    H2 3985   4.375   1.566  11.789  1.0082 -0.4816 -0.2816
  263MPD2    H3 3986   4.175   1.680  11.696 -0.0031  1.2403  0.1376
  263MPD2     N 3987   4.377   1.783  11.312  0.7901  0.3557  0.3060
  263MPD2    H5 3988   4.462   1.753  11.266  1.7561 -1.4736  3.2611
  263MPD2    N1 3989   4.611   1.538  11.681  0.3988  0.2170 -0.4926
  263MPD2    H7 3990   4.603   1.523  11.781 -0.2191  2.2370 -0.2309
  264TMC3    C1 3991   4.351   1.956  11.147 -0.3311 -0.0538  0.3287
  264TMC3    C2 3992   4.334   2.090  11.151  0.2673 -0.2066 -0.4580
  264TMC3    C3 3993   4.380   2.154  11.037 -1.3865 -0.2365 -0.0750
  264TMC3    C4 3994   4.395   1.886  11.034  0.0125 -0.2762 -0.0938
  264TMC3    C5 3995   4.423   1.958  10.921  0.2831 -0.6436  0.3526
  264TMC3    C6 3996   4.420   2.092  10.922 -0.0521  0.2569 -0.1510
  264TMC3     C 3997   4.294   1.883  11.261 -0.1370  0.0477 -0.0289
  264TMC3     O 3998   4.194   1.937  11.316 -0.7570 -0.3121  0.1256
  264TMC3     H 3999   4.316   2.131  11.250  3.5556  0.7403 -0.2492
  264TMC3    H1 4000   4.384   1.778  11.039  0.3156 -0.1910  2.2103
  264TMC3    H2 4001   4.453   2.152  10.839 -0.4993  0.3025 -0.2922
  264TMC3    C7 4002   4.504   1.899  10.814  1.0508  0.1502  0.3841
  264TMC3    C8 4003   4.395   2.295  11.059  0.5538  0.0443  0.0805
  264TMC3    O1 4004   4.521   1.974  10.720 -0.4307 -0.6549 -0.2149
  264TMC3    O2 4005   4.326   2.348  11.143 -0.0712  0.9577  0.0250
  265MPD2     C 4006   1.966   2.070  15.646 -1.0983  0.1076  0.3072
  265MPD2    C1 4007   2.083   2.134  15.674  0.1137  0.8520 -0.5668
  265MPD2    C2 4008   2.194   2.104  15.594 -0.6758  0.2622  0.3595
  265MPD2    C3 4009   2.179   2.025  15.482  0.3115 -0.1580 -0.0701
  265MPD2    C4 4010   2.057   1.953  15.469  0.1382 -0.4289 -0.1109
  265MPD2    C5 4011   1.949   1.976  15.550 -0.0655  0.4617  0.1671
  265MPD2     H 4012   2.282   2.166  15.597 -0.4095 -0.1530  1.1106
  265MPD2    H1 4013   2.036   1.900  15.377  0.9479  3.0375 -2.2893
  265MPD2    H2 4014   1.875   2.096  15.700 -0.3545  0.3172  1.4704
  265MPD2    H3 4015   1.853   1.926  15.540 -0.5813  1.5229 -0.1292
  265MPD2     N 4016   2.278   1.996  15.380  0.5381  0.1697  0.0737
  265MPD2    H5 4017   2.264   1.913  15.324 -0.2214  0.1282  0.3298
  265MPD2    N1 4018   2.086   2.228  15.777 -0.5976 -0.0215 -0.2673
  265MPD2    H7 4019   1.996   2.255  15.817 -1.0573 -1.7192 -0.1384
  266TMC3    C1 4020   2.184   2.342  15.951  0.9087 -0.0040 -0.3284
  266TMC3    C2 4021   2.283   2.349  16.044  0.8677 -0.0264  0.1326
  266TMC3    C3 4022   2.265   2.419  16.154 -0.7647 -0.7252  0.0415
  266TMC3    C4 4023   2.068   2.416  15.964  0.7490  0.0668 -0.2637
  266TMC3    C5 4024   2.057   2.498  16.076 -0.3164 -0.0478 -0.0124
  266TMC3    C6 4025   2.145   2.485  16.181 -0.0640 -0.1749  0.2215
  266TMC3     C 4026   2.202   2.252  15.843 -0.2351  0.4092 -0.5908
  266TMC3     O 4027   2.314   2.202  15.828 -0.2911  0.5312 -0.2052
  266TMC3     H 4028   2.375   2.295  16.022  1.1861  0.1080  1.1291
  266TMC3    H1 4029   2.007   2.428  15.876  0.0035 -1.9241 -0.0153
  266TMC3    H2 4030   2.135   2.542  16.272 -0.2802 -2.0156  1.3645
  266TMC3    C7 4031   1.926   2.566  16.096  0.1342  0.4964 -0.9032
  266TMC3    C8 4032   2.389   2.446  16.234  0.1044  0.3537 -0.2737
  266TMC3    O1 4033   1.912   2.629  16.200 -0.2718  0.5422 -0.0863
  266TMC3    O2 4034   2.459   2.354  16.268 -0.2431 -0.9479 -0.5568
  267MPD2     C 4035   0.265   3.894  17.176 -0.3048  0.7310 -0.2965
  267MPD2    C1 4036   0.287   3.826  17.289  0.5673  0.3960  0.7148
  267MPD2    C2 4037   0.232   3.700  17.288 -0.2938  0.6839  0.4090
  267MPD2    C3 4038   0.173   3.643  17.179  0.0618 -0.1403 -0.1193
  267MPD2    C4 4039   0.165   3.721  17.065  0.2271 -0.1045 -0.2373
  267MPD2    C5 4040   0.219   3.842  17.057  0.3658  0.0390 -0.5439
  267MPD2     H 4041   0.244   3.637  17.375 -0.4575 -0.2001 -0.2146
  267MPD2    H1 4042   0.134   3.679  16.971 -0.0808 -0.4634  0.0234
  267MPD2    H2 4043   0.293   3.999  17.168  1.5700  0.3417  1.0927
  267MPD2    H3 4044   0.208   3.901  16.967 -1.0824  1.3786  0.4891
  267MPD2     N 4045   0.115   3.520  17.174 -0.0362  0.3114  0.1803
  267MPD2    H5 4046   0.074   3.500  17.084 -1.0354 -0.7238  0.8654
  267MPD2    N1 4047   0.349   3.890  17.403 -0.2164  0.7501  0.4410
  267MPD2    H7 4048   0.366   3.988  17.383  0.8911  1.0209  2.7074
  268TMC3    C1 4049   0.430   3.928  17.622 -0.2961  0.3301 -0.0975
  268TMC3    C2 4050   0.496   4.044  17.582  0.4386 -0.5212  0.5493
  268TMC3    C3 4051   0.572   4.116  17.680 -0.1152  0.1250 -0.0707
  268TMC3    C4 4052   0.437   3.888   0.067 -0.8806  0.5835  0.3766
  268TMC3    C5 4053   0.511   3.969   0.154 -0.1125  0.4132  0.2544
  268TMC3    C6 4054   0.575   4.080   0.122  0.0327  0.6664  0.9303
  268TMC3     C 4055   0.370   3.833  17.530 -0.1650  0.0047  0.7067
  268TMC3     O 4056   0.350   3.715  17.557 -0.2197 -0.2587 -0.1984
  268TMC3     H 4057   0.510   4.067  17.477 -0.7414  3.4722  1.2978
  268TMC3    H1 4058   0.393   3.795   0.101  2.5478 -1.1864 -0.1017
  268TMC3    H2 4059   0.634   4.138   0.192 -0.7188 -0.8230  2.8060
  268TMC3    C7 4060   0.500   3.933   0.297  0.0845 -0.4366 -0.2548
  268TMC3    C8 4061   0.620   4.252  17.656  0.6527  0.1255 -0.3775
  268TMC3    O1 4062   0.474   3.817   0.333  0.6036 -0.3532  0.5240
  268TMC3    O2 4063   0.715   4.293   0.036  0.6647 -0.3151  0.6304
  269MPD2     C 4064   0.232   2.707  15.441  0.4849 -0.6241  0.0805
  269MPD2    C1 4065   0.139   2.774  15.520  0.7280 -0.2891  0.2407
  269MPD2    C2 4066   0.103   2.899  15.478 -0.0919 -0.3170 -0.7302
  269MPD2    C3 4067   0.156   2.957  15.366  0.1959 -0.4762  0.0892
  269MPD2    C4 4068   0.248   2.889  15.282 -0.2091 -0.5466  0.2223
  269MPD2    C5 4069   0.274   2.762  15.322 -0.1150  0.6294 -0.1113
  269MPD2     H 4070   0.039   2.960  15.541  2.3547  1.4178  0.0708
  269MPD2    H1 4071   0.290   2.927  15.190  0.9551 -1.6957  0.2723
  269MPD2    H2 4072   0.260   2.603  15.459  1.0246 -0.8823 -2.2872
  269MPD2    H3 4073   0.344   2.719  15.251  1.1424  0.1412  1.4215
  269MPD2     N 4074   0.101   3.085  15.339 -0.2475  0.0239 -0.4198
  269MPD2    H5 4075   0.039   3.120  15.411  1.9867 -1.0846  2.0274
  269MPD2    N1 4076   0.094   2.710  15.636  0.3024  0.2891  0.4528
  269MPD2    H7 4077   0.103   2.609  15.630 -0.9013  0.0792  2.2021
  270TMC3    C1 4078   4.691   2.659  15.814  0.0803 -0.2540  0.1641
  270TMC3    C2 4079   4.553   2.653  15.820  0.8769 -0.3950  0.2929
  270TMC3    C3 4080   4.495   2.536  15.846  0.2320 -0.1345 -0.9039
  270TMC3    C4 4081   0.042   2.545  15.817  0.1263 -0.5944 -0.1482
  270TMC3    C5 4082   4.703   2.426  15.850 -0.1829 -0.7545 -0.0768
  270TMC3    C6 4083   4.563   2.420  15.857 -0.7040  0.7056 -0.0442
  270TMC3     C 4084   0.024   2.763  15.741 -0.1997  0.6388  0.4366
  270TMC3     O 4085   4.681   2.871  15.749  0.0770  0.7127 -0.1096
  270TMC3     H 4086   4.492   2.743  15.812  0.0906 -0.7953  1.9157
  270TMC3    H1 4087   0.149   2.557  15.814  0.1426 -1.3082 -2.3601
  270TMC3    H2 4088   4.510   2.342  15.910 -2.2471  0.8777 -1.3175
  270TMC3    C7 4089   0.041   2.313  15.779  0.0097  0.0311 -0.0352
  270TMC3    C8 4090   4.367   2.510  15.802  0.5029 -0.7272  0.3165
  270TMC3    O1 4091   0.144   2.331  15.722  0.1283  0.0342  0.1232
  270TMC3    O2 4092   4.265   2.567  15.847 -0.1741  0.2533 -0.4684
  271MPD2     C 4093   3.681   2.660  14.003  0.1617  0.6116 -0.2924
  271MPD2    C1 4094   3.599   2.602  14.105  0.1132 -0.1565  0.7256
  271MPD2    C2 4095   3.464   2.637  14.107 -0.1061  0.0488  0.1971
  271MPD2    C3 4096   3.410   2.710  14.002  0.1016  0.1445  0.3192
  271MPD2    C4 4097   3.497   2.774  13.918  0.1408  0.7398  0.0727
  271MPD2    C5 4098   3.627   2.747  13.913 -0.0018 -0.1613  0.9808
  271MPD2     H 4099   3.406   2.588  14.184  0.9832 -0.0035  0.9897
  271MPD2    H1 4100   3.451   2.844  13.849  1.0298 -0.9078 -2.1635
  271MPD2    H2 4101   3.788   2.647  14.001 -0.0561 -1.2009  0.3643
  271MPD2    H3 4102   3.691   2.794  13.839 -0.2117  1.8348  2.0606
  271MPD2     N 4103   3.277   2.738  13.996  0.1011 -0.1834  0.1078
  271MPD2    H5 4104   3.240   2.819  13.946  0.7461 -0.0674 -0.1774
  271MPD2    N1 4105   3.648   2.511  14.201  0.6750  0.0226  0.3658
  271MPD2    H7 4106   3.576   2.487  14.268  1.0997  2.1113  1.5949
  272TMC3    C1 4107   3.812   2.359  14.303  0.1165  0.2943 -0.5435
  272TMC3    C2 4108   3.904   2.254  14.282 -0.1638  0.2703 -0.0635
  272TMC3    C3 4109   3.959   2.197  14.389 -0.0561 -0.0406  0.2359
  272TMC3    C4 4110   3.781   2.406  14.428 -0.2733 -0.1479  0.3182
  272TMC3    C5 4111   3.858   2.350  14.532  0.1062 -0.3888 -0.5192
  272TMC3    C6 4112   3.935   2.236  14.523 -0.1262 -0.3180  0.8010
  272TMC3     C 4113   3.761   2.430  14.185 -0.7837 -0.1219 -0.2335
  272TMC3     O 4114   3.823   2.402  14.077  0.9420 -0.4740  0.6938
  272TMC3     H 4115   3.919   2.209  14.184 -1.9332 -1.8189  0.6309
  272TMC3    H1 4116   3.718   2.492  14.450 -0.6175 -0.5488  0.9043
  272TMC3    H2 4117   4.006   2.208  14.600 -0.8448 -1.5559  1.0164
  272TMC3    C7 4118   3.811   2.384  14.669 -0.2826 -0.2342  1.2391
  272TMC3    C8 4119   4.097   2.158  14.368 -0.3557  0.3156 -0.3922
  272TMC3    O1 4120   3.693   2.417  14.678  0.4420  0.2625 -0.1775
  272TMC3    O2 4121   4.146   2.185  14.259 -0.4767  0.0811  0.5169
  273MPD2     C 4122   0.424   0.394  11.870 -0.6685  0.7957  0.8276
  273MPD2    C1 4123   0.533   0.472  11.851 -0.7111  0.3740  0.2972
  273MPD2    C2 4124   0.579   0.499  11.722 -0.1903  0.5464  0.3498
  273MPD2    C3 4125   0.510   0.463  11.613  0.9825  0.7064 -0.0652
  273MPD2    C4 4126   0.406   0.374  11.623  0.0041 -0.2468  0.1856
  273MPD2    C5 4127   0.361   0.339  11.754  0.4372  0.0449  0.2123
  273MPD2     H 4128   0.665   0.564  11.710  0.9294 -1.1846 -1.0785
  273MPD2    H1 4129   0.354   0.338  11.535 -2.0034  1.3607  0.7206
  273MPD2    H2 4130   0.372   0.367  11.961 -1.3799  0.1290  0.2309
  273MPD2    H3 4131   0.271   0.280  11.766 -0.6491  1.6914  0.1422
  273MPD2     N 4132   0.535   0.523  11.488 -0.1326 -0.0709  0.2849
  273MPD2    H5 4133   0.464   0.498  11.420  1.3035 -0.2310 -1.1631
  273MPD2    N1 4134   0.586   0.544  11.957  0.8803 -0.1554 -0.6236
  273MPD2    H7 4135   0.522   0.563  12.032  0.6858 -1.4793 -0.4440
  274TMC3    C1 4136   0.656   0.651  11.323 -0.3265  0.2567  0.1187
  274TMC3    C2 4137   0.536   0.664  11.264  0.4391  0.5496 -0.0372
  274TMC3    C3 4138   0.507   0.755  11.174 -0.3265 -0.1526  0.1348
  274TMC3    C4 4139   0.745   0.763  11.313 -0.6173  0.1683 -0.0477
  274TMC3    C5 4140   0.714   0.864  11.222 -0.1765 -0.0979 -0.8358
  274TMC3    C6 4141   0.598   0.854  11.148  0.8672  0.1108 -1.2101
  274TMC3     C 4142   0.647   0.591  11.456 -0.5903  0.2618  0.8270
  274TMC3     O 4143   0.743   0.631  11.526 -0.4926 -0.4327 -0.4828
  274TMC3     H 4144   0.465   0.582  11.270 -1.6348  2.3662  0.2249
  274TMC3    H1 4145   0.834   0.758  11.374 -0.1294 -1.4321 -0.8735
  274TMC3    H2 4146   0.551   0.945  11.114 -1.1033 -0.9365 -1.2366
  274TMC3    C7 4147   0.698   0.987  11.298 -0.1321  0.7573  0.1379
  274TMC3    C8 4148   0.376   0.759  11.112 -0.0766  0.3137 -0.8785
  274TMC3    O1 4149   0.610   1.068  11.269  0.0416 -0.6177 -0.8925
  274TMC3    O2 4150   0.281   0.716  11.178  0.1365 -0.1313 -0.2605
  275MPD2     C 4151   0.704   3.469  14.789  0.7577 -0.0594  0.1392
  275MPD2    C1 4152   0.650   3.360  14.858  0.3297  0.3299 -0.4080
  275MPD2    C2 4153   0.545   3.296  14.805  0.1711 -0.6817  0.0726
  275MPD2    C3 4154   0.481   3.344  14.692  0.4271 -0.2716 -0.0159
  275MPD2    C4 4155   0.527   3.452  14.628  0.7009 -0.2217  0.0122
  275MPD2    C5 4156   0.637   3.512  14.674  1.0459 -0.4917 -0.0277
  275MPD2     H 4157   0.515   3.212  14.866  0.0095  0.2318  1.2470
  275MPD2    H1 4158   0.487   3.487  14.534  0.8404 -2.0277 -0.7112
  275MPD2    H2 4159   0.790   3.522  14.828  0.6448  0.6091 -0.5178
  275MPD2    H3 4160   0.686   3.590  14.617  1.1689 -2.1802 -2.2543
  275MPD2     N 4161   0.358   3.292  14.652 -0.0376  0.1653 -0.3209
  275MPD2    H5 4162   0.301   3.336  14.580  0.6032  1.0197 -0.3058
  275MPD2    N1 4163   0.713   3.303  14.966 -0.2324  0.2813 -0.1385
  275MPD2    H7 4164   0.675   3.221  15.012 -0.7724  0.5279 -0.1483
  276TMC3    C1 4165   0.879   3.266  15.124  0.1260 -0.0856 -0.3700
  276TMC3    C2 4166   0.884   3.132  15.088 -0.7357  0.1795 -0.8531
  276TMC3    C3 4167   0.957   3.055  15.178  0.3976  0.5489  1.1423
  276TMC3    C4 4168   0.941   3.320  15.235  0.0692  0.0749 -0.2565
  276TMC3    C5 4169   1.004   3.233  15.319 -1.0971 -0.2454 -0.2578
  276TMC3    C6 4170   1.022   3.103  15.285 -0.0186  0.2041 -1.1750
  276TMC3     C 4171   0.827   3.359  15.032 -1.0962 -0.0672 -0.2114
  276TMC3     O 4172   0.874   3.474  15.042  0.7268  0.5870 -0.3155
  276TMC3     H 4173   0.834   3.092  15.000 -1.0584 -0.1028 -0.5389
  276TMC3    H1 4174   0.927   3.426  15.249  0.8746  0.0715  0.5193
  276TMC3    H2 4175   1.092   3.044  15.343 -0.0427  1.7552  0.4620
  276TMC3    C7 4176   1.025   3.289  15.454  0.8821  1.3027  0.3168
  276TMC3    C8 4177   0.997   2.923  15.136 -0.8031 -0.1154  0.9266
  276TMC3    O1 4178   0.983   3.401  15.467 -0.5858  0.0520 -0.2061
  276TMC3    O2 4179   1.103   2.883  15.183 -0.0693 -0.2282  0.2393
  277MPD2     C 4180   2.398   2.332  13.184 -0.6049  0.2070 -0.6216
  277MPD2    C1 4181   2.283   2.382  13.233  0.4001  0.5268 -0.4537
  277MPD2    C2 4182   2.220   2.311  13.341 -0.0005  0.4359 -0.0417
  277MPD2    C3 4183   2.263   2.194  13.384 -0.0238 -0.2158  0.0795
  277MPD2    C4 4184   2.379   2.145  13.330 -0.1786 -0.2821 -0.3386
  277MPD2    C5 4185   2.447   2.208  13.227 -0.5177  0.4991  0.4610
  277MPD2     H 4186   2.132   2.348  13.392  0.4028  0.6383  0.4998
  277MPD2    H1 4187   2.426   2.058  13.373  0.3758 -0.3348 -1.0534
  277MPD2    H2 4188   2.448   2.377  13.099 -1.1909  0.2578 -0.9370
  277MPD2    H3 4189   2.542   2.176  13.188 -1.0129 -0.0028 -0.3324
  277MPD2     N 4190   2.189   2.136  13.487 -0.1631 -0.7598  0.4985
  277MPD2    H5 4191   2.111   2.187  13.526 -0.2855  0.3401 -1.1693
  277MPD2    N1 4192   2.230   2.503  13.180 -0.1349 -0.2407 -0.4943
  277MPD2    H7 4193   2.291   2.547  13.111 -0.1032 -0.4115 -0.5748
  278TMC3    C1 4194   2.138   1.976  13.650  0.1292  0.1796  0.2356
  278TMC3    C2 4195   2.104   1.846  13.678 -0.0962  0.2866  0.1299
  278TMC3    C3 4196   2.027   1.818  13.786 -0.5174  0.6527 -0.6283
  278TMC3    C4 4197   2.086   2.077  13.727 -0.0245 -1.7944  0.8565
  278TMC3    C5 4198   1.999   2.044  13.830 -0.3753 -0.4839 -0.7062
  278TMC3    C6 4199   1.967   1.915  13.856 -0.6191 -0.0918  0.3471
  278TMC3     C 4200   2.214   2.009  13.530 -0.1829  1.5089  0.1704
  278TMC3     O 4201   2.253   1.921  13.456  0.2396  0.3903  0.1819
  278TMC3     H 4202   2.159   1.762  13.638 -1.0501 -0.9261  1.3631
  278TMC3    H1 4203   2.112   2.182  13.718 -2.2431 -1.2123  1.1907
  278TMC3    H2 4204   1.916   1.888  13.949  0.5562 -2.7212  0.2384
  278TMC3    C7 4205   1.923   2.150  13.896  0.5887 -0.5863 -0.0159
  278TMC3    C8 4206   1.945   1.703  13.774 -0.2069  0.5476  0.4182
  278TMC3    O1 4207   1.981   2.250  13.932  0.5755 -0.1482 -0.1421
  278TMC3    O2 4208   1.888   1.660  13.870 -0.1962 -0.0089 -0.7261
  279MPD2     C 4209   1.549   2.278   0.251  0.2590  0.0309  0.7852
  279MPD2    C1 4210   1.464   2.281   0.144  0.1538 -0.5275  0.7592
  279MPD2    C2 4211   1.524   2.273   0.017 -0.6027  0.0666  0.2619
  279MPD2    C3 4212   1.659   2.301  17.682  0.4579  0.4338  0.4257
  279MPD2    C4 4213   1.740   2.321   0.111  0.1713  0.9393 -0.9284
  279MPD2    C5 4214   1.685   2.294   0.237  0.2126 -0.3294 -0.8728
  279MPD2     H 4215   1.463   2.260  17.615 -1.0145  0.2244  0.5195
  279MPD2    H1 4216   1.847   2.335   0.099  0.0065  1.6631 -1.6293
  279MPD2    H2 4217   1.510   2.276   0.352  1.5515  0.9897  1.2983
  279MPD2    H3 4218   1.750   2.299   0.323 -1.3191 -2.3572  0.3991
  279MPD2     N 4219   1.718   2.306  17.547  0.3918  0.6806  0.4514
  279MPD2    H5 4220   1.801   2.364  17.541  1.6823 -1.4332 -1.6688
  279MPD2    N1 4221   1.328   2.287   0.164 -0.2995 -0.4984 -0.4161
  279MPD2    H7 4222   1.289   2.278   0.257 -1.8081  1.5064 -0.8366
  280TMC3    C1 4223   1.095   2.317   0.122 -0.1805  0.0821  0.3757
  280TMC3    C2 4224   1.075   2.221   0.215 -0.0344 -0.1654  0.0751
  280TMC3    C3 4225   0.944   2.198   0.250 -0.2506 -0.1518  0.2897
  280TMC3    C4 4226   0.995   2.394   0.074  0.1080 -0.9494 -0.0187
  280TMC3    C5 4227   0.870   2.366   0.118  0.2222 -0.2387  0.0032
  280TMC3    C6 4228   0.840   2.270   0.208  0.1645  0.5556  0.3223
  280TMC3     C 4229   1.230   2.318   0.066  0.1315  0.0552  1.0842
  280TMC3     O 4230   1.251   2.364  17.643 -0.5437  0.3078  0.0651
  280TMC3     H 4231   1.153   2.150   0.242 -0.7696 -1.0884 -0.2355
  280TMC3    H1 4232   1.020   2.457  17.675 -0.8175 -3.0340 -1.8402
  280TMC3    H2 4233   0.742   2.239   0.244 -0.1007  2.0960  0.9336
  280TMC3    C7 4234   0.759   2.455   0.089 -0.1188 -0.5075  0.2891
  280TMC3    C8 4235   0.914   2.104   0.355  0.0558 -0.4365 -0.0941
  280TMC3    O1 4236   0.662   2.441   0.165  0.1431  0.1976 -0.7552
  280TMC3    O2 4237   0.810   2.038   0.351  0.4486  0.5274 -0.1400
  281TMC3    C1 4238   0.090   3.080  13.367 -0.4101 -0.4502 -0.0029
  281TMC3    C2 4239   0.123   3.003  13.259 -0.5594  0.2498  0.2975
  281TMC3    C3 4240   0.086   2.870  13.266  0.5558 -0.1748 -0.9119
  281TMC3    C4 4241   0.034   3.028  13.478 -0.0796 -0.0318  0.7422
  281TMC3    C5 4242   0.016   2.892  13.490 -0.5581  0.3402 -0.1742
  281TMC3    C6 4243   0.042   2.810  13.381  0.3675  0.2937 -0.4097
  281TMC3     C 4244   0.154   3.207  13.372 -0.2484  0.1678  0.3518
  281TMC3     O 4245   0.233   3.227  13.279  0.2096  0.0795 -0.6085
  281TMC3     H 4246   0.167   3.041  13.167 -3.4252 -1.8822 -1.9701
  281TMC3    H1 4247   0.032   3.093  13.565  1.9466  1.3676 -0.2610
  281TMC3    H2 4248   0.011   2.706  13.385  0.8419  0.2046  1.0667
  281TMC3    C7 4249   4.644   2.853  13.596 -0.3547 -0.3419 -0.1056
  281TMC3    C8 4250   0.151   2.792  13.174 -0.4813  0.3836  0.0547
  281TMC3    O1 4251   4.599   2.940  13.670  0.4501  0.0554  0.0522
  281TMC3    O2 4252   0.218   2.704  13.217 -0.2997 -0.0380  0.6438
  282MPD2     C 4253   1.976   4.225  15.324  0.0345 -0.8209 -0.2532
  282MPD2    C1 4254   1.846   4.189  15.353  0.3831  0.0640 -0.3747
  282MPD2    C2 4255   1.768   4.115  15.265  0.1165 -0.2385  0.0099
  282MPD2    C3 4256   1.814   4.070  15.145 -0.1651  0.4423  0.3463
  282MPD2    C4 4257   1.949   4.099  15.124  0.3525 -0.3220 -0.5820
  282MPD2    C5 4258   2.030   4.164  15.215  0.0558 -0.3225 -0.5309
  282MPD2     H 4259   1.662   4.103  15.281  0.1491 -0.0038  0.4096
  282MPD2    H1 4260   1.993   4.067  15.030  2.6121 -3.0926  1.4114
  282MPD2    H2 4261   2.044   4.266  15.398 -0.6853 -2.1052  1.0958
  282MPD2    H3 4262   2.137   4.179  15.205 -0.1047  1.3376  0.2270
  282MPD2     N 4263   1.727   4.001  15.062  0.3591 -0.1815 -0.8104
  282MPD2    H5 4264   1.630   3.995  15.089  1.0007 -1.6772  1.1471
  282MPD2    N1 4265   1.806   4.209  15.490  0.3149  0.0747  0.0254
  282MPD2    H7 4266   1.866   4.271  15.543  0.7444 -0.1933 -0.1469
  283TMC3    C1 4267   1.701   4.186  15.696 -0.5234 -0.6308  0.4291
  283TMC3    C2 4268   1.753   4.307  15.736  0.2826 -1.0600  0.2744
  283TMC3    C3 4269   1.731   4.339  15.866  0.3050  0.3999  0.4909
  283TMC3    C4 4270   1.644   4.094  15.780 -0.4789  0.1601  0.3055
  283TMC3    C5 4271   1.634   4.129  15.912 -0.1697  0.3581 -0.0678
  283TMC3    C6 4272   1.677   4.249  15.953  0.4366 -0.6935 -0.4235
  283TMC3     C 4273   1.701   4.151  15.556 -0.1649  0.5420 -0.4544
  283TMC3     O 4274   1.623   4.065  15.521  0.2181 -0.6406  0.3233
  283TMC3     H 4275   1.774   4.384  15.662  0.1560 -2.3986 -1.1589
  283TMC3    H1 4276   1.595   4.006  15.742  0.8768 -0.7404  0.6205
  283TMC3    H2 4277   1.676   4.269  16.060  0.1524  0.4404 -0.6414
  283TMC3    C7 4278   1.585   4.035  16.010 -0.2959 -0.3056 -0.0396
  283TMC3    C8 4279   1.732   4.476  15.914  0.4205 -0.6671 -0.0013
  283TMC3    O1 4280   1.554   4.074  16.125  0.2060  0.0683  0.3427
  283TMC3    O2 4281   1.695   4.497  16.032 -0.0039  0.2187 -0.1101
  284MPD2     C 4282   0.594   2.999  11.809 -0.1854  0.6084  0.3365
  284MPD2    C1 4283   0.507   3.075  11.736  0.8272 -0.0753  0.2834
  284MPD2    C2 4284   0.375   3.037  11.765 -0.0359 -0.1715  0.2312
  284MPD2    C3 4285   0.336   2.956  11.876 -0.5823 -0.4687  0.5449
  284MPD2    C4 4286   0.437   2.897  11.949  0.1804  0.0424  0.2481
  284MPD2    C5 4287   0.565   2.909  11.907  0.3339 -0.0960 -0.1535
  284MPD2     H 4288   0.297   3.077  11.702  1.0568 -3.1052 -3.0090
  284MPD2    H1 4289   0.413   2.830  12.030  1.0610 -2.3444 -1.4683
  284MPD2    H2 4290   0.698   3.016  11.782 -0.8452  1.6914 -1.5243
  284MPD2    H3 4291   0.643   2.860  11.965 -1.1289 -0.3264  1.6341
  284MPD2     N 4292   0.201   2.943  11.924  0.0306 -0.0546 -0.5320
  284MPD2    H5 4293   0.176   2.870  11.990 -0.3603 -0.3013 -0.9557
  284MPD2    N1 4294   0.547   3.151  11.627 -0.3800  0.0118  0.5119
  284MPD2    H7 4295   0.477   3.173  11.557  0.8037 -2.0221 -1.3037
  285TMC3    C1 4296   0.703   3.285  11.494  0.4345 -0.1235  0.6771
  285TMC3    C2 4297   0.666   3.233  11.369  0.2521 -0.2493  0.2323
  285TMC3    C3 4298   0.728   3.285  11.258  0.7691  0.4623 -0.7820
  285TMC3    C4 4299   0.817   3.359  11.500 -0.1235  0.5539 -0.5270
  285TMC3    C5 4300   0.873   3.411  11.386 -0.1994 -0.7671  0.1292
  285TMC3    C6 4301   0.829   3.376  11.263  0.2179 -0.2838  0.2704
  285TMC3     C 4302   0.670   3.217  11.622 -0.0009  0.4570  0.0394
  285TMC3     O 4303   0.746   3.223  11.719 -0.3567 -0.2786 -0.4438
  285TMC3     H 4304   0.604   3.144  11.365  0.1432 -0.0219 -3.8045
  285TMC3    H1 4305   0.860   3.394  11.594 -0.2266 -0.3351 -0.1501
  285TMC3    H2 4306   0.862   3.437  11.179  0.3416 -2.2932 -1.1299
  285TMC3    C7 4307   0.968   3.522  11.398  0.1524 -0.0170  0.0689
  285TMC3    C8 4308   0.674   3.242  11.126  0.4604  0.1601 -0.3016
  285TMC3    O1 4309   0.988   3.587  11.296 -0.6620 -0.2799 -0.2125
  285TMC3    O2 4310   0.562   3.192  11.114 -0.0378 -0.3120 -0.1123
  286MPD2     C 4311   0.611   2.051   1.669  0.4813  0.3034 -0.2961
  286MPD2    C1 4312   0.602   2.009   1.539 -0.8013 -0.4212 -0.2952
  286MPD2    C2 4313   0.668   1.894   1.493 -0.5048  0.0429 -0.5614
  286MPD2    C3 4314   0.748   1.824   1.584  0.7085  0.3654  0.0052
  286MPD2    C4 4315   0.745   1.862   1.719  0.2856  0.3989 -0.7801
  286MPD2    C5 4316   0.680   1.976   1.763  0.0237 -0.2158  0.0244
  286MPD2     H 4317   0.665   1.870   1.387  1.2297  2.1812 -1.0973
  286MPD2    H1 4318   0.814   1.817   1.789 -2.3869 -1.0759  0.8808
  286MPD2    H2 4319   0.560   2.137   1.712 -0.0593  1.3500 -3.0289
  286MPD2    H3 4320   0.696   1.997   1.868 -3.4064  0.8345  0.3401
  286MPD2     N 4321   0.842   1.726   1.543  0.7563  0.2224 -0.0361
  286MPD2    H5 4322   0.913   1.706   1.613 -0.3026 -1.0444  0.6746
  286MPD2    N1 4323   0.504   2.057   1.454  0.1793 -0.4486 -0.5438
  286MPD2    H7 4324   0.497   2.015   1.362  1.7947 -1.0151 -0.4086
  287TMC3    C1 4325   0.984   1.592   1.404 -0.0707 -0.0252  0.0382
  287TMC3    C2 4326   0.989   1.520   1.289 -0.4382  0.0052 -0.2109
  287TMC3    C3 4327   1.107   1.506   1.227 -0.1962  0.2183  0.3364
  287TMC3    C4 4328   1.097   1.628   1.474  0.0272  0.0353 -0.6694
  287TMC3    C5 4329   1.213   1.594   1.417  0.5127 -0.1146  0.6487
  287TMC3    C6 4330   1.224   1.542   1.287 -0.4385  0.1102  0.5299
  287TMC3     C 4331   0.862   1.674   1.420 -0.4433  0.2903 -0.2068
  287TMC3     O 4332   0.791   1.676   1.319  0.6242 -0.2199 -1.2154
  287TMC3     H 4333   0.900   1.491   1.235 -1.0583 -0.3436  1.0140
  287TMC3    H1 4334   1.102   1.656   1.578 -1.9222 -0.6436 -0.3994
  287TMC3    H2 4335   1.323   1.525   1.244  0.2342 -0.8662  2.4500
  287TMC3    C7 4336   1.336   1.647   1.477  0.5448  0.1157  0.1396
  287TMC3    C8 4337   1.113   1.464   1.091 -0.4489  0.1397  0.6399
  287TMC3    O1 4338   1.327   1.755   1.534  0.1101 -0.7857  0.0323
  287TMC3    O2 4339   1.032   1.378   1.053 -0.0222  0.2765  0.5956
  288TMC3    C1 4340   2.030   1.294  14.178  0.5583 -0.1467  0.6594
  288TMC3    C2 4341   2.086   1.311  14.302  0.5466  0.2006  0.7218
  288TMC3    C3 4342   2.152   1.427  14.327  0.2712  0.2290 -0.6327
  288TMC3    C4 4343   2.051   1.381  14.071  0.1399  0.4557  0.4888
  288TMC3    C5 4344   2.132   1.488  14.095 -0.3524  0.3042  0.1149
  288TMC3    C6 4345   2.187   1.509  14.223 -0.2584  0.1493  0.2347
  288TMC3     C 4346   1.950   1.187  14.145 -0.3241  0.5470  0.0477
  288TMC3     O 4347   1.862   1.212  14.061  0.1654  0.4710  0.0614
  288TMC3     H 4348   2.054   1.264  14.394 -3.2625 -0.6848 -1.0498
  288TMC3    H1 4349   2.016   1.376  13.968  2.5910  0.6772 -0.3496
  288TMC3    H2 4350   2.260   1.587  14.238  1.5091 -1.5486  0.5285
  288TMC3    C7 4351   2.198   1.550  13.983 -0.2670  0.1157 -0.5621
  288TMC3    C8 4352   2.135   1.506  14.450  0.1891  0.7617 -1.2114
  288TMC3    O1 4353   2.212   1.490  13.879 -0.0459 -0.5225 -0.0509
  288TMC3    O2 4354   2.202   1.604  14.456 -0.2101 -0.4073 -0.5628
  289MPD2     C 4355   2.163   0.994  14.870 -0.8664  0.0730  0.6891
  289MPD2    C1 4356   2.165   1.081  14.765 -0.1254  0.2369  0.2354
  289MPD2    C2 4357   2.058   1.087  14.676  0.7930  0.8390 -0.3054
  289MPD2    C3 4358   1.948   0.998  14.693  0.2250  0.2780  0.1767
  289MPD2    C4 4359   1.951   0.897  14.788  0.3826 -0.2171 -0.0935
  289MPD2    C5 4360   2.060   0.900  14.873 -0.1935  0.3817 -0.3126
  289MPD2     H 4361   2.066   1.144  14.584  1.9181  0.3663 -0.5039
  289MPD2    H1 4362   1.884   0.812  14.796  0.2960 -0.3016 -1.9107
  289MPD2    H2 4363   2.244   0.996  14.942  0.3114  0.5192 -0.6373
  289MPD2    H3 4364   2.070   0.818  14.943  0.9925  1.8466  1.2224
  289MPD2     N 4365   1.837   1.011  14.610  0.2651 -0.2083 -0.0665
  289MPD2    H5 4366   1.765   0.940  14.617 -0.1842  0.1482 -1.1332
  289MPD2    N1 4367   2.282   1.161  14.754 -0.3023  0.2307  0.0818
  289MPD2    H7 4368   2.348   1.150  14.830 -0.0932  1.5936  0.0921
  290TMC3    C1 4369   1.691   1.126  14.460 -0.0217  0.2290 -0.5072
  290TMC3    C2 4370   1.689   1.215  14.354 -0.3642 -0.3693 -0.0498
  290TMC3    C3 4371   1.608   1.185  14.245 -0.3572  0.7785  0.3713
  290TMC3    C4 4372   1.609   1.019  14.465 -0.0559  0.1531 -0.5031
  290TMC3    C5 4373   1.525   0.996  14.357 -0.4277  0.7232  0.9557
  290TMC3    C6 4374   1.518   1.080  14.252  0.1692  1.0931  0.4449
  290TMC3     C 4375   1.812   1.127  14.542  0.1470  0.2678  0.1908
  290TMC3     O 4376   1.861   1.240  14.543  0.8907 -0.5693 -0.0711
  290TMC3     H 4377   1.744   1.307  14.364 -1.4180 -0.0950  3.3983
  290TMC3    H1 4378   1.590   0.967  14.558  2.2877  0.9564  0.4223
  290TMC3    H2 4379   1.451   1.058  14.170  0.1048  2.4592  0.1416
  290TMC3    C7 4380   1.407   0.910  14.365  0.0440 -0.0468 -0.1159
  290TMC3    C8 4381   1.562   1.294  14.163 -0.5231 -0.2746  0.0004
  290TMC3    O1 4382   1.305   0.939  14.303 -0.5000 -0.2398 -0.8195
  290TMC3    O2 4383   1.444   1.292  14.131  0.0597  0.1412 -0.2207
  291MPD2     C 4384   2.134   0.396   0.668 -0.6278 -0.1721  0.3810
  291MPD2    C1 4385   2.002   0.429   0.647 -0.3521  0.1487  1.0311
  291MPD2    C2 4386   1.968   0.509   0.535  0.3461 -0.2247  0.2485
  291MPD2    C3 4387   2.073   0.554   0.456 -0.3288  0.1693  0.2850
  291MPD2    C4 4388   2.205   0.540   0.494 -0.0470  0.2916  0.0474
  291MPD2    C5 4389   2.236   0.455   0.601  0.1625  0.4509  0.1313
  291MPD2     H 4390   1.863   0.522   0.508  0.0034 -1.9999  0.7434
  291MPD2    H1 4391   2.287   0.594   0.448 -0.2336  0.8569  0.3816
  291MPD2    H2 4392   2.154   0.325   0.747  2.7739 -0.4885 -0.7471
  291MPD2    H3 4393   2.338   0.431   0.629  0.4368  4.2979  2.3486
  291MPD2     N 4394   2.050   0.646   0.343 -0.6127 -0.4740 -0.0875
  291MPD2    H5 4395   2.129   0.696   0.304  0.5413 -2.3942 -0.1972
  291MPD2    N1 4396   1.894   0.378   0.721  0.1963 -0.2513  0.0497
  291MPD2    H7 4397   1.805   0.415   0.690  0.9942  0.3455 -1.5590
  292TMC3    C1 4398   1.764   0.242   0.868 -0.2894  0.5359 -0.0088
  292TMC3    C2 4399   1.736   0.212   1.003 -0.4847  0.0483  0.1547
  292TMC3    C3 4400   1.613   0.162   1.025 -0.1667  0.2763  0.1878
  292TMC3    C4 4401   1.673   0.214   0.773  0.0602 -0.4909 -0.2505
  292TMC3    C5 4402   1.546   0.162   0.805  0.1982 -0.4772  0.5548
  292TMC3    C6 4403   1.518   0.147   0.935  0.5669 -0.7305 -0.1214
  292TMC3     C 4404   1.896   0.280   0.816 -0.3995 -0.5361  0.3387
  292TMC3     O 4405   1.993   0.237   0.874 -0.1576 -0.2860 -0.2702
  292TMC3     H 4406   1.802   0.241   1.085 -0.4542  1.7079 -0.4693
  292TMC3    H1 4407   1.702   0.225   0.669  0.3411 -0.2008 -0.1407
  292TMC3    H2 4408   1.434   0.085   0.965 -1.1448  2.2609  1.1987
  292TMC3    C7 4409   1.482   0.084   0.699 -0.5596  1.2872  0.1480
  292TMC3    C8 4410   1.586   0.135   1.172 -0.1155  0.1849  0.0014
  292TMC3    O1 4411   1.547   0.073   0.596  0.0534 -0.3049 -0.0203
  292TMC3    O2 4412   1.679   0.076   1.225 -0.1556 -0.4107 -0.4564
  293MPD2     C 4413   3.294   2.409  12.711 -0.8467 -0.4687 -0.1869
  293MPD2    C1 4414   3.218   2.353  12.811 -0.2461 -0.1011 -0.0192
  293MPD2    C2 4415   3.270   2.343  12.937  0.2423 -0.3153 -0.0212
  293MPD2    C3 4416   3.395   2.401  12.967  0.3950  0.2590 -0.0680
  293MPD2    C4 4417   3.470   2.446  12.864  0.3830 -0.1502 -0.2837
  293MPD2    C5 4418   3.419   2.456  12.740  0.0918 -0.3879  0.0974
  293MPD2     H 4419   3.209   2.310  13.020  0.0165  0.9078  0.3028
  293MPD2    H1 4420   3.569   2.485  12.881  0.3795 -0.7863  1.1803
  293MPD2    H2 4421   3.263   2.416  12.607  1.9873 -0.9507 -1.0657
  293MPD2    H3 4422   3.473   2.509  12.663  0.0338 -1.4886 -0.7072
  293MPD2     N 4423   3.436   2.392  13.099  0.8671  0.1581  0.6112
  293MPD2    H5 4424   3.380   2.337  13.164 -0.7732  0.4051 -0.5967
  293MPD2    N1 4425   3.091   2.299  12.772 -0.0801  0.6203 -0.1791
  293MPD2    H7 4426   3.067   2.305  12.674 -1.0886  0.7342  0.0740
  294TMC3    C1 4427   2.888   2.194  12.772 -0.3543  0.1846 -0.0143
  294TMC3    C2 4428   2.826   2.079  12.819 -0.7568  0.5053  0.1272
  294TMC3    C3 4429   2.703   2.054  12.765 -0.3898 -0.9018  0.4924
  294TMC3    C4 4430   2.834   2.270  12.677 -0.3389 -0.1633  0.4314
  294TMC3    C5 4431   2.707   2.239  12.631  0.2849 -0.9657  0.0024
  294TMC3    C6 4432   2.640   2.128  12.668 -0.9539 -1.0439  0.0924
  294TMC3     C 4433   3.007   2.224  12.851  0.2604  0.2524 -0.0420
  294TMC3     O 4434   3.024   2.175  12.958  0.4728  0.6469 -0.0141
  294TMC3     H 4435   2.865   2.024  12.904 -0.3525 -0.1475 -0.4799
  294TMC3    H1 4436   2.873   2.368  12.652  0.4929 -0.9740 -1.5131
  294TMC3    H2 4437   2.540   2.117  12.630 -0.9885  3.0847 -1.0406
  294TMC3    C7 4438   2.662   2.284  12.502 -0.0726  0.1259  0.5104
  294TMC3    C8 4439   2.656   1.919  12.784 -0.3560  0.2521  0.6312
  294TMC3    O1 4440   2.538   2.300  12.485 -0.4672  0.0807 -0.1805
  294TMC3    O2 4441   2.709   1.851  12.870  0.1331 -0.3311 -0.3471
  295MPD2     C 4442   3.819   0.591   0.103 -0.2507  0.7593 -0.5298
  295MPD2    C1 4443   3.919   0.673   0.157 -0.3623 -0.3372 -0.3818
  295MPD2    C2 4444   3.886   0.735   0.272 -0.2250 -0.3914  0.1060
  295MPD2    C3 4445   3.769   0.703   0.343  0.1309 -0.3216 -0.8020
  295MPD2    C4 4446   3.685   0.600   0.294 -0.7051  0.2304 -0.8372
  295MPD2    C5 4447   3.713   0.544   0.173  0.3393 -0.7559  0.2761
  295MPD2     H 4448   3.956   0.807   0.313 -0.3159  0.4198 -1.1934
  295MPD2    H1 4449   3.588   0.580   0.339 -0.5298 -3.1357 -2.0177
  295MPD2    H2 4450   3.833   0.533   0.013 -2.3667  2.4093 -1.9357
  295MPD2    H3 4451   3.649   0.470   0.126 -0.9742 -0.2762  1.3041
  295MPD2     N 4452   3.726   0.765   0.465  0.6533 -0.5297  0.7171
  295MPD2    H5 4453   3.645   0.732   0.517 -0.4494 -1.0346 -1.2855
  295MPD2    N1 4454   4.043   0.703   0.100  0.1013  0.3014  0.0004
  295MPD2    H7 4455   4.102   0.761   0.158  0.0110  1.0960 -0.6977
  296TMC3    C1 4456   3.716   0.912   0.640  0.3332  0.1626  0.0676
  296TMC3    C2 4457   3.798   0.951   0.736  0.1382  0.7600 -0.1731
  296TMC3    C3 4458   3.748   0.940   0.863 -0.1034 -0.2161  0.3413
  296TMC3    C4 4459   3.585   0.889   0.657 -0.6465  0.0184 -0.1563
  296TMC3    C5 4460   3.528   0.904   0.776  0.5413 -0.4399  0.2086
  296TMC3    C6 4461   3.608   0.916   0.882  0.4408 -0.1408  0.0582
  296TMC3     C 4462   3.779   0.879   0.516 -0.2810 -0.3160 -0.3354
  296TMC3     O 4463   3.878   0.941   0.480 -0.0504 -0.0590  0.3924
  296TMC3     H 4464   3.900   0.965   0.703  0.1776  2.5564  0.7173
  296TMC3    H1 4465   3.521   0.882   0.570 -0.5575 -0.2739 -0.1984
  296TMC3    H2 4466   3.567   0.923   0.983 -0.5415 -1.2902 -0.2665
  296TMC3    C7 4467   3.389   0.862   0.789 -0.1942 -0.8315 -0.2364
  296TMC3    C8 4468   3.842   0.925   0.973 -0.0349 -0.1536  0.2911
  296TMC3    O1 4469   3.311   0.893   0.700 -0.0787  0.5003 -0.1639
  296TMC3    O2 4470   3.800   0.852   1.059 -0.1001  0.3497 -0.6941
  297MPD2     C 4471   1.089   2.894  16.145  0.6685  0.2805  0.1552
  297MPD2    C1 4472   1.083   3.033  16.139  0.3746  0.2103 -0.2897
  297MPD2    C2 4473   1.177   3.104  16.203 -0.1304 -0.3810  0.6481
  297MPD2    C3 4474   1.278   3.043  16.272  0.0411  0.2757  0.1304
  297MPD2    C4 4475   1.281   2.902  16.293 -0.3063  0.1867 -1.1761
  297MPD2    C5 4476   1.180   2.833  16.230 -0.4503 -0.2045 -0.2621
  297MPD2     H 4477   1.178   3.211  16.190  1.1043 -0.4819 -0.1810
  297MPD2    H1 4478   1.356   2.846  16.349 -0.3927  1.8209  0.5957
  297MPD2    H2 4479   1.006   2.839  16.104  1.6681 -0.5585 -0.7360
  297MPD2    H3 4480   1.190   2.726  16.240  2.9197 -0.2535 -3.9188
  297MPD2     N 4481   1.369   3.137  16.328  0.3424  0.1023  0.2144
  297MPD2    H5 4482   1.341   3.234  16.329 -0.8774 -0.2541  0.1810
  297MPD2    N1 4483   0.986   3.107  16.071  0.4063  0.3170  0.4189
  297MPD2    H7 4484   0.980   3.207  16.085  1.3261  0.6231 -1.3974
  298TMC3    C1 4485   0.826   3.154  15.907 -0.1773 -0.0504  0.1556
  298TMC3    C2 4486   0.812   3.132  15.777  0.5553 -0.5494 -0.2489
  298TMC3    C3 4487   0.770   3.240  15.706  0.6425  0.3376  0.4092
  298TMC3    C4 4488   0.818   3.279  15.968  0.7096 -0.2512 -0.3698
  298TMC3    C5 4489   0.779   3.377  15.885 -0.6612 -0.4197  0.3699
  298TMC3    C6 4490   0.750   3.366  15.755 -0.4070  0.2452 -0.1949
  298TMC3     C 4491   0.912   3.054  15.968  0.4821 -0.3043 -0.1994
  298TMC3     O 4492   0.924   2.947  15.909  0.2642 -0.1701  0.0185
  298TMC3     H 4493   0.829   3.033  15.736 -1.1244 -1.1498  0.5103
  298TMC3    H1 4494   0.823   3.299  16.075 -0.9149 -3.1815  0.2734
  298TMC3    H2 4495   0.715   3.448  15.694 -0.1210  0.0601 -0.6110
  298TMC3    C7 4496   0.766   3.510  15.948  0.7102  0.0557 -0.1018
  298TMC3    C8 4497   0.703   3.205  15.581 -0.2567  0.1510 -0.9679
  298TMC3    O1 4498   0.769   3.509  16.071 -0.0790 -0.0060 -0.2012
  298TMC3    O2 4499   0.640   3.297  15.530  0.0806 -0.6796  0.2302
  299MPD2     C 4500   1.148   2.641  10.469 -0.2467 -0.1960  0.7375
  299MPD2    C1 4501   1.256   2.655  10.390  0.0210  0.4039 -0.0031
  299MPD2    C2 4502   1.234   2.639  10.253 -1.2068 -0.3467 -0.1696
  299MPD2    C3 4503   1.102   2.625  10.205 -0.3486 -0.4198 -0.2938
  299MPD2    C4 4504   0.999   2.617  10.294  0.2938 -0.2178 -1.3986
  299MPD2    C5 4505   1.026   2.622  10.424  0.2327  0.3443 -0.4971
  299MPD2     H 4506   1.309   2.611  10.180 -0.7246  1.3214 -0.2963
  299MPD2    H1 4507   0.893   2.604  10.273 -0.1450  0.2701  0.5230
  299MPD2    H2 4508   1.159   2.648  10.577  1.5861  0.4049  0.5177
  299MPD2    H3 4509   0.952   2.610  10.502  1.9183  1.4103  1.2567
  299MPD2     N 4510   1.071   2.604  10.071 -0.2444 -0.8867  0.3810
  299MPD2    H5 4511   0.971   2.607  10.060 -0.0761 -2.7605 -1.4816
  299MPD2    N1 4512   1.384   2.653  10.447  0.0294 -0.2844  0.6369
  299MPD2    H7 4513   1.395   2.635  10.547  1.8895 -2.1282  0.0959
  300TMC3    C1 4514   1.075   2.530   9.861  0.6956  0.5904 -0.0781
  300TMC3    C2 4515   1.066   2.598   9.744 -0.2576 -0.1965 -0.1616
  300TMC3    C3 4516   0.965   2.575   9.657  0.0036  0.0259  0.4876
  300TMC3    C4 4517   0.973   2.454   9.905 -0.6219 -0.7323  0.2119
  300TMC3    C5 4518   0.890   2.402   9.807 -0.0519 -0.5771  0.2245
  300TMC3    C6 4519   0.885   2.464   9.679  0.5066  0.2067 -0.3475
  300TMC3     C 4520   1.147   2.601   9.962  0.4557 -0.0608 -0.3648
  300TMC3     O 4521   1.266   2.626   9.958 -0.3726 -0.4332 -0.0472
  300TMC3     H 4522   1.136   2.678   9.722  2.0783 -2.7749 -2.1374
  300TMC3    H1 4523   0.979   2.398   9.997  0.8166  0.6686  0.9640
  300TMC3    H2 4524   0.800   2.430   9.622  1.5675 -0.2142 -1.6891
  300TMC3    C7 4525   0.776   2.326   9.863 -0.4504 -0.2729 -0.2311
  300TMC3    C8 4526   0.879   2.688   9.629  0.3712  0.4984 -0.1408
  300TMC3    O1 4527   0.713   2.253   9.790  0.0608 -0.0061  0.3580
  300TMC3    O2 4528   0.770   2.663   9.580  0.7558  0.6134 -0.3976
  301MPD2     C 4529   3.488   3.707   1.532  0.2013 -0.3677 -0.0422
  301MPD2    C1 4530   3.391   3.698   1.432  0.4122  0.0677 -0.9952
  301MPD2    C2 4531   3.408   3.609   1.326  0.1794  0.1065 -0.0021
  301MPD2    C3 4532   3.500   3.516   1.333 -0.6185 -0.0537 -0.3669
  301MPD2    C4 4533   3.586   3.509   1.442  0.3713 -0.0368  0.3313
  301MPD2    C5 4534   3.589   3.614   1.536 -0.4706  0.5913  0.4251
  301MPD2     H 4535   3.338   3.604   1.243  0.7886 -0.4039 -0.4782
  301MPD2    H1 4536   3.663   3.433   1.440 -0.7166 -1.1908  2.3287
  301MPD2    H2 4537   3.475   3.784   1.607  2.2177 -0.1895  0.1322
  301MPD2    H3 4538   3.658   3.593   1.618  1.2521 -0.0722 -1.1996
  301MPD2     N 4539   3.509   3.404   1.244  0.1894  0.0932 -0.2748
  301MPD2    H5 4540   3.594   3.353   1.267 -0.6867 -0.7898  1.0412
  301MPD2    N1 4541   3.281   3.786   1.420  0.6395  0.1038  0.3233
  301MPD2    H7 4542   3.217   3.790   1.341  0.1355 -2.4828  0.6058
  302TMC3    C1 4543   3.466   3.249   1.082 -0.8190 -0.0637 -0.3855
  302TMC3    C2 4544   3.559   3.162   1.144  0.1925 -0.4978 -0.6245
  302TMC3    C3 4545   3.594   3.055   1.064 -0.3552  0.0059  0.4215
  302TMC3    C4 4546   3.436   3.249   0.951 -1.0346 -0.2361  0.0786
  302TMC3    C5 4547   3.487   3.139   0.881  0.6136  0.9581  0.9373
  302TMC3    C6 4548   3.570   3.036   0.929  0.4505  0.2226 -0.4849
  302TMC3     C 4549   3.424   3.370   1.141 -0.3127  0.1752  1.2743
  302TMC3     O 4550   3.322   3.425   1.106 -0.0490  0.2533 -0.1381
  302TMC3     H 4551   3.584   3.169   1.250 -1.6222 -1.0740 -0.1580
  302TMC3    H1 4552   3.361   3.317   0.913  0.0112  0.6837 -0.3491
  302TMC3    H2 4553   3.604   2.954   0.865 -1.0514 -0.9775  0.2665
  302TMC3    C7 4554   3.471   3.136   0.736  0.5633  0.4531  0.4894
  302TMC3    C8 4555   3.682   2.959   1.126 -0.0677 -0.3273  0.5779
  302TMC3    O1 4556   3.541   3.075   0.659 -0.2746  0.1026 -0.0692
  302TMC3    O2 4557   3.775   2.909   1.057 -0.1298  0.0904 -1.0106
  303MPD2     C 4558   4.054   2.108  10.247  0.3581  0.5237  0.1184
  303MPD2    C1 4559   3.940   2.132  10.317  0.0474 -0.2479 -0.1211
  303MPD2    C2 4560   3.835   2.195  10.260  0.0882 -0.6009 -0.7203
  303MPD2    C3 4561   3.841   2.238  10.126 -0.4628  0.2558 -0.9729
  303MPD2    C4 4562   3.957   2.213  10.055 -0.5265  0.2931 -0.0071
  303MPD2    C5 4563   4.059   2.147  10.114 -0.4896  0.2737 -0.2349
  303MPD2     H 4564   3.737   2.201  10.306  0.6119 -1.7627  0.5624
  303MPD2    H1 4565   3.974   2.259   9.958  0.6477 -2.0966 -0.9426
  303MPD2    H2 4566   4.136   2.055  10.294 -2.0638 -2.7969  0.6097
  303MPD2    H3 4567   4.145   2.124  10.052 -0.3442 -0.0069  0.0699
  303MPD2     N 4568   3.733   2.301  10.057  0.2799 -0.2848 -0.5580
  303MPD2    H5 4569   3.745   2.326   9.960  0.3786  1.0863 -0.1892
  303MPD2    N1 4570   3.933   2.090  10.457  0.1234  0.6134 -0.4426
  303MPD2    H7 4571   4.007   2.035  10.498 -0.3171  0.2464 -0.1371
  304TMC3    C1 4572   3.816   2.059  10.670 -0.0101 -0.1475 -0.2149
  304TMC3    C2 4573   3.750   2.123  10.772 -0.3090  0.2227 -0.6286
  304TMC3    C3 4574   3.687   2.042  10.865 -0.2476  0.1380  0.2405
  304TMC3    C4 4575   3.823   1.923  10.648  0.4329 -0.0216 -0.1123
  304TMC3    C5 4576   3.757   1.844  10.739 -0.2142 -0.1265 -0.6633
  304TMC3    C6 4577   3.704   1.898  10.855 -0.3600 -0.1008  0.2307
  304TMC3     C 4578   3.836   2.132  10.549 -0.1842 -0.0502 -0.4227
  304TMC3     O 4579   3.774   2.237  10.529  0.1706 -0.6569 -0.0195
  304TMC3     H 4580   3.749   2.231  10.780  1.9647  0.1235  0.8520
  304TMC3    H1 4581   3.848   1.883  10.551  0.5087 -1.3649  0.4637
  304TMC3    H2 4582   3.663   1.837  10.934  0.5385  1.8345  2.2139
  304TMC3    C7 4583   3.696   1.719  10.694 -0.1947 -0.6818  0.2792
  304TMC3    C8 4584   3.536   2.062  10.852 -0.7650 -1.6201 -0.3606
  304TMC3    O1 4585   3.761   1.660  10.610  0.3916  0.3098 -0.4764
  304TMC3    O2 4586   3.469   1.961  10.840  0.6878  0.7276  0.1456
  305MPD2     C 4587   1.724   4.269  14.020  0.0472 -0.6206  0.2218
  305MPD2    C1 4588   1.766   4.139  14.034  0.2489  0.1077 -0.3255
  305MPD2    C2 4589   1.782   4.066  13.915 -0.3740  0.4776  0.3367
  305MPD2    C3 4590   1.757   4.131  13.793  0.7266 -0.2182 -0.3620
  305MPD2    C4 4591   1.718   4.264  13.785 -0.0741  0.0014  0.1959
  305MPD2    C5 4592   1.706   4.335  13.904 -0.6357  0.4567  0.5404
  305MPD2     H 4593   1.820   3.965  13.909 -0.4971  0.4161  0.5939
  305MPD2    H1 4594   1.701   4.314  13.690 -0.9228 -0.5803  0.0462
  305MPD2    H2 4595   1.714   4.335  14.105 -0.8493  0.4546 -0.7190
  305MPD2    H3 4596   1.660   4.433  13.909 -1.8912 -0.0663 -0.8900
  305MPD2     N 4597   1.757   4.069  13.668  0.1415 -0.0158 -0.0500
  305MPD2    H5 4598   1.742   4.123  13.584  0.2136  0.5430  0.2950
  305MPD2    N1 4599   1.803   4.104  14.160  0.5085 -0.0979 -0.0354
  305MPD2    H7 4600   1.784   4.170  14.235  0.0347 -0.1676 -0.0987
  306TMC3    C1 4601   1.882   3.975  14.347 -0.0267 -0.4861  0.4844
  306TMC3    C2 4602   1.983   3.891  14.390 -0.1788 -0.1546 -0.8560
  306TMC3    C3 4603   2.029   3.898  14.520  0.3164  0.3097 -0.3906
  306TMC3    C4 4604   1.814   4.057  14.428  0.9647 -0.5917 -0.2062
  306TMC3    C5 4605   1.857   4.067  14.560  0.3329  0.1398  0.1277
  306TMC3    C6 4606   1.967   3.989  14.600  0.4071 -0.5357  0.5637
  306TMC3     C 4607   1.861   3.984  14.203  0.1043 -0.2565  0.1050
  306TMC3     O 4608   1.913   3.901  14.125  0.0017  0.1734 -0.9554
  306TMC3     H 4609   2.010   3.802  14.334  1.3850  0.3435 -0.9038
  306TMC3    H1 4610   1.720   4.104  14.400  0.4839 -1.7128 -0.5043
  306TMC3    H2 4611   2.000   4.001  14.703 -1.1560  0.0047  1.0039
  306TMC3    C7 4612   1.765   4.131  14.659 -0.1105  0.0741  0.4051
  306TMC3    C8 4613   2.109   3.790  14.571 -0.6518 -0.4074  0.2718
  306TMC3    O1 4614   1.643   4.123  14.638 -0.5846  0.4759 -0.6112
  306TMC3    O2 4615   2.193   3.744  14.495  0.1962  0.3977  0.0126
  307MPD2     C 4616   4.131   1.387   1.225 -0.6644 -0.1904 -0.0726
  307MPD2    C1 4617   4.169   1.477   1.128 -0.1897 -0.8308 -0.2997
  307MPD2    C2 4618   4.071   1.525   1.048  0.5647 -0.2749  0.0720
  307MPD2    C3 4619   3.934   1.501   1.059 -0.0512  0.1457  0.1295
  307MPD2    C4 4620   3.903   1.412   1.162 -0.7170  0.6766 -0.0679
  307MPD2    C5 4621   3.998   1.354   1.238 -0.7613 -0.1820  0.0380
  307MPD2     H 4622   4.090   1.595   0.968  1.8747 -1.2879 -0.4916
  307MPD2    H1 4623   3.801   1.381   1.181 -0.1171 -1.2800 -0.1091
  307MPD2    H2 4624   4.195   1.344   1.301 -0.3696  0.0924 -0.1642
  307MPD2    H3 4625   3.969   1.277   1.309 -0.2704 -0.5988 -0.2171
  307MPD2     N 4626   3.845   1.576   0.974  0.4809  0.9148 -0.0870
  307MPD2    H5 4627   3.894   1.628   0.902 -0.0928 -0.8158 -1.7477
  307MPD2    N1 4628   4.312   1.491   1.108 -0.2311  0.0662  0.3782
  307MPD2    H7 4629   4.334   1.542   1.023  1.0626 -1.0818  0.0346
  308TMC3    C1 4630   3.625   1.803   0.713  0.3629 -0.4869  0.0808
  308TMC3    C2 4631   3.582   1.915   0.780 -0.1222  0.5549  0.1215
  308TMC3    C3 4632   3.564   1.909   0.918  0.1081 -0.9642  0.6858
  308TMC3    C4 4633   3.668   1.693   0.784  0.3753  0.2476  0.2594
  308TMC3    C5 4634   3.661   1.694   0.920 -0.0027  0.3531  0.3353
  308TMC3    C6 4635   3.600   1.795   0.990 -0.1069  0.5690 -0.2368
  308TMC3     C 4636   3.649   1.803   0.568 -0.3384 -0.2479  0.4171
  308TMC3     O 4637   3.699   1.709   0.514  0.0526 -0.1153 -0.1096
  308TMC3     H 4638   3.541   2.002   0.730 -0.9155  0.2246  0.2053
  308TMC3    H1 4639   3.717   1.610   0.734 -1.4137 -0.4371 -0.3707
  308TMC3    H2 4640   3.611   1.781   1.097 -1.1967 -1.4473 -0.3987
  308TMC3    C7 4641   3.713   1.587   1.006 -0.6019 -0.0165 -0.1881
  308TMC3    C8 4642   3.601   2.022   0.999 -0.0083  0.0961 -0.0474
  308TMC3    O1 4643   3.656   1.565   1.110  0.2935  0.3485 -0.0368
  308TMC3    O2 4644   3.569   2.030   1.118  0.2967  0.3641  0.5188
  309MPD2     C 4645   4.049   2.607  16.837 -0.1418  0.0802  1.0044
  309MPD2    C1 4646   3.955   2.623  16.735 -0.4900 -0.5356 -0.2289
  309MPD2    C2 4647   3.832   2.677  16.762  0.1146 -0.1519  0.4482
  309MPD2    C3 4648   3.805   2.731  16.888  0.1053 -0.1555  0.1943
  309MPD2    C4 4649   3.904   2.723  16.990  0.3394 -0.1629  0.3493
  309MPD2    C5 4650   4.021   2.658  16.964  0.5827 -0.2151  0.5085
  309MPD2     H 4651   3.755   2.668  16.685 -0.1029 -0.2105  0.6720
  309MPD2    H1 4652   3.880   2.768  17.086 -0.1217 -2.3890  1.2787
  309MPD2    H2 4653   4.154   2.588  16.821 -0.3810  1.4215 -2.1937
  309MPD2    H3 4654   4.095   2.641  17.040  1.6135 -0.5519 -0.5729
  309MPD2     N 4655   3.689   2.803  16.921  0.6264  0.2456 -0.5423
  309MPD2    H5 4656   3.689   2.832  17.018  0.7345 -0.3285 -0.3728
  309MPD2    N1 4657   3.975   2.575  16.598 -1.0755  0.6505 -0.6738
  309MPD2    H7 4658   3.899   2.584  16.531  0.7398  0.7822 -2.7101
  310TMC3    C1 4659   4.092   2.513  16.406 -0.0055 -1.2026 -0.0703
  310TMC3    C2 4660   3.991   2.565  16.331  0.2969 -0.4235  0.1861
  310TMC3    C3 4661   4.000   2.558  16.195 -0.2341 -0.9016 -0.5494
  310TMC3    C4 4662   4.206   2.467  16.353 -0.5285 -0.0670 -0.1734
  310TMC3    C5 4663   4.218   2.456  16.218  0.6938  0.6382 -0.1789
  310TMC3    C6 4664   4.115   2.508  16.143 -0.3227  0.5144  0.2581
  310TMC3     C 4665   4.095   2.531  16.548 -0.0178 -0.4994  0.1643
  310TMC3     O 4666   4.202   2.509  16.604 -0.0019 -0.4651 -0.1100
  310TMC3     H 4667   3.926   2.632  16.386 -0.8821  0.2356 -1.9757
  310TMC3    H1 4668   4.277   2.415  16.416  0.0175  0.2927 -0.4898
  310TMC3    H2 4669   4.122   2.513  16.035 -0.7305  3.5544  0.3730
  310TMC3    C7 4670   4.331   2.383  16.167 -0.1319 -0.5037 -0.5136
  310TMC3    C8 4671   3.906   2.645  16.108  0.5352 -0.5105  0.0798
  310TMC3    O1 4672   4.325   2.323  16.060 -0.2790  0.2606 -0.0884
  310TMC3    O2 4673   3.928   2.675  15.989  0.1032 -0.1631 -0.0731
  311MPD2     C 4674   0.900   3.765  12.740 -0.6054 -0.4931  0.5543
  311MPD2    C1 4675   0.915   3.875  12.815  0.2277 -0.1423  0.2338
  311MPD2    C2 4676   0.829   3.891  12.924  0.6647  0.0148  0.5271
  311MPD2    C3 4677   0.725   3.810  12.945 -0.0014 -0.9477 -0.5411
  311MPD2    C4 4678   0.724   3.683  12.886  0.0745 -0.1709 -0.1298
  311MPD2    C5 4679   0.818   3.662  12.784  0.6816  0.4389  0.0463
  311MPD2     H 4680   0.829   3.984  12.979  1.4614  0.4830 -0.2508
  311MPD2    H1 4681   0.655   3.600  12.899  0.6731 -0.3256  1.9589
  311MPD2    H2 4682   0.962   3.739  12.654  0.6700  0.6357  1.1265
  311MPD2    H3 4683   0.814   3.571  12.724 -0.9155  0.6190 -0.1072
  311MPD2     N 4684   0.623   3.850  13.037  0.2549  0.4209 -0.0612
  311MPD2    H5 4685   0.624   3.941  13.083  1.5965  0.6574 -0.5616
  311MPD2    N1 4686   1.022   3.964  12.793  0.1624 -0.5594 -0.1058
  311MPD2    H7 4687   1.027   4.046  12.853  0.7679  1.0880 -2.3999
  312TMC3    C1 4688   0.425   3.834  13.150 -0.7951  0.2586 -0.5304
  312TMC3    C2 4689   0.288   3.822  13.109  0.5196  0.2025 -0.0754
  312TMC3    C3 4690   0.206   3.933  13.129  0.5028 -0.1783  0.3040
  312TMC3    C4 4691   0.471   3.941  13.219 -0.0004  0.4212  0.2868
  312TMC3    C5 4692   0.379   4.044  13.237 -0.1794 -0.4382 -0.6248
  312TMC3    C6 4693   0.250   4.044  13.198 -0.5011 -0.3045  0.1819
  312TMC3     C 4694   0.515   3.777  13.058  1.0033 -0.2697  0.4986
  312TMC3     O 4695   0.472   3.679  13.001  0.1251 -0.0236 -0.4051
  312TMC3     H 4696   0.259   3.747  13.037 -0.9317 -0.9691  1.7216
  312TMC3    H1 4697   0.573   3.948  13.256 -0.0913  0.7991  0.4675
  312TMC3    H2 4698   0.184   4.123  13.229  1.9612  1.5085  0.8083
  312TMC3    C7 4699   0.419   4.151  13.325  0.2626  0.4663 -0.7521
  312TMC3    C8 4700   0.070   3.906  13.120 -0.8540 -0.2162 -0.3133
  312TMC3    O1 4701   0.391   4.271  13.305  0.2802 -0.1843 -0.0845
  312TMC3    O2 4702   0.041   3.794  13.085 -0.5545  0.3942  0.0565
  313MPD2     C 4703   0.152   3.401  10.705 -0.2768  0.2674  0.6344
  313MPD2    C1 4704   0.129   3.459  10.583 -0.2805  0.4385  0.2470
  313MPD2    C2 4705   0.173   3.403  10.465 -0.5756  0.4746 -0.2498
  313MPD2    C3 4706   0.229   3.276  10.469 -0.4478  0.0989  0.5961
  313MPD2    C4 4707   0.250   3.215  10.596  0.3238 -0.0917  0.3899
  313MPD2    C5 4708   0.213   3.279  10.711  0.1583 -0.9371 -0.0440
  313MPD2     H 4709   0.160   3.451  10.369 -0.3406 -1.2813 -1.1616
  313MPD2    H1 4710   0.315   3.130  10.613  1.2175  0.3908 -0.6437
  313MPD2    H2 4711   0.140   3.457  10.797 -2.2962 -0.4691  0.8299
  313MPD2    H3 4712   0.249   3.244  10.807  1.5641  0.9671  0.1330
  313MPD2     N 4713   0.267   3.224  10.342  0.2460 -0.0800  0.0762
  313MPD2    H5 4714   0.259   3.286  10.262 -1.7888  0.8808  1.0118
  313MPD2    N1 4715   0.066   3.588  10.567  0.7625 -0.5923 -0.2194
  313MPD2    H7 4716   0.065   3.628  10.474  0.6774  0.7448  0.3665
  314TMC3    C1 4717   4.664   3.785  10.617 -0.1878  0.4305  0.5724
  314TMC3    C2 4718   4.636   3.895  10.693  1.0204  0.7846  0.1193
  314TMC3    C3 4719   4.530   3.973  10.659  0.2419 -0.3688 -0.1510
  314TMC3    C4 4720   4.594   3.755  10.502  0.2807  0.2306 -0.3292
  314TMC3    C5 4721   4.498   3.846  10.463 -0.2180 -0.3766 -0.0859
  314TMC3    C6 4722   4.464   3.957  10.540  0.1376 -0.3533 -0.0117
  314TMC3     C 4723   0.012   3.665  10.669  0.7802 -0.1076  0.0697
  314TMC3     O 4724   0.004   3.643  10.788 -0.1126  0.0682  0.0693
  314TMC3     H 4725   4.688   3.907  10.787  0.4880  2.2374  0.2291
  314TMC3    H1 4726   4.606   3.660  10.451  0.8522 -0.8551  1.8526
  314TMC3    H2 4727   4.374   4.010  10.510  0.5335 -1.5799 -3.2730
  314TMC3    C7 4728   4.426   3.818  10.344  0.0165  0.0321 -0.0293
  314TMC3    C8 4729   4.522   4.107  10.722 -0.5364  1.0152 -0.6339
  314TMC3    O1 4730   4.309   3.856  10.341  0.1145  0.4216 -0.3035
  314TMC3    O2 4731   4.421   4.166  10.690 -0.6604 -0.9912 -0.2582
  315MPD2     C 4732   0.087   2.788  17.412 -0.3332  0.2305 -0.3101
  315MPD2    C1 4733   0.220   2.753  17.431 -0.5294  0.6272  0.2715
  315MPD2    C2 4734   0.316   2.828  17.370 -0.1497  0.0334  0.6232
  315MPD2    C3 4735   0.287   2.925  17.276 -0.4031 -0.0985  0.3316
  315MPD2    C4 4736   0.155   2.945  17.250  0.4004  0.2039 -0.0232
  315MPD2    C5 4737   0.058   2.876  17.317  0.3989 -0.0892  0.1970
  315MPD2     H 4738   0.419   2.814  17.402  0.5965  0.3440 -1.6647
  315MPD2    H1 4739   0.117   3.013  17.175 -0.3677 -1.8265 -1.4828
  315MPD2    H2 4740   0.004   2.732  17.453  0.1337  0.8592  1.5066
  315MPD2    H3 4741   4.675   2.899  17.298  0.3468 -0.5823 -0.1156
  315MPD2     N 4742   0.397   2.990  17.211 -0.0621  0.5269 -0.7203
  315MPD2    H5 4743   0.491   2.960  17.239 -0.5453  1.8813  2.3870
  315MPD2    N1 4744   0.265   2.644  17.505  0.4939 -0.3640 -0.4393
  315MPD2    H7 4745   0.364   2.623  17.499  0.2070 -1.5184 -1.3201
  316TMC3    C1 4746   0.533   3.154  17.119  0.0375  0.6282 -0.9815
  316TMC3    C2 4747   0.638   3.073  17.164  0.0271  0.4054  0.5957
  316TMC3    C3 4748   0.735   3.126  17.244  0.0303 -0.2457 -0.9306
  316TMC3    C4 4749   0.548   3.290  17.122 -0.3565  0.4160  0.8017
  316TMC3    C5 4750   0.660   3.341  17.194 -0.0818  0.0904  0.8712
  316TMC3    C6 4751   0.756   3.257  17.255 -0.7725  0.0918  0.2437
  316TMC3     C 4752   0.396   3.117  17.147 -0.0888  0.6482  0.1513
  316TMC3     O 4753   0.304   3.195  17.120  0.1761 -0.4178 -0.4674
  316TMC3     H 4754   0.633   2.966  17.151  0.4127  0.5375 -0.7264
  316TMC3    H1 4755   0.466   3.359  17.106  0.7154  0.6860 -3.5180
  316TMC3    H2 4756   0.842   3.293  17.309 -0.3050 -1.5965  0.6078
  316TMC3    C7 4757   0.675   3.484  17.215  0.0258  0.4312 -0.0215
  316TMC3    C8 4758   0.705   3.083  17.378  0.0541 -0.9428 -0.4049
  316TMC3    O1 4759   0.749   3.514  17.309  0.4309 -0.1858 -0.6006
  316TMC3    O2 4760   0.633   3.156  17.444  0.2063  0.4761 -0.6171
  317MPD2     C 4761   1.791   1.453  12.871 -0.2257  0.1078  1.0460
  317MPD2    C1 4762   1.762   1.326  12.842  0.0920  0.1015 -0.5721
  317MPD2    C2 4763   1.806   1.226  12.924 -0.5312 -0.4851 -0.0774
  317MPD2    C3 4764   1.862   1.253  13.043  0.3590  0.1573  0.3098
  317MPD2    C4 4765   1.887   1.384  13.076 -0.0140  0.7666 -0.4067
  317MPD2    C5 4766   1.848   1.479  12.993 -0.8022 -0.8324 -0.1755
  317MPD2     H 4767   1.803   1.123  12.889 -2.3498 -0.0654 -1.1440
  317MPD2    H1 4768   1.921   1.424  13.171  1.5148 -2.2832  0.3260
  317MPD2    H2 4769   1.739   1.535  12.823 -0.2316 -1.5440 -1.8267
  317MPD2    H3 4770   1.868   1.582  13.019 -1.4000 -0.8329  0.2789
  317MPD2     N 4771   1.904   1.143  13.124  0.0244 -0.1687 -0.7584
  317MPD2    H5 4772   1.871   1.053  13.089  0.7760 -1.3234  1.5050
  317MPD2    N1 4773   1.700   1.288  12.721  0.1139 -0.3394 -0.9372
  317MPD2    H7 4774   1.690   1.188  12.707  3.2751 -1.0425  1.8373
  318TMC3    C1 4775   2.001   1.030  13.306  0.1395 -0.3835 -0.3414
  318TMC3    C2 4776   1.909   0.926  13.303 -0.2803 -0.7668 -1.0701
  318TMC3    C3 4777   1.941   0.812  13.381  0.3049  0.5711  0.2969
  318TMC3    C4 4778   2.103   1.030  13.389  1.5338  0.4889  0.0302
  318TMC3    C5 4779   2.127   0.922  13.463  0.4114 -0.0189 -0.3040
  318TMC3    C6 4780   2.048   0.811  13.464  0.0645  0.5531  0.1870
  318TMC3     C 4781   1.987   1.148  13.232 -0.0619  0.2890 -0.4512
  318TMC3     O 4782   2.044   1.248  13.270  0.4180 -0.6675 -0.3814
  318TMC3     H 4783   1.822   0.935  13.238 -1.1780  1.5879  0.4420
  318TMC3    H1 4784   2.177   1.109  13.384  0.8540  1.1445  0.2675
  318TMC3    H2 4785   2.074   0.724  13.524 -0.7214 -1.7514 -2.7852
  318TMC3    C7 4786   2.247   0.926  13.541 -0.0985  0.6051 -0.3652
  318TMC3    C8 4787   1.856   0.691  13.378 -0.1085  0.4930 -0.9070
  318TMC3    O1 4788   2.290   1.040  13.566 -0.4524  0.4260  0.6704
  318TMC3    O2 4789   1.884   0.600  13.455  0.2270  0.6929 -0.0101
  319MPD2     C 4790   3.961   2.211  16.244  0.4055 -0.2561  0.1348
  319MPD2    C1 4791   3.922   2.192  16.378 -0.2120 -0.2347  0.3819
  319MPD2    C2 4792   3.785   2.186  16.412 -0.3884  0.1994 -0.4205
  319MPD2    C3 4793   3.691   2.187  16.307 -0.4265  0.4791 -0.2007
  319MPD2    C4 4794   3.738   2.203  16.177  0.3402  0.4040 -0.5607
  319MPD2    C5 4795   3.868   2.203  16.143 -0.0229 -0.1737 -0.6683
  319MPD2     H 4796   3.751   2.194  16.515  2.1325 -0.9698  0.5027
  319MPD2    H1 4797   3.663   2.198  16.098 -1.5778 -0.4502  1.2950
  319MPD2    H2 4798   4.066   2.223  16.219  0.6191  0.7081  1.5041
  319MPD2    H3 4799   3.908   2.203  16.042  1.2250  1.3918 -0.1911
  319MPD2     N 4800   3.546   2.189  16.330 -0.5494 -0.2733  0.3390
  319MPD2    H5 4801   3.484   2.191  16.250  1.2762  1.0673 -1.0567
  319MPD2    N1 4802   4.017   2.184  16.484  0.4911 -0.0717 -0.3486
  319MPD2    H7 4803   3.980   2.204  16.576 -0.1803  0.1119 -0.6601
  320TMC3    C1 4804   3.330   2.166  16.435  0.4251 -0.1907  0.0141
  320TMC3    C2 4805   3.267   2.225  16.323 -0.8843 -0.0891  0.3370
  320TMC3    C3 4806   3.131   2.216  16.318 -0.0539 -0.3794  0.4492
  320TMC3    C4 4807   3.259   2.106  16.541  1.0699  0.1500 -0.6482
  320TMC3    C5 4808   3.117   2.090  16.523 -0.0700 -0.2873  0.0674
  320TMC3    C6 4809   3.055   2.154  16.419 -0.3604 -0.7956 -0.0552
  320TMC3     C 4810   3.481   2.180  16.448  0.0943 -0.2747 -0.1293
  320TMC3     O 4811   3.523   2.186  16.565 -0.4309 -0.2107  0.1544
  320TMC3     H 4812   3.323   2.281  16.250  0.4901 -1.7695  0.1145
  320TMC3    H1 4813   3.318   2.069  16.624  1.6455  0.1769 -1.0453
  320TMC3    H2 4814   2.949   2.150  16.396  0.3096 -4.1553 -2.5765
  320TMC3    C7 4815   3.046   1.982  16.585 -0.5374 -0.3670 -0.2226
  320TMC3    C8 4816   3.062   2.292  16.213 -0.0175  0.2873  0.3254
  320TMC3    O1 4817   2.942   1.952  16.525 -0.1882 -0.1075 -0.2347
  320TMC3    O2 4818   3.130   2.364  16.138  0.2418 -0.0961  0.1296
  321TMC3    C1 4819   4.218   2.174  16.601 -0.0201  0.8555 -0.1688
  321TMC3    C2 4820   4.157   2.158  16.721 -0.5062 -0.3435 -0.0059
  321TMC3    C3 4821   4.209   2.204  16.834 -0.1231  0.1821  0.6241
  321TMC3    C4 4822   4.346   2.232  16.591  0.9120  0.0462  0.6937
  321TMC3    C5 4823   4.396   2.277  16.709 -0.1639 -0.0766  0.5166
  321TMC3    C6 4824   4.323   2.271  16.824 -0.4790 -0.1384 -0.7669
  321TMC3     C 4825   4.147   2.161  16.476 -0.0733  0.1131 -0.2020
  321TMC3     O 4826   4.224   2.133  16.383  0.1870  0.2734  0.1805
  321TMC3     H 4827   4.076   2.086  16.724 -0.6878 -0.1862 -1.1686
  321TMC3    H1 4828   4.406   2.236  16.501 -1.5869 -0.1093 -0.9622
  321TMC3    H2 4829   4.366   2.326  16.908 -0.5328 -0.8601 -0.2667
  321TMC3    C7 4830   4.535   2.237  16.724  0.7334 -0.3680 -0.1401
  321TMC3    C8 4831   4.212   2.104  16.935 -0.0942  0.0695  0.0502
  321TMC3    O1 4832   4.613   2.257  16.631 -0.2020  0.3478  0.1597
  321TMC3    O2 4833   4.304   2.114  17.015 -0.3588  0.2547  0.4839
  322MPD2     C 4834   1.620   3.324  13.705 -0.2301 -0.0371  0.4144
  322MPD2    C1 4835   1.659   3.269  13.820  0.6696  0.4626  0.1905
  322MPD2    C2 4836   1.653   3.132  13.827 -0.3216 -0.1357 -0.3357
  322MPD2    C3 4837   1.646   3.049  13.712  0.3388 -0.6153  0.8314
  322MPD2    C4 4838   1.638   3.113  13.586  0.4066  0.0695  0.9013
  322MPD2    C5 4839   1.610   3.246  13.590 -0.4722 -0.5697  0.2217
  322MPD2     H 4840   1.659   3.077  13.920  2.6796  0.4339 -0.1963
  322MPD2    H1 4841   1.644   3.058  13.493  1.4096  1.2014  0.3085
  322MPD2    H2 4842   1.609   3.432  13.697  1.5377  0.1771  0.8997
  322MPD2    H3 4843   1.595   3.298  13.496 -1.1239 -2.5890 -0.7879
  322MPD2     N 4844   1.669   2.908  13.724 -0.3152  0.3054  0.2364
  322MPD2    H5 4845   1.681   2.887  13.822  1.1812  0.8382  0.1783
  322MPD2    N1 4846   1.699   3.353  13.932 -0.2492 -0.4783  0.3516
  322MPD2    H7 4847   1.711   3.452  13.910  1.4265 -0.5796  0.8264
  323TMC3    C1 4848   1.766   3.392  14.163 -0.7171  0.1123  0.3020
  323TMC3    C2 4849   1.852   3.492  14.120 -0.2058 -0.4912  0.1224
  323TMC3    C3 4850   1.928   3.553  14.213 -0.1289  0.3932  0.4285
  323TMC3    C4 4851   1.759   3.350  14.296 -0.9352  0.2005  0.0169
  323TMC3    C5 4852   1.829   3.426  14.389  0.0729 -0.3619 -0.1991
  323TMC3    C6 4853   1.922   3.515  14.348  0.0982  0.0770  0.5592
  323TMC3     C 4854   1.712   3.304  14.058 -0.0448  0.1119 -0.2127
  323TMC3     O 4855   1.682   3.194  14.110 -0.3063  0.2131 -0.3029
  323TMC3     H 4856   1.855   3.527  14.018  2.7077 -0.9446  0.0719
  323TMC3    H1 4857   1.705   3.261  14.326 -0.1638 -0.8216 -1.6307
  323TMC3    H2 4858   1.984   3.571  14.417 -1.3275  0.8200  1.2393
  323TMC3    C7 4859   1.863   3.363  14.516  0.6052 -0.3955 -0.8455
  323TMC3    C8 4860   2.062   3.606  14.164 -0.5904  0.4775  0.5102
  323TMC3    O1 4861   1.852   3.239  14.529 -0.5151 -0.0018 -0.1412
  323TMC3    O2 4862   2.158   3.548  14.214  0.5035  0.1812  0.3392
  324MPD2     C 4863   3.021   4.423  14.154 -0.1655 -0.2985 -0.6141
  324MPD2    C1 4864   3.050   4.555  14.175 -0.3602 -0.0446 -0.8713
  324MPD2    C2 4865   2.952   4.643  14.151  0.3722 -0.5856 -0.1261
  324MPD2    C3 4866   2.822   4.606  14.095 -0.7419 -0.5139 -0.1239
  324MPD2    C4 4867   2.798   4.475  14.080  0.7729 -0.4138 -0.8739
  324MPD2    C5 4868   2.891   4.382  14.116 -0.2002  0.1687 -0.9421
  324MPD2     H 4869   2.984   0.024  14.167 -0.7012 -0.3402  0.4620
  324MPD2    H1 4870   2.700   4.435  14.054 -0.0157  0.9943 -0.0513
  324MPD2    H2 4871   3.092   4.340  14.160 -0.1936 -0.3293 -0.7092
  324MPD2    H3 4872   2.879   4.276  14.096 -2.3322 -0.0678  1.7802
  324MPD2     N 4873   2.726   4.702  14.061  0.1699 -0.0157  0.7596
  324MPD2    H5 4874   2.643   4.664  14.017  0.6314  0.5129 -0.5742
  324MPD2    N1 4875   3.181   4.600  14.206 -0.4795  0.0156  0.6279
  324MPD2    H7 4876   3.197   4.700  14.204 -0.1335 -0.0444  0.3627
  325TMC3    C1 4877   2.623   0.189  14.019 -0.0842  0.9674  0.2485
  325TMC3    C2 4878   2.507   0.134  13.971 -0.0805 -0.2031  0.4557
  325TMC3    C3 4879   2.412   0.221  13.920  0.0167  0.1309 -0.1226
  325TMC3    C4 4880   2.642   0.328  14.021  0.1913  0.5591 -0.1048
  325TMC3    C5 4881   2.543   0.408  13.970  0.7851 -0.4467 -0.4829
  325TMC3    C6 4882   2.434   0.356  13.905  0.6295 -0.6436 -0.4131
  325TMC3     C 4883   2.731   0.117  14.083  0.1194  0.6178  0.1703
  325TMC3     O 4884   2.824   0.177  14.132  0.1914 -0.2799  0.7138
  325TMC3     H 4885   2.483   0.029  13.985  0.1335 -0.0021  2.2683
  325TMC3    H1 4886   2.726   0.367  14.077 -0.0769 -1.0135  1.3969
  325TMC3    H2 4887   2.362   0.426  13.865  1.3822  0.2146 -0.2676
  325TMC3    C7 4888   2.548   0.550  13.995  0.2653  0.3165 -0.2108
  325TMC3    C8 4889   2.307   0.163  13.841 -0.2573  0.2161  0.4358
  325TMC3    O1 4890   2.452   0.602  14.050 -0.0681  0.0385  0.1159
  325TMC3    O2 4891   2.303   0.194  13.722 -0.0511  0.1070 -0.3525
  326MPD2     C 4892   4.330   1.159  11.319  0.3173 -0.2120 -0.3512
  326MPD2    C1 4893   4.410   1.085  11.229  1.1930  0.2446  0.6705
  326MPD2    C2 4894   4.549   1.107  11.235  0.0393  0.3586 -0.7497
  326MPD2    C3 4895   4.620   1.182  11.328 -0.1423  0.4922  0.1440
  326MPD2    C4 4896   4.541   1.241  11.425  0.1594 -0.2901  0.1387
  326MPD2    C5 4897   4.404   1.232  11.422 -0.8404 -0.2962  0.4045
  326MPD2     H 4898   4.604   1.049  11.162  0.3087  0.1677 -0.3891
  326MPD2    H1 4899   4.575   1.299  11.510 -1.1598  0.9299 -0.1699
  326MPD2    H2 4900   4.221   1.157  11.319  0.3090 -0.1456  1.1034
  326MPD2    H3 4901   4.354   1.287  11.500 -1.3782 -2.1319  1.3591
  326MPD2     N 4902   0.034   1.225  11.308  0.0544 -0.6098 -0.7420
  326MPD2    H5 4903   0.066   1.292  11.376  4.4928 -1.3188 -2.1561
  326MPD2    N1 4904   4.365   0.989  11.138 -0.9334  0.3735  0.1252
  326MPD2    H7 4905   4.441   0.951  11.081 -1.7729 -0.6673 -0.2830
  327TMC3    C1 4906   4.249   0.845  11.000  0.1139  0.6895  0.0174
  327TMC3    C2 4907   4.146   0.867  10.911  0.2781  0.4641 -0.4322
  327TMC3    C3 4908   4.166   0.824  10.788 -0.2509  0.5094  0.3644
  327TMC3    C4 4909   4.367   0.799  10.968  1.0587  1.0751  0.8542
  327TMC3    C5 4910   4.388   0.759  10.838 -0.2964  0.6971 -0.5754
  327TMC3    C6 4911   4.280   0.761  10.751  0.5898  0.1050  0.0819
  327TMC3     C 4912   4.241   0.942  11.107 -0.2952 -0.0752 -0.3121
  327TMC3     O 4913   4.137   0.996  11.148  0.7435  0.5485  0.1171
  327TMC3     H 4914   4.058   0.926  10.934 -0.1975 -0.6874  0.6609
  327TMC3    H1 4915   4.449   0.793  11.039  0.9280  1.4755  1.0357
  327TMC3    H2 4916   4.285   0.722  10.650  0.0801  4.2137 -1.5009
  327TMC3    C7 4917   4.521   0.755  10.784  0.7005 -0.5266  0.1986
  327TMC3    C8 4918   4.111   0.899  10.679 -0.4107  0.0401  0.3661
  327TMC3    O1 4919   4.517   0.743  10.662  0.1794 -0.4408  0.4404
  327TMC3    O2 4920   4.179   0.904  10.576 -0.9120 -0.1878  0.3146
  328MPD2     C 4921   3.260   1.109  17.644 -0.2399  0.0970  0.2330
  328MPD2    C1 4922   3.182   1.059  17.540 -0.8704  0.0419 -1.0679
  328MPD2    C2 4923   3.111   1.151  17.462  0.2019  0.1926  0.0477
  328MPD2    C3 4924   3.118   1.288  17.490 -0.3157 -0.5089  0.5367
  328MPD2    C4 4925   3.184   1.336  17.599  0.0407 -0.1873  0.3607
  328MPD2    C5 4926   3.256   1.248  17.678 -0.3490 -0.3519  0.1792
  328MPD2     H 4927   3.047   1.116  17.382 -1.5794  3.4767  0.0458
  328MPD2    H1 4928   3.193   1.443  17.612  0.4875 -0.3106  1.0958
  328MPD2    H2 4929   3.323   1.052   0.024  1.1604  0.1747 -1.0465
  328MPD2    H3 4930   3.309   1.285   0.078  0.4936  2.6370 -1.6242
  328MPD2     N 4931   3.044   1.387  17.419 -0.2088 -0.0730  0.0342
  328MPD2    H5 4932   3.044   1.483  17.454  0.7526 -0.5257  1.2808
  328MPD2    N1 4933   3.174   0.917  17.532 -0.5177 -0.2948  0.1584
  328MPD2    H7 4934   3.222   0.865  17.604  0.2706  0.4168  0.1392
  329TMC3    C1 4935   3.078   0.705  17.491  0.9194  0.1174 -0.4004
  329TMC3    C2 4936   2.988   0.633  17.414 -0.4204  0.4215  0.6682
  329TMC3    C3 4937   2.895   0.557  17.477  0.2712  0.0351  0.6754
  329TMC3    C4 4938   3.075   0.704  17.630  0.6524 -0.3347 -0.0056
  329TMC3    C5 4939   2.977   0.623  17.681  0.1186 -0.1255 -1.0848
  329TMC3    C6 4940   2.883   0.557  17.611  0.8642 -0.1719 -0.4530
  329TMC3     C 4941   3.101   0.839  17.447  0.1589 -0.0849 -0.4138
  329TMC3     O 4942   3.040   0.870  17.348  0.1634 -0.0150  0.0065
  329TMC3     H 4943   2.995   0.631  17.305 -0.6598  0.0731  0.6562
  329TMC3    H1 4944   3.133   0.762   0.015 -0.5121 -0.8539  1.3580
  329TMC3    H2 4945   2.803   0.510  17.666  0.7688  0.7791  0.2189
  329TMC3    C7 4946   2.987   0.590   0.132 -0.6619 -0.4569 -0.1031
  329TMC3    C8 4947   2.780   0.522  17.395  0.2814 -0.2339 -0.0137
  329TMC3    O1 4948   2.953   0.473   0.151 -0.3645 -0.6001 -0.2283
  329TMC3    O2 4949   2.794   0.497  17.277 -0.1579 -0.0079  0.5872
  330TMC3    C1 4950   0.646   0.096   9.777  0.6046  0.6761 -0.1327
  330TMC3    C2 4951   0.541   0.052   9.702  0.4526 -0.4456  0.0936
  330TMC3    C3 4952   0.546   4.642   9.666  0.1333  0.0479 -0.0128
  330TMC3    C4 4953   0.738   0.011   9.830 -0.1360 -0.1604 -0.4769
  330TMC3    C5 4954   0.745   4.598   9.782 -0.2700 -0.3306  0.0571
  330TMC3    C6 4955   0.643   4.551   9.707 -0.0517  0.1946  0.6353
  330TMC3     C 4956   0.660   0.240   9.805  0.0258 -0.2438 -0.0873
  330TMC3     O 4957   0.720   0.279   9.904 -0.2845  0.3340  0.3810
  330TMC3     H 4958   0.459   0.113   9.666 -0.3312 -0.5317  1.7483
  330TMC3    H1 4959   0.826   0.054   9.876  0.0931 -1.2762  0.1284
  330TMC3    H2 4960   0.646   4.450   9.666  0.3164  0.3009  0.3963
  330TMC3    C7 4961   0.880   4.552   9.759 -1.2344 -0.0689 -0.7572
  330TMC3    C8 4962   0.474   4.627   9.545  0.2712 -0.0051 -0.3079
  330TMC3    O1 4963   0.968   4.635   9.773 -0.2770 -0.1600 -0.5324
  330TMC3    O2 4964   0.484   4.713   9.461 -0.6945 -0.4754  0.6476
  331MPD2     C 4965   2.496   3.522  12.626  0.8976 -0.0195 -0.4150
  331MPD2    C1 4966   2.606   3.613  12.610  0.4762 -0.2388  0.1893
  331MPD2    C2 4967   2.723   3.562  12.552 -0.3870 -0.1359 -0.0906
  331MPD2    C3 4968   2.731   3.437  12.499  0.0180  0.0442  0.7706
  331MPD2    C4 4969   2.622   3.357  12.503 -0.6900  0.4742  0.3593
  331MPD2    C5 4970   2.508   3.400  12.571 -0.1827  0.1812  0.3357
  331MPD2     H 4971   2.802   3.633  12.530  0.4554 -0.9878  0.2050
  331MPD2    H1 4972   2.618   3.259  12.459  0.1102  0.6367 -0.0708
  331MPD2    H2 4973   2.407   3.548  12.683  1.9508  1.9234  0.3458
  331MPD2    H3 4974   2.423   3.334  12.583 -1.6340  2.4697  2.7100
  331MPD2     N 4975   2.852   3.399  12.439  0.1961  0.3314  0.3219
  331MPD2    H5 4976   2.923   3.471  12.450  1.5353 -1.2328  1.7584
  331MPD2    N1 4977   2.608   3.740  12.665  0.4200 -0.1395 -0.7063
  331MPD2    H7 4978   2.514   3.774  12.684  0.1268 -0.6963 -1.1462
  332TMC3    C1 4979   3.026   3.279  12.367  0.0411 -0.1869 -0.7758
  332TMC3    C2 4980   3.058   3.392  12.303 -0.7491 -0.2219 -0.6121
  332TMC3    C3 4981   3.169   3.448  12.353 -0.2084 -0.5426  0.3690
  332TMC3    C4 4982   3.109   3.212  12.454 -0.2297 -0.0478  0.7382
  332TMC3    C5 4983   3.221   3.271  12.494 -0.0828 -0.2035  0.3514
  332TMC3    C6 4984   3.261   3.392  12.442  0.2404  0.4999 -0.1285
  332TMC3     C 4985   2.890   3.276  12.405 -0.2422  0.0138 -0.0261
  332TMC3     O 4986   2.847   3.167  12.439 -0.1174 -0.3045 -0.5928
  332TMC3     H 4987   2.984   3.440  12.239  0.8324  1.1940 -1.3984
  332TMC3    H1 4988   3.074   3.123  12.504  0.2094  0.3186  1.7127
  332TMC3    H2 4989   3.346   3.451  12.475  0.5558  0.5870 -1.0888
  332TMC3    C7 4990   3.279   3.222  12.617  0.0579  0.7368 -0.2466
  332TMC3    C8 4991   3.226   3.570  12.294  0.0121  0.5394  0.1861
  332TMC3    O1 4992   3.214   3.142  12.680 -0.5548 -0.1390 -0.7008
  332TMC3    O2 4993   3.331   3.609  12.340  0.2022  0.3228 -0.2279
  333MPD2     C 4994   2.943   4.200  11.275 -0.2354  0.0432 -0.2765
  333MPD2    C1 4995   3.057   4.154  11.211 -0.6325 -0.5273 -0.0079
  333MPD2    C2 4996   3.097   4.023  11.233 -0.9507 -0.5384  0.4278
  333MPD2    C3 4997   3.013   3.936  11.308 -0.4115 -0.0763 -0.8226
  333MPD2    C4 4998   2.892   3.979  11.356  0.7327  0.2981  0.5953
  333MPD2    C5 4999   2.869   4.113  11.355  0.0795  0.0090 -0.3444
  333MPD2     H 5000   3.191   3.985  11.194 -1.0908 -3.3329  2.8019
  333MPD2    H1 5001   2.813   3.917  11.396  0.2454 -0.9355 -2.2335
  333MPD2    H2 5002   2.917   4.304  11.261 -0.3088  0.3158  1.8728
  333MPD2    H3 5003   2.782   4.165  11.393 -1.3906 -1.1999 -2.0733
  333MPD2     N 5004   3.039   3.798  11.326 -0.6963 -0.6728  0.2989
  333MPD2    H5 5005   3.120   3.760  11.278  0.0001  1.3071 -0.0809
  333MPD2    N1 5006   3.145   4.245  11.146  0.2412  0.1740 -0.6730
  333MPD2    H7 5007   3.117   4.342  11.140  1.5279  0.6402  0.8968
  334TMC3    C1 5008   3.320   4.319  11.009 -0.8990  0.1091 -0.3116
  334TMC3    C2 5009   3.371   4.301  10.884 -0.0307  0.1086 -0.0040
  334TMC3    C3 5010   3.408   4.419  10.823 -0.6949 -0.9414  0.0659
  334TMC3    C4 5011   3.330   4.437  11.076  0.1669 -0.6092  0.8426
  334TMC3    C5 5012   3.392   4.547  11.018  0.1427  0.2532 -0.0512
  334TMC3    C6 5013   3.438   4.541  10.888  0.2680 -0.2314 -0.3433
  334TMC3     C 5014   3.250   4.207  11.063 -0.0308  0.2141  0.3115
  334TMC3     O 5015   3.263   4.095  11.008  0.0027  0.3125 -0.1896
  334TMC3     H 5016   3.352   4.208  10.832 -0.9250  1.1411 -1.5134
  334TMC3    H1 5017   3.305   4.438  11.182 -0.9531 -0.4829  0.5733
  334TMC3    H2 5018   3.466   4.630  10.831  1.1606 -0.8997 -0.9499
  334TMC3    C7 5019   3.393   4.676  11.091  0.4298 -0.2124  0.3944
  334TMC3    C8 5020   3.464   4.392  10.699 -0.1091 -0.0948 -0.1810
  334TMC3    O1 5021   3.482   0.029  11.052 -0.4909 -0.0377  0.7424
  334TMC3    O2 5022   3.431   4.289  10.640 -0.0747 -0.7002 -0.1663
  335TMC3    C1 5023   3.569   0.762  17.539  0.1514 -0.1897  0.0139
  335TMC3    C2 5024   3.480   0.723  17.440 -0.1896 -0.4540 -0.3716
  335TMC3    C3 5025   3.526   0.737  17.315 -0.1504  0.3068 -0.1913
  335TMC3    C4 5026   3.694   0.808  17.513  0.0709 -0.2464  0.1683
  335TMC3    C5 5027   3.732   0.811  17.384 -0.8583  0.5480  0.0798
  335TMC3    C6 5028   3.648   0.777  17.283 -0.2843 -0.3699  0.5746
  335TMC3     C 5029   3.515   0.788  17.668  0.5800  0.1080  0.0958
  335TMC3     O 5030   3.398   0.750  17.682 -0.6044 -0.3342  0.3033
  335TMC3     H 5031   3.378   0.709  17.471 -0.2521  2.8197  0.8841
  335TMC3    H1 5032   3.773   0.819  17.587 -1.5885  0.8684  1.7795
  335TMC3    H2 5033   3.680   0.792  17.181 -0.0371  1.4414  0.9205
  335TMC3    C7 5034   3.861   0.842  17.334  0.1276  0.0711 -0.6627
  335TMC3    C8 5035   3.438   0.692  17.209  0.2617 -0.3473 -0.5565
  335TMC3    O1 5036   3.899   0.764  17.247  0.2419 -0.6654 -0.0007
  335TMC3    O2 5037   3.468   0.724  17.096 -0.1953  0.1218  0.2915
  336MPD2     C 5038   2.989   3.313  16.186 -0.2296 -0.2081  0.5492
  336MPD2    C1 5039   2.964   3.240  16.078  0.3818 -0.7400 -0.1449
  336MPD2    C2 5040   3.047   3.131  16.049  0.3368 -0.1885  0.3103
  336MPD2    C3 5041   3.157   3.104  16.133 -0.0113  0.9182 -0.7766
  336MPD2    C4 5042   3.167   3.176  16.251 -0.0022 -0.6340 -0.2141
  336MPD2    C5 5043   3.083   3.281  16.275  0.1233  0.0453  0.3819
  336MPD2     H 5044   3.029   3.067  15.963 -2.8137  0.4200  0.5456
  336MPD2    H1 5045   3.243   3.151  16.325 -0.7701 -0.2011  0.7239
  336MPD2    H2 5046   2.924   3.396  16.211  0.5661  0.8063 -0.7316
  336MPD2    H3 5047   3.086   3.331  16.371  0.0299  2.9295 -1.1194
  336MPD2     N 5048   3.241   2.991  16.127  0.0760  0.5307 -0.2093
  336MPD2    H5 5049   3.299   2.976  16.209  0.2824 -1.8688 -0.7735
  336MPD2    N1 5050   2.863   3.280  15.989 -0.5215 -0.4664  0.2262
  336MPD2    H7 5051   2.866   3.233  15.899 -0.1456 -1.0176  0.5262
  337TMC3    C1 5052   2.695   3.432  15.915 -0.3461  0.3403 -0.4613
  337TMC3    C2 5053   2.579   3.381  15.879 -0.1847  0.0216  0.6429
  337TMC3    C3 5054   2.474   3.469  15.866  0.5415 -0.0358  0.0750
  337TMC3    C4 5055   2.722   3.570  15.931  0.1520 -0.2736 -0.7619
  337TMC3    C5 5056   2.618   3.651  15.911  0.7321  0.2073  0.7041
  337TMC3    C6 5057   2.489   3.605  15.881  0.3073  0.3497 -0.6554
  337TMC3     C 5058   2.757   3.367  16.024 -0.5556 -0.9374 -0.7140
  337TMC3     O 5059   2.728   3.399  16.132 -0.1431  0.0563 -0.1692
  337TMC3     H 5060   2.566   3.275  15.894 -0.8458  0.1495  1.0044
  337TMC3    H1 5061   2.822   3.606  15.952 -0.3381  1.1099 -0.7768
  337TMC3    H2 5062   2.405   3.674  15.875  0.5163  0.6337 -0.2802
  337TMC3    C7 5063   2.631   3.784  15.974 -0.0318 -0.2470 -0.8348
  337TMC3    C8 5064   2.341   3.406  15.859 -0.7763 -0.1703  0.8747
  337TMC3    O1 5065   2.530   3.815  16.034 -0.2637 -0.3569 -1.0786
  337TMC3    O2 5066   2.343   3.285  15.868  0.3894  0.0567 -0.8433
  338MPD2     C 5067   4.190   2.743   0.579 -0.0888  0.3447 -0.3014
  338MPD2    C1 5068   4.080   2.671   0.554 -0.3471  0.1146  0.8547
  338MPD2    C2 5069   3.996   2.626   0.657  0.4616 -0.1959 -0.7390
  338MPD2    C3 5070   4.030   2.651   0.784 -0.3068 -0.6715 -0.2967
  338MPD2    C4 5071   4.136   2.729   0.816  0.1781 -0.1370 -0.3628
  338MPD2    C5 5072   4.223   2.771   0.709 -0.0543 -0.0166  0.3901
  338MPD2     H 5073   3.899   2.587   0.630  0.1825  0.9348 -1.3889
  338MPD2    H1 5074   4.167   2.754   0.917 -0.4112 -1.4517  0.1531
  338MPD2    H2 5075   4.259   2.782   0.505  0.0366  2.6952  1.0619
  338MPD2    H3 5076   4.316   2.824   0.726 -0.0858 -0.0115  0.5463
  338MPD2     N 5077   3.938   2.617   0.884 -0.8421 -0.9930 -0.0689
  338MPD2    H5 5078   3.851   2.570   0.861 -1.7878  0.6285  0.2012
  338MPD2    N1 5079   4.035   2.648   0.420 -0.7086 -0.1516 -0.5305
  338MPD2    H7 5080   3.950   2.593   0.407 -1.5789  1.2325 -0.7174
  339TMC3    C1 5081   3.828   2.578   1.082  0.5776 -0.1382 -0.4458
  339TMC3    C2 5082   3.834   2.526   1.210  0.0642  0.0683 -0.0683
  339TMC3    C3 5083   3.716   2.521   1.285  0.8983  0.0539  0.5005
  339TMC3    C4 5084   3.713   2.600   1.013 -0.8140 -0.9372  0.2582
  339TMC3    C5 5085   3.596   2.591   1.086  0.2679  0.4079  0.0078
  339TMC3    C6 5086   3.601   2.562   1.218 -0.1295 -0.0235  0.9876
  339TMC3     C 5087   3.954   2.625   1.021  0.8004 -0.3229  0.0697
  339TMC3     O 5088   4.053   2.638   1.093 -0.5726  0.5986 -0.0764
  339TMC3     H 5089   3.932   2.502   1.249 -0.4381 -1.3292  0.3212
  339TMC3    H1 5090   3.710   2.669   0.930  1.2413 -1.1638 -0.0074
  339TMC3    H2 5091   3.506   2.546   1.269  0.0334 -0.4434  1.1608
  339TMC3    C7 5092   3.480   2.658   1.025 -0.4007  0.1680  0.4138
  339TMC3    C8 5093   3.722   2.483   1.424 -0.5642  0.3751 -0.2770
  339TMC3    O1 5094   3.472   2.657   0.904  0.4252  0.3826  0.2513
  339TMC3    O2 5095   3.823   2.420   1.458 -1.1067 -0.0895 -0.6944
  340MPD2     C 5096   2.922   0.084  10.225 -0.5660  0.6435  0.6539
  340MPD2    C1 5097   3.008   0.109  10.128 -1.0569 -0.3885 -0.1801
  340MPD2    C2 5098   3.117   0.192  10.150  0.2717  0.4127 -0.3936
  340MPD2    C3 5099   3.146   0.239  10.281 -0.9592 -0.1364 -0.1048
  340MPD2    C4 5100   3.056   0.207  10.378 -0.6709 -0.8267 -0.5881
  340MPD2    C5 5101   2.941   0.131  10.354 -0.3545 -0.5863  0.0482
  340MPD2     H 5102   3.182   0.220  10.068 -0.6656  0.4745 -1.1135
  340MPD2    H1 5103   3.062   0.253  10.476  3.3929 -0.1429 -1.1726
  340MPD2    H2 5104   2.840   0.015  10.209 -1.0196  0.8415  2.1067
  340MPD2    H3 5105   2.868   0.108  10.430 -0.2861  1.3352  0.7018
  340MPD2     N 5106   3.247   0.329  10.313 -0.1405  0.3019 -0.2187
  340MPD2    H5 5107   3.267   0.350  10.410  0.4908 -0.9219 -0.0854
  340MPD2    N1 5108   2.975   0.060  10.002  0.5964  0.0202 -0.1129
  340MPD2    H7 5109   2.881   0.022  10.003  0.4545  0.3547 -0.6284
  341TMC3    C1 5110   2.987   0.017   9.768  0.4132 -0.3849 -0.5163
  341TMC3    C2 5111   2.856   4.710   9.768  0.8442 -0.0697  0.0012
  341TMC3    C3 5112   2.809   4.665   9.647 -0.2041 -0.3152  0.0716
  341TMC3    C4 5113   3.067   4.711   9.663 -0.4359  0.1305  1.0674
  341TMC3    C5 5114   3.018   4.673   9.540  0.0303  0.0320  0.8554
  341TMC3    C6 5115   2.880   4.646   9.533 -0.4606  0.1134  0.1169
  341TMC3     C 5116   3.055   0.061   9.889  1.0387  0.3562 -1.2289
  341TMC3     O 5117   3.170   0.092   9.875  0.0351  0.3757 -0.3237
  341TMC3     H 5118   2.788   0.002   9.852  0.5011  1.1485 -0.4642
  341TMC3    H1 5119   3.175   4.719   9.669 -0.2650 -0.5245 -1.2547
  341TMC3    H2 5120   2.833   4.625   9.438  2.0972  0.1524 -1.1639
  341TMC3    C7 5121   3.109   4.671   9.429  0.6223 -0.3671 -0.2490
  341TMC3    C8 5122   2.665   4.635   9.650  0.1885  0.0560  0.2814
  341TMC3    O1 5123   3.226   4.710   9.452 -0.3623  0.0175 -0.2150
  341TMC3    O2 5124   2.633   4.585   9.759 -0.1718 -0.0456 -0.6544
  342MPD2     C 5125   1.612   3.605   0.257  0.2205  0.4136 -0.9422
  342MPD2    C1 5126   1.659   3.655   0.133 -0.3749 -0.0789 -0.7846
  342MPD2    C2 5127   1.619   3.781   0.090  0.4035  0.4121 -0.0120
  342MPD2    C3 5128   1.536   3.856   0.166  0.2962 -0.0756  0.2503
  342MPD2    C4 5129   1.489   3.808   0.280  0.6564  0.1938  0.5082
  342MPD2    C5 5130   1.521   3.682   0.326 -0.6352  0.5976 -0.0395
  342MPD2     H 5131   1.651   3.822  17.681 -2.3193 -0.2143 -1.1818
  342MPD2    H1 5132   1.429   3.863   0.352  1.0046 -0.0623  0.9962
  342MPD2    H2 5133   1.634   3.507   0.296  1.1540  1.4662  1.2159
  342MPD2    H3 5134   1.486   3.657   0.426 -3.0690  2.0410 -0.5573
  342MPD2     N 5135   1.493   3.982   0.142 -0.9675  0.2827 -0.7018
  342MPD2    H5 5136   1.444   4.031   0.215 -0.0521 -2.3777  1.7064
  342MPD2    N1 5137   1.737   3.571   0.046  0.1546  0.0090  0.3207
  342MPD2    H7 5138   1.792   3.617  17.660 -0.2923  1.1213  0.6936
  343TMC3    C1 5139   1.789   3.364  17.631 -0.1342  0.9991 -1.3707
  343TMC3    C2 5140   1.914   3.403  17.578 -0.7594  0.5025 -0.8846
  343TMC3    C3 5141   1.980   3.312  17.500  0.5720  0.1978  0.4316
  343TMC3    C4 5142   1.737   3.237  17.611  0.3193  0.0198  0.9024
  343TMC3    C5 5143   1.807   3.151  17.535  0.6585  1.1736 -0.0434
  343TMC3    C6 5144   1.919   3.190  17.476 -0.4801  0.0900  0.0101
  343TMC3     C 5145   1.730   3.435   0.053 -0.4080 -0.1084  1.1361
  343TMC3     O 5146   1.680   3.361   0.136  0.0449 -0.7890 -0.3794
  343TMC3     H 5147   1.964   3.496  17.603  0.5897 -0.5971  0.4910
  343TMC3    H1 5148   1.653   3.203  17.670 -1.2945  2.0133 -0.2345
  343TMC3    H2 5149   1.964   3.121  17.405  1.9691  1.3119  0.3486
  343TMC3    C7 5150   1.753   3.019  17.512  0.0084  0.2599 -0.6171
  343TMC3    C8 5151   2.121   3.341  17.482  0.3957  0.2246 -0.2133
  343TMC3    O1 5152   1.745   2.974  17.399  0.2750  0.6167 -0.1070
  343TMC3    O2 5153   2.168   3.447  17.527  0.9696 -0.5008 -0.1183
  344MPD2     C 5154   2.163   3.006  10.366  0.3455  0.3689  0.0506
  344MPD2    C1 5155   2.039   3.007  10.307 -0.1011 -0.3442 -0.4741
  344MPD2    C2 5156   2.014   3.085  10.193  0.4102 -0.1306 -0.8194
  344MPD2    C3 5157   2.116   3.178  10.154 -0.8057 -0.0941 -0.0093
  344MPD2    C4 5158   2.241   3.170  10.216  0.2031 -0.3683  0.0570
  344MPD2    C5 5159   2.264   3.086  10.313 -0.8992  0.3726  0.4679
  344MPD2     H 5160   1.922   3.082  10.135  1.2017 -0.2977 -2.0764
  344MPD2    H1 5161   2.325   3.237  10.200  1.5532 -1.6438  1.7111
  344MPD2    H2 5162   2.196   2.929  10.435  1.8355 -0.0006 -1.0658
  344MPD2    H3 5163   2.363   3.070  10.354 -0.0949  2.9321 -0.4729
  344MPD2     N 5164   2.116   3.279  10.060 -0.2529 -0.2576 -0.1453
  344MPD2    H5 5165   2.198   3.338  10.073  0.6080 -0.8642 -2.9472
  344MPD2    N1 5166   1.934   2.932  10.364 -0.1044  0.2631 -1.1432
  344MPD2    H7 5167   1.850   2.913  10.309 -0.8731 -1.9606  0.7838
  345TMC3    C1 5168   2.058   3.465   9.939  0.4372 -0.4516  0.0321
  345TMC3    C2 5169   2.191   3.458   9.905  0.0168  0.2309 -0.2967
  345TMC3    C3 5170   2.269   3.564   9.899 -0.2384 -0.6852 -0.4691
  345TMC3    C4 5171   1.998   3.584   9.968 -0.2872 -0.1824  0.5022
  345TMC3    C5 5172   2.072   3.697   9.964 -0.2992 -0.5675  0.6835
  345TMC3    C6 5173   2.208   3.686   9.929 -0.9532  0.1707 -0.6213
  345TMC3     C 5174   2.013   3.335  10.000 -0.0843  0.1014  0.1521
  345TMC3     O 5175   1.897   3.298   9.993 -0.0746  0.2103 -0.1403
  345TMC3     H 5176   2.236   3.361   9.886 -0.9435  0.0157 -1.4724
  345TMC3    H1 5177   1.892   3.579   9.990 -0.3009  1.4525  0.8157
  345TMC3    H2 5178   2.261   3.780   9.943 -1.3406  0.2199  0.5843
  345TMC3    C7 5179   2.017   3.821  10.003  0.7356 -0.6178  0.2871
  345TMC3    C8 5180   2.384   3.545   9.979 -0.0895  0.1196  0.0451
  345TMC3    O1 5181   2.083   3.919   9.970 -0.3612 -0.3206 -0.2762
  345TMC3    O2 5182   2.379   3.450  10.059 -0.1835 -0.1263  0.0069
  346MPD2     C 5183   2.133   0.327  14.428  0.0303  1.1423 -0.4225
  346MPD2    C1 5184   2.144   0.449  14.354  0.4060  0.3629 -0.4161
  346MPD2    C2 5185   2.194   0.560  14.415  0.1650 -0.1141  0.3757
  346MPD2    C3 5186   2.240   0.566  14.544  0.2405  0.3365  0.6440
  346MPD2    C4 5187   2.206   0.453  14.622 -0.2941 -0.3701  0.0544
  346MPD2    C5 5188   2.154   0.337  14.563 -0.7194 -0.1899 -0.1183
  346MPD2     H 5189   2.211   0.650  14.357  1.2615 -0.5942 -0.0319
  346MPD2    H1 5190   2.220   0.450  14.729 -0.2733 -0.5123  0.0480
  346MPD2    H2 5191   2.120   0.227  14.388  1.0238  1.8966 -2.6273
  346MPD2    H3 5192   2.151   0.252  14.630  1.3437 -0.5168 -0.4548
  346MPD2     N 5193   2.314   0.676  14.586  0.3439 -0.3364 -0.2525
  346MPD2    H5 5194   2.344   0.741  14.515  2.8019 -2.2147 -0.9163
  346MPD2    N1 5195   2.097   0.460  14.222 -0.1755  0.1568 -0.0407
  346MPD2    H7 5196   2.112   0.556  14.191 -1.2138  0.4554  0.3883
  347TMC3    C1 5197   2.452   0.802  14.712  0.3507 -0.1565  0.0178
  347TMC3    C2 5198   2.444   0.902  14.625  0.0567  0.1674 -0.2877
  347TMC3    C3 5199   2.562   0.941  14.564 -0.4060 -0.0089 -0.1063
  347TMC3    C4 5200   2.560   0.780  14.785 -0.0184  0.5953 -0.4429
  347TMC3    C5 5201   2.670   0.827  14.730  0.5064  0.6225  0.0189
  347TMC3    C6 5202   2.685   0.904  14.622  0.2895 -0.2773  0.1618
  347TMC3     C 5203   2.360   0.690  14.715 -0.4800 -0.5318  0.1680
  347TMC3     O 5204   2.354   0.614  14.813  0.1360 -0.2978  0.0946
  347TMC3     H 5205   2.347   0.918  14.578 -0.7564 -3.0599  0.3134
  347TMC3    H1 5206   2.568   0.700  14.857  4.6016  2.3913  1.0349
  347TMC3    H2 5207   2.775   0.935  14.571  0.6799 -0.7880  0.5433
  347TMC3    C7 5208   2.793   0.804  14.801 -0.3692 -0.0647  0.2636
  347TMC3    C8 5209   2.554   0.895  14.427  0.1266 -0.7525 -0.4374
  347TMC3    O1 5210   2.768   0.747  14.907  0.4465  0.4519 -0.2687
  347TMC3    O2 5211   2.464   0.817  14.401 -0.9237  0.2617  0.4044
  348MPD2     C 5212   0.693   4.687  12.092 -0.3170 -0.4970  0.0683
  348MPD2    C1 5213   0.818   4.677  12.039 -0.1026  0.3763  0.0070
  348MPD2    C2 5214   0.848   0.015  11.919 -0.5732 -0.7562  0.1111
  348MPD2    C3 5215   0.742   0.060  11.838 -0.4944 -0.0348  0.4403
  348MPD2    C4 5216   0.615   0.060  11.886 -0.2198 -0.3171 -0.3436
  348MPD2    C5 5217   0.594   0.011  12.010  0.0568 -0.2392  0.9205
  348MPD2     H 5218   0.949   0.009  11.879 -0.2363  1.0023  0.7047
  348MPD2    H1 5219   0.530   0.113  11.845 -0.6641 -0.1423  0.7969
  348MPD2    H2 5220   0.669   4.658  12.194  0.2718 -1.3773 -0.0442
  348MPD2    H3 5221   0.493   0.011  12.047 -0.7568 -2.2440 -1.2751
  348MPD2     N 5222   0.773   0.105  11.713 -0.5577  0.5591  0.2972
  348MPD2    H5 5223   0.871   0.118  11.693 -0.6989  1.1772  0.0149
  348MPD2    N1 5224   0.930   4.626  12.111  0.1828 -0.3638 -0.2648
  348MPD2    H7 5225   1.023   4.640  12.071  0.2534 -0.5611 -0.1712
  349TMC3    C1 5226   1.049   4.485  12.251  0.2894 -0.3033  0.3107
  349TMC3    C2 5227   1.057   4.352  12.274  0.1379 -0.7626  0.1106
  349TMC3    C3 5228   1.186   4.308  12.267 -0.4554 -0.8554 -0.3132
  349TMC3    C4 5229   1.159   4.575  12.222 -0.0572 -0.7241 -0.2143
  349TMC3    C5 5230   1.279   4.518  12.200 -0.4825 -0.2423  0.0572
  349TMC3    C6 5231   1.293   4.385  12.230 -0.5633  0.1273  0.4339
  349TMC3     C 5232   0.925   4.537  12.213  0.0491 -0.2139 -0.3744
  349TMC3     O 5233   0.830   4.470  12.257 -0.5613  0.7854  0.2065
  349TMC3     H 5234   0.972   4.287  12.291  1.4905 -2.7428 -0.7168
  349TMC3    H1 5235   1.139   4.680  12.239 -0.7045 -1.2833  2.5352
  349TMC3    H2 5236   1.388   4.340  12.207  0.0471  1.4961  0.2436
  349TMC3    C7 5237   1.289   4.526  12.056 -0.4501 -0.1773 -0.2064
  349TMC3    C8 5238   1.200   4.165  12.290 -0.3499 -0.1487  0.3654
  349TMC3    O1 5239   1.296   4.423  11.996 -0.1203  0.6406 -0.3177
  349TMC3    O2 5240   1.102   4.122  12.350 -0.2978  0.2939 -0.1322
  350MPD2     C 5241   4.324   2.809  10.079 -0.3447 -0.4663  0.6428
  350MPD2    C1 5242   4.433   2.726  10.111  0.1251  0.6680 -0.1296
  350MPD2    C2 5243   4.560   2.763  10.080 -0.6145 -0.3819 -0.4110
  350MPD2    C3 5244   4.600   2.887  10.032  0.2370 -0.0041  0.0254
  350MPD2    C4 5245   4.500   2.978  10.016  0.6324 -0.5260 -0.1228
  350MPD2    C5 5246   4.375   2.937  10.041 -0.1856 -0.4638  0.2782
  350MPD2     H 5247   4.635   2.689  10.101 -2.1219 -1.1299  2.3387
  350MPD2    H1 5248   4.521   3.079   9.985 -1.3814  1.0124  3.4620
  350MPD2    H2 5249   4.219   2.786  10.091 -0.0335 -1.6732  1.1274
  350MPD2    H3 5250   4.297   3.012  10.030  0.1283  0.1202  2.0999
  350MPD2     N 5251   0.019   2.919  10.012 -0.5044  0.0068 -0.0350
  350MPD2    H5 5252   0.084   2.847  10.040 -0.7755 -0.0451  0.4576
  350MPD2    N1 5253   4.419   2.605  10.177  0.1662 -0.4277  0.5540
  350MPD2    H7 5254   4.506   2.555  10.197  2.0269  2.6779  0.2273
  351TMC3    C1 5255   4.306   2.443  10.309 -0.8021 -1.2971  0.0793
  351TMC3    C2 5256   4.410   2.348  10.281 -0.8569  0.8167  0.1924
  351TMC3    C3 5257   4.419   2.238  10.365 -0.2142  0.6482 -0.1841
  351TMC3    C4 5258   4.216   2.414  10.408 -0.2511 -0.5900 -0.3293
  351TMC3    C5 5259   4.240   2.311  10.498  0.1979  0.3305  0.2117
  351TMC3    C6 5260   4.343   2.226  10.486  1.2301  0.8855 -0.2315
  351TMC3     C 5261   4.297   2.565  10.231 -0.0655 -0.1508  0.3454
  351TMC3     O 5262   4.190   2.622  10.240 -0.3540  0.3273 -0.6271
  351TMC3     H 5263   4.461   2.360  10.187 -0.8775 -1.4016 -0.0973
  351TMC3    H1 5264   4.128   2.475  10.421  1.2832  0.8612  3.2975
  351TMC3    H2 5265   4.348   2.142  10.555 -4.2969  2.2090  1.7830
  351TMC3    C7 5266   4.190   2.333  10.631  0.0504 -0.2937  0.0592
  351TMC3    C8 5267   4.509   2.138  10.315 -0.1857  0.1045 -0.1171
  351TMC3    O1 5268   4.261   2.298  10.720 -0.7046 -0.1459 -0.0506
  351TMC3    O2 5269   4.562   2.166  10.207 -0.2532  0.1003 -0.6102
  352MPD2     C 5270   2.890   0.014   1.492 -0.1176  0.8786  0.1364
  352MPD2    C1 5271   2.966   4.714   1.382  0.3822  0.0187 -0.0853
  352MPD2    C2 5272   3.026   4.583   1.368 -0.3794 -0.2727 -0.4853
  352MPD2    C3 5273   3.011   4.486   1.473  0.1116  0.2441  0.1002
  352MPD2    C4 5274   2.953   4.524   1.593 -0.4644 -0.9581  0.0555
  352MPD2    C5 5275   2.888   4.644   1.592  0.2889  0.2950 -0.5960
  352MPD2     H 5276   3.066   4.556   1.271 -0.9645 -1.7816 -0.3044
  352MPD2    H1 5277   2.956   4.454   1.675 -1.2502 -2.2277 -0.9987
  352MPD2    H2 5278   2.833   0.106   1.500 -0.8020  0.2592  2.4609
  352MPD2    H3 5279   2.833   4.669   1.682  0.2662  2.8582 -1.3452
  352MPD2     N 5280   3.056   4.348   1.455 -0.2767  0.6315  0.8201
  352MPD2    H5 5281   3.024   4.277   1.519 -2.1104 -1.9665 -2.9866
  352MPD2    N1 5282   2.980   0.093   1.283  0.3974 -0.0528  0.9192
  352MPD2    H7 5283   2.909   0.165   1.287  0.8939  0.4460  0.7341
  353TMC3    C1 5284   3.101   4.154   1.351 -0.2019 -0.2529  0.1004
  353TMC3    C2 5285   3.149   4.085   1.457 -0.2473  0.4842  0.8192
  353TMC3    C3 5286   3.133   3.951   1.457  0.8394 -0.2615 -0.5296
  353TMC3    C4 5287   3.030   4.096   1.251 -0.1576  0.4778 -0.1917
  353TMC3    C5 5288   2.988   3.963   1.267 -0.1200  0.1787 -0.2535
  353TMC3    C6 5289   3.054   3.883   1.367 -0.4529 -0.5667 -0.1040
  353TMC3     C 5290   3.119   4.293   1.346  0.1165 -0.8504 -0.4127
  353TMC3     O 5291   3.148   4.343   1.239  0.2892 -0.2146 -0.1330
  353TMC3     H 5292   3.207   4.134   1.534  0.2803 -0.9868  1.3399
  353TMC3    H1 5293   2.986   4.158   1.173  0.4915  2.8199  1.3174
  353TMC3    H2 5294   3.041   3.776   1.367 -0.1775 -0.5972 -1.8117
  353TMC3    C7 5295   2.919   3.905   1.153  0.3092  0.6893 -0.4187
  353TMC3    C8 5296   3.248   3.883   1.510 -0.0571  0.3144  0.0635
  353TMC3    O1 5297   2.935   3.966   1.047 -0.6976 -0.2864 -0.1235
  353TMC3    O2 5298   3.291   3.912   1.621  0.2207 -0.5780  0.3557
  354TMC3    C1 5299   4.597   1.158  13.487  1.7330  0.9152  0.9074
  354TMC3    C2 5300   4.654   1.272  13.536 -0.7961  0.3267  0.5109
  354TMC3    C3 5301   4.610   1.391  13.491 -1.0344 -0.2241 -0.1357
  354TMC3    C4 5302   4.503   1.162  13.388  0.0495  0.4857 -0.0884
  354TMC3    C5 5303   4.443   1.284  13.375  0.5093  0.0101 -0.0263
  354TMC3    C6 5304   4.487   1.397  13.433  0.2438 -0.2277 -0.0184
  354TMC3     C 5305   4.575   1.056  13.586  0.1466 -0.2036  0.2827
  354TMC3     O 5306   4.462   1.004  13.595  0.1686 -0.3586  0.8197
  354TMC3     H 5307   0.018   1.271  13.603 -1.0301 -0.3890  0.8038
  354TMC3    H1 5308   4.454   1.068  13.364  0.8612 -0.6516  2.7346
  354TMC3    H2 5309   4.448   1.488  13.387 -1.0033 -1.0479 -0.5939
  354TMC3    C7 5310   4.412   1.318  13.239  0.1832  1.0977  0.0715
  354TMC3    C8 5311   4.707   1.474  13.414  0.5973  0.1557  0.6688
  354TMC3    O1 5312   4.313   1.385  13.224 -0.5564  0.0294 -0.4344
  354TMC3    O2 5313   4.656   1.578  13.383 -0.2928  0.1903  0.1168
  355MPD2     C 5314   4.646   1.841  11.923  0.3142 -0.2725 -0.5746
  355MPD2    C1 5315   4.685   1.918  11.817  0.2102  0.6101 -0.1377
  355MPD2    C2 5316   0.085   1.984  11.818  0.0462 -0.0098  0.6832
  355MPD2    C3 5317   0.170   1.991  11.925  0.3054 -0.3739 -0.8738
  355MPD2    C4 5318   0.137   1.907  12.029  0.4590 -0.3986  0.6950
  355MPD2    C5 5319   0.021   1.829  12.025  0.0838 -0.3465 -0.2224
  355MPD2     H 5320   0.098   2.056  11.737  2.7090 -0.7536  0.4549
  355MPD2    H1 5321   0.201   1.897  12.116 -0.6153  0.5546  1.5846
  355MPD2    H2 5322   4.551   1.791  11.931 -0.0164  0.1143 -2.1415
  355MPD2    H3 5323   0.005   1.770  12.114  1.7278 -1.5264 -0.7135
  355MPD2     N 5324   0.289   2.069  11.924  0.1245 -0.5234 -0.5756
  355MPD2    H5 5325   0.359   2.045  11.993  0.2338  2.4440  0.3523
  355MPD2    N1 5326   4.590   1.928  11.712  0.0457 -0.1761  0.6280
  355MPD2    H7 5327   4.493   1.919  11.742  0.0924 -1.1314  0.4946
  356TMC3    C1 5328   0.471   2.197  11.837  0.4000  0.8359  0.6410
  356TMC3    C2 5329   0.516   2.253  11.721 -0.3091  0.8296 -0.1464
  356TMC3    C3 5330   0.634   2.316  11.725  0.3417  0.8167  0.7929
  356TMC3    C4 5331   0.515   2.247  11.955  0.1348 -0.2544  0.3036
  356TMC3    C5 5332   0.619   2.337  11.956  0.1313  0.0842 -0.6992
  356TMC3    C6 5333   0.687   2.358  11.841  0.1664  0.0647 -0.4211
  356TMC3     C 5334   0.331   2.150  11.823 -0.0767  0.5482 -0.4395
  356TMC3     O 5335   0.275   2.163  11.716 -0.2472  0.0369  0.4203
  356TMC3     H 5336   0.473   2.218  11.627 -2.6689  4.0799 -0.2546
  356TMC3    H1 5337   0.472   2.212  12.049 -0.9363 -1.4607 -0.6367
  356TMC3    H2 5338   0.784   2.407  11.842 -0.4921  1.3321  0.5405
  356TMC3    C7 5339   0.663   2.403  12.083  0.0897 -0.1893 -0.6397
  356TMC3    C8 5340   0.704   2.312  11.598  0.2078  0.4782  0.4396
  356TMC3    O1 5341   0.615   2.362  12.184 -0.4159  0.1634  0.0552
  356TMC3    O2 5342   0.667   2.233  11.513  0.3100  0.8706  0.0111
  357MPD2     C 5343   0.456   0.723   1.040  0.9014 -0.7403 -0.1223
  357MPD2    C1 5344   0.535   0.770   1.139  0.0969 -0.2599  0.8552
  357MPD2    C2 5345   0.500   0.757   1.275  0.3197  0.3253  0.0801
  357MPD2    C3 5346   0.382   0.688   1.309 -0.3614  0.2982  0.2738
  357MPD2    C4 5347   0.302   0.642   1.209 -0.3725  0.3195 -0.6273
  357MPD2    C5 5348   0.340   0.660   1.079 -0.0151  0.4164  0.3232
  357MPD2     H 5349   0.559   0.806   1.351  2.2574 -1.3293 -0.3821
  357MPD2    H1 5350   0.205   0.595   1.213 -0.6251  1.0030  1.0776
  357MPD2    H2 5351   0.482   0.731   0.935  0.7655 -0.6336 -0.1478
  357MPD2    H3 5352   0.276   0.624   1.000  0.2867 -1.4010  0.9171
  357MPD2     N 5353   0.341   0.666   1.442 -0.2924 -0.0114 -0.7016
  357MPD2    H5 5354   0.263   0.603   1.455  3.1925 -4.1748  0.2281
  357MPD2    N1 5355   0.666   0.817   1.093  0.6574  0.3118 -0.2761
  357MPD2    H7 5356   0.676   0.803   0.993 -2.4158 -0.5039 -0.4652
  358TMC3    C1 5357   0.883   0.906   1.109  0.3145  0.6073  0.5969
  358TMC3    C2 5358   0.888   0.907   0.969 -0.1615 -0.6625 -0.4849
  358TMC3    C3 5359   0.990   0.970   0.903  0.1622  0.1050  0.1383
  358TMC3    C4 5360   0.991   0.958   1.180  0.1483  0.1933 -0.0780
  358TMC3    C5 5361   1.092   1.026   1.113 -0.6499 -0.2424 -0.0969
  358TMC3    C6 5362   1.098   1.027   0.973  0.6603 -0.2922  0.8304
  358TMC3     C 5363   0.761   0.869   1.177 -0.1543 -0.2449  0.1132
  358TMC3     O 5364   0.765   0.837   1.295  0.3820 -0.0685  0.3534
  358TMC3     H 5365   0.804   0.863   0.915 -1.4358 -0.7705  1.5821
  358TMC3    H1 5366   0.989   0.956   1.289 -0.6465  1.8835 -0.0560
  358TMC3    H2 5367   1.169   1.092   0.924 -0.1960  0.7346  0.9635
  358TMC3    C7 5368   1.199   1.089   1.195  0.4746  0.0947  0.2858
  358TMC3    C8 5369   0.998   0.982   0.761  0.1164  0.0114  0.5377
  358TMC3    O1 5370   1.297   1.128   1.133  0.0784  0.3696  0.0900
  358TMC3    O2 5371   1.061   1.077   0.718 -0.3551  0.3965 -0.3855
  359MPD2     C 5372   0.266   1.159  12.070  0.0087 -0.8482  0.8055
  359MPD2    C1 5373   0.301   1.060  11.980 -1.1091 -0.0043  0.1723
  359MPD2    C2 5374   0.207   0.990  11.908  1.3191 -0.0937  0.8420
  359MPD2    C3 5375   0.075   1.030  11.929  0.1000  0.0733 -0.3173
  359MPD2    C4 5376   0.044   1.135  12.011  0.1956  0.6671  0.3105
  359MPD2    C5 5377   0.139   1.192  12.085 -0.1509 -0.5515  0.2368
  359MPD2     H 5378   0.241   0.919  11.834  0.5752  0.7027 -0.2552
  359MPD2    H1 5379   4.665   1.175  12.025 -0.4952 -0.8684 -0.1718
  359MPD2    H2 5380   0.344   1.224  12.110  1.6152 -1.2068 -1.7194
  359MPD2    H3 5381   0.120   1.271  12.157 -1.3683 -0.3654 -0.2849
  359MPD2     N 5382   4.680   0.978  11.861 -0.3425  0.0622 -0.6316
  359MPD2    H5 5383   4.594   1.029  11.881  0.7782  2.5303 -2.1490
  359MPD2    N1 5384   0.434   1.010  11.974  0.2469 -0.2994  0.1991
  359MPD2    H7 5385   0.447   0.930  11.913  0.9848  0.5561 -0.7921
  360TMC3    C1 5386   0.649   0.935  12.046  0.7776 -0.0991  0.1559
  360TMC3    C2 5387   0.775   0.977  12.094 -0.3305 -0.1122 -0.5001
  360TMC3    C3 5388   0.872   0.881  12.105  0.2591 -0.0647 -0.6167
  360TMC3    C4 5389   0.614   0.800  12.020  0.7358 -0.3675  0.4535
  360TMC3    C5 5390   0.716   0.710  12.043 -0.5183 -0.6993  1.0379
  360TMC3    C6 5391   0.841   0.747  12.081 -0.8804 -0.5405 -0.4003
  360TMC3     C 5392   0.534   1.028  12.066  0.5436 -0.3575  0.1331
  360TMC3     O 5393   0.552   1.113  12.152  0.2401 -0.2053 -0.3157
  360TMC3     H 5394   0.800   1.082  12.089 -0.6736  0.0006  0.2940
  360TMC3    H1 5395   0.512   0.768  12.004  0.7591  0.0488 -0.5807
  360TMC3    H2 5396   0.915   0.669  12.093 -1.3329 -0.8614  0.3126
  360TMC3    C7 5397   0.712   0.600  11.955  0.3740  0.4105  0.0718
  360TMC3    C8 5398   0.997   0.929  12.049  0.1042  0.2095  0.6368
  360TMC3    O1 5399   0.808   0.559  11.891 -0.0923 -0.0905 -0.0606
  360TMC3    O2 5400   1.030   1.045  12.062  0.0353 -0.0985 -0.1398
  361MPD2     C 5401   2.361   4.513  16.729  0.0560  0.1892 -0.2660
  361MPD2    C1 5402   2.417   4.540  16.855  0.5305 -0.7120  0.3415
  361MPD2    C2 5403   2.516   4.455  16.912 -0.1141  0.2491  0.2710
  361MPD2    C3 5404   2.553   4.339  16.848  0.2749  0.5044 -0.5371
  361MPD2    C4 5405   2.498   4.317  16.728  0.1033  0.5767  0.5332
  361MPD2    C5 5406   2.410   4.400  16.667  0.0863 -0.3541 -0.1349
  361MPD2     H 5407   2.552   4.475  17.012  2.9808 -1.9364 -0.3974
  361MPD2    H1 5408   2.533   4.231  16.672  1.4707  0.6903  1.1957
  361MPD2    H2 5409   2.285   4.569  16.675  0.7845  1.6536  0.2228
  361MPD2    H3 5410   2.376   4.380  16.566  1.5110 -0.2138 -0.6339
  361MPD2     N 5411   2.644   4.245  16.897 -0.7216 -0.0606 -0.0675
  361MPD2    H5 5412   2.639   4.152  16.856 -1.5625 -0.0949  0.1061
  361MPD2    N1 5413   2.351   4.651  16.913 -0.3527 -0.6580 -0.0683
  361MPD2    H7 5414   2.277   4.690  16.857 -0.3994 -1.5061 -0.5914
  362TMC3    C1 5415   2.262   0.054  17.083  0.3263  0.1126  0.4682
  362TMC3    C2 5416   2.197   0.036  17.200 -0.4767 -0.2960 -0.3019
  362TMC3    C3 5417   2.125   0.141  17.244 -0.7845 -0.4986 -0.3196
  362TMC3    C4 5418   2.235   0.153  16.991 -0.8353 -0.7110 -0.0007
  362TMC3    C5 5419   2.140   0.247  17.037 -0.1228 -0.8090  0.3356
  362TMC3    C6 5420   2.092   0.246  17.172 -0.3171 -0.1877 -0.3990
  362TMC3     C 5421   2.364   4.684  17.047 -0.4222 -0.4170  0.4202
  362TMC3     O 5422   2.441   4.649  17.135  0.1591  0.3227  0.0667
  362TMC3     H 5423   2.233   4.682  17.271  0.3980 -0.3785 -0.8252
  362TMC3    H1 5424   2.286   0.175  16.898  1.0709 -2.6070  0.5933
  362TMC3    H2 5425   2.033   0.329  17.207 -0.6745  0.4215 -2.4400
  362TMC3    C7 5426   2.105   0.359  16.954  0.8585  0.5043  0.2305
  362TMC3    C8 5427   2.162   0.176  17.376 -0.0120 -0.5506  0.5200
  362TMC3    O1 5428   2.061   0.454  17.019 -0.2275 -0.4691  0.4223
  362TMC3    O2 5429   2.273   0.135  17.410  0.1064  0.7037 -0.4314
  363TMC3    C1 5430   0.365   1.933   9.188 -0.0684  0.1413  0.3609
  363TMC3    C2 5431   0.443   1.908   9.305  0.3920 -0.9751  0.4319
  363TMC3    C3 5432   0.462   2.019   9.374  0.0680  0.0863  0.4871
  363TMC3    C4 5433   0.340   2.050   9.125  0.2335  0.0770 -0.1784
  363TMC3    C5 5434   0.364   2.157   9.202  0.4272 -0.3098  0.0123
  363TMC3    C6 5435   0.423   2.148   9.330 -0.7105 -0.7482 -0.2303
  363TMC3     C 5436   0.339   1.821   9.101  0.1911 -0.3677 -0.0849
  363TMC3     O 5437   0.236   1.832   9.033  0.1100  0.3310 -0.3792
  363TMC3     H 5438   0.459   1.809   9.348 -0.8073 -0.8922  1.0712
  363TMC3    H1 5439   0.295   2.051   9.026  1.4525 -0.8763 -0.7499
  363TMC3    H2 5440   0.423   2.238   9.390 -1.4883 -0.2960 -0.9123
  363TMC3    C7 5441   0.273   2.275   9.186  0.5523 -0.3750 -0.2629
  363TMC3    C8 5442   0.520   2.014   9.511 -0.2451  0.1733  0.1872
  363TMC3    O1 5443   0.255   2.338   9.286 -0.1197  0.6178  0.6792
  363TMC3    O2 5444   0.499   2.103   9.596  0.4700  0.9342  0.2124
  364MPD2     C 5445   3.804   1.258  10.499 -0.1356 -0.6540 -0.3885
  364MPD2    C1 5446   3.941   1.248  10.489 -0.0802 -0.5363 -0.2774
  364MPD2    C2 5447   4.007   1.140  10.547 -0.3777 -0.4593 -0.3898
  364MPD2    C3 5448   3.934   1.045  10.621 -0.0917 -0.0728  0.4113
  364MPD2    C4 5449   3.800   1.068  10.633  0.3785  1.4796  0.5258
  364MPD2    C5 5450   3.737   1.172  10.574 -0.2052 -0.4253 -0.1180
  364MPD2     H 5451   4.115   1.131  10.539 -0.2143  0.1309  0.9938
  364MPD2    H1 5452   3.743   1.001  10.697 -2.6312  1.9372 -1.7024
  364MPD2    H2 5453   3.753   1.338  10.446 -0.2137 -0.2525  0.2837
  364MPD2    H3 5454   3.629   1.175  10.582 -0.2493  1.5259 -1.4063
  364MPD2     N 5455   3.985   0.944  10.701 -0.2538  0.2952 -0.0019
  364MPD2    H5 5456   3.930   0.893  10.769 -1.4202 -0.2645 -1.3744
  364MPD2    N1 5457   4.005   1.355  10.434 -0.0652  0.0459  0.3932
  364MPD2    H7 5458   3.941   1.430  10.408  1.1684  0.4468 -1.4976
  365TMC3    C1 5459   4.191   1.493  10.376  0.0647 -0.7826  0.4737
  365TMC3    C2 5460   4.289   1.515  10.286 -0.2714 -0.2146 -0.9176
  365TMC3    C3 5461   4.340   1.639  10.272 -0.4393 -0.1272  0.6112
  365TMC3    C4 5462   4.127   1.590  10.447 -0.4474  0.3132  0.3265
  365TMC3    C5 5463   4.178   1.716  10.421  0.1613  0.6376  0.8263
  365TMC3    C6 5464   4.276   1.743  10.330 -0.5428 -0.6417  0.0072
  365TMC3     C 5465   4.143   1.358  10.397 -0.7457  0.3282 -0.2831
  365TMC3     O 5466   4.220   1.267  10.381  0.6445  0.6031 -0.0749
  365TMC3     H 5467   4.331   1.434  10.226 -0.5687 -1.7452  0.9374
  365TMC3    H1 5468   4.047   1.579  10.518  0.1998 -1.7459  0.7261
  365TMC3    H2 5469   4.319   1.842  10.324  0.0337 -0.9833 -1.4952
  365TMC3    C7 5470   4.161   1.817  10.523 -0.4371 -0.3112  0.4110
  365TMC3    C8 5471   4.414   1.676  10.153 -0.2054 -0.1145  0.2940
  365TMC3    O1 5472   4.172   1.932  10.485 -0.1147  0.7500  0.6877
  365TMC3    O2 5473   4.364   1.775  10.098 -0.2346  0.9676  0.4003
  366MPD2     C 5474   2.906   2.090  15.351  0.0230 -0.5132 -0.1999
  366MPD2    C1 5475   2.885   2.228  15.343  0.8898  0.4891  0.5536
  366MPD2    C2 5476   2.952   2.302  15.249  0.3509  1.0300  0.8783
  366MPD2    C3 5477   3.031   2.238  15.153 -0.1389 -0.1673 -0.3807
  366MPD2    C4 5478   3.039   2.103  15.156  0.0307 -0.6754 -0.5994
  366MPD2    C5 5479   2.983   2.032  15.258 -0.1773 -0.0894  0.2855
  366MPD2     H 5480   2.932   2.408  15.250 -1.6241  0.6527 -0.3691
  366MPD2    H1 5481   3.097   2.045  15.085  0.7805  0.3826 -0.8486
  366MPD2    H2 5482   2.869   2.019  15.424  0.4249  1.4534  1.9376
  366MPD2    H3 5483   2.999   1.925  15.268 -1.4359 -0.2721  0.3905
  366MPD2     N 5484   3.098   2.324  15.060  0.2178 -0.2176 -0.2965
  366MPD2    H5 5485   3.067   2.421  15.065  0.6087 -0.1078  0.0530
  366MPD2    N1 5486   2.817   2.294  15.442 -0.4148 -0.0465  0.0248
  366MPD2    H7 5487   2.832   2.394  15.437  0.3309 -0.0850  1.4296
  367TMC3    C1 5488   2.666   2.355  15.621  0.0424  0.2687  0.2076
  367TMC3    C2 5489   2.759   2.462  15.640 -0.6131  0.9374  0.8460
  367TMC3    C3 5490   2.707   2.584  15.672  0.1976 -0.0485 -0.1135
  367TMC3    C4 5491   2.527   2.374  15.625  0.1237  0.2274  0.1856
  367TMC3    C5 5492   2.488   2.498  15.659  0.3553  0.2082  0.1286
  367TMC3    C6 5493   2.570   2.604  15.680 -0.2681 -0.4505 -0.8565
  367TMC3     C 5494   2.726   2.249  15.540  0.6626  0.1520 -0.1084
  367TMC3     O 5495   2.685   2.137  15.557 -0.2405 -0.1382 -0.7769
  367TMC3     H 5496   2.867   2.453  15.650 -0.6552  1.0515  1.4008
  367TMC3    H1 5497   2.465   2.285  15.621 -1.2216  1.0864  2.5597
  367TMC3    H2 5498   2.526   2.700  15.706 -0.9925 -0.8992 -0.4178
  367TMC3    C7 5499   2.347   2.515  15.682 -0.7693 -0.4876 -0.0774
  367TMC3    C8 5500   2.797   2.682  15.713  0.1229  0.1974  0.5161
  367TMC3    O1 5501   2.305   2.592  15.764  0.2208 -0.1082 -0.7766
  367TMC3    O2 5502   2.905   2.638  15.745 -0.2425  0.1256 -0.5835
  368MPD2     C 5503   3.653   4.705  13.037 -0.2381 -0.0020  0.2489
  368MPD2    C1 5504   3.602   0.100  12.972 -0.6159 -0.1218  0.0014
  368MPD2    C2 5505   3.693   0.179  12.901  0.0916  0.5292 -0.1733
  368MPD2    C3 5506   3.825   0.145  12.886 -0.3354  0.6741  0.0467
  368MPD2    C4 5507   3.872   0.029  12.945  0.3656  0.7982  0.0659
  368MPD2    C5 5508   3.789   4.674  13.022  0.1659 -0.0067  0.5807
  368MPD2     H 5509   3.656   0.264  12.845 -0.0148  1.3214  1.0794
  368MPD2    H1 5510   3.979   0.009  12.944  0.2795  0.3796 -0.6473
  368MPD2    H2 5511   3.587   4.644  13.097  0.7525 -0.8674  0.4450
  368MPD2    H3 5512   3.830   4.592  13.080  0.0886 -1.8490 -1.9765
  368MPD2     N 5513   3.921   0.212  12.802  0.3141 -0.5853 -0.0729
  368MPD2    H5 5514   4.014   0.171  12.798  1.2936  1.6195  0.0915
  368MPD2    N1 5515   3.465   0.135  12.985 -0.0861 -0.5017  0.4879
  368MPD2    H7 5516   3.405   0.066  13.031  1.0455 -0.6067  1.7906
  369TMC3    C1 5517   3.265   0.270  12.934 -0.2990 -0.1650  0.6701
  369TMC3    C2 5518   3.229   0.345  12.826  0.1245  0.2421 -0.1309
  369TMC3    C3 5519   3.153   0.287  12.727 -0.3503 -0.0986 -0.3962
  369TMC3    C4 5520   3.200   0.156  12.958  0.2153  0.0617 -0.7381
  369TMC3    C5 5521   3.098   0.114  12.876  0.2092  0.5414 -0.5223
  369TMC3    C6 5522   3.074   0.178  12.758 -0.0563  0.6433  0.1180
  369TMC3     C 5523   3.411   0.256  12.944 -0.1830  0.2954  0.2179
  369TMC3     O 5524   3.462   0.352  12.891 -0.0720  0.1350  0.1672
  369TMC3     H 5525   3.289   0.431  12.798 -1.2454  1.6837  1.3504
  369TMC3    H1 5526   3.206   0.107  13.054  2.4128 -0.0365 -0.9285
  369TMC3    H2 5527   3.025   0.125  12.676  0.2521  1.7473 -0.7775
  369TMC3    C7 5528   2.975   0.071  12.951 -0.1724 -0.6383  0.3167
  369TMC3    C8 5529   3.222   0.265  12.597  0.3213  0.0961  0.5315
  369TMC3    O1 5530   2.989   0.009  13.057  0.7723 -0.0546  0.3244
  369TMC3    O2 5531   3.157   0.216  12.508 -0.5123  0.3204 -0.2554
  370TMC3    C1 5532   3.457   0.242  16.276 -0.2554 -0.6285  0.0118
  370TMC3    C2 5533   3.382   0.202  16.380 -1.0152 -0.2605 -0.4428
  370TMC3    C3 5534   3.277   0.117  16.356 -0.9833  0.7506 -0.0035
  370TMC3    C4 5535   3.431   0.194  16.146  0.5884 -0.4867  0.9315
  370TMC3    C5 5536   3.328   0.106  16.121 -0.3347 -0.3777 -0.9317
  370TMC3    C6 5537   3.245   0.073  16.231  0.4252  0.4675 -0.3671
  370TMC3     C 5538   3.571   0.334  16.308 -0.0107  0.1411  0.7848
  370TMC3     O 5539   3.613   0.342  16.424 -0.5951 -0.1659  0.0417
  370TMC3     H 5540   3.415   0.227  16.481  1.0430  1.6783 -1.5914
  370TMC3    H1 5541   3.489   0.237  16.065 -2.5290  0.1887 -0.9610
  370TMC3    H2 5542   3.173   4.713  16.228  1.6647 -0.6450 -0.4889
  370TMC3    C7 5543   3.363   0.004  16.030 -0.1734  0.2687 -0.6259
  370TMC3    C8 5544   3.236   0.036  16.469  0.0364 -0.0699  0.4078
  370TMC3    O1 5545   3.459   0.019  15.957 -0.1605  0.1177  0.5099
  370TMC3    O2 5546   3.226   4.637  16.440 -1.0217 -0.6298  0.0384
  371TMC3    C1 5547   0.074   3.304  15.247  0.0091 -0.4576 -0.3456
  371TMC3    C2 5548   4.711   3.333  15.349 -0.1309  0.4333  0.8340
  371TMC3    C3 5549   4.653   3.459  15.359  0.3426  0.4267 -0.1516
  371TMC3    C4 5550   0.112   3.396  15.149  0.2182  1.1622  0.0177
  371TMC3    C5 5551   0.049   3.522  15.157  0.2753 -0.1632 -0.1775
  371TMC3    C6 5552   4.682   3.552  15.264 -0.2834 -0.0547 -1.0090
  371TMC3     C 5553   0.131   3.169  15.234 -0.1082 -1.0687 -0.6794
  371TMC3     O 5554   0.209   3.156  15.140 -0.2742  0.1756  0.4717
  371TMC3     H 5555   4.693   3.260  15.427 -0.2281 -0.3827  0.0506
  371TMC3    H1 5556   0.176   3.371  15.066 -0.1135 -2.8578  0.9291
  371TMC3    H2 5557   4.625   3.644  15.256 -0.2550  0.3090  2.5952
  371TMC3    C7 5558   0.019   3.599  15.031 -0.2150 -0.2767 -0.7130
  371TMC3    C8 5559   4.538   3.480  15.452 -0.6083 -0.5619 -0.1716
  371TMC3    O1 5560   4.656   3.687  15.041 -0.9079  0.1904 -0.2205
  371TMC3    O2 5561   4.529   3.386  15.529  0.0809  0.1064  0.3993
  372MPD2     C 5562   4.121   0.412  13.174  0.0921  0.5270  0.0654
  372MPD2    C1 5563   4.169   0.301  13.245 -0.8600 -0.2338 -0.3083
  372MPD2    C2 5564   4.085   0.202  13.285  0.0035 -0.6120 -0.4528
  372MPD2    C3 5565   3.950   0.228  13.278 -0.3999 -0.0584 -1.0871
  372MPD2    C4 5566   3.900   0.328  13.192  0.2963  0.0964 -0.0656
  372MPD2    C5 5567   3.987   0.420  13.149 -0.1805  0.1518  0.3945
  372MPD2     H 5568   4.116   0.116  13.344  2.8146  0.5763 -0.2159
  372MPD2    H1 5569   3.798   0.341  13.159 -0.1266 -0.3334  1.0882
  372MPD2    H2 5570   4.176   0.494  13.128 -0.0803  0.3414 -0.4695
  372MPD2    H3 5571   3.954   0.501  13.085  0.6367 -0.1425 -0.4045
  372MPD2     N 5572   3.859   0.140  13.345 -0.5528 -0.0061  0.4395
  372MPD2    H5 5573   3.902   0.053  13.376  2.1202  1.6533  1.4408
  372MPD2    N1 5574   4.306   0.292  13.269  0.5077 -0.2301  0.0951
  372MPD2    H7 5575   4.331   0.224  13.339 -1.4165 -1.2980 -0.2537
  373TMC3    C1 5576   3.650   0.050  13.378 -0.5652 -1.1250 -0.0040
  373TMC3    C2 5577   3.521   0.067  13.415 -0.0144 -0.5140  0.1868
  373TMC3    C3 5578   3.452   4.680  13.447  0.0038  0.3596 -0.6533
  373TMC3    C4 5579   3.709   4.650  13.375  0.3469 -0.4186  0.0729
  373TMC3    C5 5580   3.631   4.542  13.396 -0.3413 -0.6082  0.2438
  373TMC3    C6 5581   3.504   4.554  13.439 -0.3284  0.6861  0.0683
  373TMC3     C 5582   3.733   0.167  13.377 -0.1558  0.1770  0.5959
  373TMC3     O 5583   3.671   0.273  13.368  0.4571  0.2678  0.0112
  373TMC3     H 5584   3.475   0.165  13.404 -0.7238 -0.9686 -0.8186
  373TMC3    H1 5585   3.803   4.625  13.327 -0.4857  0.2557 -1.9398
  373TMC3    H2 5586   3.451   4.459  13.444  0.1217  0.3761 -1.2215
  373TMC3    C7 5587   3.700   4.416  13.408  1.2055  0.6857  0.8434
  373TMC3    C8 5588   3.307   4.679  13.463  0.6734 -0.4994  0.5309
  373TMC3    O1 5589   3.802   4.398  13.338 -0.3778  0.1215 -0.1761
  373TMC3    O2 5590   3.256   0.013  13.367  0.2725 -0.6292 -0.3449
  374TMC3    C1 5591   4.479   4.462   9.670 -0.6229  0.3454 -0.0653
  374TMC3    C2 5592   4.606   4.518   9.673 -0.0488  0.0939 -0.2292
  374TMC3    C3 5593   4.670   4.556   9.558  0.2801 -0.3805  0.6232
  374TMC3    C4 5594   4.411   4.432   9.553 -0.2048 -0.2909 -0.0753
  374TMC3    C5 5595   4.481   4.459   9.441 -0.4104 -0.7976  0.0960
  374TMC3    C6 5596   4.599   4.527   9.442 -0.0620  0.3461 -0.4729
  374TMC3     C 5597   4.442   4.398   9.793 -0.7595 -0.2810 -0.4696
  374TMC3     O 5598   4.489   4.434   9.897  0.1853 -0.8242 -0.2718
  374TMC3     H 5599   4.666   4.525   9.763 -1.8656 -1.6565  1.1267
  374TMC3    H1 5600   4.307   4.402   9.552 -0.8336  1.8024  0.8804
  374TMC3    H2 5601   4.623   4.579   9.350 -0.1548 -0.9321 -1.2068
  374TMC3    C7 5602   4.423   4.448   9.306 -0.1282 -0.4559 -0.4068
  374TMC3    C8 5603   0.031   4.674   9.560  0.3718 -0.0205  0.2367
  374TMC3    O1 5604   4.494   4.478   9.209 -0.2236  0.0226 -0.3577
  374TMC3    O2 5605   0.062   4.719   9.450  0.3501 -0.0277 -0.0972
  375MPD2     C 5606   0.320   0.413  16.960  0.5405  0.2161  0.0150
  375MPD2    C1 5607   0.226   0.432  16.858  0.4333  0.3371  0.3512
  375MPD2    C2 5608   0.233   0.370  16.732  0.1688  0.6332  0.9820
  375MPD2    C3 5609   0.336   0.277  16.717 -0.4583 -0.4331 -0.3916
  375MPD2    C4 5610   0.430   0.262  16.818 -0.3614 -0.2763 -0.2019
  375MPD2    C5 5611   0.417   0.326  16.938  0.2173 -0.0373 -1.0909
  375MPD2     H 5612   0.164   0.399  16.653 -1.0561 -0.8540  1.5238
  375MPD2    H1 5613   0.518   0.201  16.803 -0.3318 -0.4308  0.5932
  375MPD2    H2 5614   0.324   0.468  17.053  2.1381  0.5004 -0.2164
  375MPD2    H3 5615   0.493   0.314  17.014 -0.5854 -0.5273 -0.3707
  375MPD2     N 5616   0.367   0.213  16.596 -0.2610 -0.1056  0.3733
  375MPD2    H5 5617   0.461   0.175  16.592 -1.2511 -2.1593 -2.8133
  375MPD2    N1 5618   0.117   0.520  16.868  0.1772 -0.5862 -0.1452
  375MPD2    H7 5619   0.054   0.522  16.788 -0.6411  0.3660  0.5260
  376TMC3    C1 5620   0.362   0.198  16.354  0.9383 -0.3623 -0.7175
  376TMC3    C2 5621   0.496   0.226  16.351 -0.6508  0.3426 -0.3995
  376TMC3    C3 5622   0.551   0.240  16.230  0.0388  0.0301 -0.3589
  376TMC3    C4 5623   0.281   0.184  16.244  0.0954  0.2705  0.2705
  376TMC3    C5 5624   0.346   0.190  16.123 -0.6224 -0.2612  0.5581
  376TMC3    C6 5625   0.479   0.212  16.114 -0.2610  0.8879  0.3179
  376TMC3     C 5626   0.288   0.218  16.482  0.0504  0.6220  0.1282
  376TMC3     O 5627   0.169   0.248  16.466 -0.5319 -0.2559  0.3874
  376TMC3     H 5628   0.554   0.259  16.437  2.0090 -0.0272 -2.0336
  376TMC3    H1 5629   0.176   0.154  16.247 -0.0549  0.7092 -0.4921
  376TMC3    H2 5630   0.519   0.243  16.019  1.4410 -0.9690  0.4180
  376TMC3    C7 5631   0.274   0.238  16.013 -0.3254  0.3249 -0.6534
  376TMC3    C8 5632   0.691   0.278  16.208 -0.1917  0.4294 -0.2851
  376TMC3    O1 5633   0.330   0.246  15.907 -0.0131  0.0873 -0.0388
  376TMC3    O2 5634   0.729   0.312  16.100  0.0555 -0.5106 -0.1622
  377MPD2     C 5635   2.004   0.303  12.293  0.7389 -0.0975  0.2925
  377MPD2    C1 5636   2.057   0.243  12.410 -0.1330 -0.2114 -0.0351
  377MPD2    C2 5637   1.979   0.251  12.524 -0.2862  0.9179  0.1200
  377MPD2    C3 5638   1.855   0.310  12.525 -0.4761  0.8094 -0.3927
  377MPD2    C4 5639   1.814   0.378  12.415 -0.0656  0.5312 -0.0533
  377MPD2    C5 5640   1.884   0.371  12.297  0.5608  0.3943 -0.2663
  377MPD2     H 5641   2.017   0.199  12.612 -0.7849 -0.7591 -0.6554
  377MPD2    H1 5642   1.725   0.439  12.405  0.9102  1.6657 -2.0212
  377MPD2    H2 5643   2.051   0.296  12.196  0.3368 -0.4576  0.1269
  377MPD2    H3 5644   1.847   0.415  12.205 -2.2192 -0.5380  0.4038
  377MPD2     N 5645   1.770   0.293  12.635  0.5151  0.1754 -0.3035
  377MPD2    H5 5646   1.677   0.334  12.628  0.3421 -0.4180 -1.3599
  377MPD2    N1 5647   2.182   0.182  12.399 -0.2793  0.2752 -0.4972
  377MPD2    H7 5648   2.218   0.179  12.305 -0.0452 -1.3528 -0.3656
  378TMC3    C1 5649   2.534   4.688  12.298 -0.1467  0.1191  0.0301
  378TMC3    C2 5650   2.413   0.035  12.314 -0.8910  0.3995 -0.2558
  378TMC3    C3 5651   2.352   0.015  12.432  0.1278 -0.2803  0.1805
  378TMC3    C4 5652   2.602   4.605  12.389 -0.1704 -1.0095 -0.5708
  378TMC3    C5 5653   2.540   4.594  12.506 -0.8744 -0.3138 -0.1200
  378TMC3    C6 5654   2.411   4.648  12.521  0.0716 -0.1801 -0.8267
  378TMC3     C 5655   2.589   4.688  12.158  0.0002 -0.1044  0.5197
  378TMC3     O 5656   2.520   0.013  12.070  0.5878 -0.1726  0.0257
  378TMC3     H 5657   2.393   0.105  12.234 -0.2665  2.7160  1.6154
  378TMC3    H1 5658   2.693   4.551  12.364  0.9736  1.0987 -0.9027
  378TMC3    H2 5659   2.377   4.645  12.624  2.4528  0.3025 -0.0161
  378TMC3    C7 5660   2.592   4.537  12.625 -0.8509 -0.4755  0.7818
  378TMC3    C8 5661   2.251   0.106  12.490  0.7469 -0.6129  0.2083
  378TMC3    O1 5662   2.521   4.481  12.709 -0.0703  0.1652 -0.2801
  378TMC3    O2 5663   2.224   0.100  12.610 -0.5786 -0.0415  0.5032
  379MPD2     C 5664   3.555   3.019  16.158  0.3870  0.4989 -0.3133
  379MPD2    C1 5665   3.611   2.967  16.045  0.3841  0.8746  0.0803
  379MPD2    C2 5666   3.693   2.859  16.048  0.4848 -0.2492 -0.1504
  379MPD2    C3 5667   3.719   2.803  16.173 -0.1852  0.1971 -0.7293
  379MPD2    C4 5668   3.667   2.855  16.288 -0.1957  0.3474 -0.6446
  379MPD2    C5 5669   3.580   2.964  16.281  0.7287 -0.1479 -0.5602
  379MPD2     H 5670   3.737   2.810  15.962  1.8984  1.4313 -0.3792
  379MPD2    H1 5671   3.687   2.821  16.389  0.3540 -2.9213 -1.8772
  379MPD2    H2 5672   3.497   3.110  16.164  0.8522  0.9028 -2.1542
  379MPD2    H3 5673   3.526   3.001  16.368  0.8871 -0.1007 -0.4820
  379MPD2     N 5674   3.808   2.696  16.189  0.3713 -0.1076 -0.3552
  379MPD2    H5 5675   3.799   2.662  16.285 -2.9327 -0.6303 -0.8378
  379MPD2    N1 5676   3.570   3.027  15.924  0.3872  0.7051  0.3194
  379MPD2    H7 5677   3.494   3.094  15.938  1.8873  2.1462  1.5754
  380TMC3    C1 5678   3.544   3.090  15.701 -0.2020  0.1302  0.2199
  380TMC3    C2 5679   3.607   3.131  15.588 -0.2095  0.2124  0.2765
  380TMC3    C3 5680   3.521   3.196  15.496 -0.2788 -0.3324  0.7299
  380TMC3    C4 5681   3.413   3.118  15.730  1.0445 -0.4037  0.6027
  380TMC3    C5 5682   3.339   3.192  15.645  0.4112  0.3854  0.6533
  380TMC3    C6 5683   3.391   3.235  15.525 -0.0549  0.0849  0.2749
  380TMC3     C 5684   3.611   3.009  15.796  0.0233 -0.2359 -0.2851
  380TMC3     O 5685   3.711   2.947  15.758  0.1324  0.3173  0.5012
  380TMC3     H 5686   3.709   3.098  15.568  0.7017  1.5523  2.7248
  380TMC3    H1 5687   3.374   3.096  15.828 -0.1787  0.2632  0.2705
  380TMC3    H2 5688   3.334   3.306  15.466  0.8883 -0.5185 -1.3613
  380TMC3    C7 5689   3.199   3.217  15.665 -0.5163  0.3977 -0.0759
  380TMC3    C8 5690   3.576   3.242  15.374 -0.0487 -0.9395 -0.9186
  380TMC3    O1 5691   3.160   3.328  15.636  0.2475 -0.5045 -0.1997
  380TMC3    O2 5692   3.504   3.272  15.278 -0.0456 -0.4505  0.4518
  381TMC3    C1 5693   3.327   3.985  16.273 -0.2782 -0.1823 -0.2683
  381TMC3    C2 5694   3.389   4.098  16.228 -0.5651  0.3026  0.0364
  381TMC3    C3 5695   3.399   4.206  16.310 -0.5338  0.1573  1.0120
  381TMC3    C4 5696   3.260   3.989  16.386  0.0846  0.4240  0.2836
  381TMC3    C5 5697   3.278   4.100  16.466 -0.2133 -0.1269  0.6592
  381TMC3    C6 5698   3.350   4.208  16.434  0.6018  0.4897 -0.2221
  381TMC3     C 5699   3.295   3.878  16.176  0.3236  0.6539  0.1844
  381TMC3     O 5700   3.219   3.786  16.212 -0.4140  0.1937 -0.0367
  381TMC3     H 5701   3.428   4.103  16.127  2.3611 -0.1745  1.1622
  381TMC3    H1 5702   3.202   3.902  16.418 -0.6191  1.3655  1.5840
  381TMC3    H2 5703   3.366   4.290  16.503  1.1584 -0.6257  0.9800
  381TMC3    C7 5704   3.229   4.075  16.599 -0.4177 -0.1387 -0.2065
  381TMC3    C8 5705   3.508   4.296  16.276  0.0622 -0.4331  0.1704
  381TMC3    O1 5706   3.230   3.964  16.649  0.5446 -0.2228 -0.3629
  381TMC3    O2 5707   3.582   4.269  16.182 -0.3627  0.0386  0.3624
  382MPD2     C 5708   2.677   1.884  17.641  0.5806  0.1837 -0.8445
  382MPD2    C1 5709   2.797   1.815  17.658  0.4082  0.3454 -0.3379
  382MPD2    C2 5710   2.794   1.683  17.629  0.0237 -0.2013  0.2716
  382MPD2    C3 5711   2.679   1.618  17.579 -0.1428 -0.6512 -0.0509
  382MPD2    C4 5712   2.577   1.703  17.548 -0.0386 -0.4977 -0.3644
  382MPD2    C5 5713   2.567   1.833  17.585 -0.2488 -0.3420  0.2671
  382MPD2     H 5714   2.879   1.620  17.653  0.1732  0.3024  1.0811
  382MPD2    H1 5715   2.484   1.658  17.516  0.4470  0.3613 -2.9918
  382MPD2    H2 5716   2.681   1.986  17.678  0.9392  0.0137 -0.4084
  382MPD2    H3 5717   2.477   1.892  17.571 -0.2179  0.1933  2.3130
  382MPD2     N 5718   2.674   1.475  17.551  0.0923 -0.0729  0.5138
  382MPD2    H5 5719   2.588   1.443  17.508 -0.6091  0.7599  1.3093
  382MPD2    N1 5720   2.927   1.869   0.015  0.0278  0.3699 -0.1089
  382MPD2    H7 5721   3.004   1.804   0.024  0.6998  1.2501  0.5670
  383TMC3    C1 5722   2.721   1.246  17.571 -0.2820  0.3329  0.0711
  383TMC3    C2 5723   2.653   1.225  17.454 -0.1981  0.1330  0.3690
  383TMC3    C3 5724   2.637   1.096  17.410  0.4087 -0.2034 -0.9546
  383TMC3    C4 5725   2.779   1.142  17.641  0.3780  0.0824  0.0683
  383TMC3    C5 5726   2.754   1.015  17.596  0.1541  0.1377 -0.1097
  383TMC3    C6 5727   2.686   0.989  17.483  0.1085 -0.4035 -0.1160
  383TMC3     C 5728   2.755   1.385  17.617  0.3047  0.2193 -0.2709
  383TMC3     O 5729   2.851   1.405   0.005  0.7971  0.4560 -0.2181
  383TMC3     H 5730   2.608   1.307  17.400 -1.0879 -0.2867  0.4693
  383TMC3    H1 5731   2.839   1.163   0.042 -1.0630  0.3567  0.9900
  383TMC3    H2 5732   2.650   0.888  17.467  1.7160 -0.8637 -0.8121
  383TMC3    C7 5733   2.733   0.917   0.013 -0.0998 -0.1842 -0.1223
  383TMC3    C8 5734   2.509   1.065  17.351  0.9581  0.2363  0.2210
  383TMC3    O1 5735   2.707   0.802  17.665  0.9185  0.6809 -0.5751
  383TMC3    O2 5736   2.411   1.132  17.375 -0.4153 -0.3318 -0.8687
  384MPD2     C 5737   4.330   2.828  12.297  0.6541 -0.1189  0.8241
  384MPD2    C1 5738   4.304   2.726  12.388 -0.2377 -0.2008 -0.7356
  384MPD2    C2 5739   4.285   2.593  12.344 -0.9656 -0.5786  0.2415
  384MPD2    C3 5740   4.289   2.565  12.207  0.1946 -0.3580  0.7414
  384MPD2    C4 5741   4.304   2.669  12.114  0.0875 -0.4828 -0.5048
  384MPD2    C5 5742   4.331   2.798  12.162  0.4153 -0.4452 -0.2569
  384MPD2     H 5743   4.266   2.517  12.419 -1.4334  1.9422  2.6563
  384MPD2    H1 5744   4.306   2.651  12.007  2.1976 -2.7212 -0.0736
  384MPD2    H2 5745   4.346   2.933  12.321  0.5859  0.3550 -1.1240
  384MPD2    H3 5746   4.356   2.871  12.085 -0.9626 -0.7421 -0.9769
  384MPD2     N 5747   4.271   2.430  12.166 -0.2853  0.1616  0.6120
  384MPD2    H5 5748   4.241   2.372  12.244  0.1127  0.3770  0.9265
  384MPD2    N1 5749   4.280   2.738  12.521 -0.1941 -0.2759  0.4623
  384MPD2    H7 5750   4.264   2.649  12.568  1.3882 -0.5208  0.5336
  385TMC3    C1 5751   4.281   2.235  12.053  0.1034  0.0265 -0.0966
  385TMC3    C2 5752   4.181   2.181  11.967 -0.4343  0.2769  0.0436
  385TMC3    C3 5753   4.082   2.103  12.024  0.5790 -0.4566  0.3921
  385TMC3    C4 5754   4.288   2.196  12.187 -0.6461 -0.3481  0.8354
  385TMC3    C5 5755   4.181   2.122  12.237 -1.0901 -0.5736 -0.3850
  385TMC3    C6 5756   4.081   2.076  12.159  0.3778  0.1539 -0.3650
  385TMC3     C 5757   4.286   2.374  12.044  0.6418 -0.5545  0.0238
  385TMC3     O 5758   4.312   2.420  11.935 -0.1350 -0.1517 -0.2884
  385TMC3     H 5759   4.156   2.217  11.867 -0.6569  1.0106  0.3589
  385TMC3    H1 5760   4.370   2.227  12.251  1.8235 -3.0394 -1.0449
  385TMC3    H2 5761   4.018   1.993  12.191  0.3305  0.3074 -0.0589
  385TMC3    C7 5762   4.131   2.168  12.366 -0.6958  0.1727 -0.4655
  385TMC3    C8 5763   3.983   2.040  11.933 -0.0923  0.3412 -0.5059
  385TMC3    O1 5764   4.159   2.288  12.381 -0.2274  0.3759  0.2146
  385TMC3    O2 5765   4.013   2.040  11.815 -0.3994  0.3139  0.2363
  386TMC3    C1 5766   4.564   0.086  11.498 -0.4096  0.3132 -0.2399
  386TMC3    C2 5767   4.536   0.204  11.439  0.6310 -0.9675  0.1572
  386TMC3    C3 5768   4.434   0.208  11.353  0.0528 -0.2148  0.1738
  386TMC3    C4 5769   4.497   4.692  11.482  0.2716  0.7162  0.5569
  386TMC3    C5 5770   4.406   4.694  11.378 -0.3927 -0.4678  1.0628
  386TMC3    C6 5771   4.370   0.091  11.316 -0.3323  0.0897 -0.2891
  386TMC3     C 5772   4.666   0.086  11.602 -0.6038 -0.6109  0.3536
  386TMC3     O 5773   0.031   0.177  11.598  0.9116  0.0320 -0.1014
  386TMC3     H 5774   4.588   0.294  11.470 -0.3937 -0.2338 -0.2528
  386TMC3    H1 5775   4.511   4.598  11.536  0.8902  0.1096 -0.6537
  386TMC3    H2 5776   4.303   0.088  11.231 -1.0139 -0.8782  0.2761
  386TMC3    C7 5777   4.289   4.605  11.396  0.4725 -0.1934  0.1416
  386TMC3    C8 5778   4.345   0.318  11.353  0.0139  0.5543  0.7741
  386TMC3    O1 5779   4.305   4.486  11.396 -0.3321  0.3938  0.4401
  386TMC3    O2 5780   4.236   0.287  11.317 -0.4881  0.1136  0.0049
  387MPD2     C 5781   1.758   0.655  10.050 -0.0095 -0.6111  0.4869
  387MPD2    C1 5782   1.819   0.601  10.160 -0.9165  0.6384 -0.2300
  387MPD2    C2 5783   1.824   0.461  10.175  0.4282  0.9002 -0.1650
  387MPD2    C3 5784   1.773   0.373  10.082  0.0163  0.2219 -0.0095
  387MPD2    C4 5785   1.708   0.423   9.968 -0.6800  0.6087  0.3660
  387MPD2    C5 5786   1.707   0.563   9.954  0.3332  0.3580  0.2040
  387MPD2     H 5787   1.868   0.425  10.268  0.3351  0.7530 -0.1774
  387MPD2    H1 5788   1.658   0.362   9.894 -0.2503  2.0565 -1.1129
  387MPD2    H2 5789   1.741   0.762  10.046 -0.0326 -0.6882 -1.4978
  387MPD2    H3 5790   1.656   0.605   9.868 -0.2251  0.9148  0.8056
  387MPD2     N 5791   1.783   0.241  10.117 -0.1171  0.4204  0.0858
  387MPD2    H5 5792   1.836   0.218  10.201 -0.2246 -0.7334 -0.1629
  387MPD2    N1 5793   1.876   0.678  10.273  0.3220 -0.6244 -0.6759
  387MPD2    H7 5794   1.905   0.620  10.350  0.8983  1.6699  0.8531
  388TMC3    C1 5795   1.984   0.846  10.399  0.0057 -0.5096  0.0201
  388TMC3    C2 5796   2.064   0.955  10.373  0.3929 -0.0381 -0.7072
  388TMC3    C3 5797   2.179   0.958  10.453  0.7024 -0.4683 -0.3779
  388TMC3    C4 5798   2.017   0.748  10.483  0.0335  0.1765 -0.2948
  388TMC3    C5 5799   2.134   0.761  10.554 -0.4516 -0.4187  0.0880
  388TMC3    C6 5800   2.218   0.864  10.539 -0.0265  0.7995  0.2298
  388TMC3     C 5801   1.908   0.810  10.278  0.1619  0.3994  0.0865
  388TMC3     O 5802   1.888   0.890  10.190  0.1734 -0.2394 -0.5755
  388TMC3     H 5803   2.046   1.022  10.289 -0.7975  1.3001  0.6032
  388TMC3    H1 5804   1.958   0.658  10.500  0.1441  0.1044 -0.2898
  388TMC3    H2 5805   2.299   0.874  10.611  2.6670  0.8413 -2.8046
  388TMC3    C7 5806   2.189   0.636  10.613  0.3084  0.5166 -0.3619
  388TMC3    C8 5807   2.285   1.051  10.408  0.2438 -0.6410  0.6973
  388TMC3    O1 5808   2.223   0.636  10.731  0.1249  0.1579 -0.0711
  388TMC3    O2 5809   2.258   1.167  10.374 -0.2913 -0.3021 -0.7691
  389MPD2     C 5810   1.180   3.167  11.043  0.1074 -0.1716  0.0182
  389MPD2    C1 5811   1.120   3.066  10.965  0.1642 -0.1761  0.4959
  389MPD2    C2 5812   1.030   2.985  11.025  0.2624  0.1571 -0.6163
  389MPD2    C3 5813   1.000   2.988  11.157 -0.2015  0.4567  0.1382
  389MPD2    C4 5814   1.071   3.080  11.230 -0.1199 -0.4003  0.0366
  389MPD2    C5 5815   1.155   3.170  11.174 -0.7863 -0.1296 -0.2966
  389MPD2     H 5816   0.970   2.913  10.971 -2.8110  0.8640  1.8249
  389MPD2    H1 5817   1.044   3.096  11.334 -1.9979 -3.7750  0.0973
  389MPD2    H2 5818   1.258   3.229  11.002  0.4247 -2.5508 -3.0503
  389MPD2    H3 5819   1.201   3.246  11.235 -0.7902  0.3290 -0.8647
  389MPD2     N 5820   0.901   2.910  11.217  0.2086 -0.3968  0.0045
  389MPD2    H5 5821   0.889   2.929  11.316 -0.0531  4.2758 -0.9151
  389MPD2    N1 5822   1.134   3.076  10.823  0.0575 -0.0209  0.4392
  389MPD2    H7 5823   1.190   3.151  10.784  1.0459 -2.3414 -2.6372
  390TMC3    C1 5824   0.700   2.800  11.234 -0.3916  0.0215 -0.0101
  390TMC3    C2 5825   0.710   2.807  11.369  0.9247  0.1765 -0.3962
  390TMC3    C3 5826   0.595   2.840  11.442 -0.0887  0.2634  0.1714
  390TMC3    C4 5827   0.584   2.838  11.173 -0.5051  0.6909  0.1577
  390TMC3    C5 5828   0.477   2.877  11.257 -0.5064  0.0948  0.1296
  390TMC3    C6 5829   0.482   2.893  11.393 -0.0060  0.2718  0.3644
  390TMC3     C 5830   0.820   2.816  11.161  0.1189 -0.4785  0.0031
  390TMC3     O 5831   0.822   2.780  11.049  0.7323 -0.1582  0.0393
  390TMC3     H 5832   0.796   2.771  11.425 -0.3356 -1.2111  0.6614
  390TMC3    H1 5833   0.582   2.843  11.064 -1.6579 -1.1529  0.1136
  390TMC3    H2 5834   0.406   2.944  11.452 -1.6243 -1.3685 -0.3198
  390TMC3    C7 5835   0.354   2.843  11.201  0.0826  0.4995 -0.6193
  390TMC3    C8 5836   0.567   2.763  11.559  0.4123 -0.1486 -1.1356
  390TMC3    O1 5837   0.356   2.755  11.112 -0.0053  0.0247 -0.4186
  390TMC3    O2 5838   0.664   2.721  11.624 -0.3803 -0.5854  0.1885
  391MPD2     C 5839   0.320   0.070  11.082  0.1917  0.2116 -0.2635
  391MPD2    C1 5840   0.451   0.087  11.042 -0.6881 -0.2893  0.4931
  391MPD2    C2 5841   0.480   0.101  10.908 -0.4465  0.5339  0.1307
  391MPD2    C3 5842   0.381   0.106  10.821 -0.7227  1.0181  0.1382
  391MPD2    C4 5843   0.248   0.094  10.866 -0.4361 -0.0901 -0.0688
  391MPD2    C5 5844   0.217   0.074  10.992 -0.0768 -0.3211 -0.0627
  391MPD2     H 5845   0.583   0.084  10.878 -0.5744  0.0425 -0.0324
  391MPD2    H1 5846   0.169   0.092  10.793  0.0559 -0.0393 -0.6026
  391MPD2    H2 5847   0.301   0.057  11.188  0.5545 -1.0379 -0.3408
  391MPD2    H3 5848   0.114   0.057  11.023 -0.4166  2.3912  0.3361
  391MPD2     N 5849   0.413   0.125  10.693 -0.0701 -0.2267  0.0634
  391MPD2    H5 5850   0.511   0.144  10.677  0.7248 -2.1873  2.6240
  391MPD2    N1 5851   0.554   0.097  11.146 -0.4034 -0.2165 -0.4117
  391MPD2    H7 5852   0.529   0.101  11.244  0.6738 -1.8848 -0.0490
  392TMC3    C1 5853   0.382   0.170  10.473  0.1015  0.2604 -0.0312
  392TMC3    C2 5854   0.323   0.133  10.354  0.2547 -0.2036  0.2904
  392TMC3    C3 5855   0.373   0.183  10.235  0.1202  0.4238  0.2300
  392TMC3    C4 5856   0.491   0.249  10.471 -0.0759 -0.8277 -0.3437
  392TMC3    C5 5857   0.541   0.288  10.353  0.2679 -0.4046 -0.1531
  392TMC3    C6 5858   0.482   0.266  10.233  0.0506 -0.6165  0.2446
  392TMC3     C 5859   0.329   0.108  10.592 -1.4975 -0.3694  0.0175
  392TMC3     O 5860   0.224   0.037  10.586 -0.2339  0.0054 -0.2545
  392TMC3     H 5861   0.257   0.048  10.348 -0.2650  0.0973  1.7106
  392TMC3    H1 5862   0.552   0.262  10.559 -0.5332  0.8988 -0.2898
  392TMC3    H2 5863   0.534   0.285  10.140 -0.4991  1.8710  0.4447
  392TMC3    C7 5864   0.657   0.377  10.356  0.4049  0.6239 -0.2265
  392TMC3    C8 5865   0.297   0.156  10.113  0.0916  0.6439  0.2338
  392TMC3    O1 5866   0.745   0.356  10.440 -0.3281 -0.6437  0.1824
  392TMC3    O2 5867   0.190   0.101  10.130 -0.0848  0.4633 -0.1227
  393TMC3    C1 5868   4.344   2.967  10.711 -0.5641 -0.5943 -0.0168
  393TMC3    C2 5869   4.233   2.908  10.766 -0.1010 -0.0436 -1.1352
  393TMC3    C3 5870   4.209   2.775  10.739  0.2538  0.1617  0.2344
  393TMC3    C4 5871   4.444   2.889  10.653 -0.4117  0.0368 -0.3935
  393TMC3    C5 5872   4.421   2.755  10.646 -0.3566 -0.0514 -0.2236
  393TMC3    C6 5873   4.303   2.700  10.682  0.1018 -0.1101 -0.1616
  393TMC3     C 5874   4.323   3.095  10.636  0.4033 -0.1812  0.7138
  393TMC3     O 5875   4.206   3.132  10.636  0.3755  0.1816 -0.0836
  393TMC3     H 5876   4.162   2.982  10.801  1.3024  1.7577 -2.1105
  393TMC3    H1 5877   4.543   2.930  10.642  0.2848 -0.6452  3.2086
  393TMC3    H2 5878   4.273   2.598  10.660 -0.8992  0.0919  0.2763
  393TMC3    C7 5879   4.506   2.660  10.580  0.3287 -0.3840  0.3204
  393TMC3    C8 5880   4.072   2.763  10.682 -0.0091  0.8272  0.2310
  393TMC3    O1 5881   4.466   2.548  10.574 -0.0633 -0.1945  0.3620
  393TMC3    O2 5882   4.052   2.706  10.575 -0.3380  0.1686  0.1878
  394TMC3    C1 5883   1.081   3.025  10.605  0.2231  0.8099  0.2644
  394TMC3    C2 5884   0.986   2.974  10.521  0.0201  0.0118  0.5000
  394TMC3    C3 5885   0.994   3.002  10.388  0.3580  0.1673 -0.7553
  394TMC3    C4 5886   1.175   3.113  10.555 -0.2040  0.2094 -0.2674
  394TMC3    C5 5887   1.177   3.140  10.424  0.2807 -0.1339  0.0108
  394TMC3    C6 5888   1.087   3.087  10.335  0.0290 -0.2510 -0.2995
  394TMC3     C 5889   1.086   2.979  10.742  0.1053  0.1751 -0.2479
  394TMC3     O 5890   1.027   2.876  10.757 -0.0646  0.5917  0.0750
  394TMC3     H 5891   0.916   2.900  10.557 -2.2884  1.0876 -1.8151
  394TMC3    H1 5892   1.267   3.136  10.606 -0.6326  2.2909 -0.4367
  394TMC3    H2 5893   1.080   3.124  10.233 -1.3837  0.2615 -0.0242
  394TMC3    C7 5894   1.260   3.260  10.383  0.2423  0.7479  0.0832
  394TMC3    C8 5895   0.887   2.945  10.303  0.1592 -0.2138 -0.0399
  394TMC3    O1 5896   1.353   3.284  10.460 -0.9378 -0.0547 -0.6458
  394TMC3    O2 5897   0.795   2.890  10.362  1.0761  0.0624  0.2204
  395TMC3    C1 5898   1.016   0.722  14.672  0.9887  0.2047 -0.5811
  395TMC3    C2 5899   0.887   0.776  14.663  0.3706 -0.0634  0.6696
  395TMC3    C3 5900   0.880   0.910  14.655  0.1051  0.2142 -0.2528
  395TMC3    C4 5901   1.129   0.799  14.690  0.2976 -0.1665 -0.5821
  395TMC3    C5 5902   1.111   0.936  14.693 -0.7286 -0.1915 -0.0010
  395TMC3    C6 5903   0.988   0.990  14.654  0.2326  0.2783 -0.3275
  395TMC3     C 5904   1.029   0.587  14.727 -0.1714  0.4186  0.5698
  395TMC3     O 5905   1.088   0.588  14.836 -0.2843  0.0093  0.4374
  395TMC3     H 5906   0.798   0.716  14.648  0.1149  0.4066  0.3078
  395TMC3    H1 5907   1.220   0.750  14.722  0.7058  0.1173 -1.3024
  395TMC3    H2 5908   0.962   1.095  14.660 -1.2028 -0.1258  0.4995
  395TMC3    C7 5909   1.168   0.995  14.802  0.5057  0.3338  0.1353
  395TMC3    C8 5910   0.758   0.977  14.687  0.6488  0.3080  0.2234
  395TMC3    O1 5911   1.186   1.112  14.787 -0.3137  0.0297  0.1151
  395TMC3    O2 5912   0.737   1.082  14.629  0.1374  0.3822 -0.0934
  396MPD2     C 5913   0.881   1.398  16.926  0.0643  0.1291  0.5321
  396MPD2    C1 5914   1.014   1.434  16.932 -0.2521  0.9647  0.5001
  396MPD2    C2 5915   1.057   1.535  16.845 -0.1314  0.1632  0.1281
  396MPD2    C3 5916   0.972   1.601  16.756  0.4706  0.0531 -0.1148
  396MPD2    C4 5917   0.837   1.558  16.754 -0.2986  0.0616 -0.2146
  396MPD2    C5 5918   0.801   1.458  16.839 -0.2742 -0.0053 -0.1357
  396MPD2     H 5919   1.162   1.560  16.842 -0.7265  2.4695 -1.2322
  396MPD2    H1 5920   0.757   1.585  16.686  1.3508  1.5426 -1.5771
  396MPD2    H2 5921   0.835   1.312  16.974  1.3217  0.5355  2.4582
  396MPD2    H3 5922   0.704   1.410  16.834  0.5237 -1.6502  0.1501
  396MPD2     N 5923   1.020   1.709  16.679  0.0354  0.1806  0.5406
  396MPD2    H5 5924   1.111   1.750  16.702  0.8764 -2.0912  1.2401
  396MPD2    N1 5925   1.107   1.349  17.003 -0.1933  0.1471 -0.1269
  396MPD2    H7 5926   1.204   1.358  16.975  0.2458 -2.6510  0.4918
  397TMC3    C1 5927   1.163   1.130  17.088 -0.9250  0.0863  0.6736
  397TMC3    C2 5928   1.165   1.060  16.970 -0.2580  0.3312  0.4110
  397TMC3    C3 5929   1.156   0.923  16.956  0.4335  0.6390  0.2479
  397TMC3    C4 5930   1.143   1.058  17.204  0.1403 -0.7456  0.5425
  397TMC3    C5 5931   1.133   0.921  17.191  0.1239 -0.2365  0.0235
  397TMC3    C6 5932   1.153   0.855  17.074 -0.3730  1.0252 -1.3649
  397TMC3     C 5933   1.071   1.242  17.088 -0.6236 -0.2944  0.8679
  397TMC3     O 5934   0.965   1.223  17.147 -0.1296  0.4212 -0.0749
  397TMC3     H 5935   1.124   1.121  16.890  1.1628  2.9472  1.6861
  397TMC3    H1 5936   1.113   1.115  17.291 -1.0042 -0.3526 -0.1095
  397TMC3    H2 5937   1.159   0.747  17.069  1.2624  0.9785  1.2347
  397TMC3    C7 5938   1.093   0.838  17.303  0.9991 -0.3472 -0.0517
  397TMC3    C8 5939   1.044   0.885  16.869  0.3650  0.2984  0.2923
  397TMC3    O1 5940   1.029   0.740  17.272  0.2279 -0.0989 -0.9363
  397TMC3    O2 5941   1.048   0.925  16.756  0.8985  0.0231  0.6076
  398MPD2     C 5942   4.161   2.308  17.556 -0.2445  0.6828  0.5973
  398MPD2    C1 5943   4.150   2.201  17.642  0.5264 -0.6674  0.4705
  398MPD2    C2 5944   4.168   2.227   0.092 -1.4696 -0.3169 -0.4133
  398MPD2    C3 5945   4.234   2.341   0.136  0.0399 -0.3845 -0.1736
  398MPD2    C4 5946   4.265   2.434   0.043  0.1512 -0.3141  0.4990
  398MPD2    C5 5947   4.219   2.419  17.603 -0.6063  0.0215  0.7348
  398MPD2     H 5948   4.154   2.150   0.166  1.8230  0.7141  1.2864
  398MPD2    H1 5949   4.320   2.521   0.078  1.1636 -0.9362  0.4535
  398MPD2    H2 5950   4.159   2.298  17.448 -0.2704  2.3556  0.4425
  398MPD2    H3 5951   4.251   2.489  17.527 -0.7850  0.7718  1.3506
  398MPD2     N 5952   4.275   2.343   0.269 -0.6210  0.2172 -0.3096
  398MPD2    H5 5953   4.246   2.265   0.328 -1.1488  0.5854 -0.0793
  398MPD2    N1 5954   4.127   2.074  17.594 -0.5328 -0.3488  0.2069
  398MPD2    H7 5955   4.123   1.997  17.660  1.3227 -0.8871 -0.3030
  399TMC3    C1 5956   4.104   1.898  17.457 -0.3946  0.1220 -0.0236
  399TMC3    C2 5957   4.225   1.843  17.501  0.1892 -0.1253 -0.2673
  399TMC3    C3 5958   4.218   1.729  17.572 -0.2963  0.4740  0.7592
  399TMC3    C4 5959   3.989   1.824  17.459 -0.2156  0.4916  0.0929
  399TMC3    C5 5960   3.985   1.710  17.537 -0.5356 -0.5627  1.0316
  399TMC3    C6 5961   4.099   1.663  17.599  0.4067  0.5773 -0.4342
  399TMC3     C 5962   4.095   2.039  17.466 -0.0658  0.8722 -0.4189
  399TMC3     O 5963   4.058   2.110  17.375 -0.1000  0.6461 -0.0474
  399TMC3     H 5964   4.321   1.888  17.478  0.6223 -1.7908 -1.6692
  399TMC3    H1 5965   3.902   1.881  17.429  0.2538  2.7809  3.0859
  399TMC3    H2 5966   4.096   1.592  17.681  0.1288 -1.1461 -1.9292
  399TMC3    C7 5967   3.858   1.653  17.582  0.0785  0.6013  0.4948
  399TMC3    C8 5968   4.337   1.697  17.641  0.0783 -0.3359 -0.9298
  399TMC3    O1 5969   3.876   1.585  17.681  0.1048  0.2176 -0.0209
  399TMC3    O2 5970   4.401   1.795  17.665 -0.3897 -0.3058  0.3600
  400TMC3    C1 5971   2.899   1.483  17.270 -0.4644 -0.0286 -0.7794
  400TMC3    C2 5972   2.806   1.470  17.170  0.3125  0.0228  0.0278
  400TMC3    C3 5973   2.760   1.589  17.115 -0.5033 -0.0662  0.0895
  400TMC3    C4 5974   2.953   1.606  17.309  0.3226  0.2059  0.0996
  400TMC3    C5 5975   2.917   1.713  17.233  0.2606  0.0844 -0.4989
  400TMC3    C6 5976   2.826   1.708  17.130 -0.3335  0.7459  0.5307
  400TMC3     C 5977   2.961   1.364  17.317 -0.5716  0.1845 -0.1469
  400TMC3     O 5978   2.947   1.264  17.252 -0.1363 -0.1686  0.3032
  400TMC3     H 5979   2.758   1.374  17.155  1.9811 -1.2504  2.8981
  400TMC3    H1 5980   3.032   1.622  17.381 -0.2339  0.1209  0.7221
  400TMC3    H2 5981   2.815   1.787  17.057  0.9431  2.0843  1.7915
  400TMC3    C7 5982   2.920   1.838  17.302 -0.2440 -0.6563  0.4651
  400TMC3    C8 5983   2.617   1.607  17.143  0.3606  0.0663 -0.2206
  400TMC3    O1 5984   3.007   1.859  17.388  0.0819 -0.3835  0.9840
  400TMC3    O2 5985   2.596   1.725  17.156 -0.1184  0.1831 -1.2315
  401MPD2     C 5986   0.651   4.719   0.775  0.1436  0.0742 -0.9630
  401MPD2    C1 5987   0.697   4.650   0.888  0.4054  0.2859  0.7753
  401MPD2    C2 5988   0.735   4.523   0.866 -0.6641 -0.1065 -0.2599
  401MPD2    C3 5989   0.727   4.460   0.743 -0.3594 -0.4837  1.0225
  401MPD2    C4 5990   0.688   4.529   0.632  0.0201 -0.4611 -0.4853
  401MPD2    C5 5991   0.651   4.659   0.650 -0.2041 -0.3248 -0.1522
  401MPD2     H 5992   0.766   4.459   0.948 -2.2754  1.3959  1.5120
  401MPD2    H1 5993   0.653   4.482   0.540 -1.2784 -1.9419  0.7575
  401MPD2    H2 5994   0.632   0.104   0.788  0.5991 -0.0513  0.6493
  401MPD2    H3 5995   0.615   0.008   0.576  1.6638  0.5266 -0.2589
  401MPD2     N 5996   0.760   4.320   0.756  0.3817  0.1375 -0.1208
  401MPD2    H5 5997   0.763   4.278   0.849 -0.3032 -0.7458 -0.4948
  401MPD2    N1 5998   0.695   4.694   1.022 -0.4326 -0.1290 -0.5712
  401MPD2    H7 5999   0.713   4.623   1.092 -0.1459  0.1048 -0.4074
  402TMC3    C1 6000   0.796   4.099   0.691 -0.3798 -0.5467  0.3963
  402TMC3    C2 6001   0.737   4.059   0.808 -0.1186  0.2781  0.0624
  402TMC3    C3 6002   0.762   3.924   0.844  0.4422 -0.0789 -0.6772
  402TMC3    C4 6003   0.880   4.026   0.615  0.8404  0.2897  0.2964
  402TMC3    C5 6004   0.902   3.895   0.657 -0.0735 -0.5240 -0.1702
  402TMC3    C6 6005   0.844   3.841   0.766 -0.1890  0.2840 -0.0401
  402TMC3     C 6006   0.772   4.235   0.649  0.4740 -0.4857  0.0794
  402TMC3     O 6007   0.794   4.256   0.528  0.2048  0.4276 -0.5419
  402TMC3     H 6008   0.678   4.124   0.872 -1.3543 -1.4350  0.6885
  402TMC3    H1 6009   0.933   4.066   0.529 -0.1082 -2.5482 -1.6063
  402TMC3    H2 6010   0.836   3.734   0.784 -0.4375 -0.0008 -1.8226
  402TMC3    C7 6011   1.009   3.824   0.591 -0.3124 -0.3281  0.1787
  402TMC3    C8 6012   0.688   3.870   0.963 -0.3487 -0.1867 -0.5161
  402TMC3    O1 6013   1.099   3.882   0.531  0.1233  0.1821 -0.1166
  402TMC3    O2 6014   0.664   3.755   0.953 -0.0688 -0.2891 -0.1140
  403MPD2     C 6015   3.541   3.004  13.544 -0.0983  0.3153  0.3973
  403MPD2    C1 6016   3.643   2.915  13.564 -0.1304  0.1215 -0.1453
  403MPD2    C2 6017   3.756   2.954  13.638 -0.2828  0.2345  0.6294
  403MPD2    C3 6018   3.759   3.080  13.694 -0.3859 -0.2101 -0.2398
  403MPD2    C4 6019   3.659   3.174  13.667  0.2575  0.3543 -0.5203
  403MPD2    C5 6020   3.555   3.134  13.595 -0.1885 -0.3372  0.1968
  403MPD2     H 6021   3.845   2.893  13.654 -0.0878  0.0238 -1.3128
  403MPD2    H1 6022   3.666   3.278  13.694 -1.8856  0.3142  0.1905
  403MPD2    H2 6023   3.462   2.980  13.474  0.4399 -0.0196 -0.0965
  403MPD2    H3 6024   3.494   3.217  13.562 -0.0270 -0.1750  0.3042
  403MPD2     N 6025   3.871   3.123  13.777  0.1897 -1.0818  1.2299
  403MPD2    H5 6026   3.942   3.051  13.785  2.5062  0.9244 -1.6076
  403MPD2    N1 6027   3.625   2.786  13.508  0.5579  0.1195  0.1128
  403MPD2    H7 6028   3.554   2.775  13.436  0.7657  0.2612 -0.1149
  404TMC3    C1 6029   3.633   2.560  13.487  0.2100 -0.7470  0.3315
  404TMC3    C2 6030   3.638   2.439  13.552 -0.1925  0.5295 -0.3694
  404TMC3    C3 6031   3.588   2.330  13.485 -0.6355  0.5636 -0.2603
  404TMC3    C4 6032   3.594   2.567  13.357  0.1625  1.4058 -0.0066
  404TMC3    C5 6033   3.553   2.450  13.295 -0.5049  0.0053 -0.1611
  404TMC3    C6 6034   3.542   2.330  13.354 -0.8485 -0.3631  0.1271
  404TMC3     C 6035   3.679   2.677  13.561  0.1061 -0.2384 -0.1749
  404TMC3     O 6036   3.756   2.657  13.656  0.1742  0.6341  0.2294
  404TMC3     H 6037   3.699   2.437  13.642  0.6958 -0.6281 -0.9933
  404TMC3    H1 6038   3.590   2.661  13.302  1.6866  1.3433 -0.2292
  404TMC3    H2 6039   3.511   2.240  13.302  0.0390 -2.3167  2.9365
  404TMC3    C7 6040   3.538   2.463  13.153 -0.1328 -0.0196 -0.3647
  404TMC3    C8 6041   3.571   2.200  13.554  0.1938  0.8739  0.4017
  404TMC3    O1 6042   3.590   2.560  13.101 -0.7842  0.5372  0.0708
  404TMC3    O2 6043   3.609   2.099  13.495 -0.0315 -0.5452  0.0808
  405MPD2     C 6044   4.118   3.339  14.470 -0.0213  0.0341 -0.6006
  405MPD2    C1 6045   4.024   3.243  14.452 -0.0861  0.3324  0.3055
  405MPD2    C2 6046   3.911   3.281  14.376  0.2409  0.7507  0.4590
  405MPD2    C3 6047   3.894   3.403  14.322 -0.5867 -0.2206 -0.0075
  405MPD2    C4 6048   3.991   3.498  14.345 -0.3606  0.2533 -0.2921
  405MPD2    C5 6049   4.104   3.462  14.418  0.3015  1.0514  0.1534
  405MPD2     H 6050   3.828   3.212  14.370 -0.1268  1.2601 -0.5108
  405MPD2    H1 6051   3.997   3.592  14.292 -0.5439  0.8983  0.8500
  405MPD2    H2 6052   4.207   3.318  14.527 -0.4123  1.2932  0.4756
  405MPD2    H3 6053   4.184   3.535  14.426  0.8215  0.8623 -3.1302
  405MPD2     N 6054   3.783   3.423  14.235  0.1361  0.4148 -0.4408
  405MPD2    H5 6055   3.709   3.353  14.233 -0.2687  0.7850  1.5672
  405MPD2    N1 6056   4.036   3.117  14.519 -0.5280 -0.1341 -0.4313
  405MPD2    H7 6057   4.111   3.109  14.587  0.9410  0.0072 -2.0095
  406TMC3    C1 6058   3.415   3.507  14.197  0.6320  0.5822  1.1316
  406TMC3    C2 6059   3.403   3.372  14.181 -0.2353 -0.8103  0.2289
  406TMC3    C3 6060   3.506   3.304  14.132  0.0750  0.6609  0.2448
  406TMC3    C4 6061   3.531   3.575  14.160  0.0419 -0.0865 -0.2062
  406TMC3    C5 6062   3.623   3.502  14.098 -0.6998  0.0347  0.4230
  406TMC3    C6 6063   3.609   3.369  14.072  0.1202 -0.6914 -0.0114
  406TMC3     C 6064   3.334   3.569  14.301  0.1746 -0.1706  0.1656
  406TMC3     O 6065   3.374   3.678  14.335 -0.3475  0.3326 -0.2340
  406TMC3     H 6066   3.316   3.315  14.212 -0.3701 -0.3908  0.6179
  406TMC3    H1 6067   3.548   3.680  14.181 -0.4265  0.1459 -0.9957
  406TMC3    H2 6068   3.694   3.315  14.033  0.7143 -1.2525  2.0654
  406TMC3    C7 6069   3.752   3.533  14.156  0.0944  0.5896 -0.2352
  406TMC3    C8 6070   3.533   3.179  14.193  0.3442  0.2344 -0.5640
  406TMC3    O1 6071   3.807   3.646  14.163  0.1114  0.1455 -0.8829
  406TMC3    O2 6072   3.646   3.170  14.232 -0.6308 -0.2779 -0.0131
  407MPD2     C 6073   1.026   4.612  10.079  0.5088  0.3027 -0.6178
  407MPD2    C1 6074   1.164   4.612  10.059  0.7935 -0.5024  0.2677
  407MPD2    C2 6075   1.237   4.715  10.102 -0.4024 -0.1383  0.0922
  407MPD2    C3 6076   1.175   0.112  10.158 -0.1306  0.2411  0.3525
  407MPD2    C4 6077   1.035   0.117  10.171  0.1431  0.2669 -0.0632
  407MPD2    C5 6078   0.963   0.005  10.125 -0.8231  0.9822 -0.2580
  407MPD2     H 6079   1.345   4.717  10.107 -0.4156  2.5698 -0.9791
  407MPD2    H1 6080   0.977   0.198  10.212 -0.2632 -0.6033  1.0980
  407MPD2    H2 6081   0.962   4.530  10.047 -1.5597  1.6100  0.1724
  407MPD2    H3 6082   0.857   0.003  10.144 -0.7094  0.4878  0.3226
  407MPD2     N 6083   1.251   0.225  10.201 -0.1599 -0.9777 -0.1242
  407MPD2    H5 6084   1.200   0.313  10.207  1.0004 -0.3985  1.0492
  407MPD2    N1 6085   1.220   4.506   9.982  0.4018 -0.1634 -0.9015
  407MPD2    H7 6086   1.164   4.424   9.962  0.0317 -0.1751  0.1667
  408TMC3    C1 6087   1.401   4.384   9.885 -0.8097 -0.5996 -0.3344
  408TMC3    C2 6088   1.522   4.381   9.818 -0.8323  0.6753  0.6692
  408TMC3    C3 6089   1.566   4.266   9.764  0.1446  0.5324 -0.6603
  408TMC3    C4 6090   1.321   4.274   9.906 -0.4918  0.1230 -0.9993
  408TMC3    C5 6091   1.377   4.159   9.847  0.1816  0.0269  0.6801
  408TMC3    C6 6092   1.493   4.155   9.779 -0.6574 -0.0283 -0.0231
  408TMC3     C 6093   1.357   4.506   9.950 -0.5879 -0.3085  0.2553
  408TMC3     O 6094   1.436   4.594   9.939 -0.7573  0.2510  0.1901
  408TMC3     H 6095   1.577   4.472   9.798  0.4443  0.3106  2.5353
  408TMC3    H1 6096   1.235   4.267   9.971  0.0069  1.6801 -0.1577
  408TMC3    H2 6097   1.524   4.057   9.744 -0.5128 -0.2220  0.6514
  408TMC3    C7 6098   1.296   4.038   9.831 -0.0956  0.1443  0.4395
  408TMC3    C8 6099   1.708   4.248   9.765  0.0495  0.3308  0.0748
  408TMC3    O1 6100   1.345   3.951   9.759  0.1397  0.2961  0.1646
  408TMC3    O2 6101   1.753   4.137   9.743  0.3616 -0.5158 -0.4005
  409MPD2     C 6102   1.246   0.430  17.552 -0.1999  0.0601 -0.1921
  409MPD2    C1 6103   1.356   0.478  17.621  0.2061 -0.2375 -0.0062
  409MPD2    C2 6104   1.438   0.566  17.559  0.1820  0.1254  0.1194
  409MPD2    C3 6105   1.408   0.604  17.427  0.4635  1.1870  0.1544
  409MPD2    C4 6106   1.300   0.555  17.361 -0.1830 -0.6946 -0.3832
  409MPD2    C5 6107   1.216   0.473  17.423 -0.1663  0.4457  0.2911
  409MPD2     H 6108   1.520   0.611  17.614 -1.5297 -1.3052  3.8293
  409MPD2    H1 6109   1.263   0.585  17.263  0.9771  0.5240 -0.4494
  409MPD2    H2 6110   1.181   0.362  17.606 -0.3245 -0.3104 -0.8091
  409MPD2    H3 6111   1.129   0.438  17.369 -0.3588 -0.0900  0.9435
  409MPD2     N 6112   1.489   0.688  17.353 -0.5549 -0.4130  0.2906
  409MPD2    H5 6113   1.459   0.706  17.258 -0.5847 -0.8132  0.2215
  409MPD2    N1 6114   1.389   0.431   0.068 -0.7373  0.6455  0.4170
  409MPD2    H7 6115   1.469   0.472   0.114 -2.6519  2.7977  1.7914
  410TMC3    C1 6116   1.666   0.812  17.299  0.0118 -0.4869 -0.4848
  410TMC3    C2 6117   1.792   0.847  17.341 -0.1325 -0.3436  0.6416
  410TMC3    C3 6118   1.839   0.972  17.299  0.0296  0.2036  0.1790
  410TMC3    C4 6119   1.588   0.903  17.235 -0.9377  0.7145  0.3220
  410TMC3    C5 6120   1.643   1.019  17.190  0.1569 -0.0064  0.6948
  410TMC3    C6 6121   1.768   1.060  17.227 -0.2297 -0.9730  0.6360
  410TMC3     C 6122   1.604   0.739  17.397  0.8257  0.0309 -0.1656
  410TMC3     O 6123   1.667   0.712  17.502 -0.6367  0.1852 -0.2751
  410TMC3     H 6124   1.864   0.784  17.392  2.3705  1.2253 -0.9583
  410TMC3    H1 6125   1.487   0.875  17.209 -1.3610  0.1324  2.5176
  410TMC3    H2 6126   1.813   1.146  17.180 -2.5188 -1.2654 -2.0746
  410TMC3    C7 6127   1.577   1.093  17.085 -1.1596 -0.2842  0.5819
  410TMC3    C8 6128   1.988   0.973  17.286 -0.0797 -0.0919 -0.4155
  410TMC3    O1 6129   1.602   1.212  17.072  0.3708 -0.5868 -0.0388
  410TMC3    O2 6130   2.041   1.080  17.291  0.7703  0.2501  0.2742
  411MPD2     C 6131   1.620   1.727  14.572 -0.2498  0.4201 -0.4808
  411MPD2    C1 6132   1.526   1.765  14.479  0.2603 -0.5821  0.1173
  411MPD2    C2 6133   1.438   1.673  14.434 -0.2256 -0.5660  0.0505
  411MPD2    C3 6134   1.443   1.544  14.494 -0.3499 -0.7842  0.1097
  411MPD2    C4 6135   1.543   1.503  14.580  0.0991 -0.4023  0.7276
  411MPD2    C5 6136   1.627   1.602  14.618  0.1374 -0.2811  0.2614
  411MPD2     H 6137   1.360   1.687  14.361  1.1574  0.4241 -1.2314
  411MPD2    H1 6138   1.546   1.401  14.617 -0.1446  0.3150  2.7442
  411MPD2    H2 6139   1.694   1.788  14.622  0.4711 -1.5282  0.8017
  411MPD2    H3 6140   1.693   1.572  14.699 -0.4593 -2.3452 -0.0171
  411MPD2     N 6141   1.349   1.446  14.462 -0.4296  0.3274 -0.0129
  411MPD2    H5 6142   1.360   1.355  14.506  1.1290 -0.1347 -1.3443
  411MPD2    N1 6143   1.504   1.901  14.457  0.2535  0.1553  0.5411
  411MPD2    H7 6144   1.558   1.970  14.507  2.4665 -0.8255 -0.4569
  412TMC3    C1 6145   1.132   1.352  14.393  0.7593 -0.0771  0.7053
  412TMC3    C2 6146   1.000   1.370  14.425 -0.2300 -0.6517  0.1407
  412TMC3    C3 6147   0.913   1.271  14.403  0.7457 -0.8653 -0.0070
  412TMC3    C4 6148   1.172   1.240  14.331  0.4077 -0.4006  0.1862
  412TMC3    C5 6149   1.086   1.153  14.293  0.3254 -0.7375  0.1260
  412TMC3    C6 6150   0.957   1.166  14.337 -0.2985 -0.1921  0.8267
  412TMC3     C 6151   1.220   1.470  14.408 -0.1050 -0.4057 -0.1441
  412TMC3     O 6152   1.165   1.579  14.405 -0.1940  0.4959  0.3344
  412TMC3     H 6153   0.969   1.460  14.477  4.4853  1.2259 -0.3201
  412TMC3    H1 6154   1.275   1.227  14.300  0.4594  2.4243 -0.8816
  412TMC3    H2 6155   0.895   1.079  14.315 -1.0219 -0.0437  2.3150
  412TMC3    C7 6156   1.071   1.143  14.156  0.2139 -0.5701 -0.2025
  412TMC3    C8 6157   0.784   1.315  14.357  0.2369 -0.6689 -0.0389
  412TMC3    O1 6158   0.977   1.074  14.114 -0.2618 -0.1806  0.1232
  412TMC3    O2 6159   0.753   1.429  14.331 -0.1052 -0.2601 -0.5277
  413MPD2     C 6160   2.665   4.339  15.600  0.0188 -0.3363  0.0732
  413MPD2    C1 6161   2.617   4.352  15.469  0.2327  0.4353  1.0959
  413MPD2    C2 6162   2.689   4.279  15.372 -0.1886  0.0667  0.5803
  413MPD2    C3 6163   2.797   4.200  15.409  0.2173  0.4836  0.3863
  413MPD2    C4 6164   2.836   4.192  15.541 -0.3970 -0.0222  0.7249
  413MPD2    C5 6165   2.773   4.265  15.641  0.5204  0.1675 -0.4539
  413MPD2     H 6166   2.672   4.294  15.266  1.2399  2.9128  0.7612
  413MPD2    H1 6167   2.926   4.135  15.563 -0.3985 -1.0304 -1.9015
  413MPD2    H2 6168   2.616   4.402  15.673  0.6075 -0.5986  0.6948
  413MPD2    H3 6169   2.815   4.272  15.741 -1.6986 -1.3185  0.5934
  413MPD2     N 6170   2.872   4.139  15.303 -0.1892  0.1604  0.2538
  413MPD2    H5 6171   2.833   4.152  15.210 -2.2856 -1.1728  0.9392
  413MPD2    N1 6172   2.504   4.433  15.443 -0.3511 -0.4407 -0.2233
  413MPD2    H7 6173   2.478   4.511  15.502 -1.2534 -0.6423 -0.3659
  414TMC3    C1 6174   2.965   3.954  15.201 -0.0855 -0.2960  0.0068
  414TMC3    C2 6175   3.072   3.861  15.185 -0.5481  0.1050 -0.2842
  414TMC3    C3 6176   3.059   3.756  15.099  0.0280 -0.4553 -0.1921
  414TMC3    C4 6177   2.848   3.932  15.133 -0.4636 -0.0119 -0.3459
  414TMC3    C5 6178   2.843   3.818  15.048 -0.3358 -0.1704  0.9341
  414TMC3    C6 6179   2.945   3.728  15.035 -0.0078 -0.0428  0.5678
  414TMC3     C 6180   2.971   4.046  15.314 -0.1188 -0.3971  0.2168
  414TMC3     O 6181   3.033   4.017  15.417  0.1940 -0.0357 -0.1984
  414TMC3     H 6182   3.163   3.866  15.245 -1.1231  0.6741  0.5475
  414TMC3    H1 6183   2.762   3.997  15.133 -0.8169 -0.4779 -0.4454
  414TMC3    H2 6184   2.941   3.637  14.976  3.0033 -0.0593  0.3505
  414TMC3    C7 6185   2.715   3.802  14.988 -0.7633  0.1638 -0.1399
  414TMC3    C8 6186   3.174   3.704  15.024  0.3440 -0.1288 -0.1698
  414TMC3    O1 6187   2.621   3.766  15.058 -0.5289  0.4357  0.1426
  414TMC3    O2 6188   3.166   3.590  14.975  0.3741 -0.5066 -0.0212
  415TMC3    C1 6189   3.519   2.377  10.018  0.2142 -0.1427 -0.3560
  415TMC3    C2 6190   3.565   2.450   9.908  0.5207  0.3762  0.5078
  415TMC3    C3 6191   3.476   2.464   9.814  0.1070  0.2578  0.2546
  415TMC3    C4 6192   3.393   2.346  10.036  0.1774  0.4410 -0.6847
  415TMC3    C5 6193   3.304   2.353   9.933  0.0174 -0.1886  0.9268
  415TMC3    C6 6194   3.353   2.407   9.811  0.5089 -0.2009 -0.2726
  415TMC3     C 6195   3.613   2.331  10.115 -0.7637 -0.7049 -0.3461
  415TMC3     O 6196   3.569   2.308  10.227  0.0526  0.6812  0.3422
  415TMC3     H 6197   3.667   2.487   9.910  0.4570  0.5081  1.2424
  415TMC3    H1 6198   3.374   2.277  10.117 -0.2746  0.5497 -0.6983
  415TMC3    H2 6199   3.288   2.397   9.726  2.2274 -0.2463 -1.5779
  415TMC3    C7 6200   3.169   2.295   9.929 -0.1448 -0.0207  0.7434
  415TMC3    C8 6201   3.479   2.567   9.713 -0.3116  0.3516 -0.2392
  415TMC3    O1 6202   3.104   2.314   9.825  0.3060 -0.0772  0.2808
  415TMC3    O2 6203   3.373   2.594   9.657 -0.1449 -0.4836 -0.1759
  416MPD2     C 6204   0.764   1.207  11.759 -1.4166 -0.2205  0.4817
  416MPD2    C1 6205   0.657   1.208  11.677  0.4429 -0.0799 -0.5226
  416MPD2    C2 6206   0.666   1.151  11.550  0.2569 -0.1021 -0.8795
  416MPD2    C3 6207   0.778   1.081  11.511 -0.8819 -0.7255 -0.0024
  416MPD2    C4 6208   0.891   1.091  11.591  0.3004 -1.0263  0.9199
  416MPD2    C5 6209   0.880   1.152  11.714  0.3088 -0.2391  0.2415
  416MPD2     H 6210   0.582   1.162  11.483  0.2534 -1.9827 -1.1644
  416MPD2    H1 6211   0.975   1.025  11.574 -1.2946 -2.6024 -0.8743
  416MPD2    H2 6212   0.759   1.244  11.861  4.1868  1.5135  0.1143
  416MPD2    H3 6213   0.962   1.146  11.785  1.3014 -1.0014 -0.9767
  416MPD2     N 6214   0.789   0.992  11.400 -0.0966  0.2658  0.3866
  416MPD2    H5 6215   0.858   0.918  11.396 -1.8360 -1.3860  0.9789
  416MPD2    N1 6216   0.534   1.268  11.728  0.6356 -0.0156 -0.9061
  416MPD2    H7 6217   0.544   1.323  11.813  0.8266 -1.6924  0.1570
  417TMC3    C1 6218   0.320   1.367  11.721 -0.4373 -0.3136  0.3479
  417TMC3    C2 6219   0.314   1.393  11.857 -0.2255  0.8498 -0.7844
  417TMC3    C3 6220   0.208   1.465  11.907  0.2904  0.5610 -0.0745
  417TMC3    C4 6221   0.212   1.402  11.641  0.6291 -0.0718 -0.0142
  417TMC3    C5 6222   0.114   1.474  11.695 -0.4684 -0.5810 -0.2669
  417TMC3    C6 6223   0.108   1.513  11.830 -0.2871  0.3168  0.0552
  417TMC3     C 6224   0.408   1.271  11.665  0.1774  0.4630 -0.2001
  417TMC3     O 6225   0.365   1.207  11.573  0.3817 -0.6077  0.3198
  417TMC3     H 6226   0.386   1.355  11.928 -0.4596 -0.4947 -1.2763
  417TMC3    H1 6227   0.206   1.370  11.537 -2.1724 -3.3094  1.1281
  417TMC3    H2 6228   0.030   1.575  11.871 -1.1698  1.1138 -2.7941
  417TMC3    C7 6229   0.006   1.516  11.607  0.0636  0.1156 -0.4419
  417TMC3    C8 6230   0.228   1.513  12.039  0.2038  0.0079  0.7289
  417TMC3    O1 6231   0.011   1.498  11.488 -0.5755  0.1419  0.3879
  417TMC3    O2 6232   0.135   1.504  12.116 -0.3881  0.1080 -0.3284
  418TMC3    C1 6233   4.480   2.423   0.675 -0.5288  0.2490  0.1787
  418TMC3    C2 6234   4.479   2.443   0.539 -1.0012  0.0471 -0.8127
  418TMC3    C3 6235   4.366   2.407   0.473  0.3990 -0.3216 -0.3492
  418TMC3    C4 6236   4.367   2.378   0.741  0.0695 -0.8084  0.0711
  418TMC3    C5 6237   4.255   2.364   0.669 -0.2650 -0.1135 -0.9566
  418TMC3    C6 6238   4.251   2.378   0.533 -0.1241  0.1670 -0.8383
  418TMC3     C 6239   4.615   2.377   0.718 -0.4941  0.6022  0.7234
  418TMC3     O 6240   4.709   2.429   0.658  0.1699  0.1730  0.3566
  418TMC3     H 6241   4.572   2.465   0.488 -0.0162  0.0613  0.9940
  418TMC3    H1 6242   4.367   2.387   0.849 -0.7614 -2.5847  0.2144
  418TMC3    H2 6243   4.157   2.380   0.479 -0.0305  1.0151 -0.9677
  418TMC3    C7 6244   4.132   2.316   0.731 -0.4793  0.5545 -0.4490
  418TMC3    C8 6245   4.359   2.431   0.330 -0.1113 -0.0121 -0.5270
  418TMC3    O1 6246   4.044   2.296   0.651  0.4825 -0.5229  0.6799
  418TMC3    O2 6247   4.432   2.518   0.279  0.2338 -0.4315 -0.1410
  419MPD2     C 6248   2.066   1.070  12.503  0.0238 -0.0498  0.7065
  419MPD2    C1 6249   2.042   1.205  12.512 -0.6911  1.0553 -0.5782
  419MPD2    C2 6250   2.066   1.277  12.624 -0.3518  0.5752  0.5823
  419MPD2    C3 6251   2.109   1.215  12.738  0.0257  0.7213 -0.2118
  419MPD2    C4 6252   2.136   1.082  12.737 -0.2009 -0.1234  0.1844
  419MPD2    C5 6253   2.106   1.010  12.618  0.4913 -0.1639  0.7327
  419MPD2     H 6254   2.062   1.386  12.620 -1.6996  0.4959 -0.2180
  419MPD2    H1 6255   2.173   1.027  12.824  3.4054  1.1761 -0.5237
  419MPD2    H2 6256   2.041   1.012  12.415 -2.2639 -1.4575  2.2908
  419MPD2    H3 6257   2.114   0.902  12.623  1.0781 -0.1479  0.2163
  419MPD2     N 6258   2.142   1.311  12.838 -0.6491 -0.1241 -0.3251
  419MPD2    H5 6259   2.133   1.410  12.817  2.0153 -0.4543 -2.9480
  419MPD2    N1 6260   2.020   1.286  12.400  0.1650  0.0289  0.2321
  419MPD2    H7 6261   1.989   1.379  12.426  0.8949  0.0378  1.0507
  420TMC3    C1 6262   2.233   1.385  13.042 -0.4538  0.6288 -0.1675
  420TMC3    C2 6263   2.185   1.508  12.997 -0.5019 -0.4824  0.1758
  420TMC3    C3 6264   2.245   1.616  13.057  0.5130 -1.0043  0.2411
  420TMC3    C4 6265   2.341   1.370  13.118  0.1823  0.1403 -0.5252
  420TMC3    C5 6266   2.403   1.482  13.167  0.2574 -0.2215 -0.1611
  420TMC3    C6 6267   2.364   1.610  13.135  0.2690  0.0528  0.1719
  420TMC3     C 6268   2.203   1.275  12.960  0.5442  0.1188  0.4879
  420TMC3     O 6269   2.241   1.166  12.998  0.1248 -0.0787  0.0538
  420TMC3     H 6270   2.101   1.517  12.930 -0.1424  1.3071 -0.0207
  420TMC3    H1 6271   2.382   1.275  13.149  1.8783  1.6771  1.9843
  420TMC3    H2 6272   2.389   1.698  13.192  0.4352  0.2363 -0.1840
  420TMC3    C7 6273   2.475   1.471  13.293 -0.6147 -0.2334 -0.8903
  420TMC3    C8 6274   2.204   1.744  13.005 -0.3851  0.5841  0.5967
  420TMC3    O1 6275   2.446   1.375  13.369 -0.2322  0.2894 -0.2714
  420TMC3    O2 6276   2.105   1.743  12.932  0.3782  0.0654 -0.0195
  421TMC3    C1 6277   4.021   3.234  13.936  0.2216  0.1433  0.6468
  421TMC3    C2 6278   4.100   3.346  13.963  0.6437  0.0022  0.4503
  421TMC3    C3 6279   4.178   3.332  14.075 -0.1812  0.4821 -0.4373
  421TMC3    C4 6280   4.039   3.113  13.999  0.2090 -0.1721  0.1450
  421TMC3    C5 6281   4.121   3.105  14.108  0.2901 -0.2717  0.4328
  421TMC3    C6 6282   4.199   3.211  14.145  0.2612  0.8917 -0.0992
  421TMC3     C 6283   3.906   3.245  13.840 -0.2225  0.0364  0.4770
  421TMC3     O 6284   3.842   3.353  13.841  0.2903  0.3510 -0.2730
  421TMC3     H 6285   4.103   3.438  13.907 -0.7851 -0.1006  0.1949
  421TMC3    H1 6286   3.973   3.030  13.974 -1.0024  1.5051 -2.1969
  421TMC3    H2 6287   4.256   3.195  14.235  0.6843  1.3358 -0.2887
  421TMC3    C7 6288   4.164   2.976  14.164 -0.4569 -0.2219  0.4114
  421TMC3    C8 6289   4.268   3.442  14.106  0.4455  0.0518  0.0705
  421TMC3    O1 6290   4.256   2.979  14.247 -0.3251 -0.0081 -0.2726
  421TMC3    O2 6291   4.271   3.536  14.030  0.0604 -0.4015 -0.0343
  422TMC3    C1 6292   1.418   4.120  12.592  0.8732  0.2113 -0.3467
  422TMC3    C2 6293   1.377   4.252  12.588 -0.1624  0.2724  0.1123
  422TMC3    C3 6294   1.247   4.272  12.636 -0.0920 -0.0664  0.0990
  422TMC3    C4 6295   1.339   4.021  12.635  0.6329 -1.2146  0.2447
  422TMC3    C5 6296   1.218   4.056  12.684  0.3715  0.4051  0.6912
  422TMC3    C6 6297   1.161   4.178  12.686 -0.2976 -0.1977 -0.1280
  422TMC3     C 6298   1.532   4.093  12.508  1.0264  0.2783 -0.5735
  422TMC3     O 6299   1.605   4.189  12.479 -0.1803  0.0154 -0.1635
  422TMC3     H 6300   1.436   4.338  12.557  0.2252  0.3659  1.0941
  422TMC3    H1 6301   1.368   3.917  12.640  1.1849 -1.1036 -0.6573
  422TMC3    H2 6302   1.055   4.184  12.705  0.2657  0.5879  2.6611
  422TMC3    C7 6303   1.124   3.944  12.705 -0.2395 -0.7029 -0.7129
  422TMC3    C8 6304   1.200   4.403  12.607  1.2299  0.3116 -0.1628
  422TMC3    O1 6305   1.137   3.851  12.627  0.2586 -0.1077  0.0573
  422TMC3    O2 6306   1.273   4.497  12.586 -0.5971 -0.1566 -0.3215
  423MPD2     C 6307   3.280   0.564   0.523 -0.3314  0.4637  0.6942
  423MPD2    C1 6308   3.276   0.436   0.582 -0.2638  0.1975 -0.2740
  423MPD2    C2 6309   3.296   0.331   0.492  0.6256 -0.0323 -0.3860
  423MPD2    C3 6310   3.308   0.342   0.358  0.4510  0.2950 -0.7354
  423MPD2    C4 6311   3.323   0.467   0.307 -0.0320 -0.4748  0.6221
  423MPD2    C5 6312   3.306   0.576   0.386 -0.2437  0.1201 -0.0067
  423MPD2     H 6313   3.283   0.227   0.522  1.3958 -0.3652 -1.2069
  423MPD2    H1 6314   3.363   0.481   0.207  0.5552  2.4017  1.2367
  423MPD2    H2 6315   3.269   0.655   0.581 -0.0907  0.7408  0.3083
  423MPD2    H3 6316   3.333   0.672   0.344  0.7130 -0.2715 -0.2824
  423MPD2     N 6317   3.340   0.236   0.271 -1.7587 -0.1462  0.5937
  423MPD2    H5 6318   3.352   0.252   0.172 -1.6553  1.0181  0.7915
  423MPD2    N1 6319   3.225   0.429   0.716  0.0542 -0.4606  0.2810
  423MPD2    H7 6320   3.192   0.514   0.760  1.2860  0.5658 -0.7918
  424TMC3    C1 6321   3.139   0.323   0.911  1.1711  0.8024 -0.7270
  424TMC3    C2 6322   3.141   0.219   1.000  0.1623 -0.5571 -0.0081
  424TMC3    C3 6323   3.042   0.201   1.085  0.2926 -0.1965  0.0676
  424TMC3    C4 6324   3.028   0.401   0.898  0.1345  0.8981  0.1643
  424TMC3    C5 6325   2.926   0.372   0.985 -0.2907 -0.4813  0.3604
  424TMC3    C6 6326   2.922   0.263   1.068 -0.2959 -0.6840 -0.4857
  424TMC3     C 6327   3.218   0.312   0.788 -0.2446 -0.3167 -0.1244
  424TMC3     O 6328   3.246   0.196   0.756 -0.3679  0.1890  0.8903
  424TMC3     H 6329   3.234   0.165   1.012 -0.5303 -2.4647 -3.2173
  424TMC3    H1 6330   3.020   0.473   0.818  0.3541  0.6941 -0.0412
  424TMC3    H2 6331   2.837   0.241   1.132  0.0687 -1.0117 -0.1125
  424TMC3    C7 6332   2.807   0.454   0.967  0.1322 -0.1222 -0.0501
  424TMC3    C8 6333   3.065   0.097   1.179  1.0576 -0.4131 -0.2763
  424TMC3    O1 6334   2.798   0.510   0.860  0.4988 -0.3651  0.2788
  424TMC3    O2 6335   3.144   0.012   1.140  0.3769 -0.3572  0.5732
  425MPD2     C 6336   1.731   4.594  17.136  0.1764  0.3565 -0.0112
  425MPD2    C1 6337   1.815   4.527  17.220 -0.0198 -0.2920 -0.3272
  425MPD2    C2 6338   1.778   4.516  17.354  0.4857 -0.3569 -0.4808
  425MPD2    C3 6339   1.650   4.547  17.392 -0.1277 -0.6007 -0.8315
  425MPD2    C4 6340   1.565   4.615  17.311  0.1386  0.3102  0.4748
  425MPD2    C5 6341   1.617   4.645  17.188 -0.2130 -0.1846  0.2656
  425MPD2     H 6342   1.851   4.486  17.428  0.0013 -0.3238  0.0086
  425MPD2    H1 6343   1.470   4.651  17.349 -1.2939 -0.4349 -2.4591
  425MPD2    H2 6344   1.748   4.613  17.030  0.2869  0.7035  0.0687
  425MPD2    H3 6345   1.551   4.702  17.124 -2.8679 -0.6282  2.6594
  425MPD2     N 6346   1.607   4.484  17.513  0.6959  0.0908 -0.1106
  425MPD2    H5 6347   1.670   4.414  17.552 -0.2826  0.0570  1.4209
  425MPD2    N1 6348   1.934   4.476  17.159 -0.4868  0.1252  0.7338
  425MPD2    H7 6349   1.952   4.487  17.060  0.0459 -1.4407  0.6439
  426TMC3    C1 6350   2.148   4.383  17.140 -0.4817  0.2502 -0.1198
  426TMC3    C2 6351   2.123   4.315  17.023 -0.2000 -0.0969 -0.1182
  426TMC3    C3 6352   2.216   4.225  16.978 -0.1201 -0.0249  0.2140
  426TMC3    C4 6353   2.256   4.345  17.218  0.5772  0.1136  0.1008
  426TMC3    C5 6354   2.337   4.245  17.179 -0.4567  0.7134 -0.2949
  426TMC3    C6 6355   2.321   4.179  17.058 -0.1207  0.3908 -0.1011
  426TMC3     C 6356   2.035   4.412  17.225 -0.2035  0.3003  0.5343
  426TMC3     O 6357   2.041   4.382  17.340 -0.0804 -0.0981 -0.3789
  426TMC3     H 6358   2.035   4.334  16.963  0.3148  1.5216 -0.3817
  426TMC3    H1 6359   2.275   4.383  17.317 -1.9846 -0.9738  1.0029
  426TMC3    H2 6360   2.380   4.089  17.048 -0.2118  0.3913 -0.6161
  426TMC3    C7 6361   2.396   4.161  17.279 -1.1067 -0.5206  0.7047
  426TMC3    C8 6362   2.186   4.159  16.850 -0.0228 -0.0107  0.5120
  426TMC3    O1 6363   2.489   4.090  17.252  0.2460 -0.4501  0.1707
  426TMC3    O2 6364   2.104   4.216  16.779  0.1694  0.1453 -0.1287
  427MPD2     C 6365   0.538   1.395  14.630 -0.0955  0.2103  0.0770
  427MPD2    C1 6366   0.545   1.422  14.764  0.2726 -0.2309  0.4620
  427MPD2    C2 6367   0.428   1.473  14.827 -1.0352 -0.7901  0.6446
  427MPD2    C3 6368   0.316   1.506  14.754 -0.1775 -0.0056  0.7001
  427MPD2    C4 6369   0.319   1.474  14.617 -0.1275 -0.2904 -0.6977
  427MPD2    C5 6370   0.427   1.415  14.557  1.0155 -0.1538  0.0684
  427MPD2     H 6371   0.426   1.502  14.931 -1.0652  0.2313  0.3613
  427MPD2    H1 6372   0.230   1.484  14.556  0.3610  0.9364 -1.2098
  427MPD2    H2 6373   0.626   1.370  14.572  0.2838 -1.2872  1.3026
  427MPD2    H3 6374   0.427   1.398  14.450  2.4292  1.3556 -0.1707
  427MPD2     N 6375   0.196   1.554  14.805  0.2530  0.7270  0.1122
  427MPD2    H5 6376   0.136   1.576  14.726 -0.6584 -0.0754  0.5866
  427MPD2    N1 6377   0.657   1.388  14.836  0.2334  0.5706  0.2014
  427MPD2    H7 6378   0.649   1.388  14.937 -1.4268 -0.0603  0.0680
  428TMC3    C1 6379   0.874   1.314  14.880  0.7129 -0.1254 -0.0674
  428TMC3    C2 6380   0.865   1.185  14.921  0.9654 -0.4950  0.1729
  428TMC3    C3 6381   0.946   1.156  15.029  0.2755 -0.3008 -0.6100
  428TMC3    C4 6382   0.990   1.387  14.900 -0.1835 -0.5868 -0.1415
  428TMC3    C5 6383   1.081   1.343  14.991 -0.1396 -0.7012  0.6507
  428TMC3    C6 6384   1.056   1.231  15.065 -0.9911 -0.5085 -0.5360
  428TMC3     C 6385   0.780   1.361  14.789 -0.0634  0.0535 -0.1225
  428TMC3     O 6386   0.826   1.369  14.677  0.2498  0.2973 -0.0186
  428TMC3     H 6387   0.773   1.129  14.914 -0.1930  1.5407 -0.9249
  428TMC3    H1 6388   1.001   1.476  14.839 -0.9756 -0.7484 -0.5273
  428TMC3    H2 6389   1.122   1.212  15.149 -1.3031 -0.8491 -0.3661
  428TMC3    C7 6390   1.197   1.425  15.023 -0.2868  0.6681  0.4392
  428TMC3    C8 6391   0.938   1.032  15.111 -0.1542  0.4099  0.3849
  428TMC3    O1 6392   1.247   1.397  15.128  0.2238 -0.2294  0.0594
  428TMC3    O2 6393   0.873   0.937  15.071 -0.4829  0.2336  0.0117
  429MPD2     C 6394   1.650   1.780   0.173  0.0714 -0.6762  0.1963
  429MPD2    C1 6395   1.643   1.726   0.046  0.3831  0.1995 -0.1522
  429MPD2    C2 6396   1.713   1.790  17.633 -0.4586  0.3472  0.2433
  429MPD2    C3 6397   1.782   1.903  17.652  0.4674 -0.3590 -0.5999
  429MPD2    C4 6398   1.793   1.953   0.089  0.3693 -0.3251 -0.2173
  429MPD2    C5 6399   1.724   1.894   0.186 -0.3518 -0.3900 -0.4365
  429MPD2     H 6400   1.713   1.748  17.533 -3.2938 -1.3294  0.9477
  429MPD2    H1 6401   1.864   2.029   0.121 -0.1493  0.8520 -1.9037
  429MPD2    H2 6402   1.607   1.739   0.263 -0.8362 -1.2728 -0.5100
  429MPD2    H3 6403   1.745   1.920   0.289 -1.1447  0.7509 -0.5615
  429MPD2     N 6404   1.876   1.929  17.547 -0.4119  0.4239  0.0913
  429MPD2    H5 6405   1.884   1.872  17.463 -3.1881 -2.9110  2.0947
  429MPD2    N1 6406   1.569   1.606   0.029  0.5903  0.3190 -0.3749
  429MPD2    H7 6407   1.549   1.570  17.622 -0.3047  0.9480 -0.4300
  430TMC3    C1 6408   2.025   2.056  17.418  0.0554  0.2926  0.2471
  430TMC3    C2 6409   1.942   2.046  17.306  0.3080 -0.9709 -0.1402
  430TMC3    C3 6410   1.992   2.076  17.186  0.2620  0.3061 -0.1989
  430TMC3    C4 6411   2.153   2.100  17.399 -0.2579 -0.3209 -0.4237
  430TMC3    C5 6412   2.203   2.120  17.275  0.1393  0.1455 -0.2755
  430TMC3    C6 6413   2.119   2.110  17.165 -0.7492 -1.1086  0.7839
  430TMC3     C 6414   1.967   2.038  17.550 -0.5474  0.1531  0.1405
  430TMC3     O 6415   2.004   2.109  17.640  0.1260  0.3453 -0.4813
  430TMC3     H 6416   1.835   2.060  17.313  0.2701 -0.6864 -1.3784
  430TMC3    H1 6417   2.218   2.098  17.486 -0.5812  1.1507 -0.1640
  430TMC3    H2 6418   2.158   2.118  17.064 -0.7587 -1.6607  0.7317
  430TMC3    C7 6419   2.345   2.112  17.253 -0.5188 -0.3755 -0.2922
  430TMC3    C8 6420   1.904   2.042  17.076 -0.2028  0.6022 -0.4283
  430TMC3    O1 6421   2.381   2.065  17.146 -0.3906 -0.2613 -0.1629
  430TMC3    O2 6422   1.816   1.958  17.088  1.0503  0.7080  0.0448
  431MPD2     C 6423   2.517   1.647  12.775 -0.1010 -0.1109 -0.0811
  431MPD2    C1 6424   2.503   1.747  12.680  0.2667 -0.5491  0.2966
  431MPD2    C2 6425   2.444   1.724  12.556 -0.0639  0.3622 -0.0237
  431MPD2    C3 6426   2.386   1.604  12.530  0.3702  0.5165 -0.3157
  431MPD2    C4 6427   2.399   1.504  12.621 -0.0419 -0.3103  0.2779
  431MPD2    C5 6428   2.466   1.526  12.739  0.0273 -0.1019  0.0521
  431MPD2     H 6429   2.441   1.806  12.485 -2.1483 -1.2040 -1.7155
  431MPD2    H1 6430   2.361   1.405  12.595 -0.5120  0.4219 -1.8224
  431MPD2    H2 6431   2.568   1.667  12.868  0.4350 -1.5849 -0.0553
  431MPD2    H3 6432   2.476   1.437  12.801  0.3132  0.5932  0.9956
  431MPD2     N 6433   2.301   1.577  12.416 -0.0005  0.6595  0.3474
  431MPD2    H5 6434   2.274   1.481  12.396 -1.8897  1.2149  0.2201
  431MPD2    N1 6435   2.558   1.878  12.696 -0.1864  0.2915  0.2944
  431MPD2    H7 6436   2.533   1.944  12.623  2.1210  1.9462  0.9879
  432TMC3    C1 6437   2.200   1.584  12.214  0.1238 -0.6652  0.0012
  432TMC3    C2 6438   2.266   1.553  12.102  0.2479 -0.5959  0.0962
  432TMC3    C3 6439   2.224   1.449  12.022  0.4646 -0.3249 -1.1342
  432TMC3    C4 6440   2.106   1.498  12.265 -0.2157 -0.1678  0.0698
  432TMC3    C5 6441   2.071   1.383  12.195 -0.0835 -0.6792  0.0571
  432TMC3    C6 6442   2.118   1.366  12.064 -0.3163  0.1279  0.4281
  432TMC3     C 6443   2.290   1.656  12.313 -0.1248 -0.9345 -0.2459
  432TMC3     O 6444   2.356   1.753  12.286 -0.1174  0.2702  0.2360
  432TMC3     H 6445   2.354   1.613  12.085  0.6679 -1.1237  0.4208
  432TMC3    H1 6446   2.054   1.509  12.359  0.8283  0.6361  0.5589
  432TMC3    H2 6447   2.090   1.274  12.014 -0.5245  0.3829  0.0743
  432TMC3    C7 6448   2.043   1.261  12.268  0.3959 -0.1001  0.5663
  432TMC3    C8 6449   2.294   1.424  11.897 -0.1334  0.0039  0.1809
  432TMC3    O1 6450   2.087   1.154  12.225  0.6138 -0.0715  0.1723
  432TMC3    O2 6451   2.243   1.350  11.812  0.2201 -0.5853  0.2290
  433MPD2     C 6452   1.240   0.463  10.659  0.4220 -0.9200 -0.2091
  433MPD2    C1 6453   1.286   0.335  10.692 -1.3162  0.3303 -0.2419
  433MPD2    C2 6454   1.335   0.311  10.816 -0.1309 -1.1129 -0.1800
  433MPD2    C3 6455   1.348   0.410  10.915 -0.2391  0.9161  0.1668
  433MPD2    C4 6456   1.314   0.534  10.871  0.4516  0.1253 -0.3831
  433MPD2    C5 6457   1.261   0.565  10.749  0.2832  0.1805  0.4974
  433MPD2     H 6458   1.358   0.210  10.846  2.1463 -0.0918  1.5152
  433MPD2    H1 6459   1.312   0.617  10.941  3.5544 -0.5738  0.5356
  433MPD2    H2 6460   1.176   0.476  10.573  1.3213 -2.3112 -1.0999
  433MPD2    H3 6461   1.230   0.662  10.712 -0.2213 -0.1979 -0.0751
  433MPD2     N 6462   1.380   0.377  11.048 -0.0829  0.4271 -0.0305
  433MPD2    H5 6463   1.392   0.279  11.074 -0.7238 -0.0095 -1.3678
  433MPD2    N1 6464   1.263   0.225  10.606 -0.2715 -0.0884  0.5575
  433MPD2    H7 6465   1.184   0.221  10.541 -0.6799 -0.4175  1.0734
  434TMC3    C1 6466   1.293   4.703  10.600 -0.1608 -0.3266  1.3396
  434TMC3    C2 6467   1.364   4.612  10.677 -0.4915  0.1901  0.4561
  434TMC3    C3 6468   1.296   4.498  10.700  0.1844  0.5120 -0.3321
  434TMC3    C4 6469   1.168   4.687  10.554  0.4214 -0.2587 -0.3943
  434TMC3    C5 6470   1.115   4.567  10.564 -0.2538  0.0015 -0.3115
  434TMC3    C6 6471   1.174   4.467  10.641  0.6787  0.3629 -0.2964
  434TMC3     C 6472   1.352   0.119  10.613 -0.1450  0.3232 -0.8255
  434TMC3     O 6473   1.468   0.132  10.640  0.3527  0.2795  0.0396
  434TMC3     H 6474   1.463   4.646  10.707 -0.1648  0.0028 -0.3974
  434TMC3    H1 6475   1.109   0.038  10.499  1.1759  1.3115  0.8486
  434TMC3    H2 6476   1.130   4.371  10.667  0.2897  0.8899  0.9753
  434TMC3    C7 6477   1.000   4.540  10.480  0.6962  0.7735  0.1140
  434TMC3    C8 6478   1.371   4.387  10.765  0.3961 -0.1683  0.0865
  434TMC3    O1 6479   0.928   4.629  10.442 -0.1356  0.2229 -0.3248
  434TMC3    O2 6480   1.312   4.281  10.778 -0.0669 -0.0445  0.0471
  435MPD2     C 6481   3.125   0.210  15.541  0.6106 -0.3110 -0.2482
  435MPD2    C1 6482   3.156   0.190  15.672  0.3148  0.8507 -0.4959
  435MPD2    C2 6483   3.278   0.140  15.707 -0.0293  0.1780  1.0331
  435MPD2    C3 6484   3.380   0.124  15.615  0.5369 -0.1273  0.0117
  435MPD2    C4 6485   3.345   0.145  15.482  0.1317 -0.4752 -0.8283
  435MPD2    C5 6486   3.214   0.178  15.441 -0.8333  0.3657 -0.3698
  435MPD2     H 6487   3.296   0.122  15.813 -1.1449  2.6535  1.6612
  435MPD2    H1 6488   3.420   0.120  15.407 -0.6427  1.6530 -2.2928
  435MPD2    H2 6489   3.025   0.233  15.508  0.2393  0.1205  1.1915
  435MPD2    H3 6490   3.178   0.186  15.339 -2.4735 -0.6422  0.1295
  435MPD2     N 6491   3.513   0.114  15.668  0.1697  0.1906 -0.0886
  435MPD2    H5 6492   3.522   0.089  15.767 -1.4422  0.5501  0.1477
  435MPD2    N1 6493   3.068   0.221  15.788  0.6537 -0.0311  0.1755
  435MPD2    H7 6494   3.094   0.182  15.878 -2.4929  0.2689  1.2128
  436TMC3    C1 6495   2.913   0.388  16.117  0.4785 -0.0777 -1.4112
  436TMC3    C2 6496   2.967   0.310  16.016 -0.3557  0.7831  0.0951
  436TMC3    C3 6497   2.882   0.288  15.916 -0.0864 -0.1266 -0.2977
  436TMC3    C4 6498   2.780   0.413  16.140 -0.3081 -0.4927  0.0036
  436TMC3    C5 6499   2.698   0.369  16.035  0.6576  0.5185 -0.5708
  436TMC3    C6 6500   2.742   0.316  15.919  0.1228 -0.5694 -0.1806
  436TMC3     C 6501   3.012   0.435  16.214  0.0733 -0.0954 -0.0976
  436TMC3     O 6502   3.125   0.398  16.201  0.1834  0.0926  0.0741
  436TMC3     H 6503   3.075   0.302  16.021 -0.5270 -1.6985 -0.0343
  436TMC3    H1 6504   2.741   0.473  16.222  1.9007 -1.8821  2.0585
  436TMC3    H2 6505   2.686   0.300  15.828  0.7268 -3.1370 -0.0958
  436TMC3    C7 6506   2.552   0.375  16.058 -0.5071  0.9530 -0.1078
  436TMC3    C8 6507   2.940   0.274  15.781 -0.3324  0.0866  0.6485
  436TMC3    O1 6508   2.491   0.280  16.009  0.2466 -0.2895 -0.0920
  436TMC3    O2 6509   2.878   0.324  15.688 -0.4445 -0.6664  0.2770
  437TMC3    C1 6510   2.155   2.647  12.556 -0.7260  0.0967 -0.3111
  437TMC3    C2 6511   2.061   2.719  12.493 -0.1697  0.5599 -0.0579
  437TMC3    C3 6512   2.094   2.774  12.369  0.2759 -0.7229 -0.2152
  437TMC3    C4 6513   2.286   2.642  12.513  0.1667  0.3800 -0.4221
  437TMC3    C5 6514   2.306   2.703  12.388 -0.4128 -0.0705  0.8729
  437TMC3    C6 6515   2.212   2.756  12.303 -0.2983 -0.3423 -0.1289
  437TMC3     C 6516   2.123   2.568  12.673  0.0388  0.4280 -0.1849
  437TMC3     O 6517   2.215   2.500  12.723 -0.0156 -0.1823 -0.2915
  437TMC3     H 6518   1.959   2.731  12.527  0.8977  0.8752  3.0411
  437TMC3    H1 6519   2.359   2.581  12.566  1.2619  1.7120 -0.3843
  437TMC3    H2 6520   2.243   2.801  12.210 -0.1527  3.9755  2.0039
  437TMC3    C7 6521   2.436   2.687  12.323 -0.2950 -0.2422 -0.0565
  437TMC3    C8 6522   1.977   2.817  12.291  0.0534  0.2667 -0.2923
  437TMC3    O1 6523   2.439   2.715  12.204 -0.1563  0.3545 -0.3800
  437TMC3    O2 6524   1.875   2.844  12.358  0.4532  0.5387  0.0570
  438MPD2     C 6525   0.359   3.106  16.745 -0.4327 -0.8403  0.2785
  438MPD2    C1 6526   0.473   3.029  16.751  0.3476 -0.5881 -0.3917
  438MPD2    C2 6527   0.469   2.913  16.823 -0.5600 -0.2001  0.2243
  438MPD2    C3 6528   0.354   2.868  16.885  0.5168  0.1744  0.3008
  438MPD2    C4 6529   0.243   2.947  16.882  0.0091  0.4213  0.4560
  438MPD2    C5 6530   0.254   3.065  16.819 -0.0988 -0.0072  0.6963
  438MPD2     H 6531   0.558   2.852  16.814  0.9804  2.0279  0.4283
  438MPD2    H1 6532   0.151   2.926  16.936  0.2046 -0.6961  0.3671
  438MPD2    H2 6533   0.355   3.202  16.695 -0.0355 -1.4254 -0.8794
  438MPD2    H3 6534   0.172   3.135  16.806 -0.0272  0.1147  0.8954
  438MPD2     N 6535   0.353   2.747  16.959 -0.1269 -0.4547 -0.1895
  438MPD2    H5 6536   0.268   2.716  17.004  0.5361 -0.6666  0.9265
  438MPD2    N1 6537   0.589   3.049  16.671  0.2230 -0.4625 -0.4961
  438MPD2    H7 6538   0.666   2.983  16.676 -0.4098 -1.2602 -1.2211
  439TMC3    C1 6539   0.701   3.121  16.477  1.2106  1.0228  0.2706
  439TMC3    C2 6540   0.637   3.070  16.369 -0.0767  0.0342  0.0276
  439TMC3    C3 6541   0.695   2.969  16.297  0.1631  0.0611 -0.0188
  439TMC3    C4 6542   0.810   3.062  16.517  0.1706 -0.8097 -0.3546
  439TMC3    C5 6543   0.869   2.965  16.443 -0.4142  0.7969  0.0911
  439TMC3    C6 6544   0.812   2.907  16.331 -0.0922  0.0244  0.1956
  439TMC3     C 6545   0.600   3.145  16.578  0.0598  0.0982 -0.6465
  439TMC3     O 6546   0.522   3.238  16.563 -0.0726 -0.5485 -0.0057
  439TMC3     H 6547   0.538   3.105  16.342 -0.6375 -0.4726  1.4071
  439TMC3    H1 6548   0.859   3.105  16.604 -0.5016 -1.1122  0.1759
  439TMC3    H2 6549   0.847   2.817  16.283 -0.7223  1.3991 -2.8280
  439TMC3    C7 6550   0.989   2.906  16.503  0.3920 -0.2727  0.0600
  439TMC3    C8 6551   0.649   2.940  16.161 -0.6753 -0.0230 -0.0474
  439TMC3    O1 6552   0.990   2.782  16.514  0.3464  0.4588 -0.0182
  439TMC3    O2 6553   0.712   2.845  16.116  0.0965  0.0343  0.9578
  440MPD2     C 6554   2.988   3.113  14.865  0.0954 -0.1013 -0.6170
  440MPD2    C1 6555   3.057   3.233  14.879 -0.1129 -0.5641 -0.2356
  440MPD2    C2 6556   3.172   3.247  14.807  0.2744  0.2202  0.4907
  440MPD2    C3 6557   3.222   3.152  14.721 -1.0232 -0.2732 -0.1308
  440MPD2    C4 6558   3.151   3.031  14.711 -0.7081 -0.2215  0.3147
  440MPD2    C5 6559   3.033   3.013  14.786 -0.0537  0.6003 -0.3158
  440MPD2     H 6560   3.222   3.342  14.794 -1.7459  1.2424  0.2328
  440MPD2    H1 6561   3.185   2.947  14.653  0.7875  1.6003 -1.4536
  440MPD2    H2 6562   2.903   3.098  14.930 -2.1765 -0.6992 -3.7579
  440MPD2    H3 6563   2.977   2.920  14.787 -0.9068  1.0900 -1.6691
  440MPD2     N 6564   3.352   3.163  14.676  0.4279  0.7218 -0.0054
  440MPD2    H5 6565   3.383   3.077  14.633 -0.8275  0.8591 -1.1955
  440MPD2    N1 6566   3.031   3.330  14.973  0.5200 -1.0748 -0.4810
  440MPD2    H7 6567   3.090   3.412  14.987 -0.7342  0.0149 -1.5762
  441TMC3    C1 6568   3.541   3.268  14.579 -0.1266 -0.6339  0.2108
  441TMC3    C2 6569   3.569   3.394  14.544  0.2187 -0.0493  0.5824
  441TMC3    C3 6570   3.684   3.452  14.585 -0.0148  0.6558  0.2630
  441TMC3    C4 6571   3.631   3.197  14.653  0.3999 -0.0043  0.0275
  441TMC3    C5 6572   3.733   3.262  14.717 -0.3146 -0.0730  0.5821
  441TMC3    C6 6573   3.765   3.392  14.681 -0.1270  0.8667  0.5509
  441TMC3     C 6574   3.423   3.282  14.660  0.6424 -0.0446 -0.1461
  441TMC3     O 6575   3.405   3.390  14.711 -0.0843  0.0888 -0.3159
  441TMC3     H 6576   3.489   3.446  14.492  0.0296 -1.3569 -0.4574
  441TMC3    H1 6577   3.598   3.099  14.684 -0.2908 -0.2503 -1.5092
  441TMC3    H2 6578   3.839   3.457  14.726  2.1947 -1.7212  0.4885
  441TMC3    C7 6579   3.733   3.237  14.859  0.1835 -0.8364  0.7813
  441TMC3    C8 6580   3.674   3.592  14.608 -0.1305  0.4988 -0.2389
  441TMC3    O1 6581   3.639   3.176  14.911 -0.1910  0.2236 -0.2586
  441TMC3    O2 6582   3.774   3.661  14.601 -0.0974  0.0163 -0.5842
  442MPD2     C 6583   1.743   3.965  16.858  0.0539 -0.2703 -0.4161
  442MPD2    C1 6584   1.681   3.847  16.908  0.0671 -0.0356 -0.1911
  442MPD2    C2 6585   1.654   3.743  16.820  0.1799 -0.4490  0.4835
  442MPD2    C3 6586   1.688   3.755  16.686  0.2826 -0.1534 -0.1196
  442MPD2    C4 6587   1.735   3.872  16.639 -0.6454  0.1950 -0.6713
  442MPD2    C5 6588   1.758   3.983  16.724  0.2880 -1.1094  1.1824
  442MPD2     H 6589   1.597   3.659  16.860 -1.3767  0.0449 -0.6945
  442MPD2    H1 6590   1.746   3.897  16.535  2.1807  0.0840 -0.3840
  442MPD2    H2 6591   1.767   4.044  16.928 -1.2663  0.3011 -0.6034
  442MPD2    H3 6592   1.798   4.073  16.677 -3.9023 -0.5431 -1.2658
  442MPD2     N 6593   1.666   3.648  16.596 -0.7771  0.2783 -0.3119
  442MPD2    H5 6594   1.706   3.670  16.505  1.4685  2.4552  1.1718
  442MPD2    N1 6595   1.645   3.826  17.044 -0.3218  0.2703  0.1986
  442MPD2    H7 6596   1.576   3.752  17.056  0.7773 -0.8019 -0.1434
  443TMC3    C1 6597   1.580   3.898  17.260 -0.0973 -0.4670 -0.0519
  443TMC3    C2 6598   1.505   4.004  17.304 -0.3308  0.1062 -0.3114
  443TMC3    C3 6599   1.385   3.989  17.368 -0.2858  0.2496  0.1041
  443TMC3    C4 6600   1.543   3.773  17.303  0.0736 -0.1284  0.4855
  443TMC3    C5 6601   1.428   3.760  17.378 -1.0049 -0.1798 -0.6956
  443TMC3    C6 6602   1.348   3.867  17.407 -0.9852  0.4775  0.5425
  443TMC3     C 6603   1.661   3.920  17.147  0.5090  0.5094 -1.2709
  443TMC3     O 6604   1.728   4.021  17.140  0.4053 -0.0379 -0.7057
  443TMC3     H 6605   1.559   4.098  17.296 -0.3634  0.3213  1.8655
  443TMC3    H1 6606   1.610   3.690  17.283  0.9929  0.4586  1.1684
  443TMC3    H2 6607   1.255   3.850  17.459 -1.0153 -1.3908 -0.1312
  443TMC3    C7 6608   1.413   3.631  17.444  0.2768  0.2685  0.8343
  443TMC3    C8 6609   1.301   4.102  17.406 -0.2578 -0.4732 -0.5031
  443TMC3    O1 6610   1.447   3.540  17.374 -0.5150 -0.8286  0.3926
  443TMC3    O2 6611   1.250   4.091  17.518  0.3340  0.2155  0.3358
  444MPD2     C 6612   2.397   3.345  17.398 -0.5090  0.0239  0.0303
  444MPD2    C1 6613   2.315   3.241  17.368 -0.2949  0.4670 -0.1310
  444MPD2    C2 6614   2.373   3.138  17.302  0.5031  0.0729 -0.5861
  444MPD2    C3 6615   2.505   3.133  17.260  0.0695 -0.0824 -0.1307
  444MPD2    C4 6616   2.578   3.240  17.281  0.4777  0.4229  0.1798
  444MPD2    C5 6617   2.527   3.350  17.348 -0.2728  0.2899 -0.0620
  444MPD2     H 6618   2.310   3.051  17.285  1.1810 -0.3266 -1.0347
  444MPD2    H1 6619   2.683   3.251  17.254  0.4989 -0.7181 -0.1938
  444MPD2    H2 6620   2.364   3.438  17.442 -1.9761  0.8936 -2.8838
  444MPD2    H3 6621   2.594   3.434  17.362  0.3778  0.0215 -1.4598
  444MPD2     N 6622   2.541   3.019  17.186 -0.1949 -0.6027  0.0673
  444MPD2    H5 6623   2.467   2.951  17.170 -1.4385  1.7138 -3.9969
  444MPD2    N1 6624   2.177   3.244  17.399  0.0518  0.7116 -0.2584
  444MPD2    H7 6625   2.116   3.168  17.370 -0.8293 -0.0588  3.5774
  445TMC3    C1 6626   2.657   2.892  17.033  0.3496  1.0294 -0.2837
  445TMC3    C2 6627   2.546   2.860  16.962 -1.1680 -0.3391  0.2266
  445TMC3    C3 6628   2.559   2.763  16.867 -0.4159  0.5922  0.6503
  445TMC3    C4 6629   2.772   2.815  17.024 -0.2678 -0.1233  0.0924
  445TMC3    C5 6630   2.777   2.725  16.919  0.5981 -0.3708  0.1724
  445TMC3    C6 6631   2.672   2.697  16.834 -1.0578  0.5368 -0.4147
  445TMC3     C 6632   2.661   2.988  17.132 -0.3095  0.5706  0.5199
  445TMC3     O 6633   2.772   3.035  17.155 -0.0726 -0.2924  0.5457
  445TMC3     H 6634   2.455   2.911  16.990 -1.2626 -1.2493  1.5765
  445TMC3    H1 6635   2.857   2.832  17.089  0.1388 -0.3243 -0.3823
  445TMC3    H2 6636   2.682   2.611  16.769 -0.4722  0.7154 -0.5564
  445TMC3    C7 6637   2.893   2.638  16.910 -0.2102  0.0236 -0.7261
  445TMC3    C8 6638   2.430   2.725  16.803  0.3227 -0.0868 -0.2330
  445TMC3    O1 6639   2.946   2.598  17.011  0.6561 -0.4399  1.0052
  445TMC3    O2 6640   2.349   2.816  16.807 -0.5634  0.8102 -0.2102
  446MPD2     C 6641   0.960   4.171  10.948 -0.3744  0.6049  0.3926
  446MPD2    C1 6642   0.962   4.306  10.910 -0.4087 -0.6646  0.6300
  446MPD2    C2 6643   1.065   4.386  10.960 -1.0473 -0.9252 -0.0156
  446MPD2    C3 6644   1.159   4.339  11.050 -0.0971  0.6866 -0.3248
  446MPD2    C4 6645   1.153   4.206  11.081 -0.2144  0.5650 -0.3590
  446MPD2    C5 6646   1.061   4.119  11.017  0.6702 -0.7132 -0.4863
  446MPD2     H 6647   1.062   4.488  10.922  0.4265 -1.6243 -1.9926
  446MPD2    H1 6648   1.225   4.163  11.150 -0.4681 -0.2663 -0.6133
  446MPD2    H2 6649   0.886   4.094  10.929 -1.1388  1.3503  0.4057
  446MPD2    H3 6650   1.061   4.014  11.044  1.3808 -0.7923 -0.7864
  446MPD2     N 6651   1.257   4.428  11.101  0.1798  0.2506 -0.2761
  446MPD2    H5 6652   1.270   4.518  11.057  0.9575 -0.8854 -2.3523
  446MPD2    N1 6653   0.856   4.363  10.840  0.0768  0.1085 -0.1622
  446MPD2    H7 6654   0.855   4.463  10.824  0.8222  0.0683 -0.4646
  447TMC3    C1 6655   1.459   4.483  11.205  0.5309 -0.8493  0.1942
  447TMC3    C2 6656   1.476   4.594  11.130  0.5990  0.1801 -0.4991
  447TMC3    C3 6657   1.606   4.647  11.123  0.2279 -0.3865  0.3685
  447TMC3    C4 6658   1.562   4.426  11.281  0.5388 -1.1192 -0.5745
  447TMC3    C5 6659   1.690   4.487  11.280  0.0282 -0.1841  0.4636
  447TMC3    C6 6660   1.714   4.591  11.193 -0.0647  0.4378  0.0685
  447TMC3     C 6661   1.345   4.393  11.205 -0.1355  0.2218 -0.3379
  447TMC3     O 6662   1.346   4.303  11.288 -0.1728 -0.1635  0.2149
  447TMC3     H 6663   1.393   4.648  11.084 -0.2357  0.1142  0.9362
  447TMC3    H1 6664   1.545   4.339  11.342  0.4072 -0.3778  0.4525
  447TMC3    H2 6665   1.810   4.641  11.202 -0.0540  0.4967 -0.3764
  447TMC3    C7 6666   1.801   4.411  11.326  0.6440  0.4541 -0.4230
  447TMC3    C8 6667   1.628   0.041  11.041  0.7807  0.4177  0.0236
  447TMC3    O1 6668   1.906   4.423  11.258 -0.7306  0.5412  0.0656
  447TMC3    O2 6669   1.525   0.103  11.017 -0.4272 -0.1798 -0.3290
  448TMC3    C1 6670   0.038   0.237  17.123 -0.0231 -0.0372 -0.0670
  448TMC3    C2 6671   0.071   0.177  17.007  0.2168  0.2641 -0.3064
  448TMC3    C3 6672   0.171   0.083  17.009 -0.5332  0.0341  0.6510
  448TMC3    C4 6673   0.102   0.199  17.240  0.3939 -0.1492  0.1962
  448TMC3    C5 6674   0.201   0.105  17.232  0.8978  0.6773  0.0107
  448TMC3    C6 6675   0.238   0.048  17.121 -0.0789 -0.6156 -0.8247
  448TMC3     C 6676   4.627   0.297  17.119 -0.2316  0.0910 -0.2301
  448TMC3     O 6677   4.539   0.246  17.051  0.8108 -0.5085 -0.8450
  448TMC3     H 6678   0.029   0.209  16.912  1.0781 -1.6996 -1.3396
  448TMC3    H1 6679   0.067   0.230  17.338 -1.4801 -0.2849 -0.4299
  448TMC3    H2 6680   0.328   4.709  17.119  0.2712 -0.1361  0.8150
  448TMC3    C7 6681   0.287   0.101  17.347  0.5243  0.5596 -0.6914
  448TMC3    C8 6682   0.200   4.717  16.896  0.2483 -0.2655  0.1698
  448TMC3    O1 6683   0.318   0.200  17.411  0.2537 -0.6300 -0.1515
  448TMC3    O2 6684   0.299   4.651  16.907  0.1770  0.4159 -0.6065
  449MPD2     C 6685   1.370   2.665  14.062  0.3142 -0.3222  0.5194
  449MPD2    C1 6686   1.237   2.668  14.018  0.8431  0.9644 -0.0059
  449MPD2    C2 6687   1.131   2.673  14.109  0.5613 -0.4566 -0.2156
  449MPD2    C3 6688   1.150   2.673  14.245 -0.5080  0.0069 -0.4035
  449MPD2    C4 6689   1.276   2.658  14.299  0.0089 -0.5681  0.5930
  449MPD2    C5 6690   1.379   2.657  14.205 -0.2915  0.7243 -0.7682
  449MPD2     H 6691   1.027   2.676  14.078  1.0170 -0.6610 -1.7913
  449MPD2    H1 6692   1.296   2.653  14.405  0.1198  2.0084  0.6968
  449MPD2    H2 6693   1.458   2.672  14.001 -0.5855 -0.1582 -0.7563
  449MPD2    H3 6694   1.483   2.653  14.236 -0.4093 -4.1525 -0.9861
  449MPD2     N 6695   1.027   2.697  14.316 -0.4320 -0.3613  0.4856
  449MPD2    H5 6696   0.953   2.742  14.263  0.1294  0.1198  0.1096
  449MPD2    N1 6697   1.199   2.676  13.883 -0.4911  0.1499  0.0978
  449MPD2    H7 6698   1.099   2.677  13.868 -0.3855 -1.2619 -0.6506
  450TMC3    C1 6699   1.205   2.727  13.661 -0.1399  0.2597  0.1724
  450TMC3    C2 6700   1.252   2.842  13.606 -0.7456 -0.2162 -0.0708
  450TMC3    C3 6701   1.166   2.945  13.569 -0.2370 -0.6642  0.2544
  450TMC3    C4 6702   1.071   2.698  13.664  0.4157 -0.4508 -0.1870
  450TMC3    C5 6703   0.990   2.810  13.650  0.3153 -0.1118  0.1483
  450TMC3    C6 6704   1.036   2.922  13.591 -0.0442  0.0774 -0.2598
  450TMC3     C 6705   1.277   2.677  13.770 -1.1008  0.9361 -0.1917
  450TMC3     O 6706   1.397   2.666  13.766  1.0582  0.6095 -0.6581
  450TMC3     H 6707   1.357   2.866  13.621 -0.6489  0.1523 -1.2849
  450TMC3    H1 6708   1.035   2.605  13.707  2.2430  0.9512  4.4315
  450TMC3    H2 6709   0.969   2.998  13.554  0.6301 -0.0933 -1.8067
  450TMC3    C7 6710   0.890   2.820  13.751 -0.4942  0.0521  0.1812
  450TMC3    C8 6711   1.205   3.034  13.460  0.2885  0.2162 -0.5491
  450TMC3    O1 6712   0.895   2.746  13.846 -0.1312  0.0113  0.2952
  450TMC3    O2 6713   1.139   3.139  13.449  0.7265  0.0382 -0.4208
  451MPD2     C 6714   2.435   1.443   1.759  0.3746 -0.5931 -0.6553
  451MPD2    C1 6715   2.544   1.498   1.696  0.6652 -0.2412  0.1289
  451MPD2    C2 6716   2.643   1.416   1.635 -0.4317 -0.3979  0.3823
  451MPD2    C3 6717   2.646   1.281   1.645  0.3649 -0.3883 -0.3958
  451MPD2    C4 6718   2.547   1.222   1.721  0.3990 -0.0350  0.9564
  451MPD2    C5 6719   2.446   1.306   1.779 -0.1322  0.4575 -0.2226
  451MPD2     H 6720   2.725   1.457   1.577 -0.8297 -1.1786 -0.7440
  451MPD2    H1 6721   2.545   1.117   1.747  1.3228 -0.1131  0.7323
  451MPD2    H2 6722   2.352   1.504   1.793  0.3145 -0.5351 -0.9077
  451MPD2    H3 6723   2.375   1.257   1.845  0.4496 -0.6087 -0.3902
  451MPD2     N 6724   2.743   1.190   1.580 -0.6342 -0.0994  0.4901
  451MPD2    H5 6725   2.733   1.093   1.607  0.2878  0.2097  1.9543
  451MPD2    N1 6726   2.556   1.641   1.697 -0.1217 -0.2767  0.0032
  451MPD2    H7 6727   2.480   1.688   1.745  0.9449  1.2778  0.1698
  452TMC3    C1 6728   2.914   1.112   1.448 -0.6104  0.5180  0.2673
  452TMC3    C2 6729   2.952   1.016   1.540  0.4118 -1.2741  0.2039
  452TMC3    C3 6730   3.046   0.923   1.498 -0.1385  0.2851  0.0771
  452TMC3    C4 6731   2.969   1.129   1.325  0.5454 -0.3366  0.0837
  452TMC3    C5 6732   3.056   1.030   1.286  0.0384 -0.4601 -0.4783
  452TMC3    C6 6733   3.102   0.931   1.369 -0.0608 -0.3130 -0.2289
  452TMC3     C 6734   2.844   1.227   1.500 -0.0671  0.3604  0.8591
  452TMC3     O 6735   2.882   1.333   1.456  0.4007 -0.0461 -0.0454
  452TMC3     H 6736   2.909   1.027   1.639  0.2102 -0.9903  0.0858
  452TMC3    H1 6737   2.919   1.197   1.256 -0.3988 -0.6871  0.4284
  452TMC3    H2 6738   3.174   0.857   1.336  1.0721  0.3905  0.6361
  452TMC3    C7 6739   3.134   1.057   1.169  0.7181  0.3663 -0.1967
  452TMC3    C8 6740   3.086   0.812   1.589 -0.2696  0.1719  0.1360
  452TMC3    O1 6741   3.077   1.109   1.068  0.1049  0.1724 -0.3640
  452TMC3    O2 6742   3.005   0.798   1.681  0.5059  0.7823 -0.3043
  453TMC3    C1 6743   3.714   3.677  12.047  0.0650 -0.6817  0.2133
  453TMC3    C2 6744   3.646   3.561  12.082  0.0224  0.3295  0.2516
  453TMC3    C3 6745   3.547   3.531  11.991 -0.1818  0.3918  0.0611
  453TMC3    C4 6746   3.690   3.751  11.935 -0.0963  0.0231  0.2909
  453TMC3    C5 6747   3.583   3.713  11.859  0.3890  0.4149  0.5089
  453TMC3    C6 6748   3.508   3.608  11.893  0.5733  1.2251 -0.7100
  453TMC3     C 6749   3.816   3.722  12.134 -0.3540 -0.1248 -0.4539
  453TMC3     O 6750   3.844   3.844  12.124 -0.8264  0.4980  0.1292
  453TMC3     H 6751   3.653   3.505  12.175 -0.0407  2.3656  1.4745
  453TMC3    H1 6752   3.767   3.823  11.908 -0.1599 -0.2068 -0.5173
  453TMC3    H2 6753   3.426   3.584  11.826 -1.2181 -2.6265  2.8162
  453TMC3    C7 6754   3.575   3.758  11.727 -0.5361  0.0406  0.5186
  453TMC3    C8 6755   3.487   3.401  11.997  0.7729 -0.4626 -0.7560
  453TMC3    O1 6756   3.519   3.688  11.643 -0.6365 -0.2430  0.1994
  453TMC3    O2 6757   3.385   3.369  11.937  0.0521 -0.0320  0.0801
  454MPD2     C 6758   2.947   2.975  16.590  0.4227  1.2682  0.5010
  454MPD2    C1 6759   2.868   3.080  16.552 -0.0708 -0.3591 -0.3093
  454MPD2    C2 6760   2.820   3.172  16.643  0.2415 -0.6548 -0.6001
  454MPD2    C3 6761   2.843   3.155  16.782 -0.6891 -0.5805 -0.8309
  454MPD2    C4 6762   2.926   3.052  16.818  0.1631  0.3849  0.7447
  454MPD2    C5 6763   2.976   2.961  16.725 -0.1583 -0.0326  0.3549
  454MPD2     H 6764   2.752   3.248  16.607  0.5203  0.1378  0.5329
  454MPD2    H1 6765   2.947   3.029  16.921  2.1558 -0.5133  0.1397
  454MPD2    H2 6766   2.979   2.900  16.519 -1.5982 -0.7062  1.6939
  454MPD2    H3 6767   3.040   2.880  16.757  0.8779 -0.5824 -3.0845
  454MPD2     N 6768   2.785   3.234  16.885 -0.1838  1.2020 -0.4289
  454MPD2    H5 6769   2.833   3.229  16.974  2.4508 -1.4717 -1.9773
  454MPD2    N1 6770   2.818   3.102  16.422  0.3217 -0.5953 -0.2563
  454MPD2    H7 6771   2.750   3.176  16.408  2.0850  1.1464  0.3843
  455TMC3    C1 6772   2.581   3.288  16.764  0.4289 -0.0778 -0.0756
  455TMC3    C2 6773   2.512   3.391  16.716  0.1961  0.7362  0.3157
  455TMC3    C3 6774   2.404   3.369  16.633 -0.1708 -0.4720 -0.3463
  455TMC3    C4 6775   2.547   3.162  16.732 -0.7155  0.0562 -0.1664
  455TMC3    C5 6776   2.452   3.140  16.634  0.1763 -0.1096 -0.3370
  455TMC3    C6 6777   2.379   3.240  16.589  0.1980  0.3926 -0.4533
  455TMC3     C 6778   2.676   3.320  16.869  0.0023 -0.3453  0.2887
  455TMC3     O 6779   2.633   3.411  16.939 -0.7290 -0.3628 -0.1953
  455TMC3     H 6780   2.527   3.492  16.752 -0.0889  0.7540  0.3867
  455TMC3    H1 6781   2.590   3.087  16.798  0.3468  0.7750 -0.0357
  455TMC3    H2 6782   2.318   3.232  16.500 -0.2119 -1.9054  0.0362
  455TMC3    C7 6783   2.441   3.019  16.556 -0.2874  0.3963  0.6495
  455TMC3    C8 6784   2.307   3.477  16.595  0.6209 -0.6180  0.1089
  455TMC3    O1 6785   2.360   3.031  16.464 -0.4576  0.5470 -0.1364
  455TMC3    O2 6786   2.207   3.438  16.534 -0.0989  0.7862  0.5395
  456MPD2     C 6787   0.810   3.853  15.830 -0.0352  0.2790 -0.0270
  456MPD2    C1 6788   0.762   3.752  15.911 -0.2723  0.3441  0.0637
  456MPD2    C2 6789   0.719   3.787  16.039 -0.2486 -0.4713 -0.2367
  456MPD2    C3 6790   0.715   3.921  16.080 -1.1004 -0.1789 -0.5131
  456MPD2    C4 6791   0.743   4.014  15.988  0.3040 -0.3249 -0.1573
  456MPD2    C5 6792   0.793   3.981  15.863 -0.4592  0.7477 -0.4531
  456MPD2     H 6793   0.695   3.710  16.111  0.5933 -0.2910  0.2483
  456MPD2    H1 6794   0.726   4.119  16.011  0.1072 -0.2072 -0.8098
  456MPD2    H2 6795   0.877   3.828  15.749  0.8093 -1.2955  1.1308
  456MPD2    H3 6796   0.847   4.058  15.809  1.0719 -0.6864 -0.9822
  456MPD2     N 6797   0.657   3.944  16.209 -0.2084 -0.3816 -0.2915
  456MPD2    H5 6798   0.630   3.866  16.267  1.7613 -0.6325  0.2964
  456MPD2    N1 6799   0.776   3.617  15.863 -0.2855  0.2364  0.0661
  456MPD2    H7 6800   0.793   3.598  15.765 -0.0441  0.9151 -0.0190
  457TMC3    C1 6801   0.563   4.062  16.393  0.6983 -0.6422 -0.0620
  457TMC3    C2 6802   0.492   4.171  16.424  0.2371  0.4696 -0.6350
  457TMC3    C3 6803   0.434   4.183  16.546 -0.2739  0.5369 -0.0890
  457TMC3    C4 6804   0.600   3.969  16.488 -0.2179 -0.6893  0.6583
  457TMC3    C5 6805   0.548   3.998  16.615 -0.3337 -0.4459 -0.5336
  457TMC3    C6 6806   0.471   4.106  16.645 -0.0925  0.4932  0.1494
  457TMC3     C 6807   0.633   4.066  16.260 -0.0424  0.3241 -0.1660
  457TMC3     O 6808   0.625   4.169  16.199 -0.2425  0.1252  0.3916
  457TMC3     H 6809   0.460   4.248  16.355  1.1873  1.1426 -0.3322
  457TMC3    H1 6810   0.654   3.876  16.474  1.6539  0.5399 -0.2937
  457TMC3    H2 6811   0.434   4.126  16.745  3.9242  3.7482  1.0047
  457TMC3    C7 6812   0.572   3.911  16.720 -0.1931  0.6487 -0.4686
  457TMC3    C8 6813   0.393   4.320  16.581  0.6568  0.2456 -0.2845
  457TMC3    O1 6814   0.570   3.792  16.683  0.4016 -0.9300  0.7410
  457TMC3    O2 6815   0.426   4.367  16.693 -0.1935  0.0993 -0.0815
  458MPD2     C 6816   2.949   2.638  12.380  0.5174  0.3027 -0.0175
  458MPD2    C1 6817   2.890   2.637  12.506  0.3106 -0.0374  0.3229
  458MPD2    C2 6818   2.751   2.655  12.521  0.2659 -0.0911 -0.3106
  458MPD2    C3 6819   2.677   2.665  12.407  0.4727 -0.8460  0.2447
  458MPD2    C4 6820   2.735   2.661  12.285 -0.1869  0.1500  0.3719
  458MPD2    C5 6821   2.869   2.656  12.269 -0.7679 -0.2265 -1.0091
  458MPD2     H 6822   2.704   2.646  12.619  0.6933  0.5939 -0.0417
  458MPD2    H1 6823   2.675   2.663  12.194  0.8097 -0.1867 -0.2946
  458MPD2    H2 6824   3.056   2.625  12.370  0.2684 -1.0919 -0.9243
  458MPD2    H3 6825   2.917   2.653  12.173  1.1329 -1.7686 -0.0020
  458MPD2     N 6826   2.537   2.668  12.422 -0.9016  0.2811 -0.3403
  458MPD2    H5 6827   2.505   2.680  12.517  0.0376 -0.8287  0.1181
  458MPD2    N1 6828   2.991   2.634  12.608  0.6637  0.1197  0.0701
  458MPD2    H7 6829   3.090   2.643  12.584  1.1853 -0.0969  2.1090
  459TMC3    C1 6830   3.059   2.653  12.834  0.0851  0.2399  0.5955
  459TMC3    C2 6831   3.168   2.716  12.789  0.1187 -0.8578 -0.1957
  459TMC3    C3 6832   3.274   2.738  12.878 -0.0735  0.1213 -0.1692
  459TMC3    C4 6833   3.043   2.613  12.969  0.3023  0.1405 -0.0381
  459TMC3    C5 6834   3.148   2.637  13.050  0.2761 -0.3602 -0.1157
  459TMC3    C6 6835   3.255   2.704  13.007  0.4695  0.4041 -0.1984
  459TMC3     C 6836   2.956   2.615  12.744  0.0833 -0.1605 -0.1457
  459TMC3     O 6837   2.852   2.568  12.786 -0.2195 -0.5016 -0.7250
  459TMC3     H 6838   3.168   2.765  12.692 -1.8986 -0.8405 -0.1724
  459TMC3    H1 6839   2.953   2.563  13.004  1.3268 -1.3546  0.4599
  459TMC3    H2 6840   3.325   2.739  13.082 -0.2333 -0.1415  0.7121
  459TMC3    C7 6841   3.141   2.578  13.184 -0.3710 -0.4722 -0.3435
  459TMC3    C8 6842   3.412   2.783  12.843  0.5869  0.0843 -0.0798
  459TMC3    O1 6843   3.074   2.471  13.189  0.6068  0.5601  0.1838
  459TMC3    O2 6844   3.502   2.772  12.924  0.9423 -0.3576 -0.2521
  460MPD2     C 6845   1.924   0.210  10.931 -0.4530 -0.3461  0.2567
  460MPD2    C1 6846   1.794   0.170  10.921 -0.4455  0.0320  0.3487
  460MPD2    C2 6847   1.707   0.226  10.834 -0.3759 -0.5843 -0.0740
  460MPD2    C3 6848   1.757   0.319  10.743  0.1369 -0.0298  0.7810
  460MPD2    C4 6849   1.891   0.364  10.752  0.0388  0.2691  0.2087
  460MPD2    C5 6850   1.972   0.306  10.843 -0.2971  0.5836 -0.2846
  460MPD2     H 6851   1.603   0.195  10.831 -0.4249 -0.5388  1.4328
  460MPD2    H1 6852   1.928   0.441  10.685 -1.5159  0.4181 -0.4833
  460MPD2    H2 6853   1.988   0.169  11.008 -0.1446 -0.2461  0.0550
  460MPD2    H3 6854   2.074   0.337  10.861 -0.1747  0.3861 -0.6467
  460MPD2     N 6855   1.670   0.348  10.637 -0.2934 -0.6362 -0.1376
  460MPD2    H5 6856   1.589   0.287  10.624 -2.0365  1.1573  2.3977
  460MPD2    N1 6857   1.757   0.071  11.016 -0.0256  0.1350  0.2715
  460MPD2    H7 6858   1.840   0.020  11.044 -1.5001 -1.9667  0.8374
  461TMC3    C1 6859   1.573   0.449  10.457 -0.0490 -0.3177 -0.1686
  461TMC3    C2 6860   1.530   0.336  10.397 -0.0562 -0.4826 -0.1108
  461TMC3    C3 6861   1.429   0.348  10.301  0.2829  0.2782  0.1964
  461TMC3    C4 6862   1.546   0.575  10.407  0.3178  0.3924 -0.5783
  461TMC3    C5 6863   1.476   0.583  10.293  0.1517 -0.3729  0.5998
  461TMC3    C6 6864   1.399   0.472  10.247  0.4830  0.3144 -0.5467
  461TMC3     C 6865   1.691   0.441  10.544 -0.2166  0.5991 -0.2743
  461TMC3     O 6866   1.770   0.532  10.546  0.2938 -0.6151 -0.2374
  461TMC3     H 6867   1.546   0.240  10.445 -1.2585 -0.8283 -0.3955
  461TMC3    H1 6868   1.590   0.663  10.454 -0.8891  0.9384 -0.4624
  461TMC3    H2 6869   1.346   0.475  10.152  0.7070  0.6170 -0.6620
  461TMC3    C7 6870   1.434   0.717  10.237 -0.1460  0.2243 -0.1087
  461TMC3    C8 6871   1.376   0.219  10.252 -0.4520  0.2209 -0.1111
  461TMC3    O1 6872   1.396   0.711  10.119 -0.1884  0.0599  0.6537
  461TMC3    O2 6873   1.440   0.120  10.276 -0.5000  0.2533 -0.6854
  462TMC3    C1 6874   2.043   0.925   0.090 -0.1163 -0.3897 -0.0167
  462TMC3    C2 6875   2.067   0.864  17.661 -0.6737 -0.3774  0.1614
  462TMC3    C3 6876   2.019   0.737  17.649  0.4453 -0.1976  0.1512
  462TMC3    C4 6877   1.987   0.864   0.197 -0.1830 -0.2247 -0.2773
  462TMC3    C5 6878   1.935   0.741   0.176  0.6863  0.5075 -0.2545
  462TMC3    C6 6879   1.951   0.670   0.064  0.9090  0.0886  0.1423
  462TMC3     C 6880   2.052   1.074   0.082  0.7116  0.0412 -0.3151
  462TMC3     O 6881   2.046   1.124  17.661 -0.1126 -0.2106 -0.3528
  462TMC3     H 6882   2.112   0.923  17.582 -0.7399  2.5130  2.3156
  462TMC3    H1 6883   1.940   0.918   0.278 -0.7132 -0.1259 -0.6523
  462TMC3    H2 6884   1.964   0.562   0.059 -1.7773 -0.2891  1.1354
  462TMC3    C7 6885   1.932   0.644   0.276 -0.4967 -0.4376  0.2636
  462TMC3    C8 6886   2.079   0.655  17.543  0.6875  0.0743 -0.2954
  462TMC3    O1 6887   1.858   0.544   0.268 -0.0454 -0.6722 -0.3003
  462TMC3    O2 6888   2.020   0.557  17.508  0.2486  0.3692 -0.4124
  463MPD2     C 6889   2.844   4.721   2.163  0.5551 -0.4665 -0.2359
  463MPD2    C1 6890   2.772   0.039   2.049 -0.9866 -0.1624  0.8310
  463MPD2    C2 6891   2.840   0.096   1.942  0.0674 -0.4666 -0.4215
  463MPD2    C3 6892   2.982   0.094   1.931 -0.0295 -0.2230  0.1072
  463MPD2    C4 6893   3.048   0.036   2.036 -0.5399 -0.2629 -0.0848
  463MPD2    C5 6894   2.979   4.719   2.145 -0.0380 -0.6934 -0.0747
  463MPD2     H 6895   2.786   0.130   1.855  2.2653  0.5996 -1.3695
  463MPD2    H1 6896   3.157   0.032   2.032 -0.5441 -0.5854  0.2156
  463MPD2    H2 6897   2.795   4.678   2.250 -1.0928  0.3937 -0.7367
  463MPD2    H3 6898   3.034   4.686   2.233 -2.2343 -0.8799  1.2107
  463MPD2     N 6899   3.053   0.159   1.827  0.2273  0.3136 -0.0570
  463MPD2    H5 6900   3.153   0.145   1.822  0.3835  0.4221  2.6044
  463MPD2    N1 6901   2.632   0.053   2.046 -0.1055 -0.4726 -0.0592
  463MPD2    H7 6902   2.597   0.093   1.959  0.4148 -0.0593 -0.0780
  464TMC3    C1 6903   2.408   0.029   2.106  0.1590  0.5726  0.4477
  464TMC3    C2 6904   2.378   0.076   1.981 -0.1527 -0.2790 -0.1782
  464TMC3    C3 6905   2.264   0.037   1.920  0.0648 -0.1145  0.4307
  464TMC3    C4 6906   2.329   4.662   2.174  0.2513 -0.3189 -0.0711
  464TMC3    C5 6907   2.213   4.622   2.107 -0.2668 -0.1279  0.2485
  464TMC3    C6 6908   2.181   4.667   1.983  0.4788 -0.7387  0.1572
  464TMC3     C 6909   2.549   0.026   2.153  0.2721 -0.7306 -0.2513
  464TMC3     O 6910   2.569   4.683   2.255  0.1453  0.8991  0.3640
  464TMC3     H 6911   2.449   0.139   1.928 -1.6932  0.0294 -1.8790
  464TMC3    H1 6912   2.355   4.625   2.272 -0.3840  0.0388  0.2320
  464TMC3    H2 6913   2.105   4.613   1.926  0.8601 -0.6900 -0.3973
  464TMC3    C7 6914   2.135   4.516   2.163 -0.3705 -0.4597 -0.4268
  464TMC3    C8 6915   2.218   0.105   1.802 -0.1170  0.0692 -0.4767
  464TMC3    O1 6916   2.135   4.512   2.287 -0.3114 -0.7704  0.3305
  464TMC3    O2 6917   2.300   0.175   1.742 -0.3374 -0.4801 -0.0862
  465MPD2     C 6918   4.252   2.827  16.269 -0.2820 -0.0587 -0.1349
  465MPD2    C1 6919   4.235   2.869  16.402 -0.6176 -0.2604  0.0918
  465MPD2    C2 6920   4.125   2.949  16.420 -0.5049  0.6310 -0.1287
  465MPD2    C3 6921   4.046   3.004  16.318 -0.4892  0.7353 -0.2606
  465MPD2    C4 6922   4.075   2.965  16.189 -1.0223  0.2937  0.6003
  465MPD2    C5 6923   4.171   2.870  16.170 -0.0958  0.4516 -0.2411
  465MPD2     H 6924   4.105   2.969  16.525 -2.2813 -0.3644 -0.2822
  465MPD2    H1 6925   4.021   2.994  16.100 -0.3957 -1.3923 -0.3269
  465MPD2    H2 6926   4.331   2.760  16.236 -1.6971  0.1179 -3.8922
  465MPD2    H3 6927   4.203   2.840  16.071  0.7500 -0.3946  0.2894
  465MPD2     N 6928   3.932   3.086  16.355 -0.2186  0.5080 -0.8856
  465MPD2    H5 6929   3.916   3.108  16.453  0.0475  2.0393 -1.1868
  465MPD2    N1 6930   4.310   2.823  16.513  0.4665  0.0348  0.1276
  465MPD2    H7 6931   4.284   2.863  16.602  1.3710 -2.0245  1.3002
  466TMC3    C1 6932   3.599   3.301  16.454  0.8636  0.3379 -0.7426
  466TMC3    C2 6933   3.554   3.395  16.364  0.0681  0.4609 -0.3278
  466TMC3    C3 6934   3.621   3.417  16.247  0.2020  0.3125  0.3564
  466TMC3    C4 6935   3.711   3.236  16.433 -0.1721 -0.1615  0.1372
  466TMC3    C5 6936   3.771   3.252  16.313  0.8952  0.3344  0.1413
  466TMC3    C6 6937   3.731   3.347  16.215 -0.0146 -0.8380 -0.2200
  466TMC3     C 6938   3.584   3.334  16.598  0.4521 -0.0725 -0.0320
  466TMC3     O 6939   3.668   3.300  16.682 -0.6984  0.1012 -0.6499
  466TMC3     H 6940   3.464   3.454  16.379 -0.2715  0.2192 -1.4251
  466TMC3    H1 6941   3.749   3.166  16.507 -1.6428 -2.4069 -1.2742
  466TMC3    H2 6942   3.784   3.359  16.122 -0.1202 -0.8671 -0.2838
  466TMC3    C7 6943   3.855   3.149  16.261  0.9595 -1.0400  0.0331
  466TMC3    C8 6944   3.636   3.560  16.222 -0.4719  0.1120 -0.5601
  466TMC3    O1 6945   3.864   3.141  16.140  0.1723  0.6633 -0.5233
  466TMC3    O2 6946   3.703   3.591  16.126 -0.1614  0.5924  0.2386
  467TMC3    C1 6947   0.069   2.002  14.027 -0.2145 -0.9723 -0.1369
  467TMC3    C2 6948   0.055   2.134  14.043 -0.4058 -0.0195 -0.7588
  467TMC3    C3 6949   4.650   2.189  14.038  0.2097  0.3638 -0.3801
  467TMC3    C4 6950   4.685   1.918  14.002 -0.4385  0.3077 -0.2620
  467TMC3    C5 6951   4.564   1.972  14.014 -0.1868 -1.4234  0.0814
  467TMC3    C6 6952   4.540   2.104  14.031 -0.0121  0.0242 -0.7188
  467TMC3     C 6953   0.204   1.963  13.998  0.0892 -0.5983 -0.2149
  467TMC3     O 6954   0.287   2.021  14.068 -0.2840 -0.3567  0.0148
  467TMC3     H 6955   0.143   2.196  14.026  1.0272 -1.6228  0.9366
  467TMC3    H1 6956   4.690   1.812  13.984 -1.3233  0.4789 -1.5318
  467TMC3    H2 6957   4.439   2.136  14.004 -0.3804 -1.1658 -0.7397
  467TMC3    C7 6958   4.446   1.887  13.999  0.1986 -0.3846  0.2460
  467TMC3    C8 6959   4.649   2.311  13.971 -0.2212 -0.0085 -0.0423
  467TMC3    O1 6960   4.448   1.813  13.902 -0.0273 -0.0751 -0.3061
  467TMC3    O2 6961   0.033   2.367  13.944  0.1365  0.1969  0.1343
  468MPD2     C 6962   3.197   0.292  11.407  0.5418 -0.5098  0.0989
  468MPD2    C1 6963   3.322   0.290  11.351  0.9323 -0.1816  0.3484
  468MPD2    C2 6964   3.346   0.192  11.260  0.1916 -0.2503  1.0068
  468MPD2    C3 6965   3.257   0.084  11.247  0.1114  0.2102  0.3944
  468MPD2    C4 6966   3.132   0.093  11.300 -0.1908  0.0923 -0.4296
  468MPD2    C5 6967   3.107   0.196  11.379 -0.1838 -0.0818 -0.1084
  468MPD2     H 6968   3.444   0.197  11.213 -0.8322 -0.1865 -1.1200
  468MPD2    H1 6969   3.054   0.018  11.291 -0.7329  0.5563  0.3186
  468MPD2    H2 6970   3.183   0.379  11.470  1.7446 -1.0070  1.0646
  468MPD2    H3 6971   3.008   0.198  11.423 -0.0841  0.1753  0.1087
  468MPD2     N 6972   3.276   4.690  11.168 -0.7715  0.3957 -0.2404
  468MPD2    H5 6973   3.206   4.617  11.175 -0.4840  0.0076 -1.3345
  468MPD2    N1 6974   3.429   0.387  11.373 -0.9361 -0.2818  0.9819
  468MPD2    H7 6975   3.505   0.395  11.306  0.5198 -0.8584  2.5658
  469TMC3    C1 6976   3.531   0.586  11.460 -0.2877 -0.1678 -0.3878
  469TMC3    C2 6977   3.664   0.543  11.451 -0.5257  0.2744 -0.1446
  469TMC3    C3 6978   3.764   0.617  11.503  0.9152  0.4504  0.9188
  469TMC3    C4 6979   3.510   0.696  11.542 -0.2311  0.6707  0.5634
  469TMC3    C5 6980   3.613   0.750  11.612  0.8550 -0.0635 -0.5129
  469TMC3    C6 6981   3.741   0.718  11.589 -0.3016 -0.4508 -0.0371
  469TMC3     C 6982   3.421   0.494  11.460 -0.5627 -0.1689 -0.8342
  469TMC3     O 6983   3.337   0.508  11.551 -0.5077 -1.0726  0.4807
  469TMC3     H 6984   3.684   0.450  11.399 -1.2699 -1.1743  2.1548
  469TMC3    H1 6985   3.409   0.735  11.547 -1.2983 -2.1356  0.6297
  469TMC3    H2 6986   3.825   0.751  11.650  0.1640 -0.3397 -0.7385
  469TMC3    C7 6987   3.582   0.733  11.753 -0.0617  1.0832  0.5090
  469TMC3    C8 6988   3.897   0.574  11.462  0.4462  0.1594 -0.5191
  469TMC3    O1 6989   3.665   0.778  11.834 -0.2582 -0.3108  0.1545
  469TMC3    O2 6990   3.920   0.465  11.409  0.2392  0.1514  0.2876
  470TMC3    C1 6991   2.535   1.324   0.863 -0.1182  0.1664 -0.0017
  470TMC3    C2 6992   2.411   1.362   0.894  0.2122 -0.8098 -0.0226
  470TMC3    C3 6993   2.351   1.312   1.010  0.7451 -0.5343  0.1278
  470TMC3    C4 6994   2.610   1.257   0.957 -0.1629  0.0070  0.6867
  470TMC3    C5 6995   2.548   1.210   1.068 -0.6784  0.1943 -0.2963
  470TMC3    C6 6996   2.417   1.225   1.095 -0.3995 -0.6549  0.2159
  470TMC3     C 6997   2.586   1.348   0.737 -1.0908  0.2801 -0.6175
  470TMC3     O 6998   2.705   1.384   0.739  0.2446  0.4856 -0.2592
  470TMC3     H 6999   2.346   1.417   0.826  1.1234  0.6939  0.3330
  470TMC3    H1 7000   2.711   1.231   0.927 -0.2489 -1.7627  1.9647
  470TMC3    H2 7001   2.359   1.173   1.170  0.1339  0.4781  1.4113
  470TMC3    C7 7002   2.632   1.115   1.142  0.1582 -0.4998 -0.0383
  470TMC3    C8 7003   2.211   1.326   1.022 -0.8071 -0.0161 -0.3218
  470TMC3    O1 7004   2.748   1.098   1.110  0.4959  0.1271 -0.1330
  470TMC3    O2 7005   2.168   1.361   1.132  0.1568  0.0029 -0.0225
  471MPD2     C 7006   1.713   2.119  16.592  0.2103 -0.5563  0.0430
  471MPD2    C1 7007   1.679   2.032  16.697 -0.1942 -0.4908 -0.0269
  471MPD2    C2 7008   1.739   2.039  16.823  0.4613  0.1767 -0.0815
  471MPD2    C3 7009   1.847   2.123  16.845 -0.3866 -0.3034  0.0668
  471MPD2    C4 7010   1.882   2.207  16.746 -0.3348  0.5693 -0.2762
  471MPD2    C5 7011   1.810   2.206  16.628  0.1357 -0.2815 -0.4333
  471MPD2     H 7012   1.710   1.962  16.893 -2.4239  1.5469  0.2598
  471MPD2    H1 7013   1.966   2.274  16.752  2.3431 -2.8441  0.4273
  471MPD2    H2 7014   1.680   2.117  16.489  1.3427 -0.1724 -0.3257
  471MPD2    H3 7015   1.839   2.278  16.552 -1.7614 -1.1088 -1.9400
  471MPD2     N 7016   1.928   2.125  16.967  0.0613 -0.1276 -0.6777
  471MPD2    H5 7017   2.009   2.186  16.966  0.1599 -0.2229  0.6504
  471MPD2    N1 7018   1.591   1.926  16.678  0.2707  0.2938  0.4825
  471MPD2    H7 7019   1.572   1.863  16.755 -0.1558  0.0488  0.1773
  472TMC3    C1 7020   1.444   1.785  16.559 -0.5096 -0.1953 -0.3539
  472TMC3    C2 7021   1.357   1.779  16.454  0.1400 -0.2306 -0.2844
  472TMC3    C3 7022   1.282   1.666  16.440  0.7617  0.4656  0.1265
  472TMC3    C4 7023   1.459   1.685  16.648  0.4424  0.0295  0.1702
  472TMC3    C5 7024   1.403   1.565  16.612 -1.0168  0.1719  0.6056
  472TMC3    C6 7025   1.304   1.555  16.515 -0.0175  0.3020  0.8479
  472TMC3     C 7026   1.532   1.898  16.555 -0.0219 -0.2012  0.2933
  472TMC3     O 7027   1.534   1.957  16.447 -0.9387 -0.6378  0.9742
  472TMC3     H 7028   1.339   1.859  16.384  1.4450 -0.3785 -0.7922
  472TMC3    H1 7029   1.547   1.683  16.711  2.0002  2.8968 -1.8796
  472TMC3    H2 7030   1.257   1.459  16.492 -0.5386  0.4092  1.4315
  472TMC3    C7 7031   1.435   1.456  16.700 -0.0019  0.2940 -0.5083
  472TMC3    C8 7032   1.206   1.648  16.318 -0.0661 -0.5548  0.1686
  472TMC3    O1 7033   1.482   1.482  16.810 -0.4291  0.6425  0.3651
  472TMC3    O2 7034   1.242   1.720  16.225 -0.3939  0.0764 -0.0944
  473MPD2     C 7035   1.408   4.171  14.161 -0.1539 -0.1869  0.2352
  473MPD2    C1 7036   1.395   4.301  14.112  0.7375 -0.9445 -0.2868
  473MPD2    C2 7037   1.418   4.407  14.200  0.4884 -0.4560  0.0455
  473MPD2    C3 7038   1.467   4.391  14.324 -0.4357 -0.6662  0.3567
  473MPD2    C4 7039   1.491   4.261  14.373 -0.3681 -0.7454  0.7729
  473MPD2    C5 7040   1.455   4.155  14.292 -0.5378 -0.0543 -0.3540
  473MPD2     H 7041   1.402   4.511  14.174 -0.0913 -0.4849  0.2911
  473MPD2    H1 7042   1.533   4.237  14.470  0.2779  0.7676  0.8620
  473MPD2    H2 7043   1.387   4.085  14.098  2.8279 -0.5431 -0.3063
  473MPD2    H3 7044   1.469   4.054  14.329  0.3589  0.1639 -0.0994
  473MPD2     N 7045   1.482   4.504  14.404  0.3081  0.8928 -0.6447
  473MPD2    H5 7046   1.458   4.598  14.376  1.9441  1.8002  1.0298
  473MPD2    N1 7047   1.333   4.328  13.990 -0.5015  0.3838 -0.6763
  473MPD2    H7 7048   1.323   4.426  13.965 -1.1491  0.1506 -1.3400
  474TMC3    C1 7049   1.524   4.626  14.596  0.1697  0.5571  0.0121
  474TMC3    C2 7050   1.416   4.699  14.561 -0.1758 -0.0543 -0.2851
  474TMC3    C3 7051   1.397   0.102  14.611 -0.6307  0.1764  0.3998
  474TMC3    C4 7052   1.613   4.662  14.694  0.0214  0.4209 -0.1315
  474TMC3    C5 7053   1.596   0.071  14.738  0.1610  0.2094  0.5352
  474TMC3    C6 7054   1.493   0.154  14.694  0.8180  0.0980 -0.6779
  474TMC3     C 7055   1.546   4.504  14.519  0.1154  0.4117  1.1341
  474TMC3     O 7056   1.635   4.433  14.556 -0.1109  0.5129 -0.1217
  474TMC3     H 7057   1.332   4.649  14.514  0.6762 -2.3435  0.6512
  474TMC3    H1 7058   1.691   4.595  14.728  0.9193  2.1390  1.1773
  474TMC3    H2 7059   1.475   0.247  14.748 -0.9495 -0.6099 -0.0534
  474TMC3    C7 7060   1.679   0.118  14.849  0.3326  0.3574  0.9058
  474TMC3    C8 7061   1.323   0.195  14.533 -0.8831  0.2050 -0.1900
  474TMC3    O1 7062   1.644   0.219  14.907 -0.6491 -0.3953  0.6194
  474TMC3    O2 7063   1.223   0.154  14.475 -1.1037  0.2102 -0.4425
  475MPD2     C 7064   0.158   2.532  10.261  0.1989  0.1782  0.8991
  475MPD2    C1 7065   0.169   2.671  10.290 -0.2260  0.0786  0.3621
  475MPD2    C2 7066   0.084   2.725  10.386  0.2851  0.0926  0.6548
  475MPD2    C3 7067   4.708   2.650  10.441  0.0087 -0.0124 -0.3699
  475MPD2    C4 7068   4.693   2.516  10.406  0.4768 -0.0818  0.3523
  475MPD2    C5 7069   0.060   2.463  10.317 -0.7742  0.7411 -0.6397
  475MPD2     H 7070   0.084   2.832  10.407  0.1521 -0.2019  2.1897
  475MPD2    H1 7071   4.624   2.444  10.448 -1.0843  0.2512 -1.6540
  475MPD2    H2 7072   0.228   2.484  10.193 -2.3723 -0.3377 -1.3693
  475MPD2    H3 7073   0.058   2.356  10.298  1.6047  0.7935 -1.2863
  475MPD2     N 7074   4.613   2.719  10.521 -0.1365 -0.1318  0.2742
  475MPD2    H5 7075   4.609   2.821  10.518 -0.7406 -0.2308 -2.2032
  475MPD2    N1 7076   0.266   2.755  10.230 -0.7089  0.0633 -0.2374
  475MPD2    H7 7077   0.285   2.841  10.281 -1.7012 -0.4427  0.9801
  476TMC3    C1 7078   0.362   2.870  10.063 -0.0488  0.0382  0.1218
  476TMC3    C2 7079   0.275   2.920   9.975  0.4469  1.0466 -0.3415
  476TMC3    C3 7080   0.216   3.039   9.994  0.1579  0.4553  0.1258
  476TMC3    C4 7081   0.406   2.951  10.171  0.0458  0.6965  0.0124
  476TMC3    C5 7082   0.353   3.078  10.185 -0.0836 -0.1200  0.0415
  476TMC3    C6 7083   0.259   3.122  10.093  0.7586 -0.0658  0.2447
  476TMC3     C 7084   0.310   2.743  10.100  0.1800 -0.1351 -0.6750
  476TMC3     O 7085   0.272   2.670  10.011  0.4708  0.1123 -0.1115
  476TMC3     H 7086   0.253   2.862   9.886  0.2458  1.3924 -0.5139
  476TMC3    H1 7087   0.471   2.913  10.249  0.0023 -0.2054 -0.3860
  476TMC3    H2 7088   0.209   3.218  10.101  1.7032  0.4101  0.5310
  476TMC3    C7 7089   0.334   3.109  10.325  0.9547  0.3700 -0.1453
  476TMC3    C8 7090   0.070   3.042   9.985  0.8818 -0.1471 -0.1350
  476TMC3    O1 7091   0.348   3.019  10.409  0.3878 -0.4904  0.5570
  476TMC3    O2 7092   0.018   3.149  10.002 -0.1560 -0.4737  0.4307
  477MPD2     C 7093   1.855   3.476  11.584  0.5928  0.6941 -0.1999
  477MPD2    C1 7094   1.818   3.591  11.650  0.3289  0.4223  0.3721
  477MPD2    C2 7095   1.892   3.636  11.757 -0.3210  0.7107 -0.8031
  477MPD2    C3 7096   2.012   3.574  11.799 -0.8183 -0.4986 -1.0058
  477MPD2    C4 7097   2.050   3.466  11.720 -0.2712 -0.3097  0.6222
  477MPD2    C5 7098   1.972   3.415  11.619 -0.0075 -0.0463  0.2383
  477MPD2     H 7099   1.858   3.729  11.801 -1.1033 -0.2499  0.5809
  477MPD2    H1 7100   2.148   3.424  11.738  0.4999  0.3150 -1.9585
  477MPD2    H2 7101   1.805   3.434  11.497  0.1249  0.6828  0.0771
  477MPD2    H3 7102   2.014   3.340  11.554  0.9231 -0.7459  1.6504
  477MPD2     N 7103   2.088   3.628  11.907 -0.0645 -0.2086  0.4252
  477MPD2    H5 7104   2.059   3.717  11.947 -3.1355 -1.1011  0.1593
  477MPD2    N1 7105   1.713   3.661  11.588 -0.1410  0.6548 -0.1215
  477MPD2    H7 7106   1.674   3.633  11.498  2.7064 -2.5430 -0.3586
  478TMC3    C1 7107   1.554   3.824  11.548  1.0230 -0.2673  0.5760
  478TMC3    C2 7108   1.474   3.919  11.598 -0.0775  0.3438 -1.1139
  478TMC3    C3 7109   1.443   4.031  11.533  0.6764  0.0964 -0.1805
  478TMC3    C4 7110   1.600   3.836  11.416  0.3089 -0.2866 -0.1986
  478TMC3    C5 7111   1.563   3.946  11.347  0.8318  0.3388  0.1431
  478TMC3    C6 7112   1.486   4.042  11.402  0.0324 -0.4630  0.4369
  478TMC3     C 7113   1.637   3.760  11.647 -0.0487  0.5718  0.7321
  478TMC3     O 7114   1.643   3.817  11.755 -0.4657  0.0282  0.5278
  478TMC3     H 7115   1.444   3.914  11.702 -0.3924  2.1007 -1.1237
  478TMC3    H1 7116   1.667   3.765  11.369  0.7808 -0.0782  0.1725
  478TMC3    H2 7117   1.469   4.135  11.349  1.5380 -0.0990  0.5936
  478TMC3    C7 7118   1.646   3.992  11.231 -0.0400  0.3110 -0.1292
  478TMC3    C8 7119   1.418   4.143  11.616 -0.3961  0.2195  0.3695
  478TMC3    O1 7120   1.768   3.966  11.241 -0.8354  0.4236  0.0741
  478TMC3    O2 7121   1.395   4.121  11.733 -0.1288 -0.2058  0.2273
  479MPD2     C 7122   1.377   1.691  14.835 -0.1664 -0.0238 -0.0415
  479MPD2    C1 7123   1.347   1.605  14.937  0.2757  0.5986 -0.3013
  479MPD2    C2 7124   1.416   1.616  15.061  0.4923  0.2674  0.2886
  479MPD2    C3 7125   1.513   1.711  15.080  0.2765  0.0041 -0.2465
  479MPD2    C4 7126   1.548   1.786  14.971 -0.5541  0.2567  0.0840
  479MPD2    C5 7127   1.482   1.777  14.850 -0.0501 -0.0382  0.5361
  479MPD2     H 7128   1.385   1.559  15.148 -1.2323 -0.1017 -0.5614
  479MPD2    H1 7129   1.628   1.856  14.990 -0.8663  0.4886  0.5339
  479MPD2    H2 7130   1.327   1.703  14.740 -1.7690  1.3228  0.9475
  479MPD2    H3 7131   1.513   1.850  14.776  0.5807 -1.9888 -1.1098
  479MPD2     N 7132   1.575   1.737  15.207  0.7155 -0.1594 -0.0374
  479MPD2    H5 7133   1.657   1.796  15.216 -2.9206  4.8052  0.4460
  479MPD2    N1 7134   1.237   1.518  14.926 -0.0730  0.5369  0.4812
  479MPD2    H7 7135   1.175   1.522  14.846  2.0909 -1.3500 -1.2904
  480TMC3    C1 7136   1.277   1.524  15.498 -0.0011  0.0263 -0.4569
  480TMC3    C2 7137   1.156   1.569  15.445 -0.2605  0.2787 -0.3552
  480TMC3    C3 7138   1.168   1.663  15.351  0.1895  0.8174  0.1252
  480TMC3    C4 7139   1.397   1.563  15.453 -0.0772 -0.7351 -0.1552
  480TMC3    C5 7140   1.401   1.653  15.364 -0.0101  0.3498  0.0567
  480TMC3    C6 7141   1.287   1.713  15.312 -0.0051 -0.0205  0.7375
  480TMC3     C 7142   1.274   1.406  15.576  0.0775  0.9547 -0.2429
  480TMC3     O 7143   1.354   1.315  15.557  0.3305  0.5825 -0.6582
  480TMC3     H 7144   1.054   1.549  15.473 -1.1928  3.4077 -1.4596
  480TMC3    H1 7145   1.485   1.507  15.483 -0.9805 -2.0576  0.0203
  480TMC3    H2 7146   1.296   1.799  15.246 -0.0841 -0.5372  0.0537
  480TMC3    C7 7147   1.541   1.697  15.333 -0.7116  0.2633  0.1187
  480TMC3    C8 7148   1.046   1.687  15.263  0.3604 -0.1354  0.1908
  480TMC3    O1 7149   1.620   1.713  15.427 -0.3475  0.2302  0.1810
  480TMC3    O2 7150   0.936   1.647  15.306 -0.4225  0.3774 -0.0201
  481MPD2     C 7151   3.053   1.446  14.427 -0.5869  0.5861 -0.1864
  481MPD2    C1 7152   2.937   1.377  14.447 -0.2332 -0.2015 -0.4096
  481MPD2    C2 7153   2.908   1.322  14.568  0.4236 -0.0071 -0.4396
  481MPD2    C3 7154   3.002   1.327  14.669 -0.4476 -0.3901 -0.3115
  481MPD2    C4 7155   3.122   1.395  14.645 -0.4015  0.2545  0.4325
  481MPD2    C5 7156   3.146   1.454  14.525 -0.2201  0.1533  0.2985
  481MPD2     H 7157   2.813   1.277  14.592  0.7001 -0.8494 -0.9514
  481MPD2    H1 7158   3.193   1.396  14.727  3.1262  0.6724 -2.6401
  481MPD2    H2 7159   3.078   1.490  14.332 -0.5636  0.7199 -0.1187
  481MPD2    H3 7160   3.245   1.496  14.509  0.0375 -0.4394  0.3379
  481MPD2     N 7161   2.986   1.277  14.799  0.4707 -0.2506  0.1893
  481MPD2    H5 7162   3.067   1.286  14.860  0.9175 -0.1532 -0.4246
  481MPD2    N1 7163   2.851   1.356  14.336 -0.8665 -0.4120  0.3994
  481MPD2    H7 7164   2.876   1.408  14.252  1.1208  1.1782  1.9425
  482TMC3    C1 7165   2.673   1.307  14.199 -0.5884 -0.1087  0.5725
  482TMC3    C2 7166   2.569   1.227  14.169  0.6246  0.1819  0.3766
  482TMC3    C3 7167   2.493   1.256  14.061 -0.0093 -0.0066 -0.7588
  482TMC3    C4 7168   2.716   1.405  14.111 -0.2018  0.5273  0.4633
  482TMC3    C5 7169   2.631   1.431  14.009 -0.1084  0.1185 -0.4227
  482TMC3    C6 7170   2.519   1.356  13.974 -0.5787 -0.3475  0.7076
  482TMC3     C 7171   2.738   1.281  14.319 -0.7704 -0.4283  0.4297
  482TMC3     O 7172   2.675   1.216  14.401  0.8873 -0.8553 -0.4542
  482TMC3     H 7173   2.551   1.132  14.219 -1.4997  1.3313  1.7775
  482TMC3    H1 7174   2.803   1.468  14.124  1.9286 -2.0268 -1.4588
  482TMC3    H2 7175   2.452   1.375  13.891  1.3301 -0.2614 -0.8236
  482TMC3    C7 7176   2.671   1.525  13.909  0.5673  0.2776 -0.3123
  482TMC3    C8 7177   2.386   1.158  14.027  0.7681 -0.6150 -0.7616
  482TMC3    O1 7178   2.742   1.619  13.945  0.4736  0.1770  0.2268
  482TMC3    O2 7179   2.376   1.065  14.103 -0.0113  0.5936 -0.0131
  483TMC3    C1 7180   0.662   0.084   1.220 -0.3954 -0.0743  0.2242
  483TMC3    C2 7181   0.743   0.171   1.280 -0.6685 -0.3011 -0.1706
  483TMC3    C3 7182   0.826   0.111   1.381 -0.1350 -0.4548  0.1069
  483TMC3    C4 7183   0.634   4.677   1.253 -0.5091  0.1638 -0.0370
  483TMC3    C5 7184   0.712   4.633   1.354 -0.0100 -0.0424  0.5445
  483TMC3    C6 7185   0.804   4.703   1.421 -0.1339 -0.2286  0.1199
  483TMC3     C 7186   0.654   0.092   1.071 -0.6276  0.8863  0.0441
  483TMC3     O 7187   0.636   0.201   1.018 -0.4826 -0.8750  0.4801
  483TMC3     H 7188   0.769   0.270   1.245 -0.8330  0.6029  2.2311
  483TMC3    H1 7189   0.569   4.606   1.203 -0.5535 -1.5460  2.4690
  483TMC3    H2 7190   0.870   4.651   1.489 -0.6459 -0.4231  0.4702
  483TMC3    C7 7191   0.730   4.487   1.364 -0.0518 -0.0286  0.2956
  483TMC3    C8 7192   0.959   0.161   1.368 -0.1067 -0.4164  0.6429
  483TMC3    O1 7193   0.721   4.420   1.259 -0.4409  0.0981  0.3956
  483TMC3    O2 7194   0.987   0.232   1.276 -0.0867  0.1881 -0.1340
  484MPD2     C 7195   3.529   2.958  12.535  0.0151 -0.2302  0.5439
  484MPD2    C1 7196   3.534   2.884  12.651  0.1866  0.4895 -0.0656
  484MPD2    C2 7197   3.655   2.866  12.713  0.0086  0.2199  0.0404
  484MPD2    C3 7198   3.771   2.934  12.681  0.2560 -0.2622  0.2764
  484MPD2    C4 7199   3.771   2.997  12.555  0.3621 -0.3835  0.1197
  484MPD2    C5 7200   3.654   2.999  12.482  0.0053  0.6088  0.0338
  484MPD2     H 7201   3.660   2.801  12.799 -0.2134  0.6312  0.3640
  484MPD2    H1 7202   3.857   3.039  12.504  0.6894 -2.7896 -1.3136
  484MPD2    H2 7203   3.443   2.977  12.471 -0.2965  0.9285  1.2902
  484MPD2    H3 7204   3.643   3.035  12.380 -0.5405  1.2712  0.3294
  484MPD2     N 7205   3.895   2.936  12.750  0.6785  0.6665  0.9234
  484MPD2    H5 7206   3.963   2.990  12.698 -0.0570 -0.8073 -1.5649
  484MPD2    N1 7207   3.419   2.838  12.712 -0.1679  0.2461  0.4538
  484MPD2    H7 7208   3.330   2.842  12.663  0.4693 -0.3195 -0.7230
  485TMC3    C1 7209   4.070   2.803  12.855  0.0641 -0.1277  0.0879
  485TMC3    C2 7210   4.083   2.673  12.880  0.4098 -0.2915 -0.5641
  485TMC3    C3 7211   4.193   2.602  12.835  0.3232 -0.0436  0.1349
  485TMC3    C4 7212   4.161   2.879  12.792 -0.0498 -0.2056 -0.3816
  485TMC3    C5 7213   4.269   2.815  12.743 -0.3829 -0.2147  0.8082
  485TMC3    C6 7214   4.283   2.683  12.770  0.4303 -0.1491  0.4458
  485TMC3     C 7215   3.929   2.844  12.850  0.2364  0.3348 -0.3451
  485TMC3     O 7216   3.842   2.781  12.909  0.1450  0.1874  0.2080
  485TMC3     H 7217   3.997   2.625  12.926  0.3502 -0.4240 -0.8167
  485TMC3    H1 7218   4.136   2.980  12.761 -0.9221 -0.3239 -0.0695
  485TMC3    H2 7219   4.374   2.634  12.738  0.2170 -0.7797  0.7988
  485TMC3    C7 7220   4.292   2.847  12.603 -0.5028  0.4307 -0.9622
  485TMC3    C8 7221   4.151   2.485  12.759  0.5869 -0.1378  0.4809
  485TMC3    O1 7222   4.277   2.960  12.565  0.3455 -0.4653 -0.3011
  485TMC3    O2 7223   4.153   2.502  12.639  0.0111 -0.3243 -0.3520
  486MPD2     C 7224   0.907   1.688  12.740 -0.3922 -0.0959 -0.3978
  486MPD2    C1 7225   0.774   1.689  12.737  0.3889 -0.9151  0.3421
  486MPD2    C2 7226   0.710   1.816  12.720 -0.9118 -0.0419  0.4236
  486MPD2    C3 7227   0.790   1.924  12.706 -0.5702  0.4104  0.8199
  486MPD2    C4 7228   0.925   1.921  12.704 -0.9993  0.2131 -0.2757
  486MPD2    C5 7229   0.989   1.801  12.720 -0.3551  0.4171 -0.0198
  486MPD2     H 7230   0.602   1.828  12.715 -1.0388 -1.3301  0.0124
  486MPD2    H1 7231   0.985   2.011  12.695  0.1925 -0.8516 -2.9570
  486MPD2    H2 7232   0.949   1.591  12.763  1.7882  0.7868 -0.7085
  486MPD2    H3 7233   1.097   1.791  12.722 -0.6787 -2.9227  0.5819
  486MPD2     N 7234   0.731   2.052  12.699 -0.2585  0.9886 -0.6952
  486MPD2    H5 7235   0.630   2.044  12.692 -0.1128 -0.6402 -0.9938
  486MPD2    N1 7236   0.701   1.567  12.746 -0.3540  0.0098 -0.3961
  486MPD2    H7 7237   0.750   1.479  12.743 -2.1037 -1.0320  1.7707
  487TMC3    C1 7238   0.509   1.421  12.719  0.1612  0.0633 -0.1492
  487TMC3    C2 7239   0.386   1.420  12.658  0.1099  0.0343  0.4522
  487TMC3    C3 7240   0.295   1.326  12.679  0.2455  0.8034  0.3608
  487TMC3    C4 7241   0.545   1.320  12.805 -0.5743  0.1185 -0.3567
  487TMC3    C5 7242   0.448   1.225  12.821  0.2144  0.6546 -0.0061
  487TMC3    C6 7243   0.326   1.225  12.765 -0.2514 -0.3073 -0.3605
  487TMC3     C 7244   0.563   1.557  12.748  0.0133 -0.0124 -0.8415
  487TMC3     O 7245   0.475   1.637  12.749  0.7551 -0.4540  0.5914
  487TMC3     H 7246   0.358   1.492  12.581 -0.5796 -2.5413 -1.7030
  487TMC3    H1 7247   0.633   1.330  12.869 -1.0428 -0.5671  0.3981
  487TMC3    H2 7248   0.268   1.137  12.741  0.8004 -0.8188 -1.0075
  487TMC3    C7 7249   0.456   1.146  12.947  0.3894 -0.4082  0.5655
  487TMC3    C8 7250   0.162   1.378  12.694 -0.2107 -0.7620 -0.1696
  487TMC3    O1 7251   0.560   1.149  13.015  0.3446  0.3047  0.9161
  487TMC3    O2 7252   0.142   1.479  12.630 -0.0199  0.2272  0.3674
  488MPD2     C 7253   0.960   3.253  16.842  0.5115 -0.4740  0.6025
  488MPD2    C1 7254   1.085   3.290  16.889  0.5117  0.2727 -0.4921
  488MPD2    C2 7255   1.145   3.211  16.987 -0.4749 -0.3402  0.2954
  488MPD2    C3 7256   1.088   3.099  17.040  0.8982 -0.0942 -0.2944
  488MPD2    C4 7257   0.962   3.061  16.992 -0.1619 -0.3329  0.3759
  488MPD2    C5 7258   0.898   3.137  16.895  0.6518 -0.4104 -0.2473
  488MPD2     H 7259   1.245   3.233  17.024  0.1616 -0.9463 -1.0615
  488MPD2    H1 7260   0.897   2.990  17.042  3.0098 -0.3170  4.4727
  488MPD2    H2 7261   0.908   3.311  16.766 -0.5544 -0.1467  1.5937
  488MPD2    H3 7262   0.795   3.110  16.872 -0.4908  1.9453  2.1112
  488MPD2     N 7263   1.153   3.043  17.157  0.2221 -0.0624  0.5473
  488MPD2    H5 7264   1.242   3.082  17.188 -0.1460  0.9079  0.4024
  488MPD2    N1 7265   1.149   3.413  16.849 -0.3013 -0.1765 -0.3459
  488MPD2    H7 7266   1.216   3.449  16.917 -0.9142  0.6126 -0.1675
  489TMC3    C1 7267   1.187   2.916  17.340 -0.3778  0.5178  0.3317
  489TMC3    C2 7268   1.278   3.004  17.378  0.5056  0.0100  0.0086
  489TMC3    C3 7269   1.328   2.987  17.505 -0.5949 -0.5735  0.2856
  489TMC3    C4 7270   1.147   2.812  17.421 -0.3696  0.1588  0.0090
  489TMC3    C5 7271   1.203   2.804  17.551 -0.2283 -0.0242  0.5124
  489TMC3    C6 7272   1.288   2.900  17.603  0.5630  0.2300 -0.2295
  489TMC3     C 7273   1.111   2.939  17.225  0.8746 -0.4304  0.1256
  489TMC3     O 7274   1.016   2.864  17.204 -0.6749 -0.5886 -0.7756
  489TMC3     H 7275   1.327   3.087  17.329  1.8084 -1.7529 -1.6317
  489TMC3    H1 7276   1.074   2.741  17.384 -1.6914  1.4614  0.1222
  489TMC3    H2 7277   1.338   2.909   0.013  0.9458 -2.1934 -0.1888
  489TMC3    C7 7278   1.144   2.713  17.650 -0.3804 -0.4140 -0.6752
  489TMC3    C8 7279   1.386   3.106  17.560  0.1892  0.8016 -0.2059
  489TMC3    O1 7280   1.038   2.665  17.618 -0.3839 -0.1503 -0.3457
  489TMC3    O2 7281   1.462   3.161  17.479 -0.3524 -0.1969 -0.0427
  490MPD2     C 7282   2.302   2.507  17.201 -0.3613  0.4573 -0.1234
  490MPD2    C1 7283   2.209   2.522  17.298 -0.1147  0.1807 -0.3723
  490MPD2    C2 7284   2.248   2.581  17.416  0.3390  0.3629  0.2531
  490MPD2    C3 7285   2.385   2.623  17.436  0.0307  0.5207 -0.1932
  490MPD2    C4 7286   2.474   2.617  17.329 -0.5354 -0.2683  0.0692
  490MPD2    C5 7287   2.433   2.548  17.215  0.1782 -0.0331 -0.8074
  490MPD2     H 7288   2.176   2.574  17.496 -0.1509  0.7124 -0.1590
  490MPD2    H1 7289   2.579   2.642  17.329 -0.3524 -1.0357 -0.7970
  490MPD2    H2 7290   2.276   2.455  17.109  1.6870  3.2305 -2.2406
  490MPD2    H3 7291   2.500   2.528  17.132  1.4636 -0.6576  0.3794
  490MPD2     N 7292   2.431   2.692  17.553 -0.3223  0.0504  0.1957
  490MPD2    H5 7293   2.527   2.723  17.544  0.5353 -2.1218  2.0217
  490MPD2    N1 7294   2.073   2.490  17.282 -0.7850 -0.3746 -0.9148
  490MPD2    H7 7295   2.013   2.512  17.360 -1.6273 -0.4267 -1.5433
  491TMC3    C1 7296   1.873   2.416  17.187 -0.5434  0.0112  1.1989
  491TMC3    C2 7297   1.838   2.359  17.309 -1.0551 -0.5838 -0.2591
  491TMC3    C3 7298   1.710   2.306  17.311 -0.4678 -0.0474 -0.2351
  491TMC3    C4 7299   1.803   2.404  17.075  0.1725 -0.4770  0.3545
  491TMC3    C5 7300   1.680   2.349  17.083 -0.0225 -0.0501 -0.2974
  491TMC3    C6 7301   1.631   2.299  17.202  0.3553 -0.6660 -0.1328
  491TMC3     C 7302   2.014   2.454  17.162  0.3888 -0.5530  0.6803
  491TMC3     O 7303   2.067   2.440  17.051 -0.3470  0.1566 -0.1456
  491TMC3     H 7304   1.904   2.355  17.395 -1.0287 -2.7306 -0.3822
  491TMC3    H1 7305   1.845   2.440  16.982  0.4615  1.6139  1.2887
  491TMC3    H2 7306   1.529   2.267  17.216  0.3171  0.3725  2.0247
  491TMC3    C7 7307   1.596   2.333  16.966  0.1883 -0.6524  0.0507
  491TMC3    C8 7308   1.651   2.259  17.439  0.4875  0.2468 -0.3759
  491TMC3    O1 7309   1.512   2.241  16.971 -0.3175 -0.1788 -0.0986
  491TMC3    O2 7310   1.554   2.184  17.435  0.5221 -0.2244  0.8307
  492MPD2     C 7311   1.947   2.607  11.103  0.1190 -0.1059  0.3323
  492MPD2    C1 7312   1.832   2.595  11.033  0.3517  0.3917  0.1390
  492MPD2    C2 7313   1.722   2.541  11.097  0.0114 -0.0158  0.3053
  492MPD2    C3 7314   1.727   2.495  11.228 -0.6173 -0.0753 -0.7537
  492MPD2    C4 7315   1.846   2.505  11.292  0.1113 -0.3545  0.2001
  492MPD2    C5 7316   1.956   2.564  11.230 -0.7472 -0.0068 -0.5187
  492MPD2     H 7317   1.625   2.534  11.048 -0.8867  1.6168  1.8195
  492MPD2    H1 7318   1.859   2.467  11.392 -0.4518 -3.1335 -0.7772
  492MPD2    H2 7319   2.038   2.641  11.055  1.3571 -2.5205  0.9529
  492MPD2    H3 7320   2.049   2.570  11.286 -0.5759 -0.6253 -0.7430
  492MPD2     N 7321   1.626   2.434  11.296  0.5570  0.2905 -0.5943
  492MPD2    H5 7322   1.644   2.429  11.396 -0.2794  1.1434 -0.4000
  492MPD2    N1 7323   1.818   2.637  10.902 -0.2393 -0.2601  0.4349
  492MPD2    H7 7324   1.900   2.684  10.864 -0.1586 -0.3585  0.4864
  493TMC3    C1 7325   1.725   2.654  10.681 -0.0297 -0.0267  0.0815
  493TMC3    C2 7326   1.803   2.764  10.661  0.1284 -0.0238 -0.1931
  493TMC3    C3 7327   1.803   2.825  10.540 -0.1616 -0.4311  0.6502
  493TMC3    C4 7328   1.635   2.617  10.586 -0.4415 -0.6119  0.1828
  493TMC3    C5 7329   1.617   2.697  10.476 -0.4321  0.1164  0.2238
  493TMC3    C6 7330   1.710   2.797  10.438  0.7874 -0.2365  0.3541
  493TMC3     C 7331   1.717   2.597  10.812 -0.3995 -0.0238 -0.0622
  493TMC3     O 7332   1.627   2.520  10.834 -0.3169 -0.4705 -0.3099
  493TMC3     H 7333   1.867   2.798  10.742  0.9452  1.6686 -1.5560
  493TMC3    H1 7334   1.583   2.523  10.595 -2.1459  0.3931  0.8432
  493TMC3    H2 7335   1.673   2.861  10.359 -0.0442 -2.4579 -1.0552
  493TMC3    C7 7336   1.503   2.687  10.391 -0.0326 -0.2450 -0.6084
  493TMC3    C8 7337   1.928   2.894  10.497 -0.1666 -0.3207  0.4032
  493TMC3    O1 7338   1.522   2.720  10.271 -0.0147  0.4093  0.1045
  493TMC3    O2 7339   2.024   2.882  10.573  0.1133  0.5092  0.5003
  494TMC3    C1 7340   2.893   0.031   0.602 -0.5958 -0.0302  0.2422
  494TMC3    C2 7341   2.890   4.616   0.561  0.0016  0.0107  0.0578
  494TMC3    C3 7342   2.953   4.579   0.444  0.4087 -0.2091  0.1040
  494TMC3    C4 7343   2.943   0.123   0.517 -0.0887  0.3827 -0.3149
  494TMC3    C5 7344   2.998   0.083   0.399 -0.3006  0.0141 -0.9973
  494TMC3    C6 7345   3.002   4.675   0.362 -0.0140 -0.3090  0.4109
  494TMC3     C 7346   2.844   0.073   0.741  0.3432 -0.3737  0.3581
  494TMC3     O 7347   2.823   0.194   0.748 -1.0236  0.2938  0.7373
  494TMC3     H 7348   2.857   4.536   0.626  0.2677  0.8717  1.2490
  494TMC3    H1 7349   2.940   0.227   0.548 -0.4577  0.7545 -1.5812
  494TMC3    H2 7350   3.064   4.650   0.276  1.2962  0.0940  1.2383
  494TMC3    C7 7351   2.966   0.145   0.272  0.2735  0.0198  0.0130
  494TMC3    C8 7352   2.921   4.449   0.391  0.2974  0.1403 -0.2367
  494TMC3    O1 7353   3.033   0.115   0.170 -0.3752 -0.0174 -0.1455
  494TMC3    O2 7354   2.905   4.359   0.474 -0.8827 -0.1661  0.4712
  495TMC3    C1 7355   1.348   2.077  14.402  0.5412 -0.2855  0.3771
  495TMC3    C2 7356   1.241   2.099  14.315 -0.0259  0.2304  0.1040
  495TMC3    C3 7357   1.110   2.102  14.354  0.5670  0.4796 -0.2185
  495TMC3    C4 7358   1.311   2.074  14.538  0.5255  0.1793 -0.7902
  495TMC3    C5 7359   1.177   2.072  14.571  0.0943  0.1341  1.0220
  495TMC3    C6 7360   1.075   2.077  14.480 -0.4327  0.1228 -0.4380
  495TMC3     C 7361   1.407   1.948  14.369 -0.5051  0.5799  0.4025
  495TMC3     O 7362   1.345   1.907  14.272 -0.4569  0.1469 -0.1672
  495TMC3     H 7363   1.248   2.116  14.208  0.0820 -0.9351 -0.0683
  495TMC3    H1 7364   1.396   2.071  14.605 -0.5006 -1.3451  0.4629
  495TMC3    H2 7365   0.970   2.072  14.507 -0.6462 -2.0375 -1.6718
  495TMC3    C7 7366   1.142   2.013  14.704 -0.2998  0.0225 -0.1556
  495TMC3    C8 7367   1.014   2.049  14.258 -0.6969  0.1782  0.0257
  495TMC3    O1 7368   1.235   2.019  14.784  0.1489 -0.1421 -0.4973
  495TMC3    O2 7369   0.902   2.099  14.270 -0.5171  0.0975  0.7868
  496MPD2     C 7370   3.529   2.020  15.352  0.6555  0.2107 -0.3922
  496MPD2    C1 7371   3.546   1.972  15.481 -0.0980 -0.5172  0.0709
  496MPD2    C2 7372   3.438   1.985  15.559  0.0331  1.2925 -0.2883
  496MPD2    C3 7373   3.316   2.036  15.507  0.1375 -0.2954 -0.0691
  496MPD2    C4 7374   3.306   2.079  15.378 -0.4759  0.7691 -0.8554
  496MPD2    C5 7375   3.411   2.058  15.296 -0.0601  0.4450 -0.3276
  496MPD2     H 7376   3.431   1.943  15.659  0.9271  1.2050 -0.2598
  496MPD2    H1 7377   3.211   2.120  15.347 -1.1106  0.4318  0.6514
  496MPD2    H2 7378   3.617   2.010  15.290 -0.7055 -0.3255 -2.2409
  496MPD2    H3 7379   3.408   2.095  15.194 -1.9028  1.1811  0.0021
  496MPD2     N 7380   3.194   2.045  15.584  0.6213 -0.1783  0.1729
  496MPD2    H5 7381   3.115   2.082  15.531  1.1371  1.7648  0.7639
  496MPD2    N1 7382   3.669   1.911  15.518 -0.5509 -0.3508  0.1724
  496MPD2    H7 7383   3.736   1.892  15.444  0.4792 -1.1336  1.3170
  497TMC3    C1 7384   3.040   2.027  15.758  0.1003 -0.9840 -0.3289
  497TMC3    C2 7385   2.945   1.944  15.708 -0.1755 -0.0189  0.0221
  497TMC3    C3 7386   2.850   1.895  15.792 -0.0608  0.5661 -0.6116
  497TMC3    C4 7387   3.044   2.050  15.890 -0.0161 -0.3724  0.1093
  497TMC3    C5 7388   2.947   1.985  15.967 -1.1867 -0.7737 -0.0956
  497TMC3    C6 7389   2.844   1.913  15.927 -0.2626 -0.6846 -0.0094
  497TMC3     C 7390   3.180   2.016  15.714  0.0571 -0.2611  0.1433
  497TMC3     O 7391   3.264   1.996  15.803 -0.2837  0.0926  0.3340
  497TMC3     H 7392   2.939   1.922  15.602  1.0448  1.6049 -0.3776
  497TMC3    H1 7393   3.117   2.122  15.925  1.5662 -2.0289  0.1759
  497TMC3    H2 7394   2.776   1.862  15.994  0.7440  0.4502  1.8729
  497TMC3    C7 7395   2.988   1.943  16.104 -0.1143  0.1829 -0.2267
  497TMC3    C8 7396   2.793   1.774  15.742  0.6394  0.2303 -0.6432
  497TMC3    O1 7397   2.905   1.962  16.193 -0.1972 -0.7374 -0.0983
  497TMC3    O2 7398   2.851   1.725  15.644  0.7709 -0.2786  0.3992
  498MPD2     C 7399   3.596   3.028   9.549  0.1036  0.0395  0.2216
  498MPD2    C1 7400   3.672   3.003   9.663 -0.7119 -0.0761  0.5731
  498MPD2    C2 7401   3.676   2.879   9.719 -0.2942  0.1546 -0.3131
  498MPD2    C3 7402   3.592   2.787   9.668  0.6990  0.2794  0.3421
  498MPD2    C4 7403   3.518   2.815   9.558  0.0938  0.4739  0.7250
  498MPD2    C5 7404   3.509   2.937   9.500  0.1983  0.8590  0.2566
  498MPD2     H 7405   3.734   2.861   9.809 -1.4452 -1.4021  0.1191
  498MPD2    H1 7406   3.458   2.740   9.508  1.9933 -0.3262 -0.3288
  498MPD2    H2 7407   3.599   3.122   9.496 -0.2904 -0.2844 -0.3820
  498MPD2    H3 7408   3.451   2.969   9.414  0.1159 -0.4420 -0.1812
  498MPD2     N 7409   3.590   2.652   9.727  0.2484 -0.0500 -0.9136
  498MPD2    H5 7410   3.658   2.628   9.798 -1.4947 -3.4469 -0.3857
  498MPD2    N1 7411   3.771   3.095   9.700  0.0892  0.1660  0.1935
  498MPD2    H7 7412   3.817   3.066   9.785 -0.7845  2.7055  1.5331
  499TMC3    C1 7413   3.933   3.257   9.638  0.3060  0.1468  0.4275
  499TMC3    C2 7414   4.024   3.167   9.688 -0.3703  0.1408  0.1074
  499TMC3    C3 7415   4.158   3.194   9.658  0.0393 -0.3433 -0.4939
  499TMC3    C4 7416   3.970   3.364   9.560  0.0946 -0.5344  0.1040
  499TMC3    C5 7417   4.101   3.379   9.530 -0.1459  0.2277 -0.5068
  499TMC3    C6 7418   4.204   3.299   9.577  0.7448  1.4447 -0.0434
  499TMC3     C 7419   3.796   3.216   9.642 -0.4512 -0.2016 -0.2218
  499TMC3     O 7420   3.722   3.287   9.577  0.6434  0.3870 -0.2196
  499TMC3     H 7421   3.998   3.083   9.752  0.2810  0.0837  0.2980
  499TMC3    H1 7422   3.893   3.416   9.505  2.8729  0.3609 -2.9397
  499TMC3    H2 7423   4.306   3.325   9.551  1.6996 -0.9519  1.2656
  499TMC3    C7 7424   4.135   3.471   9.429 -0.5923  0.5422  0.5920
  499TMC3    C8 7425   4.246   3.087   9.696  0.0562  0.7205  0.1115
  499TMC3    O1 7426   4.244   3.453   9.375  0.4873 -0.7521 -0.2620
  499TMC3    O2 7427   4.193   2.988   9.744 -0.7304 -0.2062  0.7234
  500MPD2     C 7428   0.795   3.251  10.001 -0.1685 -0.8031  0.2384
  500MPD2    C1 7429   0.701   3.342  10.045  0.2010 -0.0902 -0.5888
  500MPD2    C2 7430   0.583   3.353   9.980 -0.3542 -0.1232 -0.6254
  500MPD2    C3 7431   0.551   3.263   9.880  1.1269  0.7871  0.2609
  500MPD2    C4 7432   0.645   3.173   9.843  0.1074  0.1240 -0.4833
  500MPD2    C5 7433   0.770   3.175   9.892  0.0480 -0.7208  0.6264
  500MPD2     H 7434   0.511   3.429  10.005  1.5576  1.8548 -1.1196
  500MPD2    H1 7435   0.624   3.096   9.770 -0.9697 -0.2201  0.1976
  500MPD2    H2 7436   0.894   3.234  10.041  0.2449  0.6987 -0.1211
  500MPD2    H3 7437   0.839   3.102   9.852 -2.5779 -3.0156  0.2953
  500MPD2     N 7438   0.433   3.259   9.808 -0.0574  0.1496  0.1565
  500MPD2    H5 7439   0.431   3.178   9.748  1.9405 -0.1463  0.4900
  500MPD2    N1 7440   0.709   3.416  10.161 -0.0740  0.8885 -0.1527
  500MPD2    H7 7441   0.636   3.482  10.186 -0.6227  0.4005 -0.4529
  501TMC3    C1 7442   0.820   3.523  10.347 -0.7161  0.7890 -0.5649
  501TMC3    C2 7443   0.766   3.641  10.297 -0.0177 -0.7260 -0.0746
  501TMC3    C3 7444   0.824   3.754  10.333  0.1059 -0.1343  0.0366
  501TMC3    C4 7445   0.921   3.516  10.436 -0.5628  0.2297  0.0794
  501TMC3    C5 7446   0.981   3.635  10.473 -0.2692  0.1556 -0.6672
  501TMC3    C6 7447   0.933   3.754  10.417 -0.5533  0.4021 -0.4515
  501TMC3     C 7448   0.813   3.409  10.253 -0.2467  0.0765 -0.5730
  501TMC3     O 7449   0.906   3.334  10.257 -0.1782  0.0895  0.0473
  501TMC3     H 7450   0.680   3.638  10.230 -0.6804  1.6508  0.6669
  501TMC3    H1 7451   0.946   3.415  10.466  2.3886  1.8867  3.2660
  501TMC3    H2 7452   0.979   3.850  10.440  0.1285  0.0703 -0.4430
  501TMC3    C7 7453   1.093   3.625  10.568  0.7353 -0.9278 -0.6608
  501TMC3    C8 7454   0.762   3.884  10.282  0.1686 -0.7107 -0.2012
  501TMC3    O1 7455   1.142   3.517  10.593 -0.5656  0.2786  0.2776
  501TMC3    O2 7456   0.681   3.872  10.193  0.1690 -0.1722  0.8102
  502TMC3    C1 7457   0.632   2.197  14.695  0.7313  0.3610  0.1030
  502TMC3    C2 7458   0.654   2.324  14.650 -0.2139  0.3847  0.1926
  502TMC3    C3 7459   0.578   2.429  14.697 -0.1805  0.2429 -0.0924
  502TMC3    C4 7460   0.529   2.175  14.778  0.1471 -0.1269  0.3207
  502TMC3    C5 7461   0.441   2.276  14.811  0.0662 -0.2839  0.5453
  502TMC3    C6 7462   0.462   2.405  14.772 -0.0068 -0.2365  0.2469
  502TMC3     C 7463   0.750   2.164  14.762  0.0455  0.2287 -0.3183
  502TMC3     O 7464   0.854   2.187  14.704  0.4421 -0.1155  0.2739
  502TMC3     H 7465   0.723   2.349  14.570 -0.5189 -0.6858 -0.4014
  502TMC3    H1 7466   0.522   2.080  14.829  2.0425  0.3372  1.4888
  502TMC3    H2 7467   0.397   2.479  14.818 -0.7632 -0.5796 -0.2617
  502TMC3    C7 7468   0.402   2.250  14.944 -0.2193 -0.6205  0.0465
  502TMC3    C8 7469   0.652   2.546  14.742 -0.1165  0.2461  0.2239
  502TMC3    O1 7470   0.474   2.170  15.005  0.0075 -0.1844  0.3555
  502TMC3    O2 7471   0.585   2.636  14.784 -0.3069  0.0925 -0.1484
  503MPD2     C 7472   2.990   3.614  16.663 -0.3595 -0.0884  0.1663
  503MPD2    C1 7473   3.014   3.601  16.797  0.3221 -1.1180 -0.3358
  503MPD2    C2 7474   3.080   3.490  16.850  0.1797  0.1227 -0.4423
  503MPD2    C3 7475   3.128   3.391  16.762 -0.0167 -0.6408  0.1076
  503MPD2    C4 7476   3.098   3.407  16.632  0.2264 -0.4286 -0.7635
  503MPD2    C5 7477   3.023   3.511  16.582 -0.4205  0.4852 -0.3410
  503MPD2     H 7478   3.112   3.497  16.953  0.6356  1.2030 -0.6542
  503MPD2    H1 7479   3.113   3.329  16.558 -1.5003 -0.1575 -1.4003
  503MPD2    H2 7480   2.951   3.702  16.613 -2.0902  0.6803  2.8515
  503MPD2    H3 7481   2.998   3.514  16.476  0.7214 -0.8280 -0.6442
  503MPD2     N 7482   3.204   3.282  16.817 -0.4498  0.0502 -0.1698
  503MPD2    H5 7483   3.226   3.294  16.916 -0.5575 -1.3276  0.0235
  503MPD2    N1 7484   2.979   3.702  16.891  0.6406  0.1678  0.0550
  503MPD2    H7 7485   3.006   3.685  16.988  2.1235  0.3846 -0.3182
  504TMC3    C1 7486   3.319   3.074  16.827  0.1257 -0.0988  0.0965
  504TMC3    C2 7487   3.300   3.087  16.966 -0.2036 -0.6719 -0.4167
  504TMC3    C3 7488   3.370   3.008  17.048  0.1105  1.1562 -0.1507
  504TMC3    C4 7489   3.405   2.990  16.775 -0.3774  0.6919 -0.9366
  504TMC3    C5 7490   3.478   2.913  16.868  0.1734 -1.1773 -0.0326
  504TMC3    C6 7491   3.454   2.913  17.002 -0.6002 -0.3705  0.0483
  504TMC3     C 7492   3.263   3.172  16.742  0.0708  0.3733  0.1252
  504TMC3     O 7493   3.267   3.156  16.621 -0.1578 -0.2052 -0.4095
  504TMC3     H 7494   3.230   3.154  17.015  0.7940 -1.5487  2.1729
  504TMC3    H1 7495   3.438   3.004  16.672  0.4868 -0.4621 -0.8105
  504TMC3    H2 7496   3.510   2.848  17.068  1.2932  1.4910  0.2645
  504TMC3    C7 7497   3.598   2.843  16.821 -0.7183  0.1697 -0.1545
  504TMC3    C8 7498   3.349   3.040  17.191  0.1719 -0.1579 -0.3917
  504TMC3    O1 7499   3.615   2.852  16.703 -0.3670  0.2462 -0.4207
  504TMC3    O2 7500   3.251   3.101  17.227  0.3104 -0.1380 -0.5410
  505MPD2     C 7501   3.111   2.320  10.776  0.0531 -0.0397  0.5767
  505MPD2    C1 7502   3.133   2.186  10.765 -0.4016 -0.2167 -0.2618
  505MPD2    C2 7503   3.259   2.141  10.784 -0.3007 -0.4181  0.1297
  505MPD2    C3 7504   3.360   2.230  10.827  0.1472  1.2362  0.6972
  505MPD2    C4 7505   3.338   2.368  10.821  0.7047 -0.0856  0.8426
  505MPD2    C5 7506   3.210   2.410  10.794 -0.1075  0.0848  0.0718
  505MPD2     H 7507   3.272   2.034  10.785  1.4100 -0.2048 -0.1910
  505MPD2    H1 7508   3.420   2.437  10.834  0.5807  0.1899  0.1630
  505MPD2    H2 7509   3.009   2.358  10.776 -0.7245 -2.1429 -0.4423
  505MPD2    H3 7510   3.175   2.512  10.780  2.0144  0.6932 -0.7654
  505MPD2     N 7511   3.493   2.189  10.860  0.1999  0.2351 -0.6123
  505MPD2    H5 7512   3.562   2.254  10.896 -0.4961  0.8482 -0.3669
  505MPD2    N1 7513   3.020   2.105  10.742  0.0821 -0.9931 -0.4170
  505MPD2    H7 7514   2.932   2.151  10.722  0.2350 -0.9479 -1.0075
  506TMC3    C1 7515   2.898   1.898  10.702 -0.3769 -0.2244 -0.5086
  506TMC3    C2 7516   2.872   1.930  10.571  0.4340  0.8051  0.0937
  506TMC3    C3 7517   2.827   1.826  10.497  0.7248  0.2374  0.0973
  506TMC3    C4 7518   2.896   1.767  10.753  0.2294  0.4481  0.0876
  506TMC3    C5 7519   2.863   1.664  10.667 -0.0522  0.8585 -0.1406
  506TMC3    C6 7520   2.821   1.695  10.537  0.9423  0.3381 -0.0897
  506TMC3     C 7521   3.013   1.969  10.750 -0.2580  0.0309  0.4615
  506TMC3     O 7522   3.087   1.901  10.819  0.2873 -0.1058  0.1742
  506TMC3     H 7523   2.866   2.036  10.549  0.4935  0.5393 -1.1778
  506TMC3    H1 7524   2.912   1.749  10.859 -2.0263  1.7752  0.6606
  506TMC3    H2 7525   2.782   1.620  10.468  1.0345  0.0202  0.2019
  506TMC3    C7 7526   2.977   1.572  10.667  0.4376  0.1609  0.0898
  506TMC3    C8 7527   2.786   1.862  10.360 -0.9819 -0.4741  0.0053
  506TMC3    O1 7528   2.972   1.488  10.579 -0.1858 -0.4535 -0.7244
  506TMC3    O2 7529   2.718   1.783  10.297 -0.0559  0.2281  0.2422
  507TMC3    C1 7530   3.902   2.916  14.842  1.1638 -0.1118  0.4386
  507TMC3    C2 7531   3.806   2.814  14.835  0.8473 -0.1227  0.4564
  507TMC3    C3 7532   3.783   2.761  14.709  0.1335 -0.7552  0.0844
  507TMC3    C4 7533   3.975   2.967  14.735  0.4594 -0.1403  0.4812
  507TMC3    C5 7534   3.952   2.913  14.615  1.2923 -0.4556  1.0159
  507TMC3    C6 7535   3.865   2.801  14.603 -0.6685 -0.1190 -0.6665
  507TMC3     C 7536   3.963   2.950  14.970 -0.3165 -0.9450 -0.3834
  507TMC3     O 7537   4.079   2.987  14.973 -0.2544  0.0502  0.5123
  507TMC3     H 7538   3.765   2.761  14.920  1.2617 -0.6166  0.3493
  507TMC3    H1 7539   4.036   3.053  14.759 -0.7881  0.4983  1.3313
  507TMC3    H2 7540   3.841   2.763  14.504 -0.3597  2.3061 -1.6890
  507TMC3    C7 7541   3.950   3.008  14.503 -0.4168  0.6619  0.6555
  507TMC3    C8 7542   3.644   2.770  14.674  0.0499  1.0871 -0.0089
  507TMC3    O1 7543   3.850   2.997  14.430  0.3349  0.6392 -0.0194
  507TMC3    O2 7544   3.565   2.724  14.760  0.1922 -0.1306  0.2552
  508MPD2     C 7545   4.625   0.279  15.990 -0.4645 -0.4167  0.4585
  508MPD2    C1 7546   0.037   0.302  15.959 -0.1390 -0.0781  0.2446
  508MPD2    C2 7547   0.066   0.401  15.866 -0.4636 -0.1325 -0.7105
  508MPD2    C3 7548   4.682   0.456  15.786  0.6959  0.0607 -0.5964
  508MPD2    C4 7549   4.551   0.410  15.812 -0.3175 -0.5873 -0.0175
  508MPD2    C5 7550   4.521   0.328  15.917  0.6085 -0.8832 -0.0009
  508MPD2     H 7551   0.169   0.430  15.848 -0.8454  2.0497  0.6883
  508MPD2    H1 7552   4.465   0.447  15.757  0.5868 -0.0072 -1.0284
  508MPD2    H2 7553   4.600   0.216  16.075  0.3765 -0.5638  0.5969
  508MPD2    H3 7554   4.417   0.314  15.945  0.2300 -2.3823 -2.1355
  508MPD2     N 7555   4.713   0.552  15.685  0.0982 -0.2377 -0.5142
  508MPD2    H5 7556   0.081   0.601  15.695 -0.4776  0.8088 -0.5077
  508MPD2    N1 7557   0.135   0.256  16.051 -0.9470  0.2548 -0.0007
  508MPD2    H7 7558   0.103   0.211  16.135 -2.9244  0.2166 -0.7858
  509TMC3    C1 7559   4.614   0.809  15.310 -0.5990  0.0043 -0.0431
  509TMC3    C2 7560   0.022   0.837  15.278  0.6041 -0.3825  0.2658
  509TMC3    C3 7561   0.119   0.778  15.358 -0.1848  0.8896  0.4190
  509TMC3    C4 7562   4.583   0.718  15.400  0.1619 -0.9920 -0.4644
  509TMC3    C5 7563   4.677   0.663  15.475  0.4313  0.2001  0.3487
  509TMC3    C6 7564   0.091   0.689  15.456 -0.3834  0.8949 -0.3926
  509TMC3     C 7565   4.511   0.874  15.236 -1.3969  0.3265 -0.1301
  509TMC3     O 7566   4.412   0.805  15.219 -0.5390  0.2538  0.1535
  509TMC3     H 7567   0.037   0.898  15.190 -1.4453 -0.6604 -0.2752
  509TMC3    H1 7568   4.477   0.709  15.420  0.0594  0.8055 -0.1710
  509TMC3    H2 7569   0.174   0.638  15.503  0.6895  0.5728 -2.6517
  509TMC3    C7 7570   4.630   0.569  15.571  0.4685  0.4230 -0.5036
  509TMC3    C8 7571   0.257   0.824  15.340  0.0630 -0.4005 -0.3805
  509TMC3    O1 7572   4.516   0.529  15.555 -0.2685  0.1501  0.5770
  509TMC3    O2 7573   0.348   0.749  15.375 -0.0925  0.0691 -0.0736
  510MPD2     C 7574   2.837   2.302  14.821  0.1651  0.1356  0.6048
  510MPD2    C1 7575   2.883   2.174  14.847  0.3928  0.9304 -0.2811
  510MPD2    C2 7576   2.997   2.123  14.782  0.0100 -0.5642  0.2076
  510MPD2    C3 7577   3.059   2.195  14.686  0.8584 -0.1015 -0.2727
  510MPD2    C4 7578   3.008   2.322  14.645  0.1644 -0.2575  0.1665
  510MPD2    C5 7579   2.900   2.367  14.722  0.2842 -0.4124  0.7757
  510MPD2     H 7580   3.014   2.018  14.800 -3.4077 -1.3451 -1.2108
  510MPD2    H1 7581   3.058   2.387  14.574 -1.4004  2.5667  1.6506
  510MPD2    H2 7582   2.740   2.339  14.850 -0.1668  0.6940 -1.2198
  510MPD2    H3 7583   2.858   2.462  14.693 -0.5601 -1.3404 -1.0122
  510MPD2     N 7584   3.183   2.153  14.637 -0.3214  0.7453  0.3908
  510MPD2    H5 7585   3.215   2.067  14.681  1.6462  0.8880 -0.7844
  510MPD2    N1 7586   2.806   2.089  14.933  0.4422  0.1423  0.6822
  510MPD2    H7 7587   2.843   1.995  14.935  0.3576  0.1367  1.9390
  511TMC3    C1 7588   2.659   2.033  15.114 -0.1259 -0.0057 -0.4227
  511TMC3    C2 7589   2.583   2.085  15.211 -0.2987  0.4968  0.4196
  511TMC3    C3 7590   2.499   2.005  15.283 -0.2823 -0.4000 -0.2612
  511TMC3    C4 7591   2.652   1.899  15.077  0.0457 -0.6604  0.4269
  511TMC3    C5 7592   2.565   1.822  15.146  0.0124  0.0456 -0.7610
  511TMC3    C6 7593   2.496   1.867  15.254  0.7271 -0.1481 -0.3544
  511TMC3     C 7594   2.703   2.129  15.021  1.1989 -0.2681 -0.8775
  511TMC3     O 7595   2.648   2.234  15.027 -0.2251  0.5083  0.7839
  511TMC3     H 7596   2.587   2.189  15.243 -1.5739  0.2162  1.4842
  511TMC3    H1 7597   2.702   1.866  14.987 -1.0875  3.3262 -1.6602
  511TMC3    H2 7598   2.428   1.798  15.303  0.7628  0.0960  0.0453
  511TMC3    C7 7599   2.502   1.713  15.074  0.2042  1.0107  0.3799
  511TMC3    C8 7600   2.396   2.070  15.368  0.0335  1.1244 -0.3657
  511TMC3    O1 7601   2.502   1.720  14.952  0.6047  0.0831 -0.4104
  511TMC3    O2 7602   2.418   2.181  15.415 -0.0491 -0.2071 -0.1672
  512TMC3    C1 7603   1.443   1.727  12.976 -0.6277 -0.4349  0.3163
  512TMC3    C2 7604   1.491   1.663  13.087  0.0405  0.1746 -0.1729
  512TMC3    C3 7605   1.482   1.526  13.094 -0.2545  1.0794  0.3665
  512TMC3    C4 7606   1.379   1.654  12.878  0.0419 -0.0429 -0.0611
  512TMC3    C5 7607   1.356   1.522  12.898  0.2696  0.1729  0.3360
  512TMC3    C6 7608   1.409   1.455  13.005  0.4779 -0.2129  0.1809
  512TMC3     C 7609   1.390   1.859  12.991  0.2178 -0.7152 -0.6016
  512TMC3     O 7610   1.275   1.884  12.941 -0.0497 -0.2259  0.2209
  512TMC3     H 7611   1.532   1.717  13.172  1.4796 -1.6653  0.2972
  512TMC3    H1 7612   1.334   1.708  12.796 -1.2176 -0.1576  0.5590
  512TMC3    H2 7613   1.417   1.347  13.011  0.5775 -0.2448 -0.5552
  512TMC3    C7 7614   1.300   1.448  12.783  0.4087  0.4026  0.0958
  512TMC3    C8 7615   1.551   1.458  13.203 -0.3373 -1.0197  0.4965
  512TMC3    O1 7616   1.274   1.515  12.686 -0.4162 -0.2095 -0.1180
  512TMC3    O2 7617   1.516   1.344  13.229 -0.0542 -0.8781  0.5503
  513MPD2     C 7618   2.723   1.131  13.594  0.2286  0.6034  0.1489
  513MPD2    C1 7619   2.803   1.080  13.493 -0.3649 -0.0222  0.1755
  513MPD2    C2 7620   2.938   1.104  13.506  0.2233  0.5917  0.9473
  513MPD2    C3 7621   2.993   1.177  13.607  0.3040  0.2825 -0.0690
  513MPD2    C4 7622   2.906   1.220  13.704  0.4621 -0.4733 -0.3551
  513MPD2    C5 7623   2.771   1.191  13.710 -0.4640 -0.1008 -0.2778
  513MPD2     H 7624   3.010   1.058  13.439  1.5960  0.5273  2.4798
  513MPD2    H1 7625   2.954   1.268  13.788  0.2777 -0.8080 -0.0589
  513MPD2    H2 7626   2.615   1.122  13.593  0.2440  0.2680  2.6944
  513MPD2    H3 7627   2.710   1.240  13.786 -1.9843  0.1826 -1.6742
  513MPD2     N 7628   3.127   1.221  13.601 -0.3303  0.2407 -0.1890
  513MPD2    H5 7629   3.182   1.188  13.522 -0.8411  0.1651 -0.5093
  513MPD2    N1 7630   2.741   1.022  13.378 -0.5372  0.6108  0.1028
  513MPD2    H7 7631   2.639   1.026  13.374 -0.5606  1.0593  1.0650
  514TMC3    C1 7632   2.744   0.928  13.154  0.3078  1.3086  0.3764
  514TMC3    C2 7633   2.726   1.038  13.078 -0.1652 -0.4572  0.7311
  514TMC3    C3 7634   2.757   1.039  12.945 -0.9458  0.3548 -0.0536
  514TMC3    C4 7635   2.805   0.819  13.093  0.5436 -0.0188  0.0368
  514TMC3    C5 7636   2.847   0.825  12.958 -0.8514 -0.1994  0.3463
  514TMC3    C6 7637   2.810   0.931  12.880  0.1655 -0.1949  0.6934
  514TMC3     C 7638   2.814   0.961  13.276 -0.6083 -0.9273  0.4522
  514TMC3     O 7639   2.931   0.922  13.278  0.0733  0.0560  0.4836
  514TMC3     H 7640   2.698   1.130  13.130  0.3155 -0.0725  0.3021
  514TMC3    H1 7641   2.829   0.741  13.164 -0.9382 -0.1901  0.3485
  514TMC3    H2 7642   2.844   0.915  12.778 -0.3292  2.7525  0.0889
  514TMC3    C7 7643   2.983   0.795  12.937 -0.5833  0.1034 -0.1268
  514TMC3    C8 7644   2.754   1.171  12.880 -0.4862  0.4688  0.5669
  514TMC3    O1 7645   3.024   0.779  12.820 -0.1808 -0.4398 -0.0645
  514TMC3    O2 7646   2.709   1.266  12.948 -0.1883  0.2283  0.2223
  515MPD2     C 7647   1.311   3.336  15.241  0.0848 -0.5660  0.0790
  515MPD2    C1 7648   1.320   3.201  15.230  0.1452  0.6583  0.8874
  515MPD2    C2 7649   1.354   3.129  15.343 -0.6600 -0.0685  0.1315
  515MPD2    C3 7650   1.407   3.187  15.455  0.1733 -0.4673 -0.5566
  515MPD2    C4 7651   1.403   3.324  15.462 -0.3099  0.7818 -0.4321
  515MPD2    C5 7652   1.349   3.397  15.356 -0.6883 -0.5101 -0.0609
  515MPD2     H 7653   1.362   3.022  15.326 -3.8002 -0.5308  1.4227
  515MPD2    H1 7654   1.439   3.376  15.550 -2.5916 -1.3960  1.8172
  515MPD2    H2 7655   1.276   3.400  15.160 -0.9619 -0.8573  0.3022
  515MPD2    H3 7656   1.348   3.505  15.366  0.1389 -0.3729 -1.5548
  515MPD2     N 7657   1.471   3.110  15.546 -0.3288 -0.3776  0.1387
  515MPD2    H5 7658   1.513   3.157  15.626  0.8283 -2.0315  0.5060
  515MPD2    N1 7659   1.288   3.134  15.110 -0.4927 -0.2740  0.6456
  515MPD2    H7 7660   1.308   3.034  15.114 -0.5652 -0.3230 -0.1867
  516TMC3    C1 7661   1.206   3.090  14.895  0.0832  0.5969  0.1276
  516TMC3    C2 7662   1.135   3.137  14.788  0.4542 -0.3694  0.3239
  516TMC3    C3 7663   1.127   3.053  14.677  0.1057 -0.2701  0.1973
  516TMC3    C4 7664   1.277   2.974  14.889 -0.7396  0.1478  0.4350
  516TMC3    C5 7665   1.271   2.900  14.775  0.6832 -0.0927 -0.3154
  516TMC3    C6 7666   1.189   2.932  14.664  0.4468  0.3395 -0.1440
  516TMC3     C 7667   1.230   3.188  14.999 -0.8217 -0.8824 -0.3118
  516TMC3     O 7668   1.203   3.304  14.979  0.3497  0.1478  0.1627
  516TMC3     H 7669   1.081   3.231  14.795  0.0607 -0.7122  1.9000
  516TMC3    H1 7670   1.355   2.950  14.961  0.0536 -0.2565 -0.5570
  516TMC3    H2 7671   1.193   2.870  14.574  0.1661  0.0206  0.0621
  516TMC3    C7 7672   1.364   2.798  14.764  0.9206 -0.8878 -0.0611
  516TMC3    C8 7673   1.053   3.103  14.558 -0.1662 -0.0862 -0.0863
  516TMC3    O1 7674   1.381   2.743  14.870 -0.2607  0.2463  0.2193
  516TMC3    O2 7675   0.959   3.180  14.570  0.2487  0.1379 -0.0092
  517MPD2     C 7676   1.119   4.492   0.520  0.1690  0.6970  0.1884
  517MPD2    C1 7677   1.237   4.534   0.462  0.2136 -1.0357 -0.2330
  517MPD2    C2 7678   1.311   4.628   0.532 -0.1577  0.0823 -0.7295
  517MPD2    C3 7679   1.272   4.682   0.654  0.1980  0.4003  0.3252
  517MPD2    C4 7680   1.148   4.640   0.699 -0.2200 -0.3939 -0.2191
  517MPD2    C5 7681   1.075   4.543   0.637 -0.1704 -0.2195 -0.4955
  517MPD2     H 7682   1.398   4.658   0.475 -0.3878  2.1195 -0.0254
  517MPD2    H1 7683   1.108   4.675   0.793 -2.3177  0.1660 -1.3244
  517MPD2    H2 7684   1.055   4.417   0.474  1.3484 -2.4388  3.6476
  517MPD2    H3 7685   0.986   4.509   0.689 -0.5383 -2.5071 -2.6422
  517MPD2     N 7686   1.356   0.038   0.735 -0.1992 -0.5811 -0.0805
  517MPD2    H5 7687   1.327   0.074   0.825  1.2456 -0.3383  0.2899
  517MPD2    N1 7688   1.299   4.474   0.350  0.6305 -0.5693  0.4696
  517MPD2    H7 7689   1.391   4.506   0.324  0.8085 -0.2680  1.5029
  518TMC3    C1 7690   1.339   4.330   0.172 -0.2132 -0.3728  0.2736
  518TMC3    C2 7691   1.372   4.198   0.143 -0.2227  0.7016 -0.0920
  518TMC3    C3 7692   1.456   4.177   0.040 -0.1953 -0.3432  0.0645
  518TMC3    C4 7693   1.383   4.438   0.094  0.2534 -0.2284 -0.4288
  518TMC3    C5 7694   1.471   4.400  17.679  0.1602 -0.0348  1.3279
  518TMC3    C6 7695   1.500   4.274  17.642 -0.2165  0.1964  0.2662
  518TMC3     C 7696   1.250   4.363   0.283 -0.2953  0.3931 -0.0844
  518TMC3     O 7697   1.144   4.308   0.286  0.0752  0.3669  0.4870
  518TMC3     H 7698   1.333   4.122   0.209 -0.2336  1.5467  0.8773
  518TMC3    H1 7699   1.321   4.526   0.094 -0.1727 -0.5115 -3.5595
  518TMC3    H2 7700   1.572   4.244  17.566  1.6377  0.5820  1.8629
  518TMC3    C7 7701   1.490   4.502  17.579  0.2723 -0.4253 -0.1106
  518TMC3    C8 7702   1.519   4.052   0.028 -0.5665  0.3099  0.1410
  518TMC3    O1 7703   1.397   4.581  17.560  0.0775 -0.3425 -0.3165
  518TMC3    O2 7704   1.578   4.028  17.609 -0.6675  0.0150 -0.2108
  519MPD2     C 7705   2.830   3.434  13.783 -0.3974 -0.1981  0.1925
  519MPD2    C1 7706   2.737   3.368  13.861  0.2443 -0.3513 -0.7282
  519MPD2    C2 7707   2.757   3.235  13.903 -0.9590  0.4052 -0.4994
  519MPD2    C3 7708   2.881   3.181  13.880  0.7186 -0.0089 -0.8649
  519MPD2    C4 7709   2.972   3.244  13.802 -0.5739 -0.3005 -1.1717
  519MPD2    C5 7710   2.946   3.368  13.754  0.2338  0.1221 -0.6077
  519MPD2     H 7711   2.686   3.172  13.956  1.7002  0.1704  2.7744
  519MPD2    H1 7712   3.063   3.194  13.771  0.0036  0.6150 -0.9388
  519MPD2    H2 7713   2.820   3.536  13.746  0.4927 -0.9359 -2.0452
  519MPD2    H3 7714   3.024   3.421  13.699 -0.1608  1.2666 -0.0670
  519MPD2     N 7715   2.910   3.047  13.928  0.4321 -0.1499  0.2947
  519MPD2    H5 7716   3.000   3.010  13.899  0.4360 -1.1078  1.5538
  519MPD2    N1 7717   2.612   3.426  13.865  0.1539 -0.1491 -0.2166
  519MPD2    H7 7718   2.605   3.507  13.805  0.9937  0.1919  0.1371
  520TMC3    C1 7719   2.868   2.832  14.015 -0.3068  0.2994 -0.2861
  520TMC3    C2 7720   2.776   2.731  14.007  0.2103  0.0983 -0.9808
  520TMC3    C3 7721   2.825   2.602  14.004  0.1183  0.6822 -0.2077
  520TMC3    C4 7722   3.003   2.813  14.020 -0.2855 -0.0575 -0.0151
  520TMC3    C5 7723   3.045   2.685  14.013  0.4988  0.3457 -0.3869
  520TMC3    C6 7724   2.960   2.576  14.001 -0.2861 -0.2250  1.1339
  520TMC3     C 7725   2.823   2.966  14.002  0.0196 -0.7257  0.2903
  520TMC3     O 7726   2.706   2.984  14.039 -0.2215 -0.1807  0.1037
  520TMC3     H 7727   2.670   2.752  13.998  0.1233  1.6145  3.5070
  520TMC3    H1 7728   3.072   2.892  14.046 -0.0247  0.4387 -2.2248
  520TMC3    H2 7729   2.998   2.475  13.993 -1.6604 -0.4493 -2.4318
  520TMC3    C7 7730   3.182   2.643  14.031  0.3447 -0.3900  0.2222
  520TMC3    C8 7731   2.751   2.516  13.922  0.2655 -0.5333 -0.0774
  520TMC3    O1 7732   3.207   2.534  14.086 -0.2895 -0.0694  0.4009
  520TMC3    O2 7733   2.814   2.443  13.843 -0.0293  0.2299  0.0832
  521MPD2     C 7734   4.123   1.057  17.478  0.2581 -0.4720  0.7055
  521MPD2    C1 7735   4.063   0.973  17.388  0.0676  0.4153 -0.1774
  521MPD2    C2 7736   4.136   0.948  17.267 -1.4452 -0.3696  0.1628
  521MPD2    C3 7737   4.268   0.980  17.252 -0.1698  0.4785  0.7775
  521MPD2    C4 7738   4.325   1.057  17.354 -0.3275  0.2355  0.0035
  521MPD2    C5 7739   4.252   1.091  17.461  0.7836  0.5528  0.0334
  521MPD2     H 7740   4.091   0.887  17.189 -2.0699  0.4340 -0.0969
  521MPD2    H1 7741   4.430   1.087  17.351  0.4701 -2.3082  1.9390
  521MPD2    H2 7742   4.069   1.091  17.566 -0.0900 -0.7427  0.5980
  521MPD2    H3 7743   4.297   1.161  17.531  2.3122 -0.4183  0.0489
  521MPD2     N 7744   4.338   0.917  17.142  0.1480  0.0973  0.2086
  521MPD2    H5 7745   4.286   0.862  17.075 -0.3439  1.7796 -0.7676
  521MPD2    N1 7746   3.926   0.937  17.405 -0.0447 -0.2416  0.4350
  521MPD2    H7 7747   3.874   0.968  17.486 -0.6997 -0.1012 -0.0419
  522TMC3    C1 7748   4.518   0.820  17.029 -0.3289  0.4723  0.1584
  522TMC3    C2 7749   4.651   0.777  17.034 -0.7744 -0.2308  1.0891
  522TMC3    C3 7750   4.683   0.679  16.947 -0.2572  0.1307 -0.1818
  522TMC3    C4 7751   4.421   0.756  16.952 -0.1342  0.8374 -0.1105
  522TMC3    C5 7752   4.459   0.647  16.881  0.4038  0.8580 -0.4563
  522TMC3    C6 7753   4.588   0.607  16.875  0.2822 -0.6098  0.3790
  522TMC3     C 7754   4.473   0.915  17.129 -0.1969  0.0904  0.0645
  522TMC3     O 7755   4.553   0.960  17.209  0.0766 -0.2077 -0.1409
  522TMC3     H 7756   0.009   0.829  17.087 -2.8530  3.0142  1.0144
  522TMC3    H1 7757   4.315   0.773  16.967  0.0979  1.6248  0.6615
  522TMC3    H2 7758   4.620   0.528  16.807 -0.8704 -0.8353  0.0954
  522TMC3    C7 7759   4.359   0.578  16.800  0.1570  0.1957  0.2574
  522TMC3    C8 7760   0.088   0.610  16.970  0.7657 -0.3596  0.1860
  522TMC3    O1 7761   4.399   0.471  16.761  0.1747  0.1805 -0.1679
  522TMC3    O2 7762   0.154   0.641  17.069  0.5016 -0.2099 -0.1240
  523MPD2     C 7763   1.524   1.051  10.354  0.0136 -0.3581 -0.7437
  523MPD2    C1 7764   1.456   0.959  10.281 -0.1054  0.3744  0.3178
  523MPD2    C2 7765   1.355   0.999  10.196 -0.7558 -0.8892  0.6157
  523MPD2    C3 7766   1.328   1.126  10.171 -0.8634 -0.1445 -0.5789
  523MPD2    C4 7767   1.389   1.218  10.249  0.5758 -0.2787  0.8138
  523MPD2    C5 7768   1.480   1.177  10.343  0.2013 -0.2865 -0.0763
  523MPD2     H 7769   1.299   0.921  10.146  2.0804 -1.1783 -2.0763
  523MPD2    H1 7770   1.364   1.322  10.232  2.6223  0.0783 -0.0626
  523MPD2    H2 7771   1.599   1.015  10.424  1.0347  0.8299 -1.2256
  523MPD2    H3 7772   1.527   1.255  10.402  1.0215 -1.1673  0.4307
  523MPD2     N 7773   1.239   1.173  10.069 -0.4980  0.4686 -0.0178
  523MPD2    H5 7774   1.239   1.274  10.055 -2.6133  0.3650 -0.6831
  523MPD2    N1 7775   1.472   0.824  10.320 -0.9301  0.3843  0.2525
  523MPD2    H7 7776   1.528   0.817  10.404 -1.1550  1.3634  0.4824
  524TMC3    C1 7777   1.104   1.174   9.876 -0.3957 -0.1612 -0.2122
  524TMC3    C2 7778   1.099   1.121   9.750  0.6409  0.4248  0.1663
  524TMC3    C3 7779   1.032   1.198   9.651 -0.3602  0.6928  0.4199
  524TMC3    C4 7780   1.032   1.288   9.912  0.6915 -0.3499  0.3254
  524TMC3    C5 7781   0.964   1.352   9.819 -0.6665  0.2904  0.1674
  524TMC3    C6 7782   0.967   1.310   9.687  0.1270  0.4994  0.6208
  524TMC3     C 7783   1.188   1.104   9.972 -0.6839 -0.1896 -0.1660
  524TMC3     O 7784   1.213   0.988   9.941 -0.1792 -0.2406  0.3759
  524TMC3     H 7785   1.180   1.052   9.730  0.1544 -0.1583  0.1911
  524TMC3    H1 7786   1.031   1.323  10.015  1.5109  1.7909 -0.3845
  524TMC3    H2 7787   0.917   1.372   9.615  1.4036  0.7381 -0.0553
  524TMC3    C7 7788   0.910   1.483   9.850  1.1976  0.0835  0.2871
  524TMC3    C8 7789   1.020   1.150   9.514  0.2100 -0.8991 -0.2604
  524TMC3    O1 7790   0.943   1.524   9.962 -0.3113 -0.6782 -0.2453
  524TMC3    O2 7791   0.930   1.204   9.443 -0.5708  0.1317 -0.0009
  525MPD2     C 7792   4.231   2.573  14.577  0.0995 -0.0711 -0.3832
  525MPD2    C1 7793   4.353   2.553  14.649 -0.7372 -0.8829  0.4883
  525MPD2    C2 7794   4.456   2.651  14.644  0.1697  0.1996  0.0593
  525MPD2    C3 7795   4.442   2.770  14.576  0.2073 -0.2867 -0.0316
  525MPD2    C4 7796   4.318   2.793  14.512 -0.1443 -0.0503  0.0216
  525MPD2    C5 7797   4.216   2.697  14.516 -0.5575 -0.6133  0.1489
  525MPD2     H 7798   4.548   2.624  14.695  0.9989 -1.3197 -2.2431
  525MPD2    H1 7799   4.310   2.887  14.459  0.6750  0.2349  0.4114
  525MPD2    H2 7800   4.156   2.495  14.577 -1.2518  1.2227  0.1717
  525MPD2    H3 7801   4.125   2.715  14.461 -1.2346 -1.9021  0.8264
  525MPD2     N 7802   4.532   2.879  14.579 -0.7072  0.4175  0.9761
  525MPD2    H5 7803   4.504   2.966  14.534 -3.1314 -1.2363 -0.6893
  525MPD2    N1 7804   4.376   2.432  14.723 -0.5477  0.8838  0.6026
  525MPD2    H7 7805   4.469   2.425  14.764  0.6966  1.4686 -2.0921
  526TMC3    C1 7806   4.336   2.238  14.848  0.1528 -0.1302 -0.1315
  526TMC3    C2 7807   4.242   2.196  14.940 -0.0090  0.2513 -0.0656
  526TMC3    C3 7808   4.285   2.148  15.063  0.0679 -0.2269  0.1576
  526TMC3    C4 7809   4.469   2.218  14.866 -0.4673 -0.3939 -0.1971
  526TMC3    C5 7810   4.503   2.149  14.977  0.4690 -0.2809 -0.3836
  526TMC3    C6 7811   4.416   2.113  15.076  0.2558  0.3144  0.3184
  526TMC3     C 7812   4.287   2.333  14.744 -0.2793 -0.5555 -0.2355
  526TMC3     O 7813   4.170   2.322  14.715 -0.2566 -0.2711 -0.3740
  526TMC3     H 7814   4.139   2.224  14.924  0.1157  0.4809 -0.4746
  526TMC3    H1 7815   4.543   2.258  14.799 -0.0110 -0.0913  0.4860
  526TMC3    H2 7816   4.451   2.057  15.162  2.4668 -0.1724 -0.9161
  526TMC3    C7 7817   4.642   2.102  14.991  0.0289  0.6364 -0.4375
  526TMC3    C8 7818   4.198   2.170  15.180  0.0440 -0.0002  0.3482
  526TMC3    O1 7819   4.678   2.065  15.099  0.0603 -0.2742  0.1060
  526TMC3    O2 7820   4.078   2.168  15.157 -0.3839  0.1393 -0.3161
  527MPD2     C 7821   2.414   0.731   1.150 -0.5320  0.1214 -1.1444
  527MPD2    C1 7822   2.430   0.623   1.231  0.8680  0.2620 -0.5438
  527MPD2    C2 7823   2.534   0.536   1.200  0.0963 -0.2880 -0.3174
  527MPD2    C3 7824   2.612   0.546   1.088 -0.7961  0.7988 -0.3872
  527MPD2    C4 7825   2.587   0.650   1.001  0.0347  0.3167 -1.4673
  527MPD2    C5 7826   2.497   0.748   1.044 -0.5024  0.1912 -0.0765
  527MPD2     H 7827   2.544   0.454   1.270 -0.8141  0.3470  0.5622
  527MPD2    H1 7828   2.654   0.684   0.923 -1.3134 -0.1578 -2.8402
  527MPD2    H2 7829   2.332   0.802   1.151  0.0718  0.8079 -0.2628
  527MPD2    H3 7830   2.480   0.831   0.976  2.6134 -0.3585 -1.5172
  527MPD2     N 7831   2.713   0.450   1.069  0.0863  0.0981  0.2847
  527MPD2    H5 7832   2.735   0.393   1.150  1.2387 -1.2093 -0.9511
  527MPD2    N1 7833   2.354   0.588   1.341 -0.4355 -0.6187 -0.3165
  527MPD2    H7 7834   2.375   0.503   1.391 -0.5120  0.5746  1.7512
  528TMC3    C1 7835   2.176   0.590   1.489  0.1781 -0.3038 -0.3682
  528TMC3    C2 7836   2.257   0.558   1.593  0.4186  0.1059 -0.3894
  528TMC3    C3 7837   2.195   0.533   1.712 -0.5200 -0.1282  0.0090
  528TMC3    C4 7838   2.039   0.607   1.495 -0.1197 -0.7115  0.4903
  528TMC3    C5 7839   1.984   0.578   1.617 -0.0808 -0.1634  0.8280
  528TMC3    C6 7840   2.063   0.547   1.729 -0.0885  0.7829  0.5439
  528TMC3     C 7841   2.245   0.659   1.381 -0.7461  0.1230 -0.0345
  528TMC3     O 7842   2.187   0.758   1.340 -0.0223  0.8697 -0.2832
  528TMC3     H 7843   2.364   0.541   1.584  0.7351  1.8876 -0.0591
  528TMC3    H1 7844   1.981   0.616   1.403  2.6302  0.4486 -1.1410
  528TMC3    H2 7845   2.018   0.547   1.828 -0.8985  0.9357  0.1697
  528TMC3    C7 7846   1.843   0.530   1.626  0.5100  0.0985  0.0347
  528TMC3    C8 7847   2.287   0.486   1.821 -0.3712  0.0597 -0.2982
  528TMC3    O1 7848   1.817   0.460   1.725 -0.2590  0.0890 -0.1064
  528TMC3    O2 7849   2.403   0.486   1.791 -0.5348 -0.0781  0.1583
  529MPD2     C 7850   0.397   4.098   0.778  0.1311 -0.0134  0.1081
  529MPD2    C1 7851   0.422   3.967   0.735 -0.5684  0.1138 -0.0715
  529MPD2    C2 7852   0.458   3.939   0.600 -0.3424  0.4986 -0.4166
  529MPD2    C3 7853   0.477   4.044   0.520  0.5500  0.1042 -0.3545
  529MPD2    C4 7854   0.459   4.167   0.568  0.2589 -0.4048 -0.2321
  529MPD2    C5 7855   0.419   4.197   0.696  0.7123 -0.2409 -0.2958
  529MPD2     H 7856   0.474   3.837   0.566  0.3277  0.7430 -0.8232
  529MPD2    H1 7857   0.470   4.256   0.506  0.5116  0.1237  0.5790
  529MPD2    H2 7858   0.346   4.128   0.869 -1.1250 -1.1458 -0.2144
  529MPD2    H3 7859   0.411   4.299   0.730  1.2305 -0.0192 -0.8391
  529MPD2     N 7860   0.507   4.041   0.380 -0.0058  0.2667  0.0097
  529MPD2    H5 7861   0.531   4.132   0.341  1.9507 -0.7302 -1.0720
  529MPD2    N1 7862   0.387   3.861   0.815 -0.1625 -0.3058 -0.2994
  529MPD2    H7 7863   0.398   3.762   0.793 -1.9729 -0.7840  0.9547
  530TMC3    C1 7864   0.290   3.741   0.999  0.2404 -0.0162 -0.0274
  530TMC3    C2 7865   0.283   3.729   1.138 -1.3592 -0.3739  0.8036
  530TMC3    C3 7866   0.238   3.606   1.193  0.3069  0.2667  0.7448
  530TMC3    C4 7867   0.246   3.640   0.917 -0.1116 -0.1451  0.3387
  530TMC3    C5 7868   0.199   3.522   0.979 -0.2652  0.0566  0.5181
  530TMC3    C6 7869   0.199   3.496   1.115 -0.0080 -0.1247  0.6538
  530TMC3     C 7870   0.328   3.870   0.941  0.5656 -0.6176  0.5052
  530TMC3     O 7871   0.312   3.963   1.014 -0.1836  0.4415 -0.5478
  530TMC3     H 7872   0.323   3.798   1.211 -0.2373 -1.4029  1.1586
  530TMC3    H1 7873   0.227   3.662   0.813 -0.2212 -4.4847 -0.5655
  530TMC3    H2 7874   0.148   3.417   1.168  0.1674 -1.1320 -0.6730
  530TMC3    C7 7875   0.120   3.436   0.896  0.8115  0.0293  0.0068
  530TMC3    C8 7876   0.238   3.588   1.336  0.0020 -0.4951 -0.1068
  530TMC3    O1 7877   0.078   3.476   0.788 -0.4341 -0.2718  0.6070
  530TMC3    O2 7878   0.231   3.685   1.411 -0.2049 -0.0535  0.0843
  531MPD2     C 7879   3.478   0.849  13.110  0.2267 -0.2650  0.3686
  531MPD2    C1 7880   3.389   0.924  13.184  0.4552  0.4507 -0.3173
  531MPD2    C2 7881   3.254   0.909  13.162  0.2016  0.0411  0.0758
  531MPD2    C3 7882   3.198   0.827  13.067  0.3463 -1.2627 -0.7301
  531MPD2    C4 7883   3.292   0.772  12.984 -0.0983 -0.0349  0.3773
  531MPD2    C5 7884   3.430   0.776  13.004 -0.1873 -0.1835 -0.0139
  531MPD2     H 7885   3.174   0.956  13.218  0.4089 -0.7965  1.0785
  531MPD2    H1 7886   3.271   0.729  12.886  2.6077 -1.0126  0.2109
  531MPD2    H2 7887   3.585   0.854  13.126  0.2961  2.3870 -0.8965
  531MPD2    H3 7888   3.503   0.735  12.935 -0.5776 -1.5705  0.3866
  531MPD2     N 7889   3.059   0.812  13.053 -0.0465  0.0844  0.7018
  531MPD2    H5 7890   3.000   0.826  13.135 -1.0569 -0.0246 -0.0119
  531MPD2    N1 7891   3.436   1.008  13.283 -0.0393  0.3801  0.4500
  531MPD2    H7 7892   3.535   0.995  13.303 -0.3669 -2.0683  0.4730
  532TMC3    C1 7893   3.424   1.183  13.449 -0.2020 -1.2127  0.1023
  532TMC3    C2 7894   3.337   1.284  13.491 -1.0653 -0.2806 -0.4442
  532TMC3    C3 7895   3.332   1.307  13.629 -0.4365  0.1238 -0.1963
  532TMC3    C4 7896   3.528   1.145  13.532 -0.5146 -0.9602  0.2029
  532TMC3    C5 7897   3.536   1.193  13.662  0.6111  0.1598 -0.1370
  532TMC3    C6 7898   3.435   1.275  13.712 -0.5380  0.2584  0.9094
  532TMC3     C 7899   3.361   1.096  13.354  0.3820 -0.3709 -0.2989
  532TMC3     O 7900   3.237   1.104  13.361 -0.3329 -0.1818 -0.0374
  532TMC3     H 7901   3.280   1.333  13.413 -0.5396  0.7100 -0.2150
  532TMC3    H1 7902   3.583   1.057  13.500  0.2191  0.0508 -1.2576
  532TMC3    H2 7903   3.436   1.309  13.815  0.2772 -1.2429  1.3978
  532TMC3    C7 7904   3.669   1.223  13.708 -0.2001  0.1641 -0.6468
  532TMC3    C8 7905   3.201   1.306  13.682  0.2060 -0.5220 -0.5261
  532TMC3    O1 7906   3.683   1.334  13.757 -0.3223 -0.3623 -0.3060
  532TMC3    O2 7907   3.169   1.346  13.797 -0.3609  0.0839  0.5126
  533TMC3    C1 7908   4.717   3.005  14.637  0.4208 -0.6932  0.0484
  533TMC3    C2 7909   0.124   3.023  14.627 -0.2187 -1.2124 -0.1722
  533TMC3    C3 7910   0.166   3.152  14.652  0.0514  0.5367  0.7483
  533TMC3    C4 7911   4.638   3.097  14.694 -0.1050 -0.4588  0.1790
  533TMC3    C5 7912   4.678   3.226  14.716  0.6631 -0.0020 -0.1436
  533TMC3    C6 7913   0.085   3.257  14.696 -0.4681  0.9779 -0.1979
  533TMC3     C 7914   4.660   2.877  14.631 -1.3917 -0.4340 -0.2152
  533TMC3     O 7915   0.002   2.780  14.670 -0.3309  0.4686  0.5366
  533TMC3     H 7916   0.198   2.948  14.598  0.3109 -0.6779 -0.2037
  533TMC3    H1 7917   4.538   3.065  14.722 -0.3929 -0.2677 -0.6288
  533TMC3    H2 7918   0.121   3.358  14.708  0.8894  0.5780 -0.9216
  533TMC3    C7 7919   4.612   3.284  14.826  0.2973 -0.0045 -0.0861
  533TMC3    C8 7920   0.307   3.168  14.692  0.0328  0.7335 -0.5307
  533TMC3    O1 7921   4.563   3.397  14.807  0.1284 -0.0770 -0.1224
  533TMC3    O2 7922   0.374   3.080  14.747 -0.3184 -0.2825  0.2230
  534MPD2     C 7923   1.977   4.266   2.207  0.8946 -0.5930 -0.5534
  534MPD2    C1 7924   2.022   4.305   2.087  0.0252  0.0629  0.1526
  534MPD2    C2 7925   2.008   4.220   1.981  1.0330 -0.1885  0.3116
  534MPD2    C3 7926   1.941   4.099   1.997 -0.1353 -0.0292  0.1973
  534MPD2    C4 7927   1.883   4.065   2.115 -0.7826  0.2710 -0.5283
  534MPD2    C5 7928   1.908   4.143   2.227  0.6633  1.0503  0.3669
  534MPD2     H 7929   2.042   4.248   1.882 -4.6397 -0.4989 -1.7584
  534MPD2    H1 7930   1.832   3.972   2.132 -0.7603  0.2328 -0.6734
  534MPD2    H2 7931   1.985   4.335   2.289 -1.6283 -2.6620  1.4589
  534MPD2    H3 7932   1.862   4.126   2.323  2.8031 -1.1931  0.9991
  534MPD2     N 7933   1.942   3.998   1.892 -0.1438  0.0629  0.3368
  534MPD2    H5 7934   1.891   3.914   1.918 -0.8091  0.9064  1.7904
  534MPD2    N1 7935   2.086   4.428   2.069 -0.5054 -0.9108  0.1378
  534MPD2    H7 7936   2.120   4.443   1.975 -2.5430  1.7279 -0.1744
  535TMC3    C1 7937   1.923   3.922   1.665  0.2286  0.2893  0.9648
  535TMC3    C2 7938   1.802   3.865   1.688 -0.5422 -0.2013  0.1791
  535TMC3    C3 7939   1.757   3.773   1.591  0.2388  0.3333 -0.0290
  535TMC3    C4 7940   1.987   3.892   1.549  0.3443 -1.0001 -0.1723
  535TMC3    C5 7941   1.941   3.799   1.468 -0.2267  0.3283 -0.1205
  535TMC3    C6 7942   1.826   3.737   1.483  0.5139 -0.1762 -0.4086
  535TMC3     C 7943   1.975   4.021   1.757 -0.7176  0.3554  0.0584
  535TMC3     O 7944   2.044   4.112   1.711 -0.0299  0.1427  0.3584
  535TMC3     H 7945   1.748   3.881   1.780 -1.5255  1.0642 -0.6156
  535TMC3    H1 7946   2.085   3.940   1.547  0.2172 -0.7390 -0.1097
  535TMC3    H2 7947   1.780   3.677   1.405  0.6067  0.0466 -0.6344
  535TMC3    C7 7948   2.013   3.779   1.344  0.9541  0.4505 -0.2369
  535TMC3    C8 7949   1.622   3.718   1.610 -0.7167 -0.1683 -0.0040
  535TMC3    O1 7950   1.956   3.746   1.240 -0.3357 -0.5035  0.1966
  535TMC3    O2 7951   1.553   3.677   1.518 -0.1777  0.6347  0.4255
  536MPD2     C 7952   1.267   2.175  15.931  0.1424  0.3967  0.2781
  536MPD2    C1 7953   1.144   2.139  15.980 -0.1122 -0.0891  0.4841
  536MPD2    C2 7954   1.025   2.179  15.917  0.2596 -0.0871 -0.6244
  536MPD2    C3 7955   1.031   2.257  15.802 -0.6182  0.8766  0.0544
  536MPD2    C4 7956   1.159   2.285  15.749 -0.1381 -0.2678 -0.1813
  536MPD2    C5 7957   1.271   2.244  15.812  0.3706 -0.6021 -0.3875
  536MPD2     H 7958   0.927   2.161  15.961 -0.0395  0.7845 -0.9272
  536MPD2    H1 7959   1.161   2.345  15.659 -0.6620  1.0688  0.7082
  536MPD2    H2 7960   1.360   2.158  15.982 -0.1531 -0.3737  0.5535
  536MPD2    H3 7961   1.365   2.269  15.765  0.1563  2.0941  0.6520
  536MPD2     N 7962   0.919   2.318  15.753  0.1277 -0.0405 -0.0059
  536MPD2    H5 7963   0.937   2.382  15.677  1.8638  0.7926  1.0832
  536MPD2    N1 7964   1.139   2.079  16.110 -0.1930  0.0173  0.2159
  536MPD2    H7 7965   1.232   2.064  16.147  0.2525  1.9397 -0.0867
  537TMC3    C1 7966   1.063   2.009  16.321  1.1866 -0.0219  0.2439
  537TMC3    C2 7967   1.144   2.091  16.395  0.4909  0.4170 -0.1212
  537TMC3    C3 7968   1.153   2.074  16.528 -0.4036 -0.3413 -1.0181
  537TMC3    C4 7969   0.988   1.915  16.389  0.2583 -0.9014 -0.2543
  537TMC3    C5 7970   1.019   1.887  16.519 -0.2706  0.1749  0.1261
  537TMC3    C6 7971   1.103   1.963  16.594  0.1308 -0.3898 -0.0706
  537TMC3     C 7972   1.026   2.044  16.186 -0.3069 -0.1446  0.2262
  537TMC3     O 7973   0.908   2.030  16.164  0.1274  0.0478 -0.1676
  537TMC3     H 7974   1.193   2.170  16.340  0.4798 -0.1218 -0.9219
  537TMC3    H1 7975   0.900   1.874  16.342  0.4034 -1.6973  0.1634
  537TMC3    H2 7976   1.096   1.956  16.702 -1.5417  2.1771 -0.0334
  537TMC3    C7 7977   0.955   1.769  16.573 -0.9676  0.2997 -0.6796
  537TMC3    C8 7978   1.249   2.150  16.607  1.2932 -0.3295  0.0604
  537TMC3    O1 7979   0.851   1.727  16.520 -0.2013 -0.6393  0.1899
  537TMC3    O2 7980   1.283   2.090  16.707 -0.1090 -0.2894 -0.1804
  538TMC3    C1 7981   1.865   0.456  11.226 -0.3631 -0.1898  0.4441
  538TMC3    C2 7982   2.004   0.468  11.234  0.4967 -0.3909  0.5241
  538TMC3    C3 7983   2.073   0.525  11.128 -0.3164 -0.5399  0.6572
  538TMC3    C4 7984   1.796   0.521  11.126 -0.7073 -0.2433 -0.4125
  538TMC3    C5 7985   1.869   0.576  11.027  0.0347 -0.2952 -0.2043
  538TMC3    C6 7986   2.004   0.588  11.025  0.2459  1.0762 -0.7701
  538TMC3     C 7987   1.804   0.325  11.267  0.2911  0.8565  0.2745
  538TMC3     O 7988   1.696   0.328  11.326  0.0343  0.5075 -0.0636
  538TMC3     H 7989   2.051   0.426  11.322  0.8282 -2.0193 -0.4320
  538TMC3    H1 7990   1.692   0.492  11.117 -0.3329 -1.7724  0.1290
  538TMC3    H2 7991   2.051   0.608  10.929  0.0486  2.3547 -0.5948
  538TMC3    C7 7992   1.796   0.658  10.935  0.3437 -0.5276 -1.2835
  538TMC3    C8 7993   2.177   0.431  11.100 -0.3205 -0.2677 -0.2189
  538TMC3    O1 7994   1.674   0.652  10.947 -0.2652  0.0714  0.3877
  538TMC3    O2 7995   2.161   0.319  11.141 -0.0061 -0.2784 -0.1037
  539MPD2     C 7996   1.524   4.383  11.748 -0.0172  0.8250  0.4211
  539MPD2    C1 7997   1.458   4.390  11.627 -0.3643  0.2434 -0.6898
  539MPD2    C2 7998   1.434   4.515  11.575  0.1693 -0.5441  0.2826
  539MPD2    C3 7999   1.486   4.628  11.632  1.0764 -0.2463 -0.4127
  539MPD2    C4 8000   1.546   4.622  11.754  0.4675 -1.0947 -0.5519
  539MPD2    C5 8001   1.570   4.498  11.807  0.5462  0.7387 -0.7529
  539MPD2     H 8002   1.374   4.533  11.486 -1.1330 -1.5209  0.9639
  539MPD2    H1 8003   1.597   4.707  11.796 -1.7450  0.4747 -1.0409
  539MPD2    H2 8004   1.566   4.296  11.798  1.0883  0.4861 -1.1137
  539MPD2    H3 8005   1.621   4.487  11.902  0.7133 -1.9597 -1.1658
  539MPD2     N 8006   1.497   0.035  11.572 -0.5914  0.5274  0.6220
  539MPD2    H5 8007   1.540   0.101  11.636  0.6604  2.8791 -2.6987
  539MPD2    N1 8008   1.428   4.269  11.557  0.4416 -0.7109  0.4853
  539MPD2    H7 8009   1.394   4.274  11.461 -0.5948 -1.5743  0.8035
  540TMC3    C1 8010   1.424   0.227  11.445 -0.1798 -0.4814  0.7853
  540TMC3    C2 8011   1.392   0.265  11.316  0.1635  0.8014  0.2791
  540TMC3    C3 8012   1.379   0.405  11.290  0.0149  0.0804  0.1825
  540TMC3    C4 8013   1.418   0.312  11.554 -0.5124  0.8306 -0.1532
  540TMC3    C5 8014   1.381   0.441  11.529  0.2133 -0.3554 -0.1728
  540TMC3    C6 8015   1.366   0.489  11.399  0.1936  0.1810 -0.1103
  540TMC3     C 8016   1.421   0.079  11.465 -0.8344  0.5946  0.6411
  540TMC3     O 8017   1.348   0.022  11.380  0.5334  0.0202  0.2431
  540TMC3     H 8018   1.395   0.186  11.242 -1.7912 -0.8091  1.9076
  540TMC3    H1 8019   1.431   0.271  11.654  0.7066  1.3658 -0.0938
  540TMC3    H2 8020   1.315   0.582  11.379  0.4715  0.2071 -0.6835
  540TMC3    C7 8021   1.330   0.520  11.637  0.3934 -0.6910 -0.3974
  540TMC3    C8 8022   1.378   0.465  11.151  0.2597 -0.0476  0.9733
  540TMC3    O1 8023   1.276   0.459  11.728 -0.0738  0.6048 -0.6442
  540TMC3    O2 8024   1.361   0.587  11.151 -0.5166 -0.1749  0.1717
  541MPD2     C 8025   0.325   1.409  13.292 -1.2298 -0.2853  0.1457
  541MPD2    C1 8026   0.197   1.459  13.295 -0.4336 -0.5254  0.3721
  541MPD2    C2 8027   0.160   1.545  13.190  0.7300 -0.2634  0.2325
  541MPD2    C3 8028   0.254   1.596  13.096  0.0240 -0.3329 -0.4677
  541MPD2    C4 8029   0.387   1.555  13.109 -0.2098  0.0718  0.3246
  541MPD2    C5 8030   0.416   1.467  13.205 -0.1087 -0.6792  0.4972
  541MPD2     H 8031   0.058   1.581  13.183  0.8723 -0.0218 -0.6030
  541MPD2    H1 8032   0.472   1.593  13.052  0.4346 -2.7988 -0.6708
  541MPD2    H2 8033   0.358   1.343  13.372  0.0303  1.5634  1.1806
  541MPD2    H3 8034   0.518   1.433  13.211  0.0611 -0.8040 -3.0488
  541MPD2     N 8035   0.224   1.692  12.998 -0.3852 -0.2395 -0.0052
  541MPD2    H5 8036   0.296   1.737  12.942 -1.7189  1.5002 -0.3382
  541MPD2    N1 8037   0.108   1.414  13.396  0.4554  0.1730 -0.5281
  541MPD2    H7 8038   0.130   1.333  13.453  0.8050  1.5718  1.3498
  542TMC3    C1 8039   0.109   1.843  12.858  1.2278  0.0816  0.2611
  542TMC3    C2 8040   0.187   1.792  12.754  0.5286  0.0421  0.3194
  542TMC3    C3 8041   0.163   1.862  12.633 -0.0036 -0.1902  0.4404
  542TMC3    C4 8042   0.019   1.941  12.851 -0.0989 -0.0387  0.2466
  542TMC3    C5 8043   0.005   2.001  12.732  0.4797 -0.5763 -0.2458
  542TMC3    C6 8044   0.078   1.965  12.621  0.0306 -0.3878  0.2012
  542TMC3     C 8045   0.106   1.756  12.970 -0.1334  0.1361  0.5391
  542TMC3     O 8046   0.002   1.755  13.034 -0.1219  0.7422  0.7555
  542TMC3     H 8047   0.233   1.694  12.756 -0.9614 -0.6819 -0.6386
  542TMC3    H1 8048   4.699   1.976  12.945 -1.3311  3.6468 -1.7012
  542TMC3    H2 8049   0.068   2.019  12.527 -1.0172  3.1566  2.3316
  542TMC3    C7 8050   4.666   2.131  12.726 -0.2891 -1.2767  0.4232
  542TMC3    C8 8051   0.199   1.811  12.503 -0.6667 -0.0015  0.3075
  542TMC3    O1 8052   4.704   2.207  12.638  0.3778  0.7879 -0.6814
  542TMC3    O2 8053   0.111   1.820  12.420  0.4497 -0.0798 -0.3691
  543TMC3    C1 8054   0.427   2.542  17.050 -0.3087  0.0969  0.1104
  543TMC3    C2 8055   0.490   2.428  16.999  0.3531 -0.0096  0.0125
  543TMC3    C3 8056   0.437   2.307  17.042 -0.0665  0.3881  0.6674
  543TMC3    C4 8057   0.303   2.536  17.107  0.2682 -0.6255  0.2018
  543TMC3    C5 8058   0.255   2.411  17.138  0.1191  0.3246  0.2624
  543TMC3    C6 8059   0.326   2.289  17.121 -0.8558  0.1604  0.3297
  543TMC3     C 8060   0.454   2.656  16.973 -0.2385  0.0903  0.1102
  543TMC3     O 8061   0.570   2.655  16.931  0.2906  0.0085  0.4577
  543TMC3     H 8062   0.584   2.434  16.945 -0.4943  1.6642 -1.2548
  543TMC3    H1 8063   0.250   2.623  17.143 -0.6772 -1.0355 -0.1844
  543TMC3    H2 8064   0.280   2.191  17.133  0.4448 -0.3793  1.0042
  543TMC3    C7 8065   0.127   2.406  17.206 -0.5038  0.2559 -0.4898
  543TMC3    C8 8066   0.478   2.192  16.963 -0.7621  0.1413  0.4131
  543TMC3    O1 8067   0.058   2.509  17.200  0.0914 -0.3736  0.3903
  543TMC3    O2 8068   0.457   2.083  17.012 -0.0070  0.1285 -0.2239
  544MPD2     C 8069   0.633   1.935  16.549  0.1062  0.2365  0.0972
  544MPD2    C1 8070   0.559   1.894  16.655 -0.7254 -0.6054  0.0182
  544MPD2    C2 8071   0.540   1.980  16.766 -0.1914 -0.3305  0.5623
  544MPD2    C3 8072   0.581   2.109  16.753  0.0021 -0.2054 -0.2482
  544MPD2    C4 8073   0.647   2.153  16.640 -0.0774  0.2143  0.9686
  544MPD2    C5 8074   0.675   2.062  16.540 -0.8351  0.0099 -0.0796
  544MPD2     H 8075   0.463   1.955  16.838 -2.0556 -1.6421 -1.8807
  544MPD2    H1 8076   0.679   2.255  16.625 -1.5307  0.7813  1.7050
  544MPD2    H2 8077   0.648   1.862  16.470 -1.3680 -2.0962  1.9569
  544MPD2    H3 8078   0.729   2.101  16.454 -0.0848  1.7607  1.1834
  544MPD2     N 8079   0.544   2.210  16.845 -0.3179  0.0659  0.3703
  544MPD2    H5 8080   0.564   2.306  16.817 -0.3345  0.1027  0.4841
  544MPD2    N1 8081   0.511   1.760  16.653 -0.3539 -0.4920 -0.3007
  544MPD2    H7 8082   0.528   1.718  16.562  2.2487  3.3716 -1.6186
  545TMC3    C1 8083   0.408   1.558  16.714  0.6648 -0.1953  0.0525
  545TMC3    C2 8084   0.348   1.544  16.590 -0.1769  0.1742 -0.6079
  545TMC3    C3 8085   0.298   1.421  16.565 -1.0043  0.1231  0.0475
  545TMC3    C4 8086   0.410   1.460  16.804  0.6941 -0.2245  0.2331
  545TMC3    C5 8087   0.367   1.339  16.768  0.1138  0.5741 -0.2084
  545TMC3    C6 8088   0.304   1.320  16.651 -0.2992  0.2884  0.4898
  545TMC3     C 8089   0.451   1.689  16.754  0.2663 -0.3427  0.6827
  545TMC3     O 8090   0.440   1.723  16.873 -0.2896  0.0472  0.4960
  545TMC3     H 8091   0.329   1.631  16.529  0.9264  1.8304  1.4111
  545TMC3    H1 8092   0.457   1.484  16.899  0.0206  0.0443  0.4982
  545TMC3    H2 8093   0.268   1.219  16.635  0.5996  0.1200 -0.4824
  545TMC3    C7 8094   0.417   1.217  16.832 -0.2361 -0.0610 -0.8035
  545TMC3    C8 8095   0.219   1.416  16.436 -0.1178 -0.5767  0.3024
  545TMC3    O1 8096   0.406   1.109  16.770  0.2015 -0.1601  0.0427
  545TMC3    O2 8097   0.243   1.506  16.355  0.0327  0.7157 -0.0394
  546MPD2     C 8098   1.507   2.615   0.033  0.0422  0.3714 -0.0804
  546MPD2    C1 8099   1.518   2.654  17.589 -0.5184  0.2480 -0.2556
  546MPD2    C2 8100   1.604   2.763  17.562 -0.3110 -0.1591 -0.5214
  546MPD2    C3 8101   1.664   2.837  17.661  0.2707  0.0753  0.2540
  546MPD2    C4 8102   1.641   2.797   0.103  0.0291  0.2120  0.4550
  546MPD2    C5 8103   1.575   2.682   0.128 -0.1859 -0.0920  0.3505
  546MPD2     H 8104   1.631   2.791  17.461 -1.0438  0.3380 -0.5813
  546MPD2    H1 8105   1.669   2.860   0.186  0.6664 -0.4633  0.7504
  546MPD2    H2 8106   1.449   2.532   0.072 -0.4944 -0.1021 -1.8907
  546MPD2    H3 8107   1.573   2.662   0.234 -3.7886 -0.2060  0.2691
  546MPD2     N 8108   1.736   2.957  17.635 -0.2434  0.1178 -0.2397
  546MPD2    H5 8109   1.765   3.003   0.035 -3.0447 -0.8197  1.2026
  546MPD2    N1 8110   1.443   2.586  17.485 -0.2090  0.0865  0.1816
  546MPD2    H7 8111   1.381   2.512  17.518 -1.1984  0.7026 -0.3036
  547TMC3    C1 8112   1.374   2.554  17.270  0.3137 -0.0936 -0.8403
  547TMC3    C2 8113   1.350   2.607  17.143  0.4503 -0.6972  0.3369
  547TMC3    C3 8114   1.238   2.580  17.069  0.4802  0.2822  0.0400
  547TMC3    C4 8115   1.280   2.462  17.322 -0.1122  0.9284  0.2438
  547TMC3    C5 8116   1.166   2.439  17.245  0.4566  0.8612 -0.1512
  547TMC3    C6 8117   1.142   2.504  17.126  0.5840  0.4445 -0.6259
  547TMC3     C 8118   1.473   2.599  17.351  0.4379 -0.4027 -0.2348
  547TMC3     O 8119   1.557   2.675  17.302  0.1387 -0.2714  0.2743
  547TMC3     H 8120   1.427   2.667  17.095  0.3944 -0.4103  0.6047
  547TMC3    H1 8121   1.293   2.415  17.419 -1.4010 -0.5819 -0.3128
  547TMC3    H2 8122   1.048   2.485  17.074  1.8091  1.3945 -3.1642
  547TMC3    C7 8123   1.051   2.384  17.312 -0.3703 -0.5455  0.8580
  547TMC3    C8 8124   1.206   2.649  16.943  0.0974 -0.4703 -0.3667
  547TMC3    O1 8125   0.942   2.425  17.274  0.4131 -0.0730  0.0304
  547TMC3    O2 8126   1.097   2.627  16.894 -0.7564 -0.2673  0.0936
  548MPD2     C 8127   0.799   3.731  12.343 -0.1835 -0.3681 -0.8887
  548MPD2    C1 8128   0.753   3.603  12.352 -0.7078 -0.5752  0.0567
  548MPD2    C2 8129   0.799   3.503  12.267 -0.2845 -0.0248  0.2935
  548MPD2    C3 8130   0.900   3.533  12.179  0.5769 -0.0827  0.4530
  548MPD2    C4 8131   0.941   3.664  12.167 -0.2338 -0.0767  0.3278
  548MPD2    C5 8132   0.898   3.762  12.249  0.1102 -0.7723 -0.7723
  548MPD2     H 8133   0.765   3.400  12.268 -1.1286  0.2967  3.3666
  548MPD2    H1 8134   1.019   3.695  12.098 -0.9220  0.8500 -0.0281
  548MPD2    H2 8135   0.772   3.807  12.415 -0.2620 -0.5928 -0.6807
  548MPD2    H3 8136   0.928   3.866  12.244  0.9651 -0.9485  0.7338
  548MPD2     N 8137   0.946   3.423  12.102 -0.4365  0.0884 -0.2362
  548MPD2    H5 8138   0.907   3.330  12.118  0.7241 -0.2410  0.6760
  548MPD2    N1 8139   0.668   3.576  12.464  0.4942 -0.7385  0.9781
  548MPD2    H7 8140   0.657   3.657  12.523  0.0925  0.1216 -0.2762
  549TMC3    C1 8141   0.515   3.451  12.600  0.4401  0.3378  0.0224
  549TMC3    C2 8142   0.452   3.566  12.651 -0.3231 -0.2130  0.3332
  549TMC3    C3 8143   0.361   3.557  12.751 -0.0754 -0.2523 -0.6182
  549TMC3    C4 8144   0.482   3.327  12.651  0.1891 -0.4526 -0.4304
  549TMC3    C5 8145   0.387   3.324  12.757 -0.1608  0.2943 -0.0555
  549TMC3    C6 8146   0.321   3.438  12.800 -0.5874 -0.7990 -0.1299
  549TMC3     C 8147   0.608   3.452  12.488 -0.0251  0.6392  0.3928
  549TMC3     O 8148   0.620   3.342  12.431  0.4244 -0.2443 -0.5784
  549TMC3     H 8149   0.473   3.664  12.609  0.3289 -0.3626  0.3126
  549TMC3    H1 8150   0.550   3.245  12.630  3.6070  2.2248  0.1452
  549TMC3    H2 8151   0.236   3.438  12.867  0.7708 -1.6519  1.5999
  549TMC3    C7 8152   0.391   3.214  12.849  0.1908 -0.4401  0.3502
  549TMC3    C8 8153   0.270   3.663  12.755  0.5121 -0.3635 -0.4245
  549TMC3    O1 8154   0.342   3.242  12.955 -0.2749  0.3247  0.7522
  549TMC3    O2 8155   0.158   3.641  12.795 -0.0784 -0.3612  0.5225
  550TMC3    C1 8156   3.954   1.032  12.731 -0.2106 -0.2341 -0.1993
  550TMC3    C2 8157   3.921   1.133  12.817  0.6936 -0.0847 -0.8033
  550TMC3    C3 8158   3.923   1.260  12.761 -0.3461 -0.5455  0.1835
  550TMC3    C4 8159   3.979   1.056  12.601  0.1780  0.1334  0.7800
  550TMC3    C5 8160   3.986   1.185  12.554 -1.0384 -0.2919  0.7012
  550TMC3    C6 8161   3.966   1.291  12.634 -0.7078 -0.3336 -0.2671
  550TMC3     C 8162   3.850   0.932  12.730 -0.2809  0.1321 -0.4350
  550TMC3     O 8163   3.837   0.858  12.827  0.2152  0.4453 -0.3289
  550TMC3     H 8164   3.886   1.120  12.919 -3.0018  3.1179 -1.6960
  550TMC3    H1 8165   4.006   0.969  12.543 -0.9054  0.1394  0.2724
  550TMC3    H2 8166   3.954   1.389  12.589  0.5607  0.4923  1.2304
  550TMC3    C7 8167   3.918   1.193  12.423 -0.3616 -0.2079  0.6180
  550TMC3    C8 8168   3.863   1.362  12.836  0.0567  0.1198 -0.0058
  550TMC3    O1 8169   3.847   1.093  12.407 -0.0843  0.7680 -0.0050
  550TMC3    O2 8170   3.895   1.472  12.796  0.4274  0.3586  0.0260
  551TMC3    C1 8171   1.718   3.762  13.324  0.3614 -0.3607  0.3451
  551TMC3    C2 8172   1.775   3.845  13.232 -0.5832 -0.1658  0.1341
  551TMC3    C3 8173   1.841   3.958  13.273  0.1680 -0.2724  0.0125
  551TMC3    C4 8174   1.724   3.793  13.457  0.7302 -0.7572  0.0377
  551TMC3    C5 8175   1.790   3.904  13.500 -0.5505  0.1274 -0.4841
  551TMC3    C6 8176   1.848   3.991  13.414  0.3065  0.2848 -0.1850
  551TMC3     C 8177   1.614   3.677  13.268 -0.3897 -0.1874  0.4126
  551TMC3     O 8178   1.630   3.634  13.157  0.2324 -0.1671  0.4448
  551TMC3     H 8179   1.771   3.822  13.126  0.6023  1.6552 -0.2999
  551TMC3    H1 8180   1.685   3.728  13.535 -0.2015  0.8322  0.9004
  551TMC3    H2 8181   1.899   4.081  13.444 -0.5593  1.0642 -1.0277
  551TMC3    C7 8182   1.790   3.930  13.645  0.6009 -0.5297  0.4834
  551TMC3    C8 8183   1.909   4.047  13.177 -0.9538  0.3968  0.5412
  551TMC3    O1 8184   1.807   3.842  13.727 -0.3305  0.4420 -0.9500
  551TMC3    O2 8185   1.958   3.987  13.083  0.4865  0.0965  1.1166
  552MPD2     C 8186   3.654   1.180  14.036 -0.0233  0.5299  0.7130
  552MPD2    C1 8187   3.644   1.042  14.071 -0.8715 -0.7717  1.2281
  552MPD2    C2 8188   3.762   0.984  14.122  0.6702 -0.4918  0.4129
  552MPD2    C3 8189   3.872   1.066  14.139 -0.1106 -0.7484  0.5237
  552MPD2    C4 8190   3.876   1.198  14.106 -0.1232  0.5831  0.0325
  552MPD2    C5 8191   3.763   1.257  14.061 -0.1326 -0.3642  0.6137
  552MPD2     H 8192   3.764   0.879  14.148 -1.9536 -0.2147  1.7998
  552MPD2    H1 8193   3.963   1.258  14.131 -0.5985  1.3087 -0.0594
  552MPD2    H2 8194   3.575   1.236  13.987 -0.1861  0.3493  0.7690
  552MPD2    H3 8195   3.762   1.364  14.043  1.8932 -0.6858 -1.4665
  552MPD2     N 8196   3.996   1.022  14.199 -0.1505 -0.2767  0.6939
  552MPD2    H5 8197   4.069   1.093  14.204 -0.6495  0.2168  0.8964
  552MPD2    N1 8198   3.530   0.958  14.047 -0.3848 -0.0975 -1.4702
  552MPD2    H7 8199   3.532   0.858  14.065  3.2672  0.2899  0.2028
  553TMC3    C1 8200   3.304   0.916  13.976  0.6733 -0.5472 -0.0702
  553TMC3    C2 8201   3.242   0.949  13.860 -0.5768 -0.1480 -0.0094
  553TMC3    C3 8202   3.182   0.848  13.790 -0.4635 -0.7938  0.0825
  553TMC3    C4 8203   3.324   0.785  14.020 -0.5348  0.2828  0.1234
  553TMC3    C5 8204   3.266   0.690  13.952  0.4277 -0.4780 -0.7718
  553TMC3    C6 8205   3.187   0.718  13.845  0.5363 -0.2554  0.4036
  553TMC3     C 8206   3.412   1.008  14.010  0.2109 -0.5621  0.6561
  553TMC3     O 8207   3.372   1.125  14.009  0.0060 -0.2774  0.6768
  553TMC3     H 8208   3.224   1.052  13.832 -0.4554  0.0035  0.4601
  553TMC3    H1 8209   3.359   0.746  14.115  1.2090 -1.8756 -1.4253
  553TMC3    H2 8210   3.129   0.640  13.797 -0.2906  0.6752 -0.1210
  553TMC3    C7 8211   3.297   0.543  13.973 -0.8598  0.0838  0.0523
  553TMC3    C8 8212   3.259   0.850  13.670  0.3494  0.0052 -0.0251
  553TMC3    O1 8213   3.202   0.473  13.997 -0.1773  0.2889  0.7455
  553TMC3    O2 8214   3.358   0.921  13.654 -0.1189 -0.2486 -0.2766
  554TMC3    C1 8215   0.754   0.149  11.486  0.5706  0.4241  0.0148
  554TMC3    C2 8216   0.698   0.095  11.375  0.8055 -0.8033 -0.7194
  554TMC3    C3 8217   0.761   0.110  11.251 -0.9861 -0.1575 -0.0465
  554TMC3    C4 8218   0.863   0.231  11.482  0.1020  0.8979  0.1901
  554TMC3    C5 8219   0.922   0.256  11.357 -0.1087 -0.1433  0.2500
  554TMC3    C6 8220   0.876   0.193  11.247 -0.3010 -1.1497 -0.4020
  554TMC3     C 8221   0.685   0.133  11.615  0.5253  0.3970 -0.0748
  554TMC3     O 8222   0.562   0.114  11.601  0.6333 -0.0690  0.5197
  554TMC3     H 8223   0.627   0.014  11.376 -2.0185  1.6147 -2.2483
  554TMC3    H1 8224   0.901   0.284  11.568  2.0091 -1.5296  0.8389
  554TMC3    H2 8225   0.923   0.199  11.149  1.4740  0.7093  0.5684
  554TMC3    C7 8226   1.015   0.361  11.326 -1.0535 -0.4425  0.2317
  554TMC3    C8 8227   0.689   0.097  11.131 -0.0366 -0.3535 -0.4641
  554TMC3    O1 8228   1.072   0.362  11.220 -0.3362  0.5291  0.0855
  554TMC3    O2 8229   0.755   0.101  11.028  0.0818  0.1358 -0.1168
  555TMC3    C1 8230   4.301   4.168  14.537 -0.1780  0.1194 -0.2679
  555TMC3    C2 8231   4.224   4.205  14.639  0.1051  0.0753 -0.2875
  555TMC3    C3 8232   4.257   4.154  14.763  0.0993 -0.2246 -0.5058
  555TMC3    C4 8233   4.400   4.072  14.552  0.1080 -0.6123  0.3629
  555TMC3    C5 8234   4.422   4.017  14.673  0.0103  0.7786 -0.4064
  555TMC3    C6 8235   4.347   4.059  14.778 -0.7236 -0.6516 -0.4909
  555TMC3     C 8236   4.322   4.271  14.439 -0.5422  0.1165  0.1863
  555TMC3     O 8237   4.437   4.304  14.416  0.1352 -0.1235 -0.1241
  555TMC3     H 8238   4.142   4.275  14.635  0.4271  0.6404  3.1947
  555TMC3    H1 8239   4.457   4.048  14.462 -1.4425 -3.4505  0.1296
  555TMC3    H2 8240   4.364   4.019  14.877  0.6498  0.5304 -0.2473
  555TMC3    C7 8241   4.511   3.905  14.699 -0.2158  0.6667  0.4857
  555TMC3    C8 8242   4.191   4.209  14.875 -0.2105  0.1824 -0.4934
  555TMC3    O1 8243   4.485   3.849  14.803 -0.5959  0.2929  0.5914
  555TMC3    O2 8244   4.071   4.234  14.862 -0.7338  0.2289  0.1797
  556MPD2     C 8245   3.146   1.381  11.021  0.2211 -0.3670  0.6706
  556MPD2    C1 8246   3.011   1.387  10.996 -0.1801  0.6148  0.0741
  556MPD2    C2 8247   2.960   1.288  10.913 -0.6080  0.0016 -0.2382
  556MPD2    C3 8248   3.043   1.186  10.864  0.4239  0.1710  0.3577
  556MPD2    C4 8249   3.174   1.182  10.898 -0.5304 -0.9443  0.6471
  556MPD2    C5 8250   3.228   1.282  10.966  0.1978 -0.2816  0.7847
  556MPD2     H 8251   2.854   1.269  10.901 -0.6474  0.9232 -1.4290
  556MPD2    H1 8252   3.236   1.102  10.858 -1.8818 -0.6604 -2.0306
  556MPD2    H2 8253   3.200   1.448  11.087  1.5224 -0.7417 -0.0004
  556MPD2    H3 8254   3.330   1.272  11.001  0.5394 -2.0865 -0.6763
  556MPD2     N 8255   2.987   1.078  10.798  0.3474 -0.6281  0.4561
  556MPD2    H5 8256   2.887   1.091  10.784  1.2038  0.0531 -4.9643
  556MPD2    N1 8257   2.930   1.493  11.041  0.4845 -0.2667  0.2437
  556MPD2    H7 8258   2.830   1.483  11.023  0.6189 -1.5397  0.1875
  557TMC3    C1 8259   2.950   0.893  10.660 -0.0783 -0.5621 -0.3186
  557TMC3    C2 8260   2.993   0.823  10.545  0.0499 -0.3675 -0.1379
  557TMC3    C3 8261   2.919   0.713  10.500 -0.2819  0.2768 -0.9229
  557TMC3    C4 8262   2.851   0.837  10.735  0.2477  0.5389  0.1851
  557TMC3    C5 8263   2.791   0.722  10.684  0.7376  0.0589 -0.0373
  557TMC3    C6 8264   2.819   0.660  10.571 -0.5463 -0.4893 -0.3570
  557TMC3     C 8265   3.052   0.966  10.735 -0.3182  0.4605  0.1876
  557TMC3     O 8266   3.166   0.949  10.699 -0.4031  0.0921  0.2005
  557TMC3     H 8267   3.081   0.854  10.489  0.0595  0.3686  0.2838
  557TMC3    H1 8268   2.819   0.881  10.829 -3.5988 -2.7051  0.4026
  557TMC3    H2 8269   2.769   0.569  10.541 -1.2661 -0.0697 -0.4459
  557TMC3    C7 8270   2.690   0.661  10.769 -0.1117 -0.8665 -0.3518
  557TMC3    C8 8271   2.960   0.656  10.370  0.0932 -0.0123 -0.1428
  557TMC3    O1 8272   2.648   0.734  10.860 -0.0091 -0.5161  0.0616
  557TMC3    O2 8273   3.020   0.734  10.295  0.0293 -0.0276 -0.5136
  558TMC3    C1 8274   0.214   3.316   9.729 -0.1080 -0.2804  0.6697
  558TMC3    C2 8275   0.094   3.357   9.772  0.2916 -0.0279  0.4665
  558TMC3    C3 8276   0.004   3.406   9.682 -0.1762 -0.0885 -0.2827
  558TMC3    C4 8277   0.247   3.321   9.595 -0.0378  0.0091  0.0261
  558TMC3    C5 8278   0.159   3.362   9.502 -0.8557  0.5306  0.3304
  558TMC3    C6 8279   0.037   3.406   9.545  0.1645  0.1642 -0.4914
  558TMC3     C 8280   0.322   3.335   9.830 -0.1752 -0.9688  0.4080
  558TMC3     O 8281   0.287   3.409   9.920  0.4017 -0.2751 -0.2170
  558TMC3     H 8282   0.056   3.349   9.873  1.3127 -0.0682  0.8471
  558TMC3    H1 8283   0.350   3.300   9.568 -0.5942 -2.1062 -0.4304
  558TMC3    H2 8284   4.674   3.434   9.483 -0.6213 -2.2377 -0.5239
  558TMC3    C7 8285   0.177   3.342   9.365 -0.0469 -0.8366 -0.3774
  558TMC3    C8 8286   4.605   3.462   9.733 -0.1595 -0.1132  0.1215
  558TMC3    O1 8287   0.271   3.272   9.334 -0.0972 -0.0009  0.6158
  558TMC3    O2 8288   4.512   3.442   9.651 -0.0387 -0.1960 -0.3970
  559MPD2     C 8289   4.630   4.215  10.370  0.0394 -0.8358  0.6837
  559MPD2    C1 8290   4.652   4.352  10.364 -0.2938  0.1550 -0.1741
  559MPD2    C2 8291   0.054   4.397  10.378 -1.0226  0.1271 -0.2049
  559MPD2    C3 8292   0.166   4.320  10.402 -0.0417  1.0425 -0.5179
  559MPD2    C4 8293   0.138   4.188  10.428  0.0366  0.1353 -0.0240
  559MPD2    C5 8294   0.014   4.138  10.399 -0.0049 -0.3010 -0.8285
  559MPD2     H 8295   0.070   4.504  10.369 -4.5453  0.5875 -1.1884
  559MPD2    H1 8296   0.219   4.120  10.449 -0.8393 -0.4741  1.4202
  559MPD2    H2 8297   4.534   4.166  10.357 -0.0239 -0.4760 -0.2311
  559MPD2    H3 8298   0.011   4.031  10.416 -2.6301 -0.1189 -0.2022
  559MPD2     N 8299   0.295   4.379  10.422 -0.9151 -0.4188 -0.1463
  559MPD2    H5 8300   0.300   4.480  10.411 -0.1685 -0.4522 -0.1380
  559MPD2    N1 8301   4.538   4.434  10.355 -0.7092  0.1086  0.2063
  559MPD2    H7 8302   4.450   4.385  10.369 -1.2117  1.2557  1.0315
  560TMC3    C1 8303   0.504   4.389  10.523  0.4658  0.0319 -0.5387
  560TMC3    C2 8304   0.448   4.490  10.586  0.0464  0.0060 -0.4834
  560TMC3    C3 8305   0.475   4.514  10.714 -0.4817 -0.2597 -0.3483
  560TMC3    C4 8306   0.608   4.314  10.582 -0.5875  0.1835  0.5908
  560TMC3    C5 8307   0.651   4.361  10.708  0.4488 -0.1670 -0.1988
  560TMC3    C6 8308   0.587   4.467  10.771 -0.2268  0.0146 -0.2461
  560TMC3     C 8309   0.410   4.309  10.444 -0.1010  0.0387  0.3675
  560TMC3     O 8310   0.438   4.189  10.433  0.3486  0.3052 -0.2311
  560TMC3     H 8311   0.379   4.556  10.534 -0.3961 -0.3008 -0.2832
  560TMC3    H1 8312   0.638   4.215  10.550  0.4812  1.3698 -2.1293
  560TMC3    H2 8313   0.597   4.479  10.879  0.4946  1.6536 -0.4953
  560TMC3    C7 8314   0.758   4.285  10.775  0.5144  0.9696  0.6895
  560TMC3    C8 8315   0.358   4.454  10.773  0.0906 -0.0251  0.7162
  560TMC3    O1 8316   0.767   4.171  10.745 -0.8476  0.3662  0.0938
  560TMC3    O2 8317   0.368   4.348  10.836 -0.1230 -0.2674  0.4716
  561TMC3    C1 8318   3.151   3.382  11.360  0.0217 -0.5065  0.0949
  561TMC3    C2 8319   3.136   3.328  11.483 -0.1552 -0.0294 -0.2938
  561TMC3    C3 8320   3.083   3.404  11.583 -0.4173 -0.1989 -0.1267
  561TMC3    C4 8321   3.113   3.512  11.338 -0.2054  0.8970  0.3205
  561TMC3    C5 8322   3.059   3.587  11.436  0.6183  0.8560  0.1886
  561TMC3    C6 8323   3.048   3.540  11.567 -0.1391 -0.1828 -0.1907
  561TMC3     C 8324   3.173   3.301  11.245 -0.4573 -0.6769  0.0158
  561TMC3     O 8325   3.120   3.186  11.245 -0.0308  0.2292  0.5541
  561TMC3     H 8326   3.138   3.221  11.494 -0.2756 -0.0565 -0.5326
  561TMC3    H1 8327   3.125   3.547  11.236  0.6699 -2.3330 -0.6946
  561TMC3    H2 8328   3.010   3.600  11.649  0.7394 -2.2551  1.7526
  561TMC3    C7 8329   2.984   3.714  11.417  0.7237 -0.5914 -0.3048
  561TMC3    C8 8330   3.053   3.327  11.705  0.3729 -0.2732  0.2206
  561TMC3    O1 8331   2.900   3.734  11.503 -0.2488 -0.0194 -0.2901
  561TMC3    O2 8332   3.103   3.212  11.724  0.4454  0.0919 -0.4484
  562TMC3    C1 8333   4.401   4.417  16.129  0.2497  0.0236 -0.4871
  562TMC3    C2 8334   4.349   4.536  16.082 -0.7738 -0.6930 -0.1092
  562TMC3    C3 8335   4.330   4.545  15.947  0.6255  0.3316  0.3694
  562TMC3    C4 8336   4.436   4.320  16.048 -0.3539 -0.2191  1.1141
  562TMC3    C5 8337   4.404   4.330  15.914 -0.1949 -0.2739 -0.1897
  562TMC3    C6 8338   4.352   4.443  15.859 -0.3764  0.5806  0.0980
  562TMC3     C 8339   4.385   4.384  16.269 -0.2350 -0.2941 -0.6248
  562TMC3     O 8340   4.402   4.267  16.301 -0.5595 -0.4640 -0.0612
  562TMC3     H 8341   4.321   4.617  16.148  0.6414 -1.1371  1.0579
  562TMC3    H1 8342   4.459   4.223  16.091  0.5192 -0.3300  0.3973
  562TMC3    H2 8343   4.288   4.436  15.772  1.0096  1.5598 -1.0074
  562TMC3    C7 8344   4.412   4.221  15.825  0.2148  0.2967 -0.1625
  562TMC3    C8 8345   4.231   4.644  15.905 -0.3702  0.4706 -0.0634
  562TMC3    O1 8346   4.358   4.232  15.716  0.0576 -0.3125 -0.2789
  562TMC3    O2 8347   4.155   4.691  15.990 -0.1243 -0.4097  0.0016
  563MPD2     C 8348   2.110   1.739  16.335 -0.1862  0.3931 -0.5813
  563MPD2    C1 8349   2.229   1.804  16.376  0.1908  0.2752 -0.1554
  563MPD2    C2 8350   2.339   1.724  16.412  0.0653 -0.2144  0.0136
  563MPD2    C3 8351   2.329   1.590  16.395 -0.6971 -0.2719  0.3680
  563MPD2    C4 8352   2.205   1.529  16.364  0.7944 -0.2237  0.0798
  563MPD2    C5 8353   2.097   1.606  16.346  0.4846  0.5490 -0.0757
  563MPD2     H 8354   2.437   1.762  16.441 -1.0028  1.9229  0.8180
  563MPD2    H1 8355   2.199   1.421  16.370 -1.4616  0.1313  4.1558
  563MPD2    H2 8356   2.023   1.801  16.313  0.7983  1.8531 -0.4136
  563MPD2    H3 8357   2.002   1.561  16.317  0.2115  0.8571  0.3396
  563MPD2     N 8358   2.445   1.513  16.431  0.5204 -0.4321  0.5324
  563MPD2    H5 8359   2.524   1.566  16.466 -0.2926  0.9411  0.3227
  563MPD2    N1 8360   2.226   1.947  16.406 -0.7855  0.1336 -0.9368
  563MPD2    H7 8361   2.134   1.990  16.406 -0.4137  0.9368 -0.6342
  564TMC3    C1 8362   2.289   1.961  16.627  0.1716  0.4790 -0.6523
  564TMC3    C2 8363   2.158   1.958  16.659  0.1261  0.8546 -0.1284
  564TMC3    C3 8364   2.120   1.891  16.771 -0.4008 -0.2653  0.0778
  564TMC3    C4 8365   2.379   1.872  16.684  0.9071  0.0016 -0.1506
  564TMC3    C5 8366   2.336   1.812  16.799 -0.2459 -0.2799 -0.4051
  564TMC3    C6 8367   2.210   1.820  16.844 -0.8046 -0.5626 -0.7295
  564TMC3     C 8368   2.314   2.003  16.491 -0.2530 -0.2007 -0.0036
  564TMC3     O 8369   2.435   2.009  16.463  0.7278 -0.1050  0.0790
  564TMC3     H 8370   2.093   2.031  16.611 -1.2719 -0.2197  0.1244
  564TMC3    H1 8371   2.481   1.859  16.650  1.2773 -1.2855  1.4310
  564TMC3    H2 8372   2.188   1.782  16.942  1.5033 -1.3550 -0.4998
  564TMC3    C7 8373   2.381   1.680  16.800  0.1779 -0.1496  0.2067
  564TMC3    C8 8374   1.985   1.829  16.768  0.0390  0.0945  0.0061
  564TMC3    O1 8375   2.501   1.663  16.797  0.3233 -0.6781  0.2523
  564TMC3    O2 8376   1.968   1.750  16.860 -0.0433 -0.0726  0.1064
  565TMC3    C1 8377   2.193   2.568  10.061 -0.3563  0.2275 -0.5850
  565TMC3    C2 8378   2.216   2.476  10.166 -0.2414  0.2907 -0.5008
  565TMC3    C3 8379   2.133   2.366  10.170  0.2097 -0.2888 -0.2605
  565TMC3    C4 8380   2.110   2.532   9.960 -0.2613 -0.5156  0.2668
  565TMC3    C5 8381   2.019   2.438   9.980  0.1268 -0.2373  0.4872
  565TMC3    C6 8382   2.034   2.344  10.078  0.0127 -0.8394  0.6108
  565TMC3     C 8383   2.260   2.690  10.056 -0.3647 -0.4646  0.2642
  565TMC3     O 8384   2.236   2.755   9.955 -0.1348 -0.0894 -0.0518
  565TMC3     H 8385   2.304   2.483  10.229 -0.8540  1.1399  0.2682
  565TMC3    H1 8386   2.108   2.586   9.867 -1.1491 -2.0197 -0.5830
  565TMC3    H2 8387   1.945   2.289  10.106  0.1667 -1.1980  0.4065
  565TMC3    C7 8388   1.942   2.409   9.861 -0.1801 -0.1142 -0.0312
  565TMC3    C8 8389   2.156   2.259  10.276 -0.0514  0.2579 -0.0818
  565TMC3    O1 8390   1.930   2.503   9.778 -0.3075 -0.3895  0.0586
  565TMC3    O2 8391   2.237   2.280  10.367 -0.0333 -0.1911 -0.0214
  566MPD2     C 8392   3.357   4.377  13.878 -0.4993 -0.6733 -0.5544
  566MPD2    C1 8393   3.451   4.452  13.827  0.1354  0.5978 -0.1903
  566MPD2    C2 8394   3.414   4.532  13.713  0.3881 -0.0525  0.1603
  566MPD2    C3 8395   3.292   4.512  13.653 -0.3811  0.1411  0.2892
  566MPD2    C4 8396   3.201   4.424  13.700 -0.1191  0.2863  0.1897
  566MPD2    C5 8397   3.234   4.366  13.816 -0.2445 -0.3199 -0.5626
  566MPD2     H 8398   3.486   4.607  13.686 -0.0525 -0.5580 -2.3715
  566MPD2    H1 8399   3.103   4.406  13.658 -0.5952  2.3535  0.3828
  566MPD2    H2 8400   3.379   4.332  13.974  0.2253 -1.1601 -0.9578
  566MPD2    H3 8401   3.156   4.316  13.873  1.0257 -2.8853 -1.0614
  566MPD2     N 8402   3.248   4.590  13.546  0.4835 -0.2658 -0.5430
  566MPD2    H5 8403   3.156   4.563  13.512  0.9983 -1.1128 -1.2528
  566MPD2    N1 8404   3.580   4.436  13.878  0.2059  0.0243  0.0981
  566MPD2    H7 8405   3.586   4.369  13.954  1.7200 -0.0494 -0.0992
  567TMC3    C1 8406   3.821   4.462  13.885 -0.5898  0.5187  1.0308
  567TMC3    C2 8407   3.923   4.547  13.844 -0.7163 -0.0880  0.0127
  567TMC3    C3 8408   4.049   4.526  13.889  0.0373  0.2597  0.7979
  567TMC3    C4 8409   3.852   4.348  13.957 -0.0008  0.1980 -0.9236
  567TMC3    C5 8410   3.979   4.321  13.992  0.1311  0.5779 -0.0775
  567TMC3    C6 8411   4.080   4.410  13.964  0.7130  0.0909  0.4133
  567TMC3     C 8412   3.692   4.493  13.820  0.0221 -0.3528  0.0168
  567TMC3     O 8413   3.703   4.560  13.721  0.9908  0.4656 -0.5092
  567TMC3     H 8414   3.899   4.635  13.786 -0.8410  0.6252  1.1617
  567TMC3    H1 8415   3.775   4.274  13.974  0.0500 -0.1830 -2.4218
  567TMC3    H2 8416   4.179   4.389  14.003 -0.0707  1.7510  3.3321
  567TMC3    C7 8417   4.014   4.217  14.095  0.4812 -0.0240  0.3103
  567TMC3    C8 8418   4.161   4.601  13.825 -0.3311 -0.2101 -0.0005
  567TMC3    O1 8419   4.127   4.183  14.095 -0.1190  0.1732 -0.2348
  567TMC3    O2 8420   4.130   4.660  13.723  0.2130  0.2458 -0.2648
  568MPD2     C 8421   1.986   0.362  16.617  0.0058  0.4989 -0.2771
  568MPD2    C1 8422   2.047   0.419  16.722  0.0723 -0.2109 -0.1122
  568MPD2    C2 8423   2.048   0.553  16.740  0.2031 -1.0835  0.0423
  568MPD2    C3 8424   1.976   0.638  16.652 -0.0394 -0.0737  0.1160
  568MPD2    C4 8425   1.900   0.575  16.559  0.5951 -0.0821 -0.8262
  568MPD2    C5 8426   1.910   0.444  16.539  0.5877  0.1967 -0.1113
  568MPD2     H 8427   2.088   0.604  16.826  0.8597 -1.1496 -0.2230
  568MPD2    H1 8428   1.823   0.627  16.502  0.9334 -0.3556 -1.5210
  568MPD2    H2 8429   1.992   0.256  16.591  3.0633  0.7342 -0.6020
  568MPD2    H3 8430   1.861   0.389  16.459 -0.3582  2.0194 -0.7935
  568MPD2     N 8431   1.969   0.785  16.672  0.0855  0.2050 -0.0019
  568MPD2    H5 8432   1.894   0.829  16.620 -0.8394  0.7939  1.8268
  568MPD2    N1 8433   2.087   0.326  16.823  0.1865 -0.0877 -0.0052
  568MPD2    H7 8434   2.097   0.228  16.800  0.3355  0.0683 -0.5882
  569TMC3    C1 8435   1.991   1.003  16.770  0.0081  0.3087  0.0193
  569TMC3    C2 8436   2.017   1.063  16.890 -0.2810 -0.2267  0.5888
  569TMC3    C3 8437   1.933   1.165  16.930  0.1478  0.2389  0.2615
  569TMC3    C4 8438   1.890   1.046  16.686  0.5165  0.2516  0.1889
  569TMC3    C5 8439   1.810   1.143  16.737 -0.2415  0.8464  0.3752
  569TMC3    C6 8440   1.827   1.208  16.856 -0.5874  0.1812  0.0829
  569TMC3     C 8441   2.041   0.863  16.760  0.3006  0.6409 -0.2150
  569TMC3     O 8442   2.136   0.829  16.829  0.2488  0.0028 -0.1521
  569TMC3     H 8443   2.094   1.026  16.956  0.8848 -0.3796 -0.8454
  569TMC3    H1 8444   1.870   0.988  16.597 -2.1466 -2.7883  2.7615
  569TMC3    H2 8445   1.742   1.265  16.892  0.0409  0.2275  1.4771
  569TMC3    C7 8446   1.767   1.241  16.646  0.7233  0.8517 -0.2200
  569TMC3    C8 8447   1.983   1.266  17.024  0.4197  0.0947  0.2599
  569TMC3    O1 8448   1.745   1.207  16.530 -0.0037 -0.4672 -0.6908
  569TMC3    O2 8449   1.896   1.343  17.026  0.4596  0.2813  0.1512
  570TMC3    C1 8450   1.227   3.582  16.711  0.3682  0.4536  0.2713
  570TMC3    C2 8451   1.258   3.616  16.579 -0.6720  0.2015 -0.1401
  570TMC3    C3 8452   1.308   3.744  16.562 -0.2517 -0.5673  0.1781
  570TMC3    C4 8453   1.253   3.658  16.818 -0.9490 -0.4639 -0.0899
  570TMC3    C5 8454   1.300   3.788  16.793  0.2213 -0.3633  0.0337
  570TMC3    C6 8455   1.338   3.830  16.667  0.2170 -0.5494 -0.2014
  570TMC3     C 8456   1.139   3.464  16.721 -0.3107 -0.3698  0.0897
  570TMC3     O 8457   1.079   3.420  16.623  0.2518 -0.1671 -0.0602
  570TMC3     H 8458   1.230   3.543  16.504 -2.5859 -0.1927  0.9644
  570TMC3    H1 8459   1.218   3.634  16.918  0.0792 -1.0287  0.1345
  570TMC3    H2 8460   1.394   3.921  16.650  2.1433 -1.7949 -0.4834
  570TMC3    C7 8461   1.303   3.878  16.903 -0.2315  0.1445 -0.2528
  570TMC3    C8 8462   1.370   3.774  16.428 -0.0974  0.2270 -0.2452
  570TMC3    O1 8463   1.257   3.826  17.003 -0.4584  0.1324 -0.2070
  570TMC3    O2 8464   1.432   3.878  16.420 -0.2615 -0.1487 -0.0333
  571MPD2     C 8465   4.646   4.682  17.488  0.5567  0.4714 -0.2330
  571MPD2    C1 8466   4.714   0.043  17.571 -0.2796 -0.6093 -0.3093
  571MPD2    C2 8467   4.661   0.167  17.593 -0.6893  0.2132 -0.3643
  571MPD2    C3 8468   4.544   0.213  17.530  0.5074 -0.1934  0.0418
  571MPD2    C4 8469   4.477   0.124  17.446  0.6839  0.8579 -0.1717
  571MPD2    C5 8470   4.527   4.717  17.432  0.1730  0.2057  0.5401
  571MPD2     H 8471   4.712   0.229  17.665 -0.6826 -2.3373  1.8001
  571MPD2    H1 8472   4.384   0.147  17.395  1.5107 -0.5475 -2.3374
  571MPD2    H2 8473   4.669   4.576  17.485 -0.6447  0.2108 -0.3531
  571MPD2    H3 8474   4.465   4.648  17.377 -0.6442  2.1314 -0.9591
  571MPD2     N 8475   4.486   0.342  17.545 -0.3745 -0.1893  0.1012
  571MPD2    H5 8476   4.402   0.371  17.496 -0.2898  0.2778  0.2338
  571MPD2    N1 8477   0.095   4.705  17.643  0.1075 -0.1967 -0.0835
  571MPD2    H7 8478   0.122   4.611  17.616  0.1025  0.2893 -1.7445
  572TMC3    C1 8479   4.456   0.560  17.633  0.5697  0.0794 -0.0733
  572TMC3    C2 8480   4.319   0.550  17.619 -0.1920  0.4589  0.2049
  572TMC3    C3 8481   4.241   0.655  17.659  0.8528  0.3925 -0.6393
  572TMC3    C4 8482   4.518   0.670  17.682 -0.6446  0.3812  0.4576
  572TMC3    C5 8483   4.441   0.779   0.017 -0.1415 -0.0991 -0.2139
  572TMC3    C6 8484   4.304   0.769   0.008 -0.0806  0.3773 -0.8758
  572TMC3     C 8485   4.545   0.444  17.611  0.2314 -0.2782  0.4669
  572TMC3     O 8486   4.661   0.460  17.647  0.3397 -0.0300 -0.0790
  572TMC3     H 8487   4.269   0.459  17.591 -1.6283  0.8003  1.6073
  572TMC3    H1 8488   4.626   0.670  17.681 -0.6696 -0.4760 -2.2708
  572TMC3    H2 8489   4.246   0.856   0.036 -0.2810 -0.4930  1.3556
  572TMC3    C7 8490   4.500   0.908   0.040 -0.9106 -0.5596 -1.3732
  572TMC3    C8 8491   4.104   0.622   0.001 -0.3085 -0.4579  0.0110
  572TMC3    O1 8492   4.419   1.003   0.045  0.1467  0.2321 -0.3552
  572TMC3    O2 8493   4.050   0.528  17.630  0.2397  0.4256 -0.1147
  573MPD2     C 8494   0.850   0.745   0.537 -0.5266 -0.8322  0.1000
  573MPD2    C1 8495   0.924   0.855   0.557 -0.3503  0.1537 -0.5323
  573MPD2    C2 8496   0.965   0.950   0.461 -0.3840 -0.6190  0.8056
  573MPD2    C3 8497   0.917   0.923   0.329 -0.0709 -0.0303 -0.6868
  573MPD2    C4 8498   0.849   0.808   0.307 -0.2530  0.1099  0.2223
  573MPD2    C5 8499   0.809   0.719   0.408 -0.4008 -0.4550 -0.2110
  573MPD2     H 8500   1.022   1.040   0.480 -0.3484 -0.3794 -0.4160
  573MPD2    H1 8501   0.825   0.786   0.204 -0.7927 -0.6035  0.5027
  573MPD2    H2 8502   0.823   0.673   0.613  2.6617 -0.6357  1.4217
  573MPD2    H3 8503   0.760   0.624   0.392  0.9920 -0.8513 -2.1859
  573MPD2     N 8504   0.929   1.005   0.217  0.3655 -0.5068 -0.7984
  573MPD2    H5 8505   0.890   0.975   0.128 -1.1486 -1.1330  0.0749
  573MPD2    N1 8506   0.947   0.872   0.693 -0.2770 -0.5634 -0.0733
  573MPD2    H7 8507   0.921   0.803   0.764  0.8598  1.3615  2.2134
  574TMC3    C1 8508   0.995   1.167   0.056  0.0544 -0.0856  0.1668
  574TMC3    C2 8509   0.924   1.095  17.650  0.5112  0.2853  0.1073
  574TMC3    C3 8510   0.900   1.154  17.531 -0.6816 -0.2555  0.2640
  574TMC3    C4 8511   1.032   1.295   0.035  0.1263  0.0961  0.2732
  574TMC3    C5 8512   0.997   1.350  17.604  0.5162  0.3611 -0.3506
  574TMC3    C6 8513   0.936   1.280  17.500  0.1679  0.1422 -0.0723
  574TMC3     C 8514   1.004   1.116   0.199  0.3878 -0.2296  0.8542
  574TMC3     O 8515   1.075   1.177   0.276  0.0801  0.2667 -0.2467
  574TMC3     H 8516   0.882   0.997  17.671  1.7769 -0.1665  0.4770
  574TMC3    H1 8517   1.088   1.336   0.119 -1.1403  1.7956  0.2798
  574TMC3    H2 8518   0.936   1.308  17.396 -0.5549 -0.5343 -0.2563
  574TMC3    C7 8519   1.070   1.472  17.569  0.9231  1.6535 -0.0231
  574TMC3    C8 8520   0.814   1.078  17.433 -0.0551  0.7959 -0.1080
  574TMC3    O1 8521   1.090   1.487  17.451 -0.1857 -0.4624  0.1318
  574TMC3    O2 8522   0.805   0.957  17.456 -0.2123  0.1929  0.4268
  575TMC3    C1 8523   2.328   2.010  11.100  0.0832  0.5098 -0.0036
  575TMC3    C2 8524   2.271   1.906  11.172  0.8030 -0.4708 -0.8593
  575TMC3    C3 8525   2.188   1.826  11.096  0.1463  0.6234 -0.2134
  575TMC3    C4 8526   2.309   2.038  10.963 -0.3053 -0.6249 -0.4324
  575TMC3    C5 8527   2.231   1.951  10.900  0.6051 -0.1371  0.1931
  575TMC3    C6 8528   2.168   1.847  10.959  0.4657  0.2985 -0.4946
  575TMC3     C 8529   2.422   2.084  11.181  0.1222 -0.1560  0.1387
  575TMC3     O 8530   2.467   2.028  11.280 -0.4230 -0.3055  0.3150
  575TMC3     H 8531   2.292   1.887  11.276  0.6833  0.1878 -0.7142
  575TMC3    H1 8532   2.369   2.113  10.912 -1.6282 -1.2027 -2.8164
  575TMC3    H2 8533   2.102   1.782  10.903  1.2076 -0.6467 -0.3002
  575TMC3    C7 8534   2.203   1.986  10.760  0.0427 -0.3129  0.6187
  575TMC3    C8 8535   2.104   1.745  11.180  0.2924  0.3105  0.8343
  575TMC3    O1 8536   2.236   2.103  10.734  0.8265 -0.4740  0.1979
  575TMC3    O2 8537   2.074   1.787  11.288 -0.7707  0.7780  0.2917
  576MPD2     C 8538   1.949   3.551  12.638  0.2833  0.3229  0.0898
  576MPD2    C1 8539   1.976   3.668  12.569 -0.5367 -0.7670  0.7185
  576MPD2    C2 8540   1.911   3.789  12.608 -0.2617 -0.5216  0.6930
  576MPD2    C3 8541   1.833   3.796  12.721  0.3472 -0.0826  0.1450
  576MPD2    C4 8542   1.819   3.678  12.792  0.1204 -0.2725  0.3986
  576MPD2    C5 8543   1.864   3.559  12.741 -0.0254  0.1489 -0.1707
  576MPD2     H 8544   1.931   3.881  12.556 -2.4987 -0.6212 -0.3313
  576MPD2    H1 8545   1.764   3.674  12.886 -1.1397 -1.2354 -0.3667
  576MPD2    H2 8546   1.980   3.453  12.605  1.1299  1.0223 -1.2273
  576MPD2    H3 8547   1.836   3.473  12.800 -0.1465  0.2011 -0.1528
  576MPD2     N 8548   1.789   3.924  12.753  0.2302  0.0509  0.4227
  576MPD2    H5 8549   1.835   4.001  12.705 -0.5710 -0.1743 -0.7027
  576MPD2    N1 8550   2.052   3.660  12.441 -0.4495 -0.1687 -0.4573
  576MPD2    H7 8551   2.051   3.745  12.385 -0.0227 -0.8803 -1.5404
  577TMC3    C1 8552   2.219   3.569  12.303 -0.9252  0.3657 -0.2308
  577TMC3    C2 8553   2.329   3.490  12.302 -0.2173  0.0992 -0.0828
  577TMC3    C3 8554   2.418   3.508  12.202  0.0700 -0.2086  0.1102
  577TMC3    C4 8555   2.168   3.640  12.196 -0.1068 -0.1362  0.1074
  577TMC3    C5 8556   2.251   3.638  12.087 -0.7647  0.8190 -0.0505
  577TMC3    C6 8557   2.383   3.589  12.096 -0.6928  0.8862 -0.7166
  577TMC3     C 8558   2.139   3.560  12.419  0.3582  0.0526  0.3552
  577TMC3     O 8559   2.176   3.477  12.499  0.1755 -0.6275 -0.1246
  577TMC3     H 8560   2.346   3.409  12.372 -2.5295 -0.7408 -0.4907
  577TMC3    H1 8561   2.075   3.697  12.200 -0.3674 -0.5732  0.2592
  577TMC3    H2 8562   2.434   3.604  12.001 -2.0804  3.5850 -1.0259
  577TMC3    C7 8563   2.205   3.575  11.960 -0.2052 -0.7883 -0.3949
  577TMC3    C8 8564   2.501   3.391  12.177 -0.3002  0.2615  0.2407
  577TMC3    O1 8565   2.258   3.469  11.943  0.2350  0.2105 -0.0368
  577TMC3    O2 8566   2.473   3.283  12.223  0.2377 -0.5857 -0.2686
  578MPD2     C 8567   0.592   4.048   1.269 -0.5695 -0.0705 -0.3239
  578MPD2    C1 8568   0.619   3.940   1.187  0.1306  0.1228  0.3152
  578MPD2    C2 8569   0.614   3.811   1.246  0.6308 -0.7351  0.5677
  578MPD2    C3 8570   0.599   3.797   1.381  0.5198 -0.3683  0.6076
  578MPD2    C4 8571   0.560   3.908   1.456 -0.3372  0.0024 -0.0079
  578MPD2    C5 8572   0.546   4.030   1.395 -0.2554  0.5576  0.5091
  578MPD2     H 8573   0.654   3.730   1.187  0.1706 -1.0712  0.7250
  578MPD2    H1 8574   0.550   3.910   1.564 -2.1739  2.5561 -0.2231
  578MPD2    H2 8575   0.608   4.149   1.234  0.7121  0.6453  2.3366
  578MPD2    H3 8576   0.523   4.116   1.458  0.6348 -0.4992  2.2696
  578MPD2     N 8577   0.648   3.679   1.437 -0.9343 -0.1250  0.2991
  578MPD2    H5 8578   0.687   3.613   1.370 -0.5991  1.3087 -0.9251
  578MPD2    N1 8579   0.665   3.965   1.058 -0.2548 -0.2025  0.1291
  578MPD2    H7 8580   0.694   4.061   1.042  0.8745 -0.8423 -1.7127
  579TMC3    C1 8581   0.708   3.536   1.615  0.4926 -0.5041 -0.1584
  579TMC3    C2 8582   0.788   3.556   1.731  0.3744  0.0810 -0.4072
  579TMC3    C3 8583   0.900   3.478   1.733 -0.2642  0.3984 -0.0749
  579TMC3    C4 8584   0.744   3.449   1.519  1.1098 -0.1400 -0.5227
  579TMC3    C5 8585   0.861   3.371   1.533  0.0237 -0.3385 -0.6647
  579TMC3    C6 8586   0.942   3.392   1.640  0.2166 -0.5685  0.0659
  579TMC3     C 8587   0.635   3.655   1.574  0.6719  0.5057  0.4624
  579TMC3     O 8588   0.595   3.718   1.672  0.5493 -0.6680 -0.0747
  579TMC3     H 8589   0.789   3.645   1.793  1.1563  1.1615 -1.9431
  579TMC3    H1 8590   0.672   3.441   1.439  1.0943 -0.1275 -0.5100
  579TMC3    H2 8591   1.031   3.331   1.649  0.3949 -0.5261 -1.4504
  579TMC3    C7 8592   0.905   3.270   1.430  0.1671 -0.7924 -0.5625
  579TMC3    C8 8593   1.003   3.511   1.829 -0.9415 -0.1699  0.3336
  579TMC3    O1 8594   1.001   3.195   1.454 -0.3214  0.0877 -0.1701
  579TMC3    O2 8595   0.962   3.551   1.939  0.1097  0.0698  0.0035
  580TMC3    C1 8596   4.687   2.929  11.921 -0.2575 -0.3293  0.3123
  580TMC3    C2 8597   4.606   2.893  11.808  0.8830 -0.4084  0.1585
  580TMC3    C3 8598   4.559   2.762  11.798  0.3340 -0.1247 -0.4528
  580TMC3    C4 8599   4.707   2.839  12.022 -0.8311  0.3739 -0.0678
  580TMC3    C5 8600   4.645   2.716  12.013 -0.2356 -0.2047  0.8112
  580TMC3    C6 8601   4.573   2.662  11.898  0.0696 -0.3220  0.5313
  580TMC3     C 8602   0.092   2.990  11.868  0.1821  0.1966 -0.4561
  580TMC3     O 8603   0.080   3.063  11.771  0.2422 -0.2814 -0.5389
  580TMC3     H 8604   4.573   2.966  11.735 -0.3365 -0.1114  1.0073
  580TMC3    H1 8605   0.043   2.848  12.114 -2.4643 -0.0122  0.9948
  580TMC3    H2 8606   4.551   2.557  11.882  0.0189 -0.2472  0.1041
  580TMC3    C7 8607   4.709   2.616  12.104  0.5611 -0.1423  0.1464
  580TMC3    C8 8608   4.539   2.709  11.662  0.2933 -0.2191 -0.2443
  580TMC3    O1 8609   0.063   2.652  12.197 -0.0200 -0.5916 -0.0213
  580TMC3    O2 8610   4.493   2.595  11.650 -0.0454 -0.5320 -0.6774
  581MPD2     C 8611   3.037   2.989  15.240 -0.0408 -0.4686 -0.3794
  581MPD2    C1 8612   3.016   2.904  15.138  0.0333  0.5260  0.6139
  581MPD2    C2 8613   2.886   2.883  15.098  0.1524  0.2722  0.0546
  581MPD2    C3 8614   2.777   2.946  15.164  0.1269  0.7508 -0.5373
  581MPD2    C4 8615   2.808   3.014  15.279  0.3175 -0.3418  0.1800
  581MPD2    C5 8616   2.938   3.039  15.314  0.3759 -0.1024  0.2775
  581MPD2     H 8617   2.859   2.819  15.016 -0.7101  0.6471  0.0463
  581MPD2    H1 8618   2.729   3.054  15.341  0.4351  1.6217 -0.9051
  581MPD2    H2 8619   3.135   3.025  15.268  0.5834 -1.0052 -1.8360
  581MPD2    H3 8620   2.950   3.105  15.398 -0.1230 -1.8233  1.6991
  581MPD2     N 8621   2.649   2.926  15.111 -0.4459  0.1421  0.2155
  581MPD2    H5 8622   2.635   2.883  15.020 -0.6804  0.0570  0.2921
  581MPD2    N1 8623   3.123   2.833  15.079 -0.1862 -0.0036 -0.6459
  581MPD2    H7 8624   3.201   2.832  15.143 -1.7110  1.3485  1.2703
  582TMC3    C1 8625   3.224   2.637  14.972 -0.5569  0.2005  0.0756
  582TMC3    C2 8626   3.328   2.659  15.056  0.1258 -0.5043 -0.8608
  582TMC3    C3 8627   3.402   2.550  15.096  0.1508 -0.9017  0.8496
  582TMC3    C4 8628   3.198   2.508  14.924 -0.2078 -0.1695  0.3250
  582TMC3    C5 8629   3.283   2.405  14.948 -0.6964  0.1380  0.0110
  582TMC3    C6 8630   3.386   2.426  15.038 -0.6375  0.2421 -0.1469
  582TMC3     C 8631   3.119   2.741  14.973 -0.7957 -0.3840 -0.1201
  582TMC3     O 8632   3.027   2.706  14.899  0.1549  0.2081 -0.4720
  582TMC3     H 8633   3.360   2.758  15.088  0.4759 -1.0576  0.4865
  582TMC3    H1 8634   3.115   2.484  14.859  0.9100 -2.5092 -0.2268
  582TMC3    H2 8635   3.441   2.343  15.080 -0.1783 -0.5103 -2.1973
  582TMC3    C7 8636   3.208   2.288  14.991 -0.5167  0.1136 -0.0343
  582TMC3    C8 8637   3.434   2.552  15.233  0.2400  0.2867 -0.0836
  582TMC3    O1 8638   3.269   2.182  14.975 -0.4118 -0.7458 -0.4672
  582TMC3    O2 8639   3.365   2.628  15.301 -0.1624 -0.1097 -0.3988
  583MPD2     C 8640   3.232   4.104  16.885  0.3263 -0.2389  0.3548
  583MPD2    C1 8641   3.170   4.195  16.802 -0.5554 -0.6008 -0.2003
  583MPD2    C2 8642   3.103   4.310  16.849  0.0272 -0.0814  0.0629
  583MPD2    C3 8643   3.098   4.337  16.986  0.3304  0.2774  0.3426
  583MPD2    C4 8644   3.163   4.245  17.075  0.4747  0.2073  0.2053
  583MPD2    C5 8645   3.229   4.135  17.019  0.0938  0.1230  0.3634
  583MPD2     H 8646   3.055   4.374  16.777  0.1154  1.4442  1.3635
  583MPD2    H1 8647   3.157   4.254  17.183 -2.2631 -1.9192  0.2352
  583MPD2    H2 8648   3.280   4.011  16.857  0.5924  0.5269 -1.7291
  583MPD2    H3 8649   3.267   4.070  17.096 -1.3409 -1.8857 -0.6477
  583MPD2     N 8650   3.020   4.451  17.025 -0.1300 -0.8178 -0.0230
  583MPD2    H5 8651   2.980   4.504  16.949 -1.3267  0.0753  1.2296
  583MPD2    N1 8652   3.179   4.186  16.662  0.1316 -0.7125 -0.2717
  583MPD2    H7 8653   3.146   4.268  16.611 -0.8594 -1.8850 -1.5301
  584TMC3    C1 8654   2.912   4.588  17.176 -0.1153  0.1099  0.1593
  584TMC3    C2 8655   2.920   4.693  17.085  0.1171  0.1260 -0.3532
  584TMC3    C3 8656   2.880   0.098  17.128 -0.3694  0.2426 -0.1942
  584TMC3    C4 8657   2.857   4.613  17.301 -0.6797 -0.7877  0.5465
  584TMC3    C5 8658   2.818   0.015  17.336  0.0979  0.5915 -0.0193
  584TMC3    C6 8659   2.837   0.121  17.256 -0.1585  0.2957  0.2543
  584TMC3     C 8660   2.986   4.467  17.158  0.3118  0.9546 -0.5381
  584TMC3     O 8661   3.004   4.398  17.258  0.1683 -0.2402 -1.0019
  584TMC3     H 8662   2.985   4.685  16.998 -2.5797  1.2654 -2.4964
  584TMC3    H1 8663   2.862   4.533  17.374  0.9026  0.1764  1.4913
  584TMC3    H2 8664   2.808   0.221  17.287  0.1360  1.1069 -2.1425
  584TMC3    C7 8665   2.793   0.040  17.475  0.7235  0.0463  0.8292
  584TMC3    C8 8666   2.940   0.209  17.050  0.0539 -0.6537 -0.2620
  584TMC3    O1 8667   2.841   4.672  17.542  0.1027 -0.5064  0.3797
  584TMC3    O2 8668   2.939   0.204  16.925 -0.1064 -0.0068 -0.2974
  585MPD2     C 8669   2.282   3.175   0.851 -0.6590 -0.5561 -0.2345
  585MPD2    C1 8670   2.259   3.221   0.721  0.3630  0.2316 -0.5785
  585MPD2    C2 8671   2.300   3.140   0.612  0.1230 -0.5730  0.3736
  585MPD2    C3 8672   2.352   3.014   0.631  0.0852  0.2603 -0.0549
  585MPD2    C4 8673   2.361   2.972   0.760 -0.1488 -0.0644  0.5570
  585MPD2    C5 8674   2.320   3.044   0.870 -0.2473 -0.1026  0.7604
  585MPD2     H 8675   2.279   3.166   0.509  2.0179  0.0553  0.1594
  585MPD2    H1 8676   2.386   2.866   0.764  2.9341  0.6277 -0.6120
  585MPD2    H2 8677   2.254   3.237   0.935  3.2306 -0.6429  1.1223
  585MPD2    H3 8678   2.312   3.013   0.974 -0.8129 -0.4272  0.6202
  585MPD2     N 8679   2.408   2.945   0.527 -0.5244 -0.0323 -0.4010
  585MPD2    H5 8680   2.482   2.879   0.546 -0.5550  0.5233  1.7108
  585MPD2    N1 8681   2.210   3.353   0.709 -0.0103  0.1277 -0.2124
  585MPD2    H7 8682   2.220   3.408   0.794 -0.2021 -0.3785  0.1336
  586TMC3    C1 8683   2.439   2.880   0.291  0.8180  0.2661 -0.0159
  586TMC3    C2 8684   2.573   2.849   0.301 -0.2830  0.5554 -0.0501
  586TMC3    C3 8685   2.630   2.775   0.204  0.1084  1.1862 -0.0889
  586TMC3    C4 8686   2.364   2.843   0.179 -0.4059 -0.0014 -0.0249
  586TMC3    C5 8687   2.431   2.784   0.075  0.0677 -0.3111 -0.0828
  586TMC3    C6 8688   2.565   2.747   0.083  0.4702  0.5967  0.7448
  586TMC3     C 8689   2.364   2.948   0.396 -0.3759  0.4673 -0.4285
  586TMC3     O 8690   2.256   2.983   0.356 -0.7203  0.1392  0.2110
  586TMC3     H 8691   2.628   2.888   0.386 -3.2964  2.3664  1.0301
  586TMC3    H1 8692   2.261   2.871   0.158  0.7298  2.2849 -2.5957
  586TMC3    H2 8693   2.627   2.699   0.009  1.4327 -0.5709  2.3037
  586TMC3    C7 8694   2.349   2.719  17.658  0.2188 -0.2076  0.7629
  586TMC3    C8 8695   2.758   2.714   0.216  0.0357 -0.0134  0.0757
  586TMC3    O1 8696   2.229   2.731  17.662  0.0701  0.0103  0.0295
  586TMC3    O2 8697   2.821   2.699   0.114 -0.5909  0.1088 -0.4134
  587TMC3    C1 8698   0.039   1.720  15.844  0.6549 -0.3865 -0.0453
  587TMC3    C2 8699   0.033   1.835  15.920  0.3741  0.0083 -0.2647
  587TMC3    C3 8700   0.146   1.917  15.918  0.2626  0.1179  0.0748
  587TMC3    C4 8701   0.150   1.681  15.775  0.3603  0.3344 -0.8253
  587TMC3    C5 8702   0.258   1.764  15.775 -0.1019 -0.5029 -0.1927
  587TMC3    C6 8703   0.257   1.885  15.843 -0.2534 -0.2920  0.2667
  587TMC3     C 8704   4.640   1.639  15.822  0.9410  0.0939  0.0817
  587TMC3     O 8705   4.638   1.570  15.722  0.0535 -0.3136  0.2191
  587TMC3     H 8706   4.669   1.859  15.983  0.7484 -0.1442  0.3002
  587TMC3    H1 8707   0.146   1.579  15.739 -2.7244  1.0110 -2.3910
  587TMC3    H2 8708   0.341   1.953  15.843 -0.1137 -0.4534 -2.4574
  587TMC3    C7 8709   0.391   1.728  15.735 -0.2368  0.4664  0.6566
  587TMC3    C8 8710   0.145   2.036  15.997  0.2244  0.4678  0.3059
  587TMC3    O1 8711   0.476   1.817  15.715  1.2573 -0.3204  0.4470
  587TMC3    O2 8712   0.260   2.074  16.026 -0.0394 -0.3005 -0.2300
  588TMC3    C1 8713   1.810   0.020  10.101  0.2769  0.8382 -0.4509
  588TMC3    C2 8714   1.752   4.621  10.112 -0.0143 -0.7463 -0.0812
  588TMC3    C3 8715   1.826   4.510  10.164  0.0912  1.3589 -0.1710
  588TMC3    C4 8716   1.934   0.037  10.158 -0.1371 -0.2663  0.1411
  588TMC3    C5 8717   2.002   4.656  10.221 -0.2641 -0.2204  0.4935
  588TMC3    C6 8718   1.949   4.527  10.229 -0.5635  1.0466  0.0120
  588TMC3     C 8719   1.735   0.126  10.052 -0.7394  0.4462  0.2993
  588TMC3     O 8720   1.660   0.114   9.955 -0.1249  0.4530  0.5922
  588TMC3     H 8721   1.650   4.599  10.082  0.4726 -0.3126 -2.0815
  588TMC3    H1 8722   1.995   0.122  10.126  1.0912 -1.3672 -0.4470
  588TMC3    H2 8723   2.002   4.443  10.271 -1.0035 -0.0455 -1.6251
  588TMC3    C7 8724   2.106   4.690  10.320 -0.0043 -0.0310  1.2320
  588TMC3    C8 8725   1.744   4.391  10.178 -0.4249 -0.2479 -0.1130
  588TMC3    O1 8726   2.142   4.603  10.397  0.7357 -0.7834  0.5763
  588TMC3    O2 8727   1.626   4.405  10.188  0.0216 -0.0953  0.1430
  589TMC3    C1 8728   1.514   1.850   1.230 -1.0243 -0.2754 -0.8938
  589TMC3    C2 8729   1.573   1.943   1.311  0.3400  0.4995  0.7122
  589TMC3    C3 8730   1.705   1.952   1.313 -0.0449  0.1286  0.1704
  589TMC3    C4 8731   1.580   1.753   1.157 -0.7692  0.0433  0.1459
  589TMC3    C5 8732   1.718   1.762   1.167 -0.0828 -0.6561 -0.1393
  589TMC3    C6 8733   1.781   1.869   1.231  0.2709 -0.3998 -0.5157
  589TMC3     C 8734   1.364   1.851   1.214  0.0325  0.5261  0.4612
  589TMC3     O 8735   1.314   1.766   1.140 -0.2863  0.4088  0.3221
  589TMC3     H 8736   1.508   2.022   1.345 -1.4191 -1.5126  2.0468
  589TMC3    H1 8737   1.532   1.677   1.097 -0.6183 -2.1290  2.7728
  589TMC3    H2 8738   1.886   1.889   1.210  0.1619  1.5256  0.8061
  589TMC3    C7 8739   1.803   1.674   1.086 -0.1460 -0.0718  0.0532
  589TMC3    C8 8740   1.765   2.050   1.398  0.5712 -0.1118  0.1205
  589TMC3    O1 8741   1.926   1.689   1.106  0.9358 -0.0643  0.1416
  589TMC3    O2 8742   1.694   2.132   1.448 -0.2614  0.4196  0.3579
  590MPD2     C 8743   0.977   0.222  16.436  0.1432  0.0676  0.6552
  590MPD2    C1 8744   0.910   0.270  16.325 -0.0650  0.8833  0.4003
  590MPD2    C2 8745   0.987   0.334  16.227  0.0409 -0.2231 -0.1707
  590MPD2    C3 8746   1.124   0.346  16.239 -1.1219 -0.0420 -0.6228
  590MPD2    C4 8747   1.193   0.302  16.349  0.4031 -0.3612  0.4581
  590MPD2    C5 8748   1.113   0.238  16.448  0.0103  0.5529  0.3229
  590MPD2     H 8749   0.938   0.375  16.139  1.6158  2.3553  0.1541
  590MPD2    H1 8750   1.300   0.310  16.361  0.7372 -0.0966 -2.7186
  590MPD2    H2 8751   0.923   0.190  16.523 -1.2437  0.9130  0.1077
  590MPD2    H3 8752   1.162   0.211  16.541  0.8264  2.0920  0.3524
  590MPD2     N 8753   1.179   0.416  16.130 -0.0303  0.2097 -0.3803
  590MPD2    H5 8754   1.126   0.449  16.050  1.1182  0.1751 -1.1652
  590MPD2    N1 8755   0.768   0.252  16.317  0.3902  0.1950  0.2512
  590MPD2    H7 8756   0.724   0.220  16.402  0.9307  0.8605  0.7880
  591TMC3    C1 8757   1.328   0.518  15.997 -0.3519  0.3697 -0.3214
  591TMC3    C2 8758   1.388   0.479  15.879 -0.2193 -0.0570 -0.8620
  591TMC3    C3 8759   1.364   0.570  15.768  0.1679  0.0975  0.0034
  591TMC3    C4 8760   1.253   0.635  16.008  0.7362  0.1409  0.5881
  591TMC3    C5 8761   1.241   0.720  15.905 -0.5892  0.0860 -1.4333
  591TMC3    C6 8762   1.292   0.686  15.781 -0.4453 -0.4852  0.0125
  591TMC3     C 8763   1.312   0.426  16.107  0.3213 -0.4605 -0.1553
  591TMC3     O 8764   1.404   0.354  16.137  0.0643  0.3171 -0.1463
  591TMC3     H 8765   1.419   0.376  15.875  1.1067  0.3120 -0.1340
  591TMC3    H1 8766   1.213   0.662  16.105  0.2265 -3.1396  1.2974
  591TMC3    H2 8767   1.284   0.756  15.699  0.1170  0.4561  0.7628
  591TMC3    C7 8768   1.172   0.845  15.932 -0.1916 -0.1310 -0.4368
  591TMC3    C8 8769   1.365   0.496  15.647 -0.7923  0.3629  0.0243
  591TMC3    O1 8770   1.078   0.846  16.009  0.7283 -0.4680 -0.3625
  591TMC3    O2 8771   1.427   0.394  15.656 -0.1158  0.1807  0.0836
  592MPD2     C 8772   0.966   2.543  11.235  0.1625  0.3695 -0.0549
  592MPD2    C1 8773   1.002   2.601  11.355  0.1003  0.1000  0.5699
  592MPD2    C2 8774   0.943   2.556  11.472  1.0304  0.2015 -0.5225
  592MPD2    C3 8775   0.845   2.459  11.466  0.0255  0.0076 -0.1308
  592MPD2    C4 8776   0.809   2.402  11.349  0.4470  0.6703 -0.0955
  592MPD2    C5 8777   0.860   2.454  11.232 -0.8841  0.4592  0.5599
  592MPD2     H 8778   0.977   2.595  11.567  0.1517 -1.5883  0.5316
  592MPD2    H1 8779   0.726   2.333  11.335  0.2452  1.2437 -1.6708
  592MPD2    H2 8780   1.011   2.575  11.142 -1.1732  0.4890 -0.6602
  592MPD2    H3 8781   0.833   2.410  11.137 -1.1591 -0.6001  1.1272
  592MPD2     N 8782   0.795   2.409  11.587  0.3970 -0.3058 -0.2172
  592MPD2    H5 8783   0.828   2.447  11.675 -0.3130 -1.1596  0.4207
  592MPD2    N1 8784   1.117   2.687  11.357  0.0457  0.4889 -0.2643
  592MPD2    H7 8785   1.164   2.704  11.268 -0.2702  0.9013 -0.3514
  593TMC3    C1 8786   1.274   2.850  11.426  0.5386  0.3711 -0.4716
  593TMC3    C2 8787   1.287   2.958  11.515 -0.6861 -0.3661  0.4662
  593TMC3    C3 8788   1.397   3.038  11.499 -0.5309 -0.3165 -0.3178
  593TMC3    C4 8789   1.344   2.829  11.312  0.2573 -1.1318 -0.9903
  593TMC3    C5 8790   1.450   2.915  11.295 -0.1943  0.3966 -0.1893
  593TMC3    C6 8791   1.479   3.015  11.388 -0.1438 -0.3333 -0.4731
  593TMC3     C 8792   1.166   2.761  11.460 -0.1447  0.3655  0.0666
  593TMC3     O 8793   1.116   2.770  11.572  0.6024 -0.3981  0.2960
  593TMC3     H 8794   1.232   2.974  11.608 -1.5581 -3.2640  0.4535
  593TMC3    H1 8795   1.331   2.731  11.267 -0.2463 -1.7003  0.3912
  593TMC3    H2 8796   1.555   3.087  11.359 -1.2248  0.4472 -1.3334
  593TMC3    C7 8797   1.529   2.921  11.166  0.2717 -0.4666  0.7039
  593TMC3    C8 8798   1.403   3.157  11.584 -0.9922  0.4043  0.1567
  593TMC3    O1 8799   1.642   2.971  11.170 -0.0669  0.4906  0.0080
  593TMC3    O2 8800   1.296   3.181  11.641 -0.3312  0.3660 -0.4505
  594MPD2     C 8801   4.490   1.235  13.973  0.1368 -0.2712  0.0787
  594MPD2    C1 8802   4.541   1.189  14.096  0.3397 -0.4044 -0.4500
  594MPD2    C2 8803   4.643   1.261  14.157 -0.3131  0.2474 -0.3203
  594MPD2    C3 8804   4.696   1.369  14.085 -0.1800 -0.8404  0.0147
  594MPD2    C4 8805   4.643   1.407  13.965  0.4945  0.0690  0.3115
  594MPD2    C5 8806   4.548   1.339  13.905 -0.1838 -0.0760 -0.3215
  594MPD2     H 8807   4.692   1.240  14.251 -1.6751  0.0949  0.3709
  594MPD2    H1 8808   4.684   1.492  13.910 -0.4892  1.0498  1.0995
  594MPD2    H2 8809   4.411   1.190  13.914 -1.2993  2.9201 -0.4243
  594MPD2    H3 8810   4.509   1.371  13.809  0.1271 -0.6412 -0.6373
  594MPD2     N 8811   0.085   1.443  14.147 -0.1485 -0.9945  0.6222
  594MPD2    H5 8812   0.105   1.423  14.244  1.7257 -3.6106 -0.2807
  594MPD2    N1 8813   4.472   1.079  14.151 -0.5158 -0.5111  0.8040
  594MPD2    H7 8814   4.408   1.026  14.093  1.1314  0.6652 -2.1181
  595TMC3    C1 8815   0.425   1.760  14.218  0.9716 -0.4249 -0.7208
  595TMC3    C2 8816   0.356   1.664  14.137 -0.0386 -0.3195  0.6067
  595TMC3    C3 8817   0.242   1.614  14.186 -0.4130 -0.6355 -0.3748
  595TMC3    C4 8818   0.375   1.799  14.338  0.0251 -0.5545  0.2958
  595TMC3    C5 8819   0.262   1.740  14.384 -0.5716  0.6187 -0.0109
  595TMC3    C6 8820   0.197   1.638  14.310  0.3283  0.1808  0.6866
  595TMC3     C 8821   0.557   1.798  14.196 -0.7846 -0.3713 -0.5730
  595TMC3     O 8822   0.582   1.913  14.230 -0.0806  0.1354  0.4173
  595TMC3     H 8823   0.382   1.648  14.033 -1.6998 -3.0546  0.6265
  595TMC3    H1 8824   0.429   1.872  14.397 -1.1705  0.1596  0.5141
  595TMC3    H2 8825   0.104   1.598  14.347  0.7411 -0.7728  0.6995
  595TMC3    C7 8826   0.203   1.784  14.506  0.2626 -0.2079 -0.5362
  595TMC3    C8 8827   0.156   1.546  14.092  0.1434 -0.7092  0.3495
  595TMC3    O1 8828   0.085   1.767  14.520 -0.1804  0.1976  0.7239
  595TMC3    O2 8829   0.153   1.587  13.977 -0.2821 -0.1068  0.5957
  596MPD2     C 8830   4.053   4.091  16.473  0.9620  0.4752 -0.7783
  596MPD2    C1 8831   4.028   4.209  16.407  0.0722  0.7602  0.3121
  596MPD2    C2 8832   4.038   4.219  16.270  0.2904 -0.8634 -0.3463
  596MPD2    C3 8833   4.074   4.110  16.195 -0.1470 -0.5579 -0.5714
  596MPD2    C4 8834   4.077   3.990  16.257 -0.1110  0.1128 -0.5913
  596MPD2    C5 8835   4.077   3.976  16.391 -0.8159  0.0729 -0.6148
  596MPD2     H 8836   4.020   4.316  16.225 -1.9029 -2.4267 -2.7939
  596MPD2    H1 8837   4.087   3.903  16.192 -3.1201  0.1871 -1.1543
  596MPD2    H2 8838   4.025   4.067  16.575  0.0462  1.3742 -0.8153
  596MPD2    H3 8839   4.095   3.878  16.434 -0.9571 -0.1394 -1.0388
  596MPD2     N 8840   4.073   4.109  16.056 -0.6350  0.0020  0.1011
  596MPD2    H5 8841   4.067   4.016  16.015  0.4998  0.6268 -1.5064
  596MPD2    N1 8842   3.986   4.325  16.475 -0.3612  0.4043  0.0432
  596MPD2    H7 8843   3.992   4.414  16.426 -0.9299  1.1137  1.2899
  597TMC3    C1 8844   3.919   4.459  16.647 -0.6764  0.1969  0.1033
  597TMC3    C2 8845   3.982   4.564  16.587 -0.7804 -0.3913  0.0194
  597TMC3    C3 8846   3.962   4.689  16.640  0.6369 -0.3665 -0.7279
  597TMC3    C4 8847   3.841   4.476  16.754  0.1961  0.5798  0.6350
  597TMC3    C5 8848   3.826   4.603  16.810  0.4781  0.1417  0.7721
  597TMC3    C6 8849   3.881   4.712  16.747  0.5672  0.0259 -0.0454
  597TMC3     C 8850   3.936   4.328  16.606 -0.6400  0.4058  0.2197
  597TMC3     O 8851   3.896   4.231  16.675 -0.0948 -0.2750  0.0266
  597TMC3     H 8852   4.075   4.545  16.535 -0.5712 -0.5929  0.4680
  597TMC3    H1 8853   3.813   4.388  16.810 -1.9242  0.3577 -0.7867
  597TMC3    H2 8854   3.869   0.092  16.785  0.8102 -0.4160  1.1981
  597TMC3    C7 8855   3.746   4.625  16.936  0.5406 -0.5176  0.2292
  597TMC3    C8 8856   4.048   0.073  16.598 -0.0870 -0.0004 -0.2504
  597TMC3    O1 8857   3.751   4.538  17.024  0.6632 -0.4411 -0.1171
  597TMC3    O2 8858   4.063   0.162  16.676  0.5778  0.1243 -0.4468
  598TMC3    C1 8859   1.987   1.094  15.630 -0.0979 -0.6488  0.0375
  598TMC3    C2 8860   1.885   1.004  15.621  1.1750 -0.1773 -0.0273
  598TMC3    C3 8861   1.838   0.973  15.497 -0.0432 -0.4041  0.0755
  598TMC3    C4 8862   2.042   1.156  15.518  0.6292  0.3096  0.1979
  598TMC3    C5 8863   1.983   1.131  15.395  0.1660 -0.3397  0.2475
  598TMC3    C6 8864   1.887   1.032  15.385  0.1741 -0.4684  0.7536
  598TMC3     C 8865   2.039   1.119  15.758  0.0049  0.0053  0.6097
  598TMC3     O 8866   2.152   1.166  15.774  0.1600  0.1434  0.5453
  598TMC3     H 8867   1.849   0.943  15.703 -0.7410  0.0260 -0.7003
  598TMC3    H1 8868   2.115   1.234  15.536 -1.0239  1.9161 -0.0452
  598TMC3    H2 8869   1.838   1.013  15.290  0.3354  1.9430  0.1698
  598TMC3    C7 8870   2.029   1.187  15.270 -0.1727 -1.2681  0.1972
  598TMC3    C8 8871   1.773   0.838  15.481  0.3237 -0.2777 -0.1203
  598TMC3    O1 8872   1.999   1.132  15.165 -0.1964  0.5507  0.1981
  598TMC3    O2 8873   1.713   0.794  15.577 -0.5920  0.8953 -0.0086
  599MPD2     C 8874   2.394   3.479  16.206  0.7078  0.2630  0.9276
  599MPD2    C1 8875   2.335   3.351  16.200 -0.3527 -0.7593 -0.3160
  599MPD2    C2 8876   2.197   3.326  16.204  0.5584  0.1409 -0.7652
  599MPD2    C3 8877   2.115   3.440  16.226 -0.1965 -0.1334  0.3849
  599MPD2    C4 8878   2.173   3.568  16.221 -0.6229  0.0130  0.3691
  599MPD2    C5 8879   2.307   3.581  16.226  0.3054  0.1570 -0.0556
  599MPD2     H 8880   2.153   3.228  16.195  0.0335  0.3057 -0.0247
  599MPD2    H1 8881   2.119   3.662  16.229 -3.4949 -1.6833  0.8785
  599MPD2    H2 8882   2.501   3.495  16.213  0.7410 -0.4623  2.0862
  599MPD2    H3 8883   2.339   3.685  16.229 -0.0814  0.2383  1.1780
  599MPD2     N 8884   1.972   3.434  16.249  0.3275 -0.3178 -0.1543
  599MPD2    H5 8885   1.924   3.523  16.263  0.2168 -0.1600 -1.5358
  599MPD2    N1 8886   2.423   3.241  16.195  0.2252 -0.3976  0.1300
  599MPD2    H7 8887   2.518   3.277  16.208  0.0045  0.4582 -0.6725
  600TMC3    C1 8888   1.772   3.341  16.337 -0.2297  0.6088 -0.4470
  600TMC3    C2 8889   1.697   3.226  16.324  0.7459  0.3914  0.1700
  600TMC3    C3 8890   1.582   3.225  16.392 -0.3452  0.5631 -0.1126
  600TMC3    C4 8891   1.744   3.443  16.426 -0.1256 -0.0725 -0.0773
  600TMC3    C5 8892   1.618   3.440  16.495 -0.4275 -0.0574 -0.1551
  600TMC3    C6 8893   1.540   3.326  16.484 -0.2334  0.7301 -0.3167
  600TMC3     C 8894   1.906   3.325  16.289 -0.5512 -0.6257  0.2765
  600TMC3     O 8895   1.935   3.206  16.278  0.2698 -0.2810  0.2674
  600TMC3     H 8896   1.726   3.146  16.256 -1.1793  0.8596 -1.2148
  600TMC3    H1 8897   1.804   3.533  16.431  0.5695 -0.5114 -0.6630
  600TMC3    H2 8898   1.449   3.308  16.541 -0.7424  0.4395 -1.2224
  600TMC3    C7 8899   1.601   3.528  16.615  0.5993 -0.4797  0.2406
  600TMC3    C8 8900   1.498   3.108  16.370 -0.1717 -0.0848  0.3422
  600TMC3    O1 8901   1.519   3.503  16.702  0.6482 -0.3308  0.2611
  600TMC3    O2 8902   1.561   3.001  16.352 -0.2834  0.3579  0.0071
  601MPD2     C 8903   0.196   1.196  17.670  0.4617  0.2930 -0.4096
  601MPD2    C1 8904   0.063   1.219  17.623 -0.0094 -0.4874 -0.1003
  601MPD2    C2 8905   4.691   1.118  17.640 -0.2748  0.6407  0.1079
  601MPD2    C3 8906   0.000   1.013   0.036  0.1080 -0.1249  0.8316
  601MPD2    C4 8907   0.124   0.997   0.088 -0.2004 -0.2285  0.2474
  601MPD2    C5 8908   0.224   1.089   0.061  0.8479  1.0265 -0.8651
  601MPD2     H 8909   4.596   1.122  17.587 -0.1642 -1.6579 -0.2772
  601MPD2    H1 8910   0.139   0.918   0.160  1.7529 -0.7226 -0.7035
  601MPD2    H2 8911   0.271   1.273  17.658  1.0960  0.2262  3.2604
  601MPD2    H3 8912   0.321   1.083   0.108  0.0758 -2.0691  0.3642
  601MPD2     N 8913   4.635   0.907   0.059 -0.2739 -0.0840  0.2250
  601MPD2    H5 8914   4.681   0.822   0.090 -0.7763 -0.1580  0.7744
  601MPD2    N1 8915   0.017   1.337  17.559 -0.5889  0.2134 -0.4143
  601MPD2    H7 8916   4.645   1.333  17.519  0.8144 -2.6028 -3.3904
  602TMC3    C1 8917   0.029   1.542  17.448 -0.3250 -0.1995  0.3404
  602TMC3    C2 8918   0.104   1.629  17.372 -0.3853  0.6336 -0.2072
  602TMC3    C3 8919   0.046   1.685  17.261 -0.9263 -0.3684  0.6344
  602TMC3    C4 8920   4.613   1.529  17.426  0.8010 -0.4741 -0.2596
  602TMC3    C5 8921   4.559   1.593  17.317 -0.2818 -0.4741  0.6656
  602TMC3    C6 8922   4.634   1.671  17.239  0.2463 -0.4525 -0.6134
  602TMC3     C 8923   0.092   1.458  17.541  0.2404  0.4519  0.3633
  602TMC3     O 8924   0.207   1.473  17.585 -0.1540 -0.3785  0.1514
  602TMC3     H 8925   0.212   1.639  17.384 -0.3424 -0.1490  0.0674
  602TMC3    H1 8926   4.548   1.486  17.501 -0.8380  0.6658 -1.0404
  602TMC3    H2 8927   4.601   1.724  17.151  1.8133  1.1072 -0.2670
  602TMC3    C7 8928   4.413   1.590  17.297  0.3051 -0.2822  0.4418
  602TMC3    C8 8929   0.121   1.782  17.182 -0.0623 -0.3899  0.2167
  602TMC3    O1 8930   4.340   1.500  17.328  0.4950 -0.0704  0.0205
  602TMC3    O2 8931   0.236   1.756  17.146  0.9366 -0.4383  0.5310
  603TMC3    C1 8932   1.836   1.992  10.923 -0.4739 -0.0120 -0.3442
  603TMC3    C2 8933   1.857   2.008  11.057 -0.0048  0.0877  0.6670
  603TMC3    C3 8934   1.916   2.127  11.080 -0.0411  0.2198 -0.0067
  603TMC3    C4 8935   1.865   2.080  10.822  0.3469  0.1913  0.1759
  603TMC3    C5 8936   1.919   2.196  10.858  0.1694 -0.2400 -0.3700
  603TMC3    C6 8937   1.938   2.228  10.986 -0.0695  1.2184  0.1764
  603TMC3     C 8938   1.803   1.860  10.879 -0.3070  0.6348 -0.4624
  603TMC3     O 8939   1.811   1.830  10.760  0.6200  0.5600 -0.2545
  603TMC3     H 8940   1.835   1.944  11.142 -0.0618 -0.8154 -0.0258
  603TMC3    H1 8941   1.849   2.043  10.721 -3.8039  1.6777  0.2684
  603TMC3    H2 8942   1.937   2.334  11.009 -1.4471  1.1696  0.3362
  603TMC3    C7 8943   1.959   2.291  10.753  0.4291  0.2603  0.6254
  603TMC3    C8 8944   1.951   2.154  11.217  0.2463 -0.7121  0.5293
  603TMC3    O1 8945   2.043   2.380  10.776  0.2947  0.3963 -0.2612
  603TMC3    O2 8946   1.896   2.092  11.305  0.3296  0.0011  0.2362
  604MPD2     C 8947   3.158   0.747  16.599  0.5944  0.2654  0.3263
  604MPD2    C1 8948   3.019   0.739  16.602 -0.3607  0.7142  0.2893
  604MPD2    C2 8949   2.948   0.665  16.508  0.1152  0.6160 -0.1566
  604MPD2    C3 8950   3.017   0.593  16.413 -0.0152  0.1400 -0.3365
  604MPD2    C4 8951   3.155   0.603  16.408 -0.0360  0.6059 -0.5841
  604MPD2    C5 8952   3.217   0.689  16.496  0.5059  0.2041  0.0490
  604MPD2     H 8953   2.839   0.662  16.508  0.1417 -0.3536 -1.6649
  604MPD2    H1 8954   3.226   0.550  16.346  0.4962  0.4010  0.2013
  604MPD2    H2 8955   3.217   0.818  16.657 -1.0885  3.0721 -1.3854
  604MPD2    H3 8956   3.320   0.710  16.468  0.7870 -0.5176  0.5465
  604MPD2     N 8957   2.950   0.509  16.316 -0.3302  0.4619  0.0966
  604MPD2    H5 8958   2.849   0.500  16.315 -0.3689  0.8817  1.8911
  604MPD2    N1 8959   2.953   0.820  16.703  0.5889  0.4113 -0.1238
  604MPD2    H7 8960   3.014   0.881  16.756  0.4604  0.9507 -0.5953
  605TMC3    C1 8961   2.800   0.902  16.863 -0.3969 -0.3174  0.5355
  605TMC3    C2 8962   2.913   0.926  16.934  0.0209  0.2574  0.5617
  605TMC3    C3 8963   2.938   1.042  16.994 -0.0851  0.2408  0.2080
  605TMC3    C4 8964   2.696   0.984  16.865 -0.2983  0.0933 -0.8200
  605TMC3    C5 8965   2.717   1.101  16.924  0.3034 -0.6012 -0.1382
  605TMC3    C6 8966   2.838   1.132  16.995  0.5937  0.3002 -0.0937
  605TMC3     C 8967   2.822   0.824  16.736  0.6784  0.2039  0.5185
  605TMC3     O 8968   2.723   0.776  16.684 -0.1786 -0.1870  0.2423
  605TMC3     H 8969   2.990   0.850  16.945  0.7028  0.9963  0.8885
  605TMC3    H1 8970   2.617   0.976  16.792 -0.1035 -1.2268 -0.8892
  605TMC3    H2 8971   2.858   1.234  17.028 -2.2798  0.6440  0.6303
  605TMC3    C7 8972   2.626   1.210  16.902  0.1338 -0.0708 -0.0347
  605TMC3    C8 8973   3.069   1.092  16.957 -0.1436 -0.3062  0.1457
  605TMC3    O1 8974   2.647   1.320  16.946 -0.4421  0.0521  0.0185
  605TMC3    O2 8975   3.123   1.034  16.863  0.2842  0.3001 -0.4660
  606TMC3    C1 8976   4.635   3.192  17.082 -0.0849 -0.3727 -0.1319
  606TMC3    C2 8977   4.715   3.292  17.118 -0.7117 -0.3398  0.2509
  606TMC3    C3 8978   0.024   3.318  17.249  0.2434  0.8018 -1.3917
  606TMC3    C4 8979   4.563   3.120  17.181  0.0817  0.4266  0.3405
  606TMC3    C5 8980   4.589   3.157  17.310  0.5059 -0.0055 -0.1796
  606TMC3    C6 8981   4.676   3.259  17.345  0.0076  0.3064  0.5495
  606TMC3     C 8982   4.615   3.135  16.949 -0.4793 -0.0561 -0.1831
  606TMC3     O 8983   4.597   3.013  16.946  0.2673  0.4123  0.1267
  606TMC3     H 8984   0.049   3.343  17.039 -2.4060  0.2545 -0.5358
  606TMC3    H1 8985   4.498   3.036  17.162  2.6233 -1.4764  0.1258
  606TMC3    H2 8986   4.702   3.286  17.447  4.4043  0.5812 -0.6753
  606TMC3    C7 8987   4.491   3.118  17.409  0.6106  0.4123  0.5042
  606TMC3    C8 8988   0.103   3.432  17.280 -0.2038 -0.5321 -0.2877
  606TMC3    O1 8989   4.524   3.110  17.526 -0.1374  0.7757  0.1793
  606TMC3    O2 8990   0.138   3.434  17.394 -0.3498  0.2317 -0.0487
  607MPD2     C 8991   0.909   2.044  11.646 -0.3322 -0.1059 -0.3790
  607MPD2    C1 8992   1.009   2.119  11.704  0.2762  0.4495  0.0954
  607MPD2    C2 8993   1.005   2.133  11.835  0.2869  0.2786 -0.4872
  607MPD2    C3 8994   0.910   2.067  11.914  0.7263  0.2851 -0.4802
  607MPD2    C4 8995   0.815   1.981  11.850 -0.3475 -0.1909 -0.4884
  607MPD2    C5 8996   0.818   1.979  11.717  0.4691  0.5257 -0.4096
  607MPD2     H 8997   1.083   2.191  11.882  0.7457 -0.4861 -0.3002
  607MPD2    H1 8998   0.748   1.919  11.909 -0.3438  0.1752 -0.1098
  607MPD2    H2 8999   0.911   2.037  11.538 -0.3075  1.7639 -0.4949
  607MPD2    H3 9000   0.751   1.914  11.662  0.0979  0.4870  0.0898
  607MPD2     N 9001   0.916   2.085  12.048  0.1474  0.2741  0.2938
  607MPD2    H5 9002   0.976   2.157  12.085 -0.1995  0.4379  0.5380
  607MPD2    N1 9003   1.105   2.203  11.639 -0.3591 -0.1041 -0.4829
  607MPD2    H7 9004   1.178   2.240  11.700  0.8689  0.0002 -2.0169
  608TMC3    C1 9005   1.219   2.327  11.481  0.8863 -0.0706  0.1842
  608TMC3    C2 9006   1.242   2.413  11.586 -0.3389  0.0325 -0.2548
  608TMC3    C3 9007   1.351   2.497  11.574 -0.0966  0.1721 -0.3167
  608TMC3    C4 9008   1.293   2.320  11.365 -0.1109 -0.0368  0.3760
  608TMC3    C5 9009   1.406   2.402  11.365 -0.7896  0.7243  0.2453
  608TMC3    C6 9010   1.436   2.490  11.463  0.6566  0.0863  0.3087
  608TMC3     C 9011   1.111   2.225  11.503  0.6798  0.1098 -0.1060
  608TMC3     O 9012   1.045   2.165  11.419 -0.5827  0.2209 -0.2671
  608TMC3     H 9013   1.164   2.432  11.658 -0.2794 -1.6964  0.2666
  608TMC3    H1 9014   1.292   2.240  11.291 -0.5710 -1.6194  2.1018
  608TMC3    H2 9015   1.526   2.549  11.462 -1.1186  2.8089  0.1612
  608TMC3    C7 9016   1.506   2.387  11.259 -0.1944 -0.1649 -0.5459
  608TMC3    C8 9017   1.397   2.560  11.697  0.4962 -0.0008  0.2576
  608TMC3    O1 9018   1.468   2.363  11.146 -0.3715  0.3218  0.4019
  608TMC3    O2 9019   1.483   2.647  11.680 -0.1488  0.1554  0.0934
  609TMC3    C1 9020   4.672   1.586   9.255  0.3301 -0.8610  0.3637
  609TMC3    C2 9021   4.637   1.646   9.141  0.1128  0.2352 -0.7011
  609TMC3    C3 9022   4.686   1.602   9.020  0.5350 -1.1044 -0.5887
  609TMC3    C4 9023   0.054   1.494   9.256 -0.7196 -0.0502  0.1698
  609TMC3    C5 9024   0.107   1.456   9.139  0.0606  0.1990 -0.0108
  609TMC3    C6 9025   0.057   1.498   9.016  0.4495  0.2157  0.1364
  609TMC3     C 9026   4.607   1.612   9.385 -0.2120  0.5920 -0.2182
  609TMC3     O 9027   4.615   1.513   9.455 -0.3091 -0.4301 -0.0870
  609TMC3     H 9028   4.580   1.738   9.150  0.2826  0.3655 -0.9488
  609TMC3    H1 9029   0.097   1.449   9.344 -0.1960  1.2891  0.6063
  609TMC3    H2 9030   0.103   1.469   8.922 -0.5208 -0.4165 -0.1411
  609TMC3    C7 9031   0.208   1.348   9.142 -0.0226 -0.0825 -0.6348
  609TMC3    C8 9032   4.651   1.673   8.895 -0.6024 -0.0283 -0.0142
  609TMC3    O1 9033   0.256   1.318   9.255  0.2145  0.3606 -0.2946
  609TMC3    O2 9034   0.007   1.654   8.802 -0.2611 -0.5788  0.2046
  610TMC3    C1 9035   1.771   2.323  12.486 -0.0314 -0.0448 -0.2719
  610TMC3    C2 9036   1.850   2.383  12.391  1.2010  0.3359  0.4970
  610TMC3    C3 9037   1.982   2.339  12.370  1.1855 -0.6077  0.2924
  610TMC3    C4 9038   1.816   2.215  12.556  0.1450  0.1231 -0.5379
  610TMC3    C5 9039   1.946   2.177  12.543  0.0091  0.2295 -0.0336
  610TMC3    C6 9040   2.031   2.242  12.452  0.2079  0.1212 -0.1068
  610TMC3     C 9041   1.640   2.374  12.490  0.9882  0.4881  0.4068
  610TMC3     O 9042   1.608   2.471  12.419 -0.5021 -0.7434 -0.1948
  610TMC3     H 9043   1.815   2.465  12.330  3.1146  2.3794  2.1321
  610TMC3    H1 9044   1.758   2.180  12.640  1.9526 -0.1374  0.5861
  610TMC3    H2 9045   2.134   2.208  12.440 -0.0684 -0.2389 -1.4764
  610TMC3    C7 9046   2.008   2.105  12.646  0.6269  0.3840 -0.2154
  610TMC3    C8 9047   2.078   2.401  12.277  0.6514 -0.4998  0.2070
  610TMC3    O1 9048   1.955   2.004  12.685  0.0654  0.8352  0.0167
  610TMC3    O2 9049   2.196   2.395  12.302 -0.0009  0.2441 -0.4008
  611MPD2     C 9050   0.917   2.253  10.529 -0.0146  0.0970  0.0340
  611MPD2    C1 9051   0.900   2.195  10.406 -0.2360  0.2858 -0.0506
  611MPD2    C2 9052   0.989   2.220  10.305  1.0340 -0.0160  0.3171
  611MPD2    C3 9053   1.117   2.267  10.333  0.0654 -0.2267 -0.5333
  611MPD2    C4 9054   1.141   2.294  10.468 -0.3268 -0.0993  0.1455
  611MPD2    C5 9055   1.038   2.301  10.559  0.1686  0.0716  0.2809
  611MPD2     H 9056   0.966   2.205  10.200 -0.9387 -0.5429  0.8141
  611MPD2    H1 9057   1.237   2.331  10.501  0.2339 -0.2017 -1.4091
  611MPD2    H2 9058   0.844   2.240  10.608 -0.6135  2.0756 -0.1795
  611MPD2    H3 9059   1.051   2.345  10.658  1.2598 -0.7350  0.4997
  611MPD2     N 9060   1.227   2.290  10.246 -0.2921 -0.0144 -0.0111
  611MPD2    H5 9061   1.309   2.323  10.294 -0.3970  3.4949 -2.2130
  611MPD2    N1 9062   0.768   2.137  10.394  0.2387  0.2171 -0.6768
  611MPD2    H7 9063   0.712   2.129  10.479  2.6231 -2.1371  0.6618
  612TMC3    C1 9064   1.341   2.327  10.037 -0.2777  0.3427  0.2090
  612TMC3    C2 9065   1.444   2.377  10.105 -0.7149 -0.1479  0.3915
  612TMC3    C3 9066   1.545   2.431  10.035  0.2961 -0.1077 -0.6889
  612TMC3    C4 9067   1.337   2.312   9.902 -0.5861  0.5071 -0.2684
  612TMC3    C5 9068   1.428   2.374   9.826  0.3935 -0.3406  0.4706
  612TMC3    C6 9069   1.541   2.433   9.891 -0.0254  0.2270  0.7404
  612TMC3     C 9070   1.224   2.274  10.109  0.3033  0.7453 -0.5416
  612TMC3     O 9071   1.134   2.216  10.046 -0.8736 -0.5458 -0.7875
  612TMC3     H 9072   1.442   2.401  10.211 -0.0623  0.4763  0.2639
  612TMC3    H1 9073   1.255   2.256   9.860 -2.0335  1.8620  0.7708
  612TMC3    H2 9074   1.626   2.471   9.836 -0.5407  4.3647  2.7451
  612TMC3    C7 9075   1.410   2.386   9.683 -0.4659  0.2952  0.1965
  612TMC3    C8 9076   1.666   2.471  10.096 -0.2104 -0.0162 -0.3674
  612TMC3    O1 9077   1.467   2.488   9.641  0.5405  0.1112  0.0191
  612TMC3    O2 9078   1.722   2.574  10.054 -0.2827  0.2876 -0.4752
  613MPD2     C 9079   0.020   4.304  16.145 -0.2546  1.2112 -0.0129
  613MPD2    C1 9080   0.069   4.269  16.021  0.1776  0.4617 -0.0845
  613MPD2    C2 9081   0.142   4.155  16.010 -0.6075  0.0062 -0.2423
  613MPD2    C3 9082   0.157   4.070  16.120 -0.3787  0.6131  0.2873
  613MPD2    C4 9083   0.107   4.098  16.242 -0.5710  0.0995 -1.1516
  613MPD2    C5 9084   0.041   4.218  16.256  0.0222  0.8512  0.0954
  613MPD2     H 9085   0.190   4.117  15.921 -1.8284 -0.7803 -0.5800
  613MPD2    H1 9086   0.119   4.027  16.323  2.4051  1.5907 -0.2644
  613MPD2    H2 9087   4.692   4.399  16.161  1.0663  1.7705  0.7800
  613MPD2    H3 9088   4.709   4.242  16.347 -3.0044  1.6367 -1.8372
  613MPD2     N 9089   0.222   3.948  16.098 -0.0397  0.0758  0.5318
  613MPD2    H5 9090   0.267   3.935  16.008 -0.3420  0.5215  0.3221
  613MPD2    N1 9091   0.071   4.346  15.904 -0.1654  0.0365  0.2860
  613MPD2    H7 9092   0.116   4.296  15.828 -1.3486  0.7969 -0.8992
  614TMC3    C1 9093   0.015   4.492  15.749 -0.0153  0.2105 -0.7852
  614TMC3    C2 9094   0.112   4.418  15.693 -0.0186  0.1052 -0.5778
  614TMC3    C3 9095   0.080   4.324  15.594  0.2392 -0.8172 -0.0409
  614TMC3    C4 9096   4.620   4.514  15.685 -0.2246  0.5414  0.6123
  614TMC3    C5 9097   4.594   4.429  15.579 -0.4545  0.0894 -0.2956
  614TMC3    C6 9098   4.674   4.323  15.540  0.0417 -0.4542 -0.2991
  614TMC3     C 9099   0.016   4.467  15.888  0.5921  0.4959  0.4631
  614TMC3     O 9100   4.663   4.534  15.956  0.0381  0.0296  0.0138
  614TMC3     H 9101   0.211   4.421  15.736  0.3478 -2.3103 -1.2425
  614TMC3    H1 9102   4.545   4.579  15.728 -1.0814 -0.3111  0.4318
  614TMC3    H2 9103   4.641   4.241  15.478 -2.4268  0.8698 -0.7199
  614TMC3    C7 9104   4.468   4.457  15.524 -0.2505 -0.3929 -0.0126
  614TMC3    C8 9105   0.148   4.202  15.610 -0.2866  0.2031  0.5561
  614TMC3    O1 9106   4.399   4.545  15.572 -0.4799  0.3527 -0.4432
  614TMC3    O2 9107   0.213   4.194  15.714  0.4849 -0.6016  0.1371
  615MPD2     C 9108   3.916   0.572  15.576 -0.4853  0.1283  0.1688
  615MPD2    C1 9109   3.911   0.648  15.687  0.5647 -1.1039 -0.2374
  615MPD2    C2 9110   3.788   0.669  15.734 -0.0070 -0.5722  0.6371
  615MPD2    C3 9111   3.675   0.618  15.671  0.4045  0.6786  0.6453
  615MPD2    C4 9112   3.685   0.536  15.560  0.7427 -0.3564 -0.9366
  615MPD2    C5 9113   3.809   0.519  15.509 -0.2714  0.0688  0.2563
  615MPD2     H 9114   3.782   0.742  15.815 -0.9458 -0.1789  0.2146
  615MPD2    H1 9115   3.602   0.494  15.505 -0.5109 -0.8400  1.2887
  615MPD2    H2 9116   4.015   0.553  15.536 -0.5328 -0.6613  0.4280
  615MPD2    H3 9117   3.819   0.469  15.414 -2.2143 -1.2720  0.7455
  615MPD2     N 9118   3.540   0.652  15.697  0.4008 -0.5365 -0.0274
  615MPD2    H5 9119   3.471   0.625  15.628  0.5532  1.8375 -1.0944
  615MPD2    N1 9120   4.023   0.701  15.758 -0.0061  0.4081 -0.7042
  615MPD2    H7 9121   4.013   0.739  15.851  5.8560  1.6112 -0.5597
  616TMC3    C1 9122   4.244   0.770  15.799 -0.3858  0.1519 -0.0366
  616TMC3    C2 9123   4.361   0.817  15.746  1.1294  0.0743  0.0281
  616TMC3    C3 9124   4.467   0.830  15.827  0.1513  0.5711 -0.0034
  616TMC3    C4 9125   4.233   0.737  15.928 -0.5745  0.6857 -0.3921
  616TMC3    C5 9126   4.346   0.741  16.005  0.0307  0.7065 -0.8147
  616TMC3    C6 9127   4.462   0.792  15.956  0.0409 -0.0169  0.7904
  616TMC3     C 9128   4.153   0.712  15.708  0.5905  0.2978 -0.3717
  616TMC3     O 9129   4.192   0.699  15.590 -0.1355 -0.3174  0.4225
  616TMC3     H 9130   4.367   0.834  15.639  0.0796 -1.1651 -0.2360
  616TMC3    H1 9131   4.144   0.695  15.974 -0.2806  1.3099  0.7433
  616TMC3    H2 9132   4.539   0.820  16.027  2.1748 -0.6322 -1.2698
  616TMC3    C7 9133   4.330   0.751  16.155 -0.1601  0.1720  0.7060
  616TMC3    C8 9134   4.595   0.866  15.766 -0.0242  0.8254  0.3435
  616TMC3    O1 9135   4.390   0.667  16.217  0.0848 -0.1061 -0.4612
  616TMC3    O2 9136   4.589   0.909  15.651  0.0267  0.3641  0.7281
  617MPD2     C 9137   2.375   3.878  13.894  0.2457  0.2453  0.1473
  617MPD2    C1 9138   2.401   3.793  13.997 -0.2370  0.1555 -1.2189
  617MPD2    C2 9139   2.301   3.719  14.045  0.3973 -0.4545 -0.4039
  617MPD2    C3 9140   2.174   3.736  13.996 -0.0904  0.1018 -0.4877
  617MPD2    C4 9141   2.144   3.835  13.900 -0.1838 -0.2805 -0.5990
  617MPD2    C5 9142   2.248   3.897  13.844 -0.8348  0.6075  0.3285
  617MPD2     H 9143   2.326   3.645  14.119  0.7841  0.6189  0.5378
  617MPD2    H1 9144   2.045   3.859  13.865 -1.6997 -0.9724  3.1650
  617MPD2    H2 9145   2.445   3.938  13.838 -0.8082  0.1310 -1.3061
  617MPD2    H3 9146   2.227   3.957  13.756  0.4376  0.1104 -0.3070
  617MPD2     N 9147   2.058   3.681  14.053  0.3840 -0.3121  0.1514
  617MPD2    H5 9148   1.964   3.710  14.025  1.2074  1.6510 -0.5417
  617MPD2    N1 9149   2.536   3.782  14.034 -0.4909  0.3958  0.0977
  617MPD2    H7 9150   2.598   3.837  13.976  0.7686 -1.6299 -0.4598
  618TMC3    C1 9151   2.736   3.711  14.145 -0.4528 -0.1101 -0.5289
  618TMC3    C2 9152   2.812   3.601  14.157 -0.6253  0.4193 -0.6433
  618TMC3    C3 9153   2.948   3.626  14.146  0.4555 -0.8005 -0.0431
  618TMC3    C4 9154   2.776   3.839  14.147  0.4820  0.8154  0.9178
  618TMC3    C5 9155   2.916   3.856  14.152 -0.4250 -0.3740  0.5843
  618TMC3    C6 9156   3.004   3.754  14.141  0.0387 -0.1727 -0.1610
  618TMC3     C 9157   2.593   3.691  14.128 -0.1983  0.9357 -0.1979
  618TMC3     O 9158   2.533   3.602  14.194  0.4270  0.3884 -0.1503
  618TMC3     H 9159   2.778   3.498  14.151 -1.2418  0.4629  2.1143
  618TMC3    H1 9160   2.712   3.923  14.171 -1.0973 -0.0359 -0.3099
  618TMC3    H2 9161   3.112   3.762  14.134  0.0465  0.0167  0.1659
  618TMC3    C7 9162   2.952   3.983  14.094 -0.4641  0.0001  0.2686
  618TMC3    C8 9163   3.032   3.519  14.096 -0.3177  0.1172 -0.2093
  618TMC3    O1 9164   2.858   4.033  14.034 -0.7322  0.6400 -0.6858
  618TMC3    O2 9165   3.039   3.408  14.145 -0.3898  0.0188  0.2733
  619MPD2     C 9166   3.737   0.201  13.796  0.6140 -0.2237  0.1107
  619MPD2    C1 9167   3.676   0.292  13.716 -0.3025  0.1512 -0.3067
  619MPD2    C2 9168   3.539   0.292  13.694  0.2634  0.3958 -0.1747
  619MPD2    C3 9169   3.457   0.202  13.761 -0.1089  0.2271 -0.0209
  619MPD2    C4 9170   3.515   0.125  13.861 -0.4038 -0.2559  0.5497
  619MPD2    C5 9171   3.657   0.125  13.873  0.5817 -0.4785 -0.4013
  619MPD2     H 9172   3.492   0.370  13.635  1.3059 -0.0744 -1.6126
  619MPD2    H1 9173   3.466   0.055  13.929  0.0160 -0.5693  0.5320
  619MPD2    H2 9174   3.843   0.193  13.815  0.8338  0.4452 -0.8745
  619MPD2    H3 9175   3.707   0.046  13.927 -0.2654  0.4834  1.8179
  619MPD2     N 9176   3.314   0.202  13.747 -0.1834 -0.1975 -0.1198
  619MPD2    H5 9177   3.255   0.162  13.820 -0.8805  1.3068  0.1387
  619MPD2    N1 9178   3.748   0.393  13.646 -0.4900 -0.0039  0.0328
  619MPD2    H7 9179   3.697   0.451  13.580 -0.0552 -0.5790 -0.8168
  620TMC3    C1 9180   3.923   0.503  13.544 -0.2265 -0.4260  0.9121
  620TMC3    C2 9181   3.826   0.547  13.460 -0.3209 -0.6937 -0.4351
  620TMC3    C3 9182   3.829   0.672  13.401  0.3583  0.3535 -0.0555
  620TMC3    C4 9183   4.017   0.597  13.585 -0.3318  0.6936 -0.3227
  620TMC3    C5 9184   4.017   0.718  13.537  0.0194  0.0891  0.6669
  620TMC3    C6 9185   3.928   0.758  13.444 -0.2375  0.0945  0.0566
  620TMC3     C 9186   3.885   0.403  13.642 -0.3816  0.5151  0.2691
  620TMC3     O 9187   3.972   0.358  13.713  0.1143  0.3603  1.1903
  620TMC3     H 9188   3.751   0.475  13.429 -1.6149  0.4938 -0.0937
  620TMC3    H1 9189   4.089   0.571  13.661 -1.2508 -0.2577  0.2195
  620TMC3    H2 9190   3.950   0.850  13.393  2.3327 -0.6786 -0.2317
  620TMC3    C7 9191   4.151   0.772  13.537 -1.1754 -0.1484 -0.1139
  620TMC3    C8 9192   3.697   0.728  13.397  0.7642 -0.2303  0.1145
  620TMC3    O1 9193   4.242   0.692  13.520  0.0912  0.3906  0.2912
  620TMC3    O2 9194   3.683   0.838  13.454  0.5430  0.1537 -0.1513
  621MPD2     C 9195   4.654   0.434   9.555  0.0218 -0.1933  0.4856
  621MPD2    C1 9196   4.657   0.433   9.693 -0.1336  0.5487 -0.1579
  621MPD2    C2 9197   4.712   0.536   9.764 -0.3383 -0.6870 -0.6608
  621MPD2    C3 9198   0.044   0.646   9.702  0.7851  0.6851 -0.1387
  621MPD2    C4 9199   0.038   0.652   9.559 -0.2350  0.1573  0.0050
  621MPD2    C5 9200   4.703   0.546   9.491 -0.3845 -0.5558 -0.0878
  621MPD2     H 9201   4.709   0.528   9.872 -0.3955  1.1319 -0.5290
  621MPD2    H1 9202   0.071   0.740   9.506 -1.1498 -0.2924 -1.2950
  621MPD2    H2 9203   4.606   0.352   9.504 -2.2757  0.9434  0.8220
  621MPD2    H3 9204   4.706   0.548   9.383 -0.0015  0.2763 -0.0636
  621MPD2     N 9205   0.105   0.744   9.781  0.1292  0.4520 -0.4292
  621MPD2    H5 9206   0.126   0.726   9.878  0.1481  0.1390 -0.4903
  621MPD2    N1 9207   4.605   0.316   9.759 -0.1081 -0.2490 -0.6138
  621MPD2    H7 9208   4.616   0.319   9.859 -0.7638 -1.1616 -0.5115
  622TMC3    C1 9209   4.495   0.113   9.806  0.0230  0.2266  0.2110
  622TMC3    C2 9210   4.510   0.143   9.943  0.8314 -0.6587  0.7245
  622TMC3    C3 9211   4.407   0.112  10.024 -0.9452  0.5995 -0.0188
  622TMC3    C4 9212   4.393   0.034   9.765  0.6315 -0.9723 -0.7347
  622TMC3    C5 9213   4.288   0.016   9.854  0.2133  0.0070 -0.4924
  622TMC3    C6 9214   4.292   0.052   9.986  0.0791 -0.5599 -0.1328
  622TMC3     C 9215   4.537   0.206   9.702 -0.0726 -0.1268  0.2269
  622TMC3     O 9216   4.492   0.191   9.593  0.2697  0.1342 -0.6745
  622TMC3     H 9217   4.585   0.207   9.989 -0.0313 -0.3398  1.6923
  622TMC3    H1 9218   4.393   4.719   9.663  0.6412 -2.4415 -0.2080
  622TMC3    H2 9219   4.205   0.028  10.047  0.3602  0.4584  0.6586
  622TMC3    C7 9220   4.186   4.641   9.816  0.4598  0.9410 -0.4471
  622TMC3    C8 9221   4.397   0.194  10.142  0.0806  0.2347  0.4594
  622TMC3    O1 9222   4.123   4.592   9.909 -0.2417  0.2335 -0.2239
  622TMC3    O2 9223   4.494   0.236  10.198  0.0091  0.2742  0.4925
  623MPD2     C 9224   2.997   0.899  16.243  0.0582  0.2788  0.0197
  623MPD2    C1 9225   3.023   1.006  16.332  0.4349 -0.5230  0.3990
  623MPD2    C2 9226   3.149   1.041  16.366 -0.2351  0.5131 -0.1677
  623MPD2    C3 9227   3.260   0.977  16.308 -0.5793  1.4438 -0.1701
  623MPD2    C4 9228   3.238   0.868  16.221 -0.4387 -0.3301 -0.0046
  623MPD2    C5 9229   3.105   0.835  16.191 -0.1925  0.2711  0.3944
  623MPD2     H 9230   3.161   1.129  16.427 -2.8257 -0.0906  1.2108
  623MPD2    H1 9231   3.327   0.818  16.183 -1.1024 -2.5142  1.3178
  623MPD2    H2 9232   2.900   0.856  16.221  0.5185 -1.3090  1.1337
  623MPD2    H3 9233   3.087   0.753  16.123  0.9810 -0.5535  1.0830
  623MPD2     N 9234   3.385   1.030  16.358  0.2338 -0.2204  0.6935
  623MPD2    H5 9235   3.375   1.098  16.432  1.1806  1.1662 -0.4485
  623MPD2    N1 9236   2.915   1.083  16.382 -0.1232 -0.1731  0.5910
  623MPD2    H7 9237   2.940   1.152  16.453 -1.5436 -0.7360  1.6378
  624TMC3    C1 9238   3.753   1.035  16.567  0.7539 -0.5257  0.3064
  624TMC3    C2 9239   3.699   1.131  16.646  0.0980  0.2963 -0.3916
  624TMC3    C3 9240   3.598   1.211  16.588  0.8839  0.4430  0.1456
  624TMC3    C4 9241   3.704   1.002  16.446 -0.2613 -0.9064  0.3837
  624TMC3    C5 9242   3.600   1.076  16.397  0.1436 -0.1705  0.4207
  624TMC3    C6 9243   3.549   1.183  16.461  0.4690  0.9764 -0.3499
  624TMC3     C 9244   3.861   0.951  16.631  0.0040 -0.1135  0.0235
  624TMC3     O 9245   3.928   0.993  16.730 -0.0301 -0.8284 -0.3327
  624TMC3     H 9246   3.732   1.158  16.745  1.3282 -0.3650 -0.6140
  624TMC3    H1 9247   3.740   0.918  16.387  2.1072 -1.5955  2.8031
  624TMC3    H2 9248   3.477   1.247  16.412 -1.1825 -1.3341 -0.9158
  624TMC3    C7 9249   3.511   1.004  16.312  0.7819 -0.2794  0.1644
  624TMC3    C8 9250   3.487   1.220  16.681 -0.7728 -0.1932  0.2121
  624TMC3    O1 9251   3.554   0.902  16.255 -0.4471 -0.4087 -0.5342
  624TMC3    O2 9252   3.379   1.186  16.633 -0.3459  0.0916 -0.1603
  625MPD2     C 9253   3.771   2.046   0.137 -0.7589 -0.6099 -0.4958
  625MPD2    C1 9254   3.771   2.138   0.236 -0.0146 -0.8991 -0.3610
  625MPD2    C2 9255   3.727   2.101   0.364 -0.3257 -0.4223  0.0996
  625MPD2    C3 9256   3.679   1.972   0.384 -0.4891  0.5944 -0.3399
  625MPD2    C4 9257   3.679   1.877   0.281 -0.1884  1.0852 -0.0789
  625MPD2    C5 9258   3.733   1.919   0.160 -0.0037  0.0361  0.7122
  625MPD2     H 9259   3.736   2.173   0.445 -1.0693 -0.5921  0.3287
  625MPD2    H1 9260   3.658   1.771   0.294 -0.1583  0.8135 -2.2110
  625MPD2    H2 9261   3.797   2.080   0.038 -0.7592  1.2483  0.1406
  625MPD2    H3 9262   3.754   1.854   0.076 -0.8450  0.8456 -0.1280
  625MPD2     N 9263   3.650   1.933   0.519 -0.0171 -0.1866 -0.1103
  625MPD2    H5 9264   3.640   2.018   0.573 -0.5664  0.3450 -1.0432
  625MPD2    N1 9265   3.825   2.265   0.219 -0.4814  0.3507  0.3608
  625MPD2    H7 9266   3.827   2.312   0.308 -1.6863 -1.0442  1.1225
  626TMC3    C1 9267   3.897   2.459   0.094 -0.8545  0.3926 -0.6423
  626TMC3    C2 9268   3.841   2.545   0.002  0.2370  0.6044 -0.6255
  626TMC3    C3 9269   3.856   2.683   0.010  0.3278  0.3018 -0.1093
  626TMC3    C4 9270   3.975   2.507   0.188 -0.2255 -0.0465 -0.3369
  626TMC3    C5 9271   4.004   2.648   0.190  0.1356 -1.0537  0.2991
  626TMC3    C6 9272   3.940   2.738   0.109  0.3636  0.7670 -1.5776
  626TMC3     C 9273   3.842   2.323   0.096 -0.1092 -0.3520 -0.0604
  626TMC3     O 9274   3.811   2.281  17.668  0.0953 -0.6317  0.5801
  626TMC3     H 9275   3.779   2.508  17.608  0.0490  0.3485 -0.3593
  626TMC3    H1 9276   4.021   2.442   0.261  0.3062 -0.3093 -0.9111
  626TMC3    H2 9277   3.955   2.845   0.120  1.1809  0.4332  0.4288
  626TMC3    C7 9278   4.077   2.704   0.304  0.0563 -1.2096  0.9719
  626TMC3    C8 9279   3.785   2.764  17.603  0.9835 -0.0289 -0.5969
  626TMC3    O1 9280   4.138   2.811   0.284  0.4015  0.3234 -0.2340
  626TMC3    O2 9281   3.773   2.709  17.498 -0.6073  0.6337 -0.4570
  627MPD2     C 9282   2.579   2.494  14.690 -0.3356  0.0051  0.0891
  627MPD2    C1 9283   2.449   2.513  14.737 -0.0234  0.1261 -0.9350
  627MPD2    C2 9284   2.345   2.427  14.691  0.3269 -0.2847 -0.2647
  627MPD2    C3 9285   2.372   2.325  14.606  0.0891  0.3755 -0.3695
  627MPD2    C4 9286   2.497   2.309  14.557  0.7598 -1.0181  0.9310
  627MPD2    C5 9287   2.607   2.388  14.597 -0.5784 -0.3511  0.4428
  627MPD2     H 9288   2.245   2.433  14.732  0.1217 -4.4091 -0.1686
  627MPD2    H1 9289   2.526   2.220  14.501 -0.8069 -0.3513 -0.9260
  627MPD2    H2 9290   2.658   2.559  14.724  0.0745 -0.4507 -0.0026
  627MPD2    H3 9291   2.705   2.370  14.555  0.2820  0.8156  1.9178
  627MPD2     N 9292   2.252   2.247  14.575  0.6814 -0.5590 -0.1596
  627MPD2    H5 9293   2.165   2.290  14.605  1.6557  1.4081 -0.1469
  627MPD2    N1 9294   2.424   2.622  14.825 -0.1605 -0.4132 -0.1836
  627MPD2    H7 9295   2.508   2.673  14.851 -2.0284  2.4237  0.2181
  628TMC3    C1 9296   2.311   2.787  14.949 -0.1249  0.5765  0.5592
  628TMC3    C2 9297   2.424   2.816  15.024 -0.5000 -0.3673 -0.1903
  628TMC3    C3 9298   2.418   2.924  15.116 -0.0808  0.2691  0.0465
  628TMC3    C4 9299   2.210   2.880  14.946 -0.0189 -0.1693 -0.2728
  628TMC3    C5 9300   2.206   2.983  15.040  0.3061  0.8202  0.0011
  628TMC3    C6 9301   2.309   2.998  15.133  0.2241  0.3415  0.6541
  628TMC3     C 9302   2.300   2.667  14.866 -0.4514  0.6931 -0.8676
  628TMC3     O 9303   2.188   2.640  14.830 -0.4017 -0.2118  0.2763
  628TMC3     H 9304   2.500   2.740  15.035  0.3361  0.5021 -0.0463
  628TMC3    H1 9305   2.124   2.875  14.880  0.4651 -1.3186 -0.8021
  628TMC3    H2 9306   2.309   3.096  15.179 -2.1216  0.8964 -0.5267
  628TMC3    C7 9307   2.107   3.088  15.034 -0.1726 -0.2440  0.0257
  628TMC3    C8 9308   2.537   2.973  15.172  0.0348 -0.5349 -0.3164
  628TMC3    O1 9309   2.085   3.132  15.148 -0.1463 -0.3250  0.1358
  628TMC3    O2 9310   2.515   3.059  15.256  0.0461 -0.4276 -0.5652
  629MPD2     C 9311   0.344   1.039  15.811  0.1600 -0.1199 -0.0773
  629MPD2    C1 9312   0.315   0.978  15.932  0.4683  0.2881 -0.9053
  629MPD2    C2 9313   0.192   0.910  15.934  0.3550 -0.4758  0.0295
  629MPD2    C3 9314   0.105   0.920  15.824  0.4055 -0.0336  0.0780
  629MPD2    C4 9315   0.154   0.962  15.703  0.5591 -0.1553  0.2834
  629MPD2    C5 9316   0.270   1.027  15.694  0.0641  0.0614 -0.1525
  629MPD2     H 9317   0.145   0.883  16.028 -3.0955 -0.0393 -1.5788
  629MPD2    H1 9318   0.103   0.951  15.608 -1.3952 -1.3930  1.4852
  629MPD2    H2 9319   0.431   1.104  15.806  0.3821 -0.5612 -2.0030
  629MPD2    H3 9320   0.302   1.069  15.600  0.9050 -1.5440 -0.5918
  629MPD2     N 9321   4.703   0.861  15.847  0.4126  0.1895  0.3306
  629MPD2    H5 9322   4.688   0.806  15.931 -0.6560 -0.2850 -0.1777
  629MPD2    N1 9323   0.397   1.002  16.043  0.0827 -0.4795 -0.9446
  629MPD2    H7 9324   0.483   1.055  16.027 -0.1883 -0.0361 -0.9207
  630TMC3    C1 9325   0.454   1.003  16.268 -0.8694 -0.1004 -0.1012
  630TMC3    C2 9326   0.498   1.133  16.253 -0.3707  0.7928 -0.1992
  630TMC3    C3 9327   0.532   1.204  16.367 -0.1034  0.2514 -0.1111
  630TMC3    C4 9328   0.449   0.932  16.382  0.1818  0.1079 -0.1887
  630TMC3    C5 9329   0.497   1.000  16.489  0.6152 -0.4706  0.7404
  630TMC3    C6 9330   0.528   1.136  16.485 -0.0007  0.2799  0.7723
  630TMC3     C 9331   0.362   0.963  16.170 -0.3554 -0.2435 -0.0702
  630TMC3     O 9332   0.285   0.873  16.203  0.1671 -0.2395  0.3057
  630TMC3     H 9333   0.484   1.179  16.156 -0.3887 -1.0952 -1.0972
  630TMC3    H1 9334   0.453   0.825  16.395 -1.8834  0.0283 -0.3167
  630TMC3    H2 9335   0.564   1.179  16.578  1.6515 -0.5284  0.4877
  630TMC3    C7 9336   0.612   0.935  16.548  0.6229  0.0243 -0.4169
  630TMC3    C8 9337   0.651   1.296  16.355 -0.8071 -0.2172  0.4177
  630TMC3    O1 9338   0.712   1.006  16.559  1.2327  0.1302 -0.9997
  630TMC3    O2 9339   0.699   1.337  16.459  0.1527  0.3497 -0.5311
  631MPD2     C 9340   3.466   1.539  16.048 -0.0631  0.1079 -0.0952
  631MPD2    C1 9341   3.541   1.466  15.957  0.5804 -0.0303 -0.7935
  631MPD2    C2 9342   3.500   1.344  15.920  0.2754 -0.3071  0.4344
  631MPD2    C3 9343   3.379   1.288  15.970 -0.5087 -0.0834 -0.0000
  631MPD2    C4 9344   3.305   1.365  16.056 -0.6880 -0.2548 -0.1011
  631MPD2    C5 9345   3.344   1.487  16.097  0.3286 -0.2190  0.1945
  631MPD2     H 9346   3.553   1.281  15.848  0.1583 -0.0349  0.1109
  631MPD2    H1 9347   3.209   1.326  16.086  0.0425 -1.6164  0.4463
  631MPD2    H2 9348   3.493   1.636  16.091  0.1580  1.1555 -2.6246
  631MPD2    H3 9349   3.285   1.555  16.158  0.3004 -0.4053  0.3725
  631MPD2     N 9350   3.343   1.160  15.910 -0.7627 -0.5808 -0.7560
  631MPD2    H5 9351   3.406   1.112  15.846 -0.1878  0.5926 -1.0689
  631MPD2    N1 9352   3.664   1.525  15.913  0.3925  0.2907  0.3718
  631MPD2    H7 9353   3.691   1.614  15.954 -1.4974  1.1458 -0.2094
  632TMC3    C1 9354   3.843   1.559  15.761  0.0311  0.5121  0.0962
  632TMC3    C2 9355   3.805   1.694  15.776  0.5644 -0.3719 -0.1200
  632TMC3    C3 9356   3.822   1.778  15.667 -0.0350 -0.2926  0.1316
  632TMC3    C4 9357   3.908   1.513  15.647  0.5147  1.0465  0.5968
  632TMC3    C5 9358   3.934   1.602  15.545  0.0449 -0.2763  0.7186
  632TMC3    C6 9359   3.880   1.730  15.548  0.3172  0.6843 -0.3241
  632TMC3     C 9360   3.739   1.467  15.812 -0.1956  1.0130  0.5214
  632TMC3     O 9361   3.722   1.376  15.736 -0.3599 -0.2871  0.1628
  632TMC3     H 9362   3.797   1.736  15.876  1.4757  0.2923 -0.3182
  632TMC3    H1 9363   3.935   1.408  15.642  1.5931  1.3850 -0.9144
  632TMC3    H2 9364   3.897   1.797  15.464 -0.7831  1.0701 -0.2404
  632TMC3    C7 9365   3.970   1.563  15.410  0.1004 -0.7025 -0.0598
  632TMC3    C8 9366   3.700   1.861  15.644 -0.6865 -0.6070  0.2637
  632TMC3    O1 9367   4.007   1.648  15.329 -0.5336  0.3004 -0.2048
  632TMC3    O2 9368   3.636   1.876  15.745  0.8702  0.1637  0.1188
  633MPD2     C 9369   3.576   4.083  17.472 -0.4865 -0.6180  0.0063
  633MPD2    C1 9370   3.574   4.001  17.371  0.0289 -0.2270  0.8495
  633MPD2    C2 9371   3.557   3.867  17.392  0.3766  1.2553  0.0737
  633MPD2    C3 9372   3.544   3.809  17.517 -0.1435 -0.2922 -1.0863
  633MPD2    C4 9373   3.552   3.898  17.627  0.2321  0.6932 -0.2641
  633MPD2    C5 9374   3.573   4.032  17.602 -0.2951  0.0681 -0.2399
  633MPD2     H 9375   3.558   3.800  17.307  4.0146  0.0421  1.0628
  633MPD2    H1 9376   3.546   3.858   0.041 -2.0188  0.0885 -0.6451
  633MPD2    H2 9377   3.573   4.191  17.464  1.8651 -0.5827 -0.4329
  633MPD2    H3 9378   3.579   4.108  17.678 -0.0100 -0.8796  0.6952
  633MPD2     N 9379   3.519   3.673  17.543 -0.5011 -0.3103 -0.1411
  633MPD2    H5 9380   3.531   3.637  17.637  0.9716  0.2669 -0.1081
  633MPD2    N1 9381   3.583   4.034  17.229  0.7811 -0.4061 -0.3879
  633MPD2    H7 9382   3.587   3.959  17.160  0.3503  0.6997 -1.6083
  634TMC3    C1 9383   3.600   4.162  17.045 -0.5962 -0.8429 -0.0310
  634TMC3    C2 9384   3.619   4.055  16.966 -0.7871  0.3390  0.4032
  634TMC3    C3 9385   3.607   4.068  16.834 -0.7033  0.4245  0.4196
  634TMC3    C4 9386   3.572   4.286  16.988 -0.5703  0.1039 -1.0871
  634TMC3    C5 9387   3.554   4.297  16.851 -0.2411  0.4127  0.1712
  634TMC3    C6 9388   3.561   4.185  16.771  0.8165  0.0004  0.1472
  634TMC3     C 9389   3.619   4.158  17.191  0.0820 -0.4745  0.1374
  634TMC3     O 9390   3.614   4.265  17.247 -0.2302 -0.0908 -0.0956
  634TMC3     H 9391   3.647   3.957  17.001 -0.7408  0.8698  1.8495
  634TMC3    H1 9392   3.562   4.377  17.047  1.7872  0.0506 -0.5964
  634TMC3    H2 9393   3.542   4.201  16.666  1.6549 -0.6930 -0.1114
  634TMC3    C7 9394   3.483   4.406  16.797 -0.5763 -0.0015 -0.2166
  634TMC3    C8 9395   3.666   3.966  16.751 -0.6891  0.5396 -0.1911
  634TMC3    O1 9396   3.492   4.415  16.676 -0.6028 -0.5581  0.1048
  634TMC3    O2 9397   3.665   3.852  16.787 -0.3724  0.6770 -0.0751
  635TMC3    C1 9398   0.270   4.669   0.109  0.2767  0.2633  0.4948
  635TMC3    C2 9399   0.386   4.719   0.171  0.7118  0.2598 -0.6825
  635TMC3    C3 9400   0.481   4.627   0.216  0.3245  0.4130 -0.5489
  635TMC3    C4 9401   0.247   4.533   0.100  0.8191  0.0662 -0.4572
  635TMC3    C5 9402   0.344   4.452   0.153 -0.7190 -0.1919  0.5192
  635TMC3    C6 9403   0.455   4.494   0.211 -0.4038  0.2769  0.1188
  635TMC3     C 9404   0.180   0.050   0.052 -0.1689  0.1376  0.2220
  635TMC3     O 9405   0.178   0.165   0.098 -0.1615  0.0081  0.9279
  635TMC3     H 9406   0.396   0.105   0.177  2.9790 -0.0723  1.4682
  635TMC3    H1 9407   0.155   4.491   0.061 -0.0779  0.0822  1.6411
  635TMC3    H2 9408   0.525   4.425   0.258 -1.1531  0.4773  1.5236
  635TMC3    C7 9409   0.312   4.316   0.184 -0.9874 -0.3298  0.0469
  635TMC3    C8 9410   0.607   4.674   0.255  0.0672  0.3991  0.4378
  635TMC3    O1 9411   0.339   4.280   0.296 -0.3514 -0.0758 -0.0430
  635TMC3    O2 9412   0.677   4.595   0.320 -0.0502 -0.2897  0.1110
  636MPD2     C 9413   4.534   4.012  15.675 -0.3853  0.1559 -0.8656
  636MPD2    C1 9414   4.532   4.011  15.809  0.2430 -0.2653  0.2067
  636MPD2    C2 9415   4.596   3.909  15.878 -0.2470 -0.4524  0.3109
  636MPD2    C3 9416   4.651   3.804  15.807 -0.0662  0.2876 -0.0456
  636MPD2    C4 9417   4.652   3.804  15.668  0.4043  0.0859  0.0799
  636MPD2    C5 9418   4.600   3.910  15.606 -0.5192 -0.6488  0.0543
  636MPD2     H 9419   4.606   3.912  15.986 -1.3849  0.5044  0.3894
  636MPD2    H1 9420   4.689   3.720  15.610  0.0012  0.0197 -0.0841
  636MPD2    H2 9421   4.493   4.095  15.618  0.0629  0.6598 -0.4549
  636MPD2    H3 9422   4.605   3.922  15.498  2.0527  0.8664  0.3630
  636MPD2     N 9423   4.720   3.716  15.888 -0.0663 -0.3029 -0.5370
  636MPD2    H5 9424   0.009   3.745  15.985 -0.9166  0.2144 -0.6047
  636MPD2    N1 9425   4.484   4.123  15.881  0.4250 -0.2502 -0.0709
  636MPD2    H7 9426   4.514   4.134  15.977 -1.8026 -1.1911  0.7312
  637TMC3    C1 9427   0.166   3.562  15.948 -0.2223  0.2595  0.0747
  637TMC3    C2 9428   0.154   3.637  16.064 -0.6469  0.5341 -0.0152
  637TMC3    C3 9429   0.249   3.722  16.110  0.2435 -0.0329  0.0881
  637TMC3    C4 9430   0.291   3.572  15.885 -0.1326 -0.4719 -0.2406
  637TMC3    C5 9431   0.372   3.675  15.917  0.2683  0.8217  0.4127
  637TMC3    C6 9432   0.363   3.739  16.038  0.0867  0.1715  0.4481
  637TMC3     C 9433   0.064   3.597  15.850 -0.4292 -0.6790 -0.2311
  637TMC3     O 9434   0.061   3.528  15.749  0.2661 -0.6868 -0.6980
  637TMC3     H 9435   0.062   3.625  16.120 -0.0842 -1.4264  0.5073
  637TMC3    H1 9436   0.304   3.516  15.793 -1.2513 -0.5887 -0.3329
  637TMC3    H2 9437   0.429   3.819  16.072 -0.0149  0.7085 -0.6109
  637TMC3    C7 9438   0.388   3.780  15.820 -0.3839 -0.1850  0.0479
  637TMC3    C8 9439   0.194   3.840  16.173 -0.3636  0.7542  0.3852
  637TMC3    O1 9440   0.388   3.899  15.855 -0.7719 -0.3878 -0.1236
  637TMC3    O2 9441   0.094   3.821  16.243 -0.2744 -0.3199 -0.2429
  638MPD2     C 9442   4.463   3.341  15.068  0.0995 -0.4835 -0.5702
  638MPD2    C1 9443   4.515   3.216  15.039 -0.1532 -0.0458 -0.2820
  638MPD2    C2 9444   4.490   3.107  15.122 -0.1332 -0.6065  0.0268
  638MPD2    C3 9445   4.427   3.117  15.239  0.0031 -0.2056  0.5528
  638MPD2    C4 9446   4.366   3.236  15.259  0.8763 -0.8684  0.0858
  638MPD2    C5 9447   4.389   3.353  15.181 -0.2423 -0.7163 -0.1271
  638MPD2     H 9448   4.519   3.010  15.084  0.8158  0.0277 -0.8628
  638MPD2    H1 9449   4.299   3.246  15.343  1.0992  0.8013  0.0688
  638MPD2    H2 9450   4.491   3.434  15.020  2.2972 -0.4094  0.8249
  638MPD2    H3 9451   4.350   3.453  15.197 -0.4413 -0.8613  0.2734
  638MPD2     N 9452   4.417   3.001  15.329  0.0920 -0.7835 -0.3984
  638MPD2    H5 9453   4.353   3.014  15.406 -0.5716 -3.6133 -0.4659
  638MPD2    N1 9454   4.587   3.194  14.923 -0.1943  0.1021  0.6807
  638MPD2    H7 9455   4.635   3.105  14.925  0.8407  0.6862  1.9863
  639TMC3    C1 9456   4.416   2.779  15.385  0.0554 -0.3970 -0.2315
  639TMC3    C2 9457   4.325   2.728  15.299  0.0949  0.0983  0.1993
  639TMC3    C3 9458   4.341   2.609  15.242  0.2520  0.1251  0.2739
  639TMC3    C4 9459   4.500   2.692  15.444 -0.3998 -0.3975 -0.2141
  639TMC3    C5 9460   4.508   2.568  15.391  0.2293 -0.6407  0.1136
  639TMC3    C6 9461   4.433   2.515  15.286 -0.6939 -0.0118  0.3455
  639TMC3     C 9462   4.484   2.883  15.317  0.9753  0.1139 -0.1202
  639TMC3     O 9463   4.577   2.850  15.249  0.1768  0.1436 -0.4983
  639TMC3     H 9464   4.258   2.803  15.257  1.7353  1.7818  0.6103
  639TMC3    H1 9465   4.569   2.724  15.521  1.9130 -2.6365 -1.3417
  639TMC3    H2 9466   4.452   2.423  15.232  0.6880  0.6007 -0.2122
  639TMC3    C7 9467   4.631   2.507  15.425  1.2589  0.2416  0.2045
  639TMC3    C8 9468   4.253   2.558  15.142  0.6519  0.5299  0.4972
  639TMC3    O1 9469   4.638   2.464  15.538  0.0453 -0.4396  0.2768
  639TMC3    O2 9470   4.301   2.501  15.047 -0.0564 -0.2590  0.5123
  640MPD2     C 9471   0.032   1.684  10.339  0.1287 -0.1307  0.3127
  640MPD2    C1 9472   0.037   1.781  10.247 -0.5756 -0.8313  0.6271
  640MPD2    C2 9473   4.678   1.894  10.269 -0.0874  0.1334  0.2239
  640MPD2    C3 9474   4.597   1.909  10.379 -0.0460 -0.0769  1.0429
  640MPD2    C4 9475   4.590   1.800  10.468 -0.4776 -0.3060  0.7651
  640MPD2    C5 9476   4.673   1.685  10.454 -0.0454 -0.0473  0.0018
  640MPD2     H 9477   4.685   1.976  10.199 -1.3584  0.0903  0.0445
  640MPD2    H1 9478   4.515   1.800  10.547  0.6619 -0.2216  1.8424
  640MPD2    H2 9479   0.092   1.594  10.330 -0.9625 -0.6860 -1.4639
  640MPD2    H3 9480   4.663   1.603  10.524  0.1192 -0.9938 -1.0987
  640MPD2     N 9481   4.526   2.027  10.399 -0.2557 -0.4064  0.0240
  640MPD2    H5 9482   4.463   2.020  10.478 -1.6759 -1.5006 -1.1967
  640MPD2    N1 9483   0.125   1.758  10.143 -0.9833 -0.2387 -0.3728
  640MPD2    H7 9484   0.155   1.662  10.132  1.6942  0.5651 -0.1932
  641TMC3    C1 9485   0.225   1.792   9.931 -0.0616  0.4418  0.8002
  641TMC3    C2 9486   0.299   1.677   9.951  0.3080 -0.3810  0.0762
  641TMC3    C3 9487   0.354   1.634   9.834  0.8637  0.1073  0.0494
  641TMC3    C4 9488   0.216   1.858   9.814 -0.2288  0.3695 -0.4093
  641TMC3    C5 9489   0.276   1.806   9.704 -0.1586 -0.0708  0.4577
  641TMC3    C6 9490   0.335   1.685   9.711 -0.6590 -0.2147 -0.4146
  641TMC3     C 9491   0.150   1.846  10.041 -0.0126  0.3994 -0.7866
  641TMC3     O 9492   0.125   1.969  10.032 -0.2484  0.2047  0.0538
  641TMC3     H 9493   0.331   1.644  10.049 -0.5980  0.0697  0.5213
  641TMC3    H1 9494   0.148   1.943   9.810  1.8565  2.0631 -0.2331
  641TMC3    H2 9495   0.382   1.637   9.626 -0.5225 -1.4290  0.3457
  641TMC3    C7 9496   0.220   1.833   9.577 -0.0348  0.7701  0.1239
  641TMC3    C8 9497   0.425   1.501   9.820 -0.2011  0.9495 -0.2775
  641TMC3    O1 9498   0.219   1.741   9.496 -0.2575 -0.0663 -0.2658
  641TMC3    O2 9499   0.419   1.448   9.707 -0.0525  0.0706  0.3505
  642TMC3    C1 9500   1.101   3.290  12.002 -0.8439  0.4789 -0.3309
  642TMC3    C2 9501   1.234   3.283  12.050  0.7992 -0.1082 -0.0496
  642TMC3    C3 9502   1.265   3.167  12.106 -0.1844 -0.0098 -0.8747
  642TMC3    C4 9503   1.007   3.199  12.024  0.5465  1.0346 -0.3081
  642TMC3    C5 9504   1.053   3.077  12.073 -0.7725 -0.2943 -1.1862
  642TMC3    C6 9505   1.181   3.060  12.117 -0.7152 -0.2098  0.0426
  642TMC3     C 9506   1.048   3.424  12.020 -0.4132 -0.7134 -0.2152
  642TMC3     O 9507   1.112   3.518  11.976  0.0308  0.5791  0.1542
  642TMC3     H 9508   1.303   3.367  12.055 -1.1555  1.5583 -1.2290
  642TMC3    H1 9509   0.912   3.219  11.977  1.0891  2.2552 -0.8691
  642TMC3    H2 9510   1.208   2.969  12.169  0.4625  0.2377  0.1991
  642TMC3    C7 9511   0.960   2.965  12.085  0.1625  0.8645  0.0031
  642TMC3    C8 9512   1.387   3.155  12.182  0.0766  0.1214  0.7390
  642TMC3    O1 9513   0.883   2.947  11.996 -0.2732 -0.5292  0.2718
  642TMC3    O2 9514   1.416   3.040  12.207 -0.0869 -0.1700  0.2153
  643TMC3    C1 9515   0.316   2.329   0.127  0.1205 -0.2820  0.1852
  643TMC3    C2 9516   0.223   2.416   0.072 -0.1660 -0.8797 -0.2612
  643TMC3    C3 9517   0.240   2.441  17.624  0.1330 -0.4449  0.6474
  643TMC3    C4 9518   0.425   2.279   0.064 -0.2297  0.0489  0.5669
  643TMC3    C5 9519   0.437   2.307  17.614 -0.1726 -0.3942  0.1057
  643TMC3    C6 9520   0.349   2.388  17.548  0.3245 -0.1915 -0.0422
  643TMC3     C 9521   0.315   2.300   0.266 -0.4848 -0.2895  0.1295
  643TMC3     O 9522   0.208   2.270   0.314 -0.5611 -0.3798  0.6188
  643TMC3     H 9523   0.154   2.472   0.135 -0.2346 -1.3461  0.0745
  643TMC3    H1 9524   0.491   2.213   0.117  0.0068 -0.5590 -0.4848
  643TMC3    H2 9525   0.359   2.414  17.443 -0.6331 -2.1450 -0.6283
  643TMC3    C7 9526   0.563   2.279  17.540 -0.2548  0.1306  0.0167
  643TMC3    C8 9527   0.178   2.561  17.581 -0.6144 -0.1819  0.2315
  643TMC3    O1 9528   0.592   2.332  17.432 -0.3826 -0.2722 -0.2585
  643TMC3    O2 9529   0.071   2.584  17.634  0.3244  0.6039 -0.1092
  644MPD2     C 9530   0.069   2.381   8.897  0.3383 -0.2483  0.4747
  644MPD2    C1 9531   0.104   2.376   9.033 -0.3243 -0.7769 -0.2822
  644MPD2    C2 9532   0.029   2.449   9.121  0.8831  0.8132  0.0530
  644MPD2    C3 9533   4.645   2.534   9.072  0.7766  0.2747  0.1784
  644MPD2    C4 9534   4.611   2.533   8.935 -0.1428 -0.5737 -0.7131
  644MPD2    C5 9535   4.686   2.456   8.853 -0.4939  0.4457  0.5240
  644MPD2     H 9536   0.060   2.456   9.225  0.0939  1.2286  0.2574
  644MPD2    H1 9537   4.529   2.590   8.894  0.8939  1.0961 -0.4753
  644MPD2    H2 9538   0.119   2.324   8.820  1.3324  1.6074 -0.2510
  644MPD2    H3 9539   4.661   2.460   8.747  1.7642  0.8158 -0.0012
  644MPD2     N 9540   4.570   2.616   9.165 -0.0334  0.1229 -0.1060
  644MPD2    H5 9541   4.602   2.613   9.261  2.0523 -0.4056 -0.8058
  644MPD2    N1 9542   0.208   2.286   9.068 -0.2054  0.0356 -0.0853
  644MPD2    H7 9543   0.241   2.228   8.992 -0.0821 -0.1645  0.1204
  645TMC3    C1 9544   4.408   2.766   9.253 -0.5592 -0.1138 -0.4710
  645TMC3    C2 9545   4.371   2.677   9.349 -0.8740 -0.3225 -0.6085
  645TMC3    C3 9546   4.267   2.707   9.436 -0.0805 -0.3479 -0.2103
  645TMC3    C4 9547   4.337   2.878   9.234 -0.2483 -0.2113  0.2677
  645TMC3    C5 9548   4.227   2.899   9.312  0.4511 -0.2394 -0.5992
  645TMC3    C6 9549   4.187   2.821   9.415 -0.3438 -0.4582  0.0418
  645TMC3     C 9550   4.476   2.712   9.135 -0.1161 -0.0539 -0.1048
  645TMC3     O 9551   4.448   2.762   9.025  0.3023  0.2102 -0.0915
  645TMC3     H 9552   4.416   2.578   9.346  0.5991  0.3979 -2.4601
  645TMC3    H1 9553   4.357   2.948   9.154 -0.7533  0.3481  0.6266
  645TMC3    H2 9554   4.107   2.848   9.483 -0.4508 -2.2527  0.6147
  645TMC3    C7 9555   4.165   3.033   9.300  0.5193 -0.0030  0.7135
  645TMC3    C8 9556   4.232   2.620   9.551  0.4475 -0.2936 -0.6680
  645TMC3    O1 9557   4.235   3.124   9.259 -0.2932 -0.3877 -0.4215
  645TMC3    O2 9558   4.144   2.664   9.626  0.2568  0.8694 -0.2939
  646MPD2     C 9559   4.567   1.974  14.491  0.5926  0.4964 -0.5783
  646MPD2    C1 9560   4.476   1.922  14.583  0.3750  0.3706  0.7928
  646MPD2    C2 9561   4.336   1.963  14.576  1.1249 -0.0787  1.1007
  646MPD2    C3 9562   4.295   2.046  14.477 -0.9439  0.3844 -0.5096
  646MPD2    C4 9563   4.388   2.091  14.385  0.4966 -0.1245  0.1236
  646MPD2    C5 9564   4.523   2.048  14.382 -0.1092 -0.3674 -0.6558
  646MPD2     H 9565   4.263   1.919  14.643 -1.4121  1.3388 -0.7177
  646MPD2    H1 9566   4.355   2.165  14.313 -0.9365 -2.4585 -1.6398
  646MPD2    H2 9567   4.673   1.951  14.494  0.6965  0.7371 -2.4342
  646MPD2    H3 9568   4.588   2.073  14.299 -0.4168 -0.6573 -0.9804
  646MPD2     N 9569   4.157   2.085  14.474  0.5574  0.4009 -0.3195
  646MPD2    H5 9570   4.098   2.056  14.552 -0.7139  1.2967 -0.9507
  646MPD2    N1 9571   4.535   1.837  14.687  0.0664 -0.0567 -0.6098
  646MPD2    H7 9572   4.635   1.819  14.677 -0.1948  0.0783 -3.4065
  647TMC3    C1 9573   4.543   1.712  14.887 -0.1356 -0.2432 -0.8112
  647TMC3    C2 9574   4.488   1.688  15.009 -0.0360  0.2560  0.2098
  647TMC3    C3 9575   4.572   1.632  15.103  0.5126 -0.1515 -0.2951
  647TMC3    C4 9576   4.675   1.681  14.855  0.1092  0.5846 -0.7302
  647TMC3    C5 9577   0.034   1.634  14.955 -0.2085  0.4375 -0.6690
  647TMC3    C6 9578   4.709   1.607  15.082 -0.1515  0.4193  0.1759
  647TMC3     C 9579   4.469   1.798  14.796  0.2842 -0.0188 -0.2256
  647TMC3     O 9580   4.359   1.840  14.832 -0.2539  0.2538 -0.4027
  647TMC3     H 9581   4.384   1.700  15.037 -0.1106  0.8589 -0.3504
  647TMC3    H1 9582   4.714   1.697  14.755  1.0469  3.7066  0.1285
  647TMC3    H2 9583   0.044   1.567  15.166  2.5637  1.9213 -0.9203
  647TMC3    C7 9584   0.164   1.577  14.934 -0.1579  0.2014 -0.1047
  647TMC3    C8 9585   4.524   1.517  15.187 -0.7369  0.0253 -0.2252
  647TMC3    O1 9586   0.222   1.523  15.026 -0.1429  0.0197 -0.1226
  647TMC3    O2 9587   4.599   1.478  15.276  0.3112 -0.5000 -0.4245
  648TMC3    C1 9588   3.965   4.167  15.866 -0.0140  0.0377  0.5838
  648TMC3    C2 9589   4.015   4.076  15.779  0.3819 -0.3758 -0.3121
  648TMC3    C3 9590   3.932   4.032  15.674  0.6497 -0.0024  0.1514
  648TMC3    C4 9591   3.834   4.205  15.867  0.1511 -0.2130  0.1335
  648TMC3    C5 9592   3.758   4.162  15.758 -0.2704 -0.1325 -0.4435
  648TMC3    C6 9593   3.797   4.067  15.669 -0.5494  0.6068 -0.8007
  648TMC3     C 9594   4.041   4.215  15.979 -0.7568  0.5116 -0.8501
  648TMC3     O 9595   4.046   4.335  16.002 -0.3258 -0.4801 -0.5685
  648TMC3     H 9596   4.116   4.039  15.790  0.8671  0.5663 -1.6522
  648TMC3    H1 9597   3.796   4.276  15.940 -0.4479  0.3986 -0.7679
  648TMC3    H2 9598   3.737   4.037  15.584  2.7132  2.7628 -3.8400
  648TMC3    C7 9599   3.617   4.178  15.770 -0.4867  0.4848 -0.2259
  648TMC3    C8 9600   3.963   3.897  15.629 -0.0664 -0.0994  0.1469
  648TMC3    O1 9601   3.539   4.109  15.710 -0.0086  0.2559  0.0678
  648TMC3    O2 9602   3.865   3.827  15.642  0.3648 -0.1861 -0.3766
  649TMC3    C1 9603   2.143   0.573  12.782 -0.4908 -0.0182 -0.1164
  649TMC3    C2 9604   2.262   0.529  12.738  0.1334  0.0344  0.6921
  649TMC3    C3 9605   2.327   0.439  12.815  0.2628  0.1939 -0.0541
  649TMC3    C4 9606   2.077   0.515  12.891  0.3106 -0.1402 -0.1433
  649TMC3    C5 9607   2.147   0.424  12.965  0.1296 -0.5851 -0.2432
  649TMC3    C6 9608   2.276   0.389  12.929 -0.2280  0.5054  0.7128
  649TMC3     C 9609   2.048   0.642  12.698  0.3256  0.5487  0.1230
  649TMC3     O 9610   1.949   0.688  12.753  0.2122 -0.0428  0.1215
  649TMC3     H 9611   2.316   0.564  12.651 -2.4474  1.3438 -0.3771
  649TMC3    H1 9612   1.990   0.561  12.935  0.0089 -1.0111  0.1654
  649TMC3    H2 9613   2.318   0.302  12.979  0.2393  0.2950 -0.0529
  649TMC3    C7 9614   2.098   0.399  13.094  0.0050  0.3034  0.4645
  649TMC3    C8 9615   2.470   0.446  12.806 -0.0314 -0.1244  0.1310
  649TMC3    O1 9616   2.051   0.495  13.156  0.1839 -0.1685  0.0057
  649TMC3    O2 9617   2.519   0.498  12.710  0.4733  0.2221  0.2358
  650TMC3    C1 9618   0.688   2.265  12.629 -0.2603  0.0979  0.4392
  650TMC3    C2 9619   0.673   2.393  12.680  0.9887  0.2404  0.3380
  650TMC3    C3 9620   0.571   2.470  12.621  0.7102 -0.6228  0.1598
  650TMC3    C4 9621   0.610   2.221  12.525 -0.1363 -0.8300  0.7603
  650TMC3    C5 9622   0.510   2.297  12.470  0.5491  0.2682  0.2386
  650TMC3    C6 9623   0.481   2.422  12.523 -0.0683 -0.0070  0.2697
  650TMC3     C 9624   0.783   2.181  12.697  0.4679 -0.1745 -0.5392
  650TMC3     O 9625   0.877   2.224  12.762  0.0807 -0.3671  0.0306
  650TMC3     H 9626   0.732   2.427  12.764  3.2467  2.0448 -1.9970
  650TMC3    H1 9627   0.626   2.119  12.492  0.2485 -0.0735 -1.3869
  650TMC3    H2 9628   0.397   2.483  12.493  0.8050  0.9787 -0.1589
  650TMC3    C7 9629   0.398   2.224  12.411  0.2323 -0.0588  0.6782
  650TMC3    C8 9630   0.538   2.608  12.661  0.5091 -0.4526  0.5929
  650TMC3    O1 9631   0.393   2.105  12.418 -0.3098 -0.1779  0.0725
  650TMC3    O2 9632   0.481   2.677  12.578 -0.0896  0.0345 -0.1304
  651MPD2     C 9633   3.568   4.421  10.428  0.4536 -0.3886 -0.6969
  651MPD2    C1 9634   3.630   4.467  10.543 -0.1119 -0.7210  0.0838
  651MPD2    C2 9635   3.763   4.513  10.535 -0.0325  0.0874  0.0511
  651MPD2    C3 9636   3.838   4.508  10.419  0.1348 -0.0815  0.1800
  651MPD2    C4 9637   3.773   4.456  10.309 -0.4158 -0.1494  0.4309
  651MPD2    C5 9638   3.640   4.410  10.315 -0.0967 -0.2231  0.6879
  651MPD2     H 9639   3.822   4.541  10.622 -1.3944  1.4535  0.5372
  651MPD2    H1 9640   3.830   4.441  10.218  1.2839  1.5248  1.2179
  651MPD2    H2 9641   3.463   4.396  10.417 -0.1347  0.9161  1.9319
  651MPD2    H3 9642   3.590   4.361  10.233 -0.9435  0.6791  0.6577
  651MPD2     N 9643   3.971   4.553  10.421  0.0785  0.1590  0.1754
  651MPD2    H5 9644   4.005   4.602  10.503  1.7057  0.2791 -0.5692
  651MPD2    N1 9645   3.567   4.473  10.667  0.3205 -0.3051 -0.2553
  651MPD2    H7 9646   3.613   4.528  10.738  0.8113  0.9229 -1.5288
  652TMC3    C1 9647   4.405   4.622  10.359  0.4827  0.7363  0.7756
  652TMC3    C2 9648   4.291   4.571  10.304 -0.1287  0.1735 -0.1681
  652TMC3    C3 9649   4.179   4.629  10.347 -0.3877 -0.1852 -0.5799
  652TMC3    C4 9650   4.400   4.706  10.463  0.6588  0.2706  0.3078
  652TMC3    C5 9651   4.282   0.039  10.505  0.5079 -0.1337  0.3128
  652TMC3    C6 9652   4.166   4.717  10.447  0.5916  0.2206 -0.0190
  652TMC3     C 9653   4.531   4.570  10.321 -0.0844  0.2454 -0.2600
  652TMC3     O 9654   4.618   4.651  10.295 -0.0759 -0.4689  0.3168
  652TMC3     H 9655   4.297   4.481  10.244  2.5457 -0.6925  1.3855
  652TMC3    H1 9656   4.495   0.015  10.508  0.8183 -0.5667  0.5297
  652TMC3    H2 9657   4.077   0.050  10.478  0.7808 -0.4116  1.5906
  652TMC3    C7 9658   4.280   0.133  10.613 -0.1833 -0.3633  0.1172
  652TMC3    C8 9659   4.069   4.538  10.331 -0.1464 -0.1610 -0.1444
  652TMC3    O1 9660   4.182   0.133  10.687 -0.4341 -0.1408 -0.3846
  652TMC3    O2 9661   4.073   4.449  10.249  0.0451 -0.4439 -0.1892
  653MPD2     C 9662   3.261   4.129   0.014  0.2114 -0.7176 -0.8184
  653MPD2    C1 9663   3.244   4.234  17.612  0.3702 -0.4221  0.2014
  653MPD2    C2 9664   3.161   4.221  17.504 -0.4327 -0.0061  0.0106
  653MPD2    C3 9665   3.110   4.099  17.466 -0.0564 -0.3330  0.9394
  653MPD2    C4 9666   3.132   3.992  17.551  0.0317 -0.4221  0.1104
  653MPD2    C5 9667   3.209   4.009  17.662  0.6110  0.0435 -0.0094
  653MPD2     H 9668   3.137   4.302  17.435 -1.1667 -0.2063  0.0261
  653MPD2    H1 9669   3.081   3.896  17.548 -0.9991  0.1371 -0.3628
  653MPD2    H2 9670   3.329   4.124   0.099 -1.4211  0.0727  0.5290
  653MPD2    H3 9671   3.231   3.923   0.039 -0.2795 -0.3864 -0.2912
  653MPD2     N 9672   3.019   4.083  17.357  0.1312  0.4166 -0.5785
  653MPD2    H5 9673   2.995   4.167  17.304  0.5821  0.9662  0.0928
  653MPD2    N1 9674   3.301   4.356  17.628 -0.2251  0.0013 -0.4707
  653MPD2    H7 9675   3.300   4.418  17.548  0.5528 -0.4778 -0.8523
  654TMC3    C1 9676   2.906   3.984  17.178 -0.9899  0.7630  0.1301
  654TMC3    C2 9677   2.853   4.106  17.152 -0.2993 -0.2764 -0.1424
  654TMC3    C3 9678   2.811   4.137  17.026 -0.2487 -0.3339 -0.6823
  654TMC3    C4 9679   2.920   3.884  17.085  0.4686  0.2559  0.4544
  654TMC3    C5 9680   2.883   3.913  16.960  0.4039  0.1945 -0.2341
  654TMC3    C6 9681   2.831   4.040  16.934 -0.5314  0.7056  0.3971
  654TMC3     C 9682   2.971   3.969  17.302 -0.4396  0.3326  0.2984
  654TMC3     O 9683   2.989   3.854  17.344 -0.7504 -0.1511  0.0382
  654TMC3     H 9684   2.822   4.182  17.223 -1.0502  0.6223 -1.4366
  654TMC3    H1 9685   2.963   3.791  17.120  0.3182 -0.8827 -2.3635
  654TMC3    H2 9686   2.822   4.063  16.829 -0.2950 -0.2947  0.1543
  654TMC3    C7 9687   2.919   3.829  16.854  0.5514 -0.6426  0.4686
  654TMC3    C8 9688   2.725   4.252  17.010  0.2691 -0.5210  0.1505
  654TMC3    O1 9689   2.892   3.871  16.743  0.3369 -0.2923 -0.4563
  654TMC3    O2 9690   2.724   4.343  17.091 -0.1501 -0.7285  0.6381
  655MPD2     C 9691   3.935   4.221  15.414 -0.7366  0.1579 -0.4139
  655MPD2    C1 9692   3.838   4.317  15.390  0.1615  0.2525  0.1053
  655MPD2    C2 9693   3.749   4.301  15.292  0.1262  0.1688 -0.2357
  655MPD2    C3 9694   3.770   4.199  15.203  0.4011  0.5848  0.1504
  655MPD2    C4 9695   3.873   4.109  15.218 -0.2816  0.5657  0.1561
  655MPD2    C5 9696   3.950   4.122  15.324  1.0063  0.1576  0.3161
  655MPD2     H 9697   3.677   4.378  15.268  1.7636  3.0073  3.8852
  655MPD2    H1 9698   3.896   4.038  15.139 -2.4434 -1.4698  1.3687
  655MPD2    H2 9699   4.007   4.231  15.495 -1.0791 -0.1970 -0.0623
  655MPD2    H3 9700   4.028   4.048  15.334  1.8763  1.1300  0.8092
  655MPD2     N 9701   3.687   4.187  15.082  0.4160  0.1712  0.1673
  655MPD2    H5 9702   3.723   4.144  14.998  1.5727  1.0223  0.2253
  655MPD2    N1 9703   3.825   4.430  15.478  0.1597  0.0272 -0.6090
  655MPD2    H7 9704   3.735   4.475  15.485  0.6848  0.9558  0.2676
  656TMC3    C1 9705   3.871   4.599  15.635 -0.7517 -0.1316  0.0928
  656TMC3    C2 9706   3.908   4.595  15.771 -0.2979  0.1026  0.1771
  656TMC3    C3 9707   3.830   4.681  15.841  0.0994  0.4483 -0.0308
  656TMC3    C4 9708   3.800   4.699  15.566 -0.0259  0.0859  0.1309
  656TMC3    C5 9709   3.747   0.070  15.647 -0.1453  0.7081  0.2909
  656TMC3    C6 9710   3.759   0.065  15.787 -0.2114 -0.0371 -0.1664
  656TMC3     C 9711   3.919   4.476  15.565 -0.4012 -0.3821 -0.2568
  656TMC3     O 9712   4.030   4.426  15.587  0.1383  0.8409  0.0343
  656TMC3     H 9713   3.944   4.500  15.809 -0.3002  0.4238  0.9801
  656TMC3    H1 9714   3.770   4.684  15.463  1.4657 -1.2711 -0.1043
  656TMC3    H2 9715   3.694   0.128  15.847 -1.6673 -2.4938  0.8122
  656TMC3    C7 9716   3.628   0.132  15.592  0.6284 -0.0538 -0.4500
  656TMC3    C8 9717   3.775   4.624  15.957 -1.2240 -0.3529 -0.0310
  656TMC3    O1 9718   3.645   0.162  15.474  0.4012  0.0974  0.0741
  656TMC3    O2 9719   3.750   4.504  15.951 -0.2158  0.1335  0.2883
  657TMC3    C1 9720   2.947   3.417  15.179 -0.4281  0.2163  0.0853
  657TMC3    C2 9721   3.076   3.432  15.223  0.8793 -0.6023 -0.8878
  657TMC3    C3 9722   3.100   3.503  15.339 -0.8768  0.7158 -0.2082
  657TMC3    C4 9723   2.841   3.476  15.239  0.3305 -0.4668 -0.5633
  657TMC3    C5 9724   2.861   3.532  15.357  0.4606  0.6369  0.1313
  657TMC3    C6 9725   2.991   3.534  15.414 -0.8792 -0.2761  0.2488
  657TMC3     C 9726   2.923   3.331  15.060  0.1580 -0.3752  0.6136
  657TMC3     O 9727   2.814   3.282  15.052  0.3392 -0.1230 -0.2690
  657TMC3     H 9728   3.156   3.386  15.166 -0.3330 -0.5556 -2.6372
  657TMC3    H1 9729   2.745   3.487  15.189 -0.3608 -3.0527  0.2313
  657TMC3    H2 9730   3.011   3.572  15.514  1.9208  1.4177 -0.9458
  657TMC3    C7 9731   2.744   3.561  15.442  0.5850  0.1713  0.0013
  657TMC3    C8 9732   3.230   3.568  15.364  0.3377  0.1760 -0.5685
  657TMC3    O1 9733   2.632   3.525  15.402 -0.0217  0.1262 -0.4129
  657TMC3    O2 9734   3.214   3.651  15.453  0.9820  0.6303  0.4435
  658MPD2     C 9735   3.915   3.980  14.537 -0.0592 -0.0433 -0.4194
  658MPD2    C1 9736   3.813   4.066  14.512  0.8484 -0.0275  0.1786
  658MPD2    C2 9737   3.815   4.128  14.389  0.0573 -0.1262 -0.5915
  658MPD2    C3 9738   3.917   4.116  14.294 -0.7349  0.4583 -0.0808
  658MPD2    C4 9739   4.024   4.025  14.321  0.1993 -0.5110  0.4721
  658MPD2    C5 9740   4.018   3.960  14.445 -0.0523 -0.9924 -0.1886
  658MPD2     H 9741   3.738   4.202  14.370  1.0054  1.4179  1.5922
  658MPD2    H1 9742   4.106   4.013  14.252 -0.7304 -2.0960 -0.3596
  658MPD2    H2 9743   3.924   3.924  14.629 -0.2434  0.8650  0.1471
  658MPD2    H3 9744   4.103   3.902  14.480  1.6045  1.6900  0.1829
  658MPD2     N 9745   3.910   4.197  14.178 -0.0892 -0.5615  0.1675
  658MPD2    H5 9746   3.824   4.248  14.158  0.6363  0.1218 -1.2619
  658MPD2    N1 9747   3.727   4.107  14.624  0.3909 -0.3656  0.1423
  658MPD2    H7 9748   3.752   4.055  14.708  2.8130  0.3123 -0.1418
  659TMC3    C1 9749   3.524   4.185  14.714 -0.8975 -0.0276 -0.0298
  659TMC3    C2 9750   3.580   4.206  14.832 -0.2863  0.1118 -0.2665
  659TMC3    C3 9751   3.495   4.211  14.941 -0.0686  0.4741  0.1002
  659TMC3    C4 9752   3.389   4.148  14.705 -0.1819  0.3210 -1.0742
  659TMC3    C5 9753   3.309   4.142  14.819  0.4984 -0.1007 -0.3176
  659TMC3    C6 9754   3.363   4.170  14.941  0.1417  0.4224  0.3646
  659TMC3     C 9755   3.604   4.167  14.597 -0.2442 -0.0257  0.3463
  659TMC3     O 9756   3.555   4.204  14.491  0.1163 -0.2507  0.3392
  659TMC3     H 9757   3.681   4.246  14.833 -0.4436  0.5007 -0.0507
  659TMC3    H1 9758   3.346   4.127  14.607 -1.4715  0.4222 -0.5313
  659TMC3    H2 9759   3.297   4.187  15.025 -1.3493 -3.1708 -0.0474
  659TMC3    C7 9760   3.171   4.097  14.815 -0.0369  0.4016  0.6391
  659TMC3    C8 9761   3.559   4.235  15.071  0.7055  0.7865 -0.3445
  659TMC3    O1 9762   3.112   4.113  14.922 -0.1323 -0.6105  0.6198
  659TMC3    O2 9763   3.482   4.265  15.158 -0.4342 -0.4709  0.6632
  660MPD2     C 9764   2.474   2.978  12.518  0.0750 -0.4785  0.9394
  660MPD2    C1 9765   2.342   3.013  12.517  0.0368  0.5748  0.6073
  660MPD2    C2 9766   2.264   2.977  12.629 -0.3164 -0.8649  0.7788
  660MPD2    C3 9767   2.314   2.906  12.734 -0.0466  0.0036 -1.0941
  660MPD2    C4 9768   2.451   2.870  12.724  0.2353  0.2551  0.2657
  660MPD2    C5 9769   2.529   2.914  12.626  0.7005 -0.2677  0.1835
  660MPD2     H 9770   2.163   3.016  12.635  0.0713  0.0522  1.3523
  660MPD2    H1 9771   2.491   2.807  12.803 -0.2484 -2.3496 -1.6003
  660MPD2    H2 9772   2.536   3.013  12.436 -0.9908 -2.2749 -0.6316
  660MPD2    H3 9773   2.638   2.919  12.630  0.6714  0.8206 -0.5163
  660MPD2     N 9774   2.245   2.865  12.845 -0.2220  0.0534 -0.1509
  660MPD2    H5 9775   2.298   2.811  12.912 -0.4307 -0.8436 -0.7073
  660MPD2    N1 9776   2.299   3.096  12.412  0.4996  0.6151  0.3241
  660MPD2    H7 9777   2.373   3.116  12.346  0.9227 -1.1050  0.2632
  661TMC3    C1 9778   2.159   3.184  12.250 -0.2438 -0.8720  0.1135
  661TMC3    C2 9779   2.233   3.124  12.157 -0.0947 -0.8237  0.1003
  661TMC3    C3 9780   2.205   3.145  12.028  0.2900  0.3417  0.7430
  661TMC3    C4 9781   2.046   3.252  12.220  0.3958  0.4038  0.2603
  661TMC3    C5 9782   2.021   3.271  12.086  0.2096 -0.4845  0.7672
  661TMC3    C6 9783   2.097   3.219  11.983 -0.2695 -0.5618 -0.8384
  661TMC3     C 9784   2.173   3.150  12.392 -0.1700 -0.1169  0.0164
  661TMC3     O 9785   2.080   3.157  12.470 -0.1391  1.0136 -0.1169
  661TMC3     H 9786   2.321   3.066  12.181  0.7441 -0.4901 -2.1887
  661TMC3    H1 9787   1.985   3.296  12.299  2.5640  3.9306 -0.0336
  661TMC3    H2 9788   2.076   3.243  11.880  1.3590 -0.6971 -1.2114
  661TMC3    C7 9789   1.900   3.347  12.050  0.3200 -0.2154 -0.7380
  661TMC3    C8 9790   2.313   3.109  11.936  0.0554 -0.0800  0.4368
  661TMC3    O1 9791   1.867   3.433  12.128 -0.0954 -0.4998  0.1321
  661TMC3    O2 9792   2.352   2.992  11.939  0.8080 -0.0075 -0.4324
  662MPD2     C 9793   3.084   2.402   0.481  0.6372  0.3491  0.0923
  662MPD2    C1 9794   3.070   2.431   0.350 -0.3982  0.2318  0.6036
  662MPD2    C2 9795   2.977   2.526   0.304 -0.4293  0.1010  0.3182
  662MPD2    C3 9796   2.885   2.584   0.386  0.1412 -0.0243  0.1056
  662MPD2    C4 9797   2.897   2.547   0.521 -0.6017  0.2704  0.1445
  662MPD2    C5 9798   2.986   2.453   0.564  0.2448 -0.3260 -0.0481
  662MPD2     H 9799   2.987   2.555   0.199  0.2591 -2.3543 -0.2903
  662MPD2    H1 9800   2.821   2.581   0.591  0.1478 -1.2404  1.6787
  662MPD2    H2 9801   3.160   2.344   0.532  0.3062  2.0478  2.4698
  662MPD2    H3 9802   2.984   2.419   0.667 -0.8139  2.1067  0.7216
  662MPD2     N 9803   2.789   2.684   0.346 -0.3418 -0.4443  0.0608
  662MPD2    H5 9804   2.721   2.702   0.419  1.1314  0.3184  1.2438
  662MPD2    N1 9805   3.153   2.369   0.254  0.0128  0.7582 -0.3948
  662MPD2    H7 9806   3.142   2.394   0.156  1.0009 -0.8051 -0.9002
  663TMC3    C1 9807   3.253   2.166   0.171 -0.3676  0.2035  0.0621
  663TMC3    C2 9808   3.325   2.059   0.204  0.3582  0.4884 -0.6827
  663TMC3    C3 9809   3.284   1.930   0.193 -0.2884  0.1226  0.0500
  663TMC3    C4 9810   3.143   2.146   0.100  0.6635  0.6945 -0.3108
  663TMC3    C5 9811   3.096   2.020   0.080 -0.5796  0.1007 -0.3034
  663TMC3    C6 9812   3.168   1.907   0.120 -0.3196 -0.2367 -0.5520
  663TMC3     C 9813   3.236   2.261   0.275 -0.1711  0.4242  0.2155
  663TMC3     O 9814   3.287   2.227   0.379 -0.1702  0.3238  0.5556
  663TMC3     H 9815   3.410   2.079   0.269 -1.2523  0.0060  1.5693
  663TMC3    H1 9816   3.067   2.221   0.081 -0.7807 -0.7647 -0.3688
  663TMC3    H2 9817   3.131   1.806   0.123 -0.5990 -0.1463 -0.9617
  663TMC3    C7 9818   2.954   2.000   0.048  0.9703 -0.4809  0.4311
  663TMC3    C8 9819   3.277   1.863   0.319 -0.1530  0.2491  0.5027
  663TMC3    O1 9820   2.875   2.094   0.060 -0.8136  0.3099  0.5926
  663TMC3    O2 9821   3.236   1.752   0.309 -0.6739  0.1582 -0.7718
  664MPD2     C 9822   1.041   0.699  17.557 -0.3121  0.7400  0.6434
  664MPD2    C1 9823   1.127   0.807  17.544  0.6009  0.8718  0.3877
  664MPD2    C2 9824   1.185   0.850  17.660  0.3730 -0.0778 -1.0170
  664MPD2    C3 9825   1.163   0.788   0.100 -0.0778 -0.2315 -0.2831
  664MPD2    C4 9826   1.081   0.682   0.110  0.2064 -0.0063 -0.2507
  664MPD2    C5 9827   1.017   0.645  17.683 -0.0913 -0.2450  0.0238
  664MPD2     H 9828   1.249   0.937  17.668  0.0591 -0.2031  2.9696
  664MPD2    H1 9829   1.073   0.619   0.198  2.7324 -0.9534 -0.6920
  664MPD2    H2 9830   0.994   0.652  17.471 -0.1593  1.5275  0.1260
  664MPD2    H3 9831   0.947   0.562   0.005 -1.0047  0.4770 -0.4613
  664MPD2     N 9832   1.221   0.844   0.217 -0.0957  0.4888 -0.4337
  664MPD2    H5 9833   1.289   0.917   0.198  0.0758  0.6088  0.6120
  664MPD2    N1 9834   1.149   0.873  17.420 -0.2651 -0.1164  0.2980
  664MPD2    H7 9835   1.207   0.957  17.423  0.3324 -0.5872  1.6857
  665TMC3    C1 9836   1.287   0.851   0.446 -0.5225 -0.3058  0.2270
  665TMC3    C2 9837   1.295   0.785   0.565 -0.0203 -0.6019  0.1328
  665TMC3    C3 9838   1.352   0.853   0.676  0.2816 -0.5466  0.4530
  665TMC3    C4 9839   1.316   0.987   0.434  0.4856  0.3199 -0.1405
  665TMC3    C5 9840   1.359   1.048   0.547 -0.1757  0.3556  0.1380
  665TMC3    C6 9841   1.381   0.985   0.670 -0.1366  0.2225  0.0499
  665TMC3     C 9842   1.222   0.778   0.342 -0.0584  0.2164 -0.2740
  665TMC3     O 9843   1.205   0.663   0.358  0.0627 -0.0292  0.1098
  665TMC3     H 9844   1.262   0.682   0.572 -0.7375 -0.4099 -0.4228
  665TMC3    H1 9845   1.318   1.048   0.344  0.6635  1.3324  0.5460
  665TMC3    H2 9846   1.416   1.042   0.755 -1.2552  0.5737  0.2818
  665TMC3    C7 9847   1.358   1.193   0.543 -0.4103  0.7451  0.0539
  665TMC3    C8 9848   1.337   0.800   0.812 -0.1872  0.1810 -0.5682
  665TMC3    O1 9849   1.407   1.251   0.442  0.5501  0.3002  0.5370
  665TMC3    O2 9850   1.395   0.859   0.899  1.0863 -0.2517  0.4608
  666TMC3    C1 9851   0.201   0.959   9.832 -0.4380 -0.2280  0.5013
  666TMC3    C2 9852   0.281   0.895   9.921  0.0661 -0.2465  0.2036
  666TMC3    C3 9853   0.353   0.975  10.005 -0.7530 -0.0908  0.1260
  666TMC3    C4 9854   0.204   1.093   9.825  0.2317  0.5368 -0.6294
  666TMC3    C5 9855   0.260   1.171   9.927  0.2841  0.0464 -0.4890
  666TMC3    C6 9856   0.332   1.105  10.025  0.4512 -0.4281 -0.2225
  666TMC3     C 9857   0.126   0.877   9.733  0.4673  0.2961  0.3900
  666TMC3     O 9858   0.052   0.925   9.648  0.1953 -0.4920 -0.0333
  666TMC3     H 9859   0.282   0.789   9.939 -1.2292 -0.2033  0.5447
  666TMC3    H1 9860   0.145   1.142   9.748 -1.1168  1.7678  1.1893
  666TMC3    H2 9861   0.366   1.154  10.116 -0.7266  0.7631 -0.4213
  666TMC3    C7 9862   0.185   1.291   9.972  0.8174  1.3932 -1.2646
  666TMC3    C8 9863   0.424   0.901  10.104 -0.2934  0.4490 -0.0655
  666TMC3    O1 9864   0.210   1.339  10.079 -0.0750  0.2859  0.0557
  666TMC3    O2 9865   0.404   0.786  10.122  0.0757 -0.2983 -0.1715
  667MPD2     C 9866   1.448   0.908  15.227  0.2285  0.3195 -0.0939
  667MPD2    C1 9867   1.431   1.029  15.154  0.1206 -0.3089 -0.1335
  667MPD2    C2 9868   1.347   1.037  15.048  0.3968 -0.3774  0.1125
  667MPD2    C3 9869   1.282   0.925  15.016 -0.2348 -0.3894 -0.4598
  667MPD2    C4 9870   1.314   0.806  15.076  0.1439 -0.7327  0.6728
  667MPD2    C5 9871   1.386   0.796  15.189 -0.8378  0.1403 -0.2833
  667MPD2     H 9872   1.341   1.129  14.990  1.9140  0.8269  1.8560
  667MPD2    H1 9873   1.268   0.715  15.038 -0.4943  0.1880 -0.7582
  667MPD2    H2 9874   1.513   0.893  15.313 -0.3072 -0.6156  0.1409
  667MPD2    H3 9875   1.394   0.705  15.247 -4.8403 -1.5216 -2.3822
  667MPD2     N 9876   1.207   0.904  14.896  0.1122 -0.0312 -0.6268
  667MPD2    H5 9877   1.169   0.811  14.887 -1.1086  0.4799 -0.7504
  667MPD2    N1 9878   1.505   1.146  15.184 -0.8502 -0.2311 -1.2419
  667MPD2    H7 9879   1.500   1.229  15.125  1.5302  0.6715 -0.2079
  668TMC3    C1 9880   1.632   1.294  15.308 -0.3883 -0.2269  0.0666
  668TMC3    C2 9881   1.685   1.355  15.197 -0.4407  0.2503  0.1987
  668TMC3    C3 9882   1.792   1.439  15.223  0.2545 -0.5832  0.5237
  668TMC3    C4 9883   1.673   1.321  15.438 -0.5083 -0.0852  0.2312
  668TMC3    C5 9884   1.773   1.410  15.450 -0.1115 -0.0189 -0.1170
  668TMC3    C6 9885   1.835   1.475  15.344 -0.5328 -0.4631 -0.0985
  668TMC3     C 9886   1.563   1.171  15.305 -0.2192  0.3082 -1.0067
  668TMC3     O 9887   1.570   1.099  15.406 -0.2313  0.4645 -0.0363
  668TMC3     H 9888   1.657   1.327  15.096  0.4255 -0.2272  0.0877
  668TMC3    H1 9889   1.645   1.258  15.522 -1.7866 -1.4164 -1.1835
  668TMC3    H2 9890   1.914   1.549  15.353  1.3468 -2.4404 -0.3629
  668TMC3    C7 9891   1.810   1.441  15.588  0.5275 -0.3738 -0.0396
  668TMC3    C8 9892   1.857   1.511  15.110  0.0873 -0.4317  0.5952
  668TMC3    O1 9893   1.766   1.368  15.678  0.5308 -0.4322  0.2593
  668TMC3    O2 9894   1.910   1.615  15.146  0.0751  0.1137  0.3214
  669TMC3    C1 9895   4.298   0.820  14.495 -0.3381 -0.1686 -0.1825
  669TMC3    C2 9896   4.173   0.820  14.441  0.6362 -0.0886 -0.0391
  669TMC3    C3 9897   4.154   0.886  14.319 -0.4670  0.3926 -0.5323
  669TMC3    C4 9898   4.401   0.882  14.433 -0.2737  0.1036 -0.3212
  669TMC3    C5 9899   4.388   0.937  14.312 -0.1116 -0.2149 -0.2668
  669TMC3    C6 9900   4.263   0.935  14.250  0.4030  0.2117 -0.3700
  669TMC3     C 9901   4.326   0.709  14.580 -0.0867 -0.2163  0.0988
  669TMC3     O 9902   4.234   0.675  14.652  0.7791 -0.1707 -0.6223
  669TMC3     H 9903   4.090   0.781  14.498  2.4180  1.2440  3.4480
  669TMC3    H1 9904   4.492   0.896  14.490 -0.1725 -2.4696  0.1313
  669TMC3    H2 9905   4.243   0.972  14.151 -0.6545  1.7107  0.3975
  669TMC3    C7 9906   4.491   1.037  14.277 -0.2036 -0.5446  0.5544
  669TMC3    C8 9907   4.021   0.906  14.267  0.2538  0.5359 -0.5139
  669TMC3    O1 9908   4.568   1.081  14.359  0.0596  0.5348 -0.0578
  669TMC3    O2 9909   3.937   0.833  14.318 -0.1163  0.0321  0.2182
  670MPD2     C 9910   2.337   3.900  13.255 -0.3998 -0.7571  0.3244
  670MPD2    C1 9911   2.438   3.881  13.349 -0.7195  0.2356  0.3570
  670MPD2    C2 9912   2.418   3.806  13.461  0.0557 -0.0187 -1.3604
  670MPD2    C3 9913   2.303   3.740  13.479 -0.1696  0.0983  0.2343
  670MPD2    C4 9914   2.197   3.754  13.389  0.0465  0.6845  0.3669
  670MPD2    C5 9915   2.217   3.839  13.276  0.1650  0.3777  0.7560
  670MPD2     H 9916   2.502   3.803  13.530  0.2139  0.2366 -1.5393
  670MPD2    H1 9917   2.104   3.698  13.398  0.5577  0.2456  2.8672
  670MPD2    H2 9918   2.354   3.956  13.163  1.8972  0.9120  1.7891
  670MPD2    H3 9919   2.144   3.864  13.200  2.3340  0.1532 -1.3941
  670MPD2     N 9920   2.299   3.659  13.595 -0.1099 -0.1593 -0.0762
  670MPD2    H5 9921   2.385   3.663  13.648  0.2808 -2.0234 -0.5694
  670MPD2    N1 9922   2.566   3.935  13.329  0.0804 -0.2086  0.3651
  670MPD2    H7 9923   2.640   3.916  13.396 -0.8626 -0.0505  1.4524
  671TMC3    C1 9924   2.230   3.499  13.757  0.2662  0.4942 -0.7910
  671TMC3    C2 9925   2.359   3.503  13.804 -0.5367  0.8895  0.4628
  671TMC3    C3 9926   2.383   3.426  13.913  1.1075  0.5021 -0.1563
  671TMC3    C4 9927   2.124   3.438  13.824 -0.2785  0.7514  0.5851
  671TMC3    C5 9928   2.163   3.360  13.933  0.8550  0.3250  0.4309
  671TMC3    C6 9929   2.285   3.361  13.983  1.3127  0.0912  0.0808
  671TMC3     C 9930   2.203   3.566  13.630 -0.3768  0.0084  0.7088
  671TMC3     O 9931   2.097   3.532  13.580 -0.0979 -0.0132  0.1058
  671TMC3     H 9932   2.443   3.540  13.747  0.5462 -0.8501  0.9327
  671TMC3    H1 9933   2.023   3.431  13.786  0.6516 -1.4896 -1.4228
  671TMC3    H2 9934   2.323   3.302  14.066  3.4100 -0.0157 -0.9586
  671TMC3    C7 9935   2.066   3.264  13.976 -0.1035  0.5617  0.2773
  671TMC3    C8 9936   2.515   3.391  13.957  0.2822 -0.0876 -0.3349
  671TMC3    O1 9937   2.008   3.208  13.883  0.4494  0.3561  0.3742
  671TMC3    O2 9938   2.541   3.331  14.055  0.2434  0.5348 -0.2724
  672MPD2     C 9939   2.605   3.589   0.905 -0.0506 -0.0148 -0.5967
  672MPD2    C1 9940   2.697   3.679   0.853  0.6437  0.1168 -0.0104
  672MPD2    C2 9941   2.767   3.754   0.942 -0.0741  0.0040  0.2227
  672MPD2    C3 9942   2.759   3.731   1.082  0.4993  0.1876 -0.4844
  672MPD2    C4 9943   2.671   3.638   1.133 -0.3105 -1.0191  0.0304
  672MPD2    C5 9944   2.598   3.569   1.039 -0.2543 -0.3427 -0.1667
  672MPD2     H 9945   2.840   3.822   0.900 -0.4233  0.9058  1.0663
  672MPD2    H1 9946   2.658   3.617   1.238 -1.0263 -1.1238 -0.0769
  672MPD2    H2 9947   2.554   3.520   0.838  2.8647 -2.4910 -0.2710
  672MPD2    H3 9948   2.520   3.500   1.068 -0.7584  0.1546 -0.3151
  672MPD2     N 9949   2.847   3.795   1.177 -0.2371 -0.3042  0.0065
  672MPD2    H5 9950   2.863   3.760   1.271  1.6157 -0.7014 -0.4434
  672MPD2    N1 9951   2.708   3.701   0.713  0.4690 -0.4296 -0.1378
  672MPD2    H7 9952   2.775   3.770   0.680 -0.2586  0.3953  0.1217
  673TMC3    C1 9953   2.696   3.641   0.485  0.4409 -0.1169  0.4282
  673TMC3    C2 9954   2.781   3.541   0.445  0.0988 -0.5373  0.4552
  673TMC3    C3 9955   2.874   3.580   0.351 -0.6901 -0.0001  0.1228
  673TMC3    C4 9956   2.688   3.768   0.439 -0.2029  0.3082  0.7752
  673TMC3    C5 9957   2.769   3.795   0.326  0.6455  0.0394 -0.3300
  673TMC3    C6 9958   2.860   3.702   0.282  0.1145 -0.7430 -0.1818
  673TMC3     C 9959   2.649   3.616   0.619 -0.3251  0.1729 -0.6441
  673TMC3     O 9960   2.573   3.520   0.631 -0.2613 -0.2038  0.6241
  673TMC3     H 9961   2.796   3.453   0.506  1.1660 -0.6795 -0.0061
  673TMC3    H1 9962   2.616   3.836   0.485 -0.2891  1.1092 -0.5462
  673TMC3    H2 9963   2.926   3.732   0.201  0.2506 -0.0152  0.2007
  673TMC3    C7 9964   2.803   3.940   0.321 -0.0535  0.4504 -0.1353
  673TMC3    C8 9965   2.984   3.495   0.326 -0.3883 -0.9204  0.0608
  673TMC3    O1 9966   2.808   4.002   0.427 -0.1309 -0.4315  0.3368
  673TMC3    O2 9967   3.056   3.537   0.237  0.1177 -0.3682 -0.2242
  674MPD2     C 9968   2.721   3.397   0.117  1.3482 -0.3413  0.1487
  674MPD2    C1 9969   2.673   3.330   0.229 -0.9074  0.4831  0.1122
  674MPD2    C2 9970   2.559   3.374   0.291 -0.9657 -0.3579  0.5098
  674MPD2    C3 9971   2.504   3.495   0.250  0.1752 -0.4099 -0.8723
  674MPD2    C4 9972   2.554   3.558   0.142 -0.1483 -0.0744  0.3900
  674MPD2    C5 9973   2.658   3.508   0.072  0.6424 -0.7247 -0.2372
  674MPD2     H 9974   2.518   3.332   0.382 -1.6978 -1.2308 -0.2324
  674MPD2    H1 9975   2.511   3.652   0.107  0.5662  0.6198  1.3758
  674MPD2    H2 9976   2.806   3.356   0.063  1.5657  0.1562  0.1178
  674MPD2    H3 9977   2.696   3.551  17.666  2.4713  0.3807  1.0385
  674MPD2     N 9978   2.401   3.549   0.328  0.6322 -0.1158 -0.7618
  674MPD2    H5 9979   2.353   3.488   0.393  1.8970  0.9726  1.1793
  674MPD2    N1 9980   2.764   3.231   0.282  0.3394 -0.0895 -0.1719
  674MPD2    H7 9981   2.855   3.220   0.238  0.3530 -2.4630  0.4461
  675TMC3    C1 9982   2.846   3.075   0.422 -0.3999  0.3557  0.6216
  675TMC3    C2 9983   2.885   3.077   0.552 -0.4787 -0.1085 -0.3831
  675TMC3    C3 9984   3.011   3.030   0.584  0.2979 -0.3535 -0.1401
  675TMC3    C4 9985   2.926   3.017   0.326 -0.2374  0.0560 -0.7150
  675TMC3    C5 9986   3.036   2.949   0.365 -0.2095 -0.5218 -0.3655
  675TMC3    C6 9987   3.083   2.959   0.495  0.2069 -0.1204  0.4633
  675TMC3     C 9988   2.737   3.162   0.392  0.0025 -0.2934  0.0156
  675TMC3     O 9989   2.633   3.153   0.454 -0.3249 -0.4934 -0.0584
  675TMC3     H 9990   2.835   3.144   0.621  0.2169  0.0119  0.0084
  675TMC3    H1 9991   2.894   3.012   0.222  1.4682  1.2357 -1.2982
  675TMC3    H2 9992   3.181   2.924   0.525  0.8302  1.4473  0.2461
  675TMC3    C7 9993   3.125   2.897   0.266 -0.4337  0.2571 -0.1885
  675TMC3    C8 9994   3.053   3.052   0.719 -0.2391 -0.9774 -0.0018
  675TMC3    O1 9995   3.120   2.953   0.161  0.6193 -0.2973  0.1895
  675TMC3    O2 9996   3.010   3.154   0.767 -0.0094 -0.2414 -0.0060
  676MPD2     C 9997   0.194   2.121  11.064 -0.0078  0.7318  0.6463
  676MPD2    C1 9998   0.144   2.047  11.165 -0.8219  0.4189  0.3835
  676MPD2    C2 9999   0.197   1.925  11.190  0.1176  0.1765 -0.6048
  676MPD2    C310000   0.288   1.870  11.098  0.5255  0.0550  0.2788
  676MPD2    C410001   0.318   1.946  10.981  0.2664 -0.1391  0.3553
  676MPD2    C510002   0.272   2.074  10.966 -0.3326 -0.0870 -0.4820
  676MPD2     H10003   0.177   1.884  11.288 -0.2360 -0.0031 -0.7549
  676MPD2    H110004   0.397   1.908  10.918 -0.5530 -0.0212 -0.7507
  676MPD2    H210005   0.159   2.222  11.048 -0.1754  0.6560  0.5306
  676MPD2    H310006   0.307   2.133  10.883  1.9505  0.6844  1.0242
  676MPD2     N10007   0.322   1.730  11.104 -0.2203  0.5667 -0.0247
  676MPD2    H510008   0.399   1.700  11.046  0.3650  0.8331  0.6128
  676MPD2    N110009   0.049   2.094  11.263 -0.8070  0.0906 -0.0378
  676MPD2    H710010   0.011   2.027  11.329 -1.2771  1.9650  1.6362
  677TMC3    C110011   4.608   2.204  11.370  0.6952 -0.1693  0.2801
  677TMC3    C210012   4.553   2.087  11.412 -0.3988 -0.0255  0.1235
  677TMC3    C310013   4.534   2.075  11.545  0.2490  0.0201  0.4516
  677TMC3    C410014   4.628   2.317  11.449 -0.3107  0.1358  0.4714
  677TMC3    C510015   4.597   2.297  11.580  0.0231 -0.1690 -0.2027
  677TMC3    C610016   4.536   2.186  11.628  0.3664  0.6600 -0.2461
  677TMC3     C10017   4.706   2.210  11.267 -1.0659 -0.6168 -0.3535
  677TMC3     O10018   0.003   2.309  11.200 -0.1295 -0.2193  0.3697
  677TMC3     H10019   4.550   1.996  11.353  2.3242 -1.1015  1.6313
  677TMC3    H110020   4.690   2.393  11.403  1.3898  0.2112  2.8502
  677TMC3    H210021   4.527   2.174  11.735 -3.3505  2.0399 -0.4235
  677TMC3    C710022   4.679   2.365  11.680 -0.4165  0.2328 -0.7398
  677TMC3    C810023   4.622   1.977  11.589 -0.5783  0.9586 -0.0935
  677TMC3    O110024   4.660   2.361  11.800  0.0673 -0.8690  0.4111
  677TMC3    O210025   0.003   1.949  11.523  0.7360  0.4133 -0.0209
  678MPD2     C10026   2.164   2.265   1.614  0.3124 -0.9617 -0.8426
  678MPD2    C110027   2.197   2.136   1.581 -0.3331 -0.7418 -0.3275
  678MPD2    C210028   2.097   2.057   1.524  0.2535 -0.0433 -0.5944
  678MPD2    C310029   1.973   2.112   1.490  0.1169 -0.6710 -0.2776
  678MPD2    C410030   1.951   2.246   1.517  0.1366 -0.3245  1.2870
  678MPD2    C510031   2.044   2.318   1.583 -0.0826  0.3864 -0.1126
  678MPD2     H10032   2.130   1.958   1.496  0.5483 -0.0581 -0.2086
  678MPD2    H110033   1.861   2.302   1.495  1.7360  1.0557 -1.7479
  678MPD2    H210034   2.241   2.329   1.656  0.5883 -0.9671 -1.3492
  678MPD2    H310035   2.020   2.422   1.600 -2.5001 -0.1933  0.0888
  678MPD2     N10036   1.890   2.024   1.425  0.3212  0.0235  0.0197
  678MPD2    H510037   1.925   1.931   1.402  0.0863  0.2301 -1.1585
  678MPD2    N110038   2.322   2.076   1.624 -0.1629 -0.4048  0.1039
  678MPD2    H710039   2.336   1.981   1.591  0.0699 -0.0039 -0.9653
  679TMC3    C110040   2.659   1.852   1.699 -0.6131  0.0235  1.1242
  679TMC3    C210041   2.545   1.915   1.677  0.2894  0.9512  0.3949
  679TMC3    C310042   2.544   2.053   1.700 -0.1898 -0.1327  0.4472
  679TMC3    C410043   2.784   1.915   1.719 -0.2891  0.0595 -0.6431
  679TMC3    C510044   2.781   2.052   1.732  0.3735  0.1170 -0.2114
  679TMC3    C610045   2.661   2.117   1.734  0.1032  0.0611 -0.1759
  679TMC3     C10046   2.667   1.712   1.658 -0.2790 -0.2564 -0.1395
  679TMC3     O10047   2.769   1.667   1.607 -0.2971 -0.5455  0.2895
  679TMC3     H10048   2.462   1.853   1.644  0.2828  1.7915 -1.1533
  679TMC3    H110049   2.869   1.847   1.714 -0.4309 -0.2077  0.4939
  679TMC3    H210050   2.660   2.225   1.745 -0.2035 -0.0462  0.8419
  679TMC3    C710051   2.891   2.131   1.686 -0.3312  0.0029 -0.3966
  679TMC3    C810052   2.430   2.139   1.677  0.3214  0.3037 -0.2993
  679TMC3    O110053   2.870   2.250   1.663  0.2982  0.0710 -0.1883
  679TMC3    O210054   2.452   2.258   1.662 -0.0219 -0.0464 -0.9605
  680MPD2     C10055   1.973   1.004  13.774  0.1307  0.3532  0.2258
  680MPD2    C110056   2.051   0.936  13.864  0.3538 -0.1503 -0.8936
  680MPD2    C210057   2.153   1.000  13.925 -0.7672 -0.1794  0.1934
  680MPD2    C310058   2.188   1.126  13.886  0.1939 -0.6602 -0.6904
  680MPD2    C410059   2.106   1.195  13.801 -0.2210  0.6834  0.3322
  680MPD2    C510060   1.997   1.138  13.748 -0.3777  0.3501  0.6484
  680MPD2     H10061   2.212   0.953  14.003 -0.1649  1.4610  0.7293
  680MPD2    H110062   2.119   1.295  13.763 -1.5982  1.0102  0.7262
  680MPD2    H210063   1.890   0.954  13.726 -0.0138 -1.1874  2.0638
  680MPD2    H310064   1.933   1.190  13.678  0.1677  0.4100  0.1985
  680MPD2     N10065   2.304   1.197  13.923  0.7628  0.6166  0.9620
  680MPD2    H510066   2.309   1.296  13.898  0.4850  0.8963  1.9974
  680MPD2    N110067   2.026   0.798  13.894 -0.0721  0.1162 -0.5465
  680MPD2    H710068   2.085   0.756  13.965  3.4191  1.0965 -2.8654
  681TMC3    C110069   1.972   0.574  13.857  0.1876  0.1384  0.2349
  681TMC3    C210070   1.989   0.541  13.982  0.9481  0.3706  0.2609
  681TMC3    C310071   1.992   0.408  14.014 -0.5722 -0.0362 -0.4264
  681TMC3    C410072   1.937   0.487  13.758 -0.1379  0.5804  0.7882
  681TMC3    C510073   1.926   0.357  13.795 -0.1117 -0.3176  0.6356
  681TMC3    C610074   1.955   0.318  13.925  0.8619  0.5491 -0.0237
  681TMC3     C10075   1.941   0.715  13.828  0.4061  0.3159 -0.1324
  681TMC3     O10076   1.858   0.746  13.738  0.5674  0.0825 -0.2504
  681TMC3     H10077   2.014   0.616  14.057 -2.3929  1.6525  0.1052
  681TMC3    H110078   1.910   0.527  13.661 -0.3991  0.3914  0.7838
  681TMC3    H210079   1.939   0.214  13.948  0.7021  0.6842  0.4710
  681TMC3    C710080   1.915   0.254  13.693  0.9251  0.0319  0.0436
  681TMC3    C810081   2.036   0.361  14.144 -0.6881  0.2856 -0.3107
  681TMC3    O110082   1.884   0.140  13.723  0.4157 -0.3718  0.0405
  681TMC3    O210083   2.022   0.242  14.166  0.3128  0.3823 -0.1450
  682MPD2     C10084   4.127   1.983  10.769  0.3435  0.9777 -0.0542
  682MPD2    C110085   4.122   1.846  10.772  0.5190 -0.8086 -0.2905
  682MPD2    C210086   4.086   1.771  10.877  0.0681  0.2819 -0.2051
  682MPD2    C310087   4.030   1.844  10.983  0.1120  0.2005 -0.1995
  682MPD2    C410088   4.029   1.980  10.982  0.8812 -0.2387  0.6827
  682MPD2    C510089   4.074   2.051  10.878 -0.0708 -0.3959 -0.3926
  682MPD2     H10090   4.093   1.663  10.874 -1.2603  0.2078 -0.6881
  682MPD2    H110091   3.973   2.034  11.057 -0.1549 -0.5536  0.1353
  682MPD2    H210092   4.163   2.048  10.690  1.1288  0.3443 -0.2086
  682MPD2    H310093   4.082   2.159  10.879 -0.4877 -0.3475 -3.2240
  682MPD2     N10094   3.968   1.787  11.093 -0.3786  0.6820 -0.4158
  682MPD2    H510095   3.931   1.846  11.166  0.0272  1.8175 -1.1312
  682MPD2    N110096   4.151   1.770  10.652  0.5616 -0.0628 -0.0340
  682MPD2    H710097   4.151   1.669  10.661 -0.0992 -0.1533 -1.0237
  683TMC3    C110098   3.811   1.618  11.437  0.1550 -0.3097  0.2256
  683TMC3    C210099   3.712   1.526  11.421 -0.8372 -0.4137 -0.6364
  683TMC3    C310100   3.671   1.491  11.292  0.2862  0.1129 -0.3655
  683TMC3    C410101   3.878   1.664  11.330 -0.0596  0.1505  0.2208
  683TMC3    C510102   3.846   1.625  11.201  0.3109  0.0898 -0.5120
  683TMC3    C610103   3.747   1.532  11.182 -0.2992 -0.2619  0.3860
  683TMC3     C10104   3.828   1.697  11.558  0.3787  0.6550 -0.0387
  683TMC3     O10105   3.924   1.777  11.557 -0.3902  0.1804 -0.2644
  683TMC3     H10106   3.665   1.488  11.511  0.0450  3.0137  1.2641
  683TMC3    H110107   3.965   1.727  11.342 -0.6597  1.1398 -0.6375
  683TMC3    H210108   3.713   1.504  11.083  0.0467 -0.0301  0.2007
  683TMC3    C710109   3.932   1.656  11.094 -0.4475  0.2259  0.0332
  683TMC3    C810110   3.582   1.376  11.270  0.2888 -0.3634 -0.2062
  683TMC3    O110111   3.953   1.579  11.006  0.3320  0.1679  0.1769
  683TMC3    O210112   3.590   1.322  11.161 -0.1947 -0.1097  0.0810
  684MPD2     C10113   3.061   1.548  16.843 -0.2693 -0.6283 -0.0771
  684MPD2    C110114   2.974   1.586  16.739  0.3307 -0.3669  0.7236
  684MPD2    C210115   2.975   1.716  16.696  0.1969 -0.5095  0.3057
  684MPD2    C310116   3.069   1.803  16.750 -0.1087  0.1099  0.2888
  684MPD2    C410117   3.156   1.764  16.855 -0.2212  0.6945 -1.0607
  684MPD2    C510118   3.152   1.636  16.900 -0.0991 -0.0182 -0.4598
  684MPD2     H10119   2.918   1.750  16.610  0.8835  0.6110  0.2869
  684MPD2    H110120   3.217   1.843  16.899 -0.2370 -0.3953  0.9170
  684MPD2    H210121   3.060   1.444  16.871 -0.4125 -0.2605  1.3086
  684MPD2    H310122   3.232   1.595  16.960 -0.3058  0.1283 -0.0873
  684MPD2     N10123   3.104   1.926  16.691 -0.8492 -0.1780  0.4551
  684MPD2    H510124   3.180   1.977  16.735 -0.0779 -1.6587  0.8450
  684MPD2    N110125   2.874   1.498  16.684 -0.0020 -0.1912 -0.3716
  684MPD2    H710126   2.808   1.545  16.621 -1.6350  0.2238  1.6467
  685TMC3    C110127   2.762   1.294  16.621 -0.3802 -0.7681 -0.2789
  685TMC3    C210128   2.656   1.367  16.565  0.9938 -0.1836 -0.3448
  685TMC3    C310129   2.581   1.320  16.460  0.4364  0.1381  0.7846
  685TMC3    C410130   2.786   1.170  16.572 -0.1873  0.1420 -0.3559
  685TMC3    C510131   2.704   1.121  16.472 -1.0502  0.5182  0.0360
  685TMC3    C610132   2.613   1.199  16.407  0.2954  0.6184 -0.2725
  685TMC3     C10133   2.877   1.362  16.685  0.8692  1.2599 -0.3772
  685TMC3     O10134   2.961   1.281  16.724  0.5132 -0.4621 -0.6269
  685TMC3     H10135   2.613   1.455  16.611 -0.6797 -0.8985 -0.5452
  685TMC3    H110136   2.861   1.103  16.613 -1.6099 -1.8146 -0.9621
  685TMC3    H210137   2.573   1.152  16.317 -1.6215  1.8585 -0.0642
  685TMC3    C710138   2.785   1.052  16.376  0.1528 -0.3702  0.1861
  685TMC3    C810139   2.457   1.377  16.403  0.3300 -0.0832 -0.2338
  685TMC3    O110140   2.728   0.973  16.302  0.0395  0.1609  0.2133
  685TMC3    O210141   2.391   1.301  16.327 -0.2838  0.5675 -0.1169
  686MPD2     C10142   3.579   0.984  15.308  0.3267 -0.2990 -0.3343
  686MPD2    C110143   3.537   1.009  15.437  0.5197 -0.2808 -0.0968
  686MPD2    C210144   3.405   0.983  15.469  0.3007 -0.0070 -0.2643
  686MPD2    C310145   3.331   0.908  15.377 -0.0577  0.6736  0.3002
  686MPD2    C410146   3.382   0.874  15.255 -0.3388  0.5377 -0.3256
  686MPD2    C510147   3.504   0.912  15.219  0.2794 -0.5433 -0.1097
  686MPD2     H10148   3.362   1.019  15.562  0.6736 -0.1462 -0.0433
  686MPD2    H110149   3.320   0.832  15.177  1.1990 -0.6276 -0.9282
  686MPD2    H210150   3.678   1.005  15.272  0.7723 -1.7300  0.0265
  686MPD2    H310151   3.546   0.902  15.120  1.8598  2.0223  0.2910
  686MPD2     N10152   3.192   0.876  15.396  0.1634 -0.3609 -0.5884
  686MPD2    H510153   3.139   0.853  15.313 -3.5932  1.4663  1.2536
  686MPD2    N110154   3.641   1.048  15.526 -0.3000 -0.1346 -0.6374
  686MPD2    H710155   3.732   1.051  15.481  1.0875  0.0977  2.2191
  687TMC3    C110156   3.194   0.867  15.649 -0.1324 -0.1152  0.0317
  687TMC3    C210157   3.155   0.953  15.750 -0.0390  0.8390  0.1383
  687TMC3    C310158   3.234   0.968  15.863 -0.0947  0.3408 -0.4453
  687TMC3    C410159   3.298   0.777  15.667 -0.2513  0.7347 -0.9823
  687TMC3    C510160   3.366   0.783  15.788 -0.2393  0.4372  0.0291
  687TMC3    C610161   3.338   0.875  15.882 -0.1533  0.0234  0.8546
  687TMC3     C10162   3.120   0.874  15.520  0.3888 -0.2101  0.1758
  687TMC3     O10163   3.003   0.890  15.539  0.0063 -0.8044 -0.3865
  687TMC3     H10164   3.072   1.023  15.739 -1.3753 -0.7459  0.1370
  687TMC3    H110165   3.333   0.731  15.576  1.4006  0.7466 -0.3458
  687TMC3    H210166   3.399   0.897  15.969 -0.7039  0.1687  1.2016
  687TMC3    C710167   3.501   0.728  15.801  0.3519  0.2780 -0.3973
  687TMC3    C810168   3.224   1.095  15.931  0.6081  0.7482 -0.0657
  687TMC3    O110169   3.563   0.773  15.892 -0.4710  0.0778  0.3090
  687TMC3    O210170   3.116   1.128  15.979  0.1176  0.4739 -0.3367
  688MPD2     C10171   3.462   0.214  17.233 -0.1385  0.0507 -0.2454
  688MPD2    C110172   3.498   0.084  17.260 -0.7204  0.1374  0.1224
  688MPD2    C210173   3.585   0.015  17.173 -0.0991 -0.2462 -0.3610
  688MPD2    C310174   3.620   0.080  17.055  1.1819 -0.0035  0.9165
  688MPD2    C410175   3.582   0.208  17.035 -0.0003  0.2381 -0.5171
  688MPD2    C510176   3.513   0.280  17.122  0.2089 -0.0183  0.5729
  688MPD2     H10177   3.635   4.643  17.199 -1.5270 -1.1486 -0.8330
  688MPD2    H110178   3.623   0.245  16.941  1.9433 -0.9590 -0.1499
  688MPD2    H210179   3.402   0.276  17.298  3.4162 -1.4152  4.4083
  688MPD2    H310180   3.493   0.383  17.096 -0.3582 -0.2903 -0.0695
  688MPD2     N10181   3.691   0.026  16.948 -0.0006  0.7079 -0.3714
  688MPD2    H510182   3.682   0.088  16.868  1.6751 -0.2493 -1.3135
  688MPD2    N110183   3.466   0.015  17.385 -0.6232 -0.1354 -0.2329
  688MPD2    H710184   3.502   4.642  17.389  0.5365  0.2677 -1.1306
  689TMC3    C110185   3.403   0.008  17.617  0.0891  0.2222 -0.0732
  689TMC3    C210186   3.362   0.082   0.044  0.1989 -0.0647  0.3410
  689TMC3    C310187   3.341   0.022   0.169  0.5165  0.3475 -0.1814
  689TMC3    C410188   3.436   4.598  17.631  0.7151  0.4235  0.0139
  689TMC3    C510189   3.402   4.537   0.062  0.2683 -1.3834  0.4532
  689TMC3    C610190   3.361   4.607   0.177  0.2356 -0.0382 -0.1530
  689TMC3     C10191   3.406   0.084  17.493  0.4058 -0.1488  0.5000
  689TMC3     O10192   3.320   0.173  17.497  0.3339  0.2628 -0.4306
  689TMC3     H10193   3.357   0.189   0.034 -0.0939 -0.3443 -2.4543
  689TMC3    H110194   3.440   4.539  17.540  1.7527  1.7102 -0.7738
  689TMC3    H210195   3.342   4.545   0.264  1.1045  1.2307  0.9372
  689TMC3    C710196   3.368   4.397   0.061 -0.7272 -0.3794 -0.2426
  689TMC3    C810197   3.328   0.096   0.297 -0.4687  0.8310  0.6667
  689TMC3    O110198   3.393   4.334   0.166 -0.4149  0.4264 -0.2048
  689TMC3    O210199   3.308   0.035   0.400  0.4595 -0.4865  0.5348
  690MPD2     C10200   0.920   2.011  15.491 -0.1275  0.2262 -0.6474
  690MPD2    C110201   0.894   1.997  15.353 -0.3109  0.5046  0.0745
  690MPD2    C210202   1.002   2.014  15.268 -0.1032 -0.2530 -0.1720
  690MPD2    C310203   1.134   2.025  15.315  0.4357 -0.6934 -0.2282
  690MPD2    C410204   1.158   2.019  15.453  0.2502  0.2645 -0.7420
  690MPD2    C510205   1.051   2.018  15.536  0.6534 -0.2028 -0.7663
  690MPD2     H10206   0.989   2.015  15.160  1.2235  1.0764 -0.3086
  690MPD2    H110207   1.254   2.021  15.502 -0.3885 -1.4552  0.5536
  690MPD2    H210208   0.846   2.018  15.570  0.7484  3.2276 -0.0783
  690MPD2    H310209   1.068   1.997  15.641  1.4412  0.4942 -0.7571
  690MPD2     N10210   1.241   2.053  15.224  0.4103  0.6368  0.1826
  690MPD2    H510211   1.224   2.079  15.128  2.4154  2.7657  0.4019
  690MPD2    N110212   0.775   1.950  15.300  0.0616  0.3975 -0.3790
  690MPD2    H710213   0.785   1.898  15.213 -1.6171 -0.4825 -0.0371
  691TMC3    C110214   0.576   1.842  15.343  0.0627  0.3421 -0.1129
  691TMC3    C210215   0.443   1.885  15.361 -0.0015 -0.0924  0.2279
  691TMC3    C310216   0.353   1.786  15.348  0.3542 -0.0716  0.5918
  691TMC3    C410217   0.611   1.712  15.300 -0.4715  0.5954  0.0717
  691TMC3    C510218   0.512   1.622  15.276 -0.1957  0.2296  0.1507
  691TMC3    C610219   0.378   1.659  15.298  0.2982 -0.8088  0.0940
  691TMC3     C10220   0.668   1.949  15.376  0.2698  0.4839 -0.0455
  691TMC3     O10221   0.634   2.035  15.455  0.4756  0.2926  0.5623
  691TMC3     H10222   0.418   1.988  15.382 -1.5513 -0.4780  0.2373
  691TMC3    H110223   0.716   1.689  15.287 -0.3484  0.5474  1.1662
  691TMC3    H210224   0.305   1.592  15.254  1.2558 -1.6309 -0.2564
  691TMC3    C710225   0.540   1.486  15.237 -0.0960 -0.6357 -0.3022
  691TMC3    C810226   0.216   1.804  15.384 -0.1429  0.0328  0.1586
  691TMC3    O110227   0.643   1.468  15.174 -0.5178 -0.0800 -0.1077
  691TMC3    O210228   0.140   1.720  15.334  0.5528  0.4908  0.7422
  692TMC3    C110229   2.506   3.038  16.175 -0.2141 -0.0625  0.8072
  692TMC3    C210230   2.625   3.090  16.228 -0.7752  0.7608  0.4292
  692TMC3    C310231   2.748   3.025  16.203 -0.2699  0.4827 -0.2651
  692TMC3    C410232   2.502   2.925  16.096 -0.0502  0.7872 -0.1123
  692TMC3    C510233   2.622   2.861  16.079 -0.6420 -0.2399 -0.7007
  692TMC3    C610234   2.743   2.904  16.132  0.0742 -0.0755 -0.6707
  692TMC3     C10235   2.392   3.114  16.166 -0.4412 -0.7191  0.0466
  692TMC3     O10236   2.287   3.059  16.132  0.3781 -0.2578  0.3229
  692TMC3     H10237   2.631   3.177  16.292 -0.6191  0.2158  1.1574
  692TMC3    H110238   2.408   2.884  16.061  1.1575 -2.2604  0.2444
  692TMC3    H210239   2.836   2.856  16.104 -0.1035 -1.4838  1.2103
  692TMC3    C710240   2.611   2.733  16.021 -0.0124  0.1033 -0.2033
  692TMC3    C810241   2.847   3.023  16.311 -0.6083 -0.1752 -0.1024
  692TMC3    O110242   2.511   2.714  15.956 -0.2952  0.0369  0.2942
  692TMC3    O210243   2.923   2.925  16.314  0.6667  0.0807 -0.2383
  693MPD2     C10244   1.731   1.094  10.681 -0.1411  0.8106  0.2812
  693MPD2    C110245   1.645   0.990  10.706 -0.6488  0.3005 -0.4602
  693MPD2    C210246   1.689   0.865  10.754  0.2068  0.0398 -0.1129
  693MPD2    C310247   1.824   0.861  10.786  0.0173 -0.1669 -0.3661
  693MPD2    C410248   1.912   0.962  10.757 -0.0502 -0.4452 -0.0211
  693MPD2    C510249   1.860   1.070  10.700  0.5895 -0.2399 -0.0403
  693MPD2     H10250   1.619   0.785  10.774  1.3036 -1.1883 -1.2074
  693MPD2    H110251   2.017   0.937  10.765  0.0867  0.3921  0.7242
  693MPD2    H210252   1.694   1.195  10.664 -0.5782  0.6469  0.2805
  693MPD2    H310253   1.923   1.156  10.682 -0.5629  0.3442 -1.2284
  693MPD2     N10254   1.874   0.754  10.868 -0.2366  0.5622 -0.2491
  693MPD2    H510255   1.968   0.757  10.905 -0.4547  1.4670  0.2407
  693MPD2    N110256   1.507   1.012  10.701  0.3736  0.3851  0.7353
  693MPD2    H710257   1.470   1.107  10.704 -0.1943  0.1546  1.0391
  694TMC3    C110258   1.278   0.950  10.686 -0.0990 -0.1542 -0.0436
  694TMC3    C210259   1.192   0.883  10.606 -0.6594 -0.1933  0.7691
  694TMC3    C310260   1.065   0.847  10.656  0.3985 -0.1307 -0.1923
  694TMC3    C410261   1.248   0.979  10.815 -0.3642  0.1205  0.7152
  694TMC3    C510262   1.123   0.948  10.862 -0.3043  0.0251  0.0870
  694TMC3    C610263   1.038   0.873  10.793 -0.0347  0.0091 -0.8516
  694TMC3     C10264   1.418   0.919  10.663  0.0251  0.1548 -0.1165
  694TMC3     O10265   1.438   0.814  10.612 -0.6081  0.1305  0.4315
  694TMC3     H10266   1.219   0.841  10.509  1.9995  2.7514  0.2376
  694TMC3    H110267   1.316   1.031  10.881  1.7700 -2.8487  0.8548
  694TMC3    H210268   0.934   0.879  10.822 -0.5186 -2.3206 -2.1467
  694TMC3    C710269   1.126   0.931  11.008  0.0970 -0.1848  0.0226
  694TMC3    C810270   0.974   0.769  10.580 -0.0338  0.1948  0.4171
  694TMC3    O110271   1.181   1.025  11.065  0.1971  0.3677 -0.1672
  694TMC3    O210272   0.897   0.695  10.636 -0.6124  0.4872 -0.7059
  695MPD2     C10273   2.555   2.384  13.754 -0.1452  0.1310  0.8329
  695MPD2    C110274   2.520   2.474  13.853 -0.1450 -0.2531  0.6681
  695MPD2    C210275   2.388   2.511  13.869 -0.0958  0.4474  0.0430
  695MPD2    C310276   2.289   2.478  13.779  0.1030  0.1692 -0.3729
  695MPD2    C410277   2.329   2.378  13.685 -0.1551 -0.3959 -0.1081
  695MPD2    C510278   2.458   2.336  13.663 -0.1848 -0.0662  0.2402
  695MPD2     H10279   2.368   2.573  13.956 -2.0064  2.1683 -1.6267
  695MPD2    H110280   2.258   2.323  13.624 -1.8996  0.3148  1.2725
  695MPD2    H210281   2.650   2.332  13.756 -0.7507 -0.9045  2.7975
  695MPD2    H310282   2.483   2.264  13.587  3.3024  0.7354  0.5924
  695MPD2     N10283   2.161   2.528  13.796 -0.8528 -0.3779  0.5401
  695MPD2    H510284   2.144   2.585  13.879  1.5229 -1.2835  1.6348
  695MPD2    N110285   2.615   2.530  13.940 -0.6898 -0.5073  0.4899
  695MPD2    H710286   2.584   2.592  14.014  2.0372 -1.3030  2.3236
  696TMC3    C110287   1.940   2.602  13.759 -0.4587  0.9644  0.3034
  696TMC3    C210288   1.909   2.601  13.896  0.0037 -0.3541 -0.3860
  696TMC3    C310289   1.790   2.656  13.931 -0.1729  0.5583  0.3197
  696TMC3    C410290   1.842   2.637  13.661  0.2826 -0.0947 -0.6409
  696TMC3    C510291   1.726   2.687  13.702  0.4790  0.4211  0.2580
  696TMC3    C610292   1.698   2.688  13.837 -0.2760  0.0967  0.5570
  696TMC3     C10293   2.056   2.532  13.708  0.4508 -0.6587  0.4120
  696TMC3     O10294   2.052   2.504  13.590 -0.0060  0.4122  0.3195
  696TMC3     H10295   1.985   2.592  13.973  1.0333  2.4844 -1.0759
  696TMC3    H110296   1.869   2.650  13.557  0.7948  2.3407 -0.1992
  696TMC3    H210297   1.604   2.733  13.866 -0.0607  0.2958  0.9420
  696TMC3    C710298   1.685   2.808  13.629 -0.6965  0.3345  0.5380
  696TMC3    C810299   1.802   2.770  14.014  0.2205  0.4062  0.3091
  696TMC3    O110300   1.723   2.816  13.513  0.2193 -0.9230  0.2632
  696TMC3    O210301   1.732   2.866  13.987 -0.1934  0.2115  0.5394
  697MPD2     C10302   1.659   0.044  15.922 -0.0205  0.5836 -0.0321
  697MPD2    C110303   1.737   4.709  15.828 -0.2408 -0.0931 -0.8965
  697MPD2    C210304   1.789   0.069  15.727 -0.2565  0.4738 -0.2918
  697MPD2    C310305   1.787   0.204  15.735  0.7317 -0.0214  0.4173
  697MPD2    C410306   1.692   0.258  15.823 -0.6126 -0.1485 -0.0887
  697MPD2    C510307   1.630   0.178  15.914 -0.3698  0.4651  0.7196
  697MPD2     H10308   1.854   0.021  15.656 -0.7457  0.5648 -0.7966
  697MPD2    H110309   1.674   0.365  15.820 -0.1062 -0.0532  0.3429
  697MPD2    H210310   1.613   4.714  16.006 -1.3470 -1.0618 -1.7501
  697MPD2    H310311   1.557   0.219  15.982  1.7494  0.5272  2.9342
  697MPD2     N10312   1.864   0.282  15.651  0.0677  0.4941 -0.1117
  697MPD2    H510313   1.919   0.239  15.578 -0.4606 -0.2052 -0.0947
  697MPD2    N110314   1.756   4.567  15.813 -0.1042  0.1422  0.2007
  697MPD2    H710315   1.789   4.530  15.725  0.4065 -1.0157  0.8824
  698TMC3    C110316   1.949   0.487  15.568  0.5126  0.1149  0.2709
  698TMC3    C210317   2.017   0.600  15.601 -0.1231 -1.0099  0.6477
  698TMC3    C310318   2.107   0.653  15.511 -0.1054 -0.3368  0.4801
  698TMC3    C410319   1.966   0.430  15.444  0.3619  0.6227  0.2180
  698TMC3    C510320   2.050   0.489  15.354  0.0127 -0.3163  0.4084
  698TMC3    C610321   2.119   0.604  15.381 -0.1261  0.0593 -0.1736
  698TMC3     C10322   1.876   0.414  15.673  0.2236  0.9090  0.2406
  698TMC3     O10323   1.864   0.472  15.783  0.8215 -0.1510  0.1744
  698TMC3     H10324   2.019   0.634  15.703  0.8068 -0.6014  0.4852
  698TMC3    H110325   1.905   0.344  15.419 -0.2497  0.6795  1.5103
  698TMC3    H210326   2.169   0.656  15.300 -0.7362  0.1920 -0.4698
  698TMC3    C710327   2.092   0.410  15.238  0.1070 -0.6878 -0.2469
  698TMC3    C810328   2.186   0.761  15.560  0.2739  0.4326 -0.1731
  698TMC3    O110329   2.184   0.464  15.179  0.2225 -0.0539  0.6191
  698TMC3    O210330   2.169   0.792  15.676  0.1037 -0.1093  0.1073
  699TMC3    C110331   2.069   2.870  13.002 -0.1813 -0.1745 -0.0098
  699TMC3    C210332   2.126   2.761  13.065  0.5786 -0.2710 -0.0480
  699TMC3    C310333   2.051   2.665  13.135 -0.0185  0.5933 -0.4428
  699TMC3    C410334   1.939   2.895  13.016  0.0550 -0.2243  0.0998
  699TMC3    C510335   1.873   2.818  13.108  0.0450 -0.4647 -0.0981
  699TMC3    C610336   1.924   2.701  13.169  0.1211  0.2043 -0.0970
  699TMC3     C10337   2.117   2.912  12.873 -0.6516  0.2586  0.5116
  699TMC3     O10338   2.035   2.975  12.803  0.0355  0.6783 -0.2624
  699TMC3     H10339   2.232   2.742  13.057  0.7467 -0.2489  2.0133
  699TMC3    H110340   1.898   2.983  12.970  2.0793  1.4406  1.4794
  699TMC3    H210341   1.855   2.646  13.232  0.6259  0.0163  0.2900
  699TMC3    C710342   1.735   2.837  13.119 -0.4121  0.3473  0.4156
  699TMC3    C810343   2.099   2.549  13.209 -0.5100  0.5416 -0.6577
  699TMC3    O110344   1.660   2.746  13.154  0.2416 -0.1611  0.3794
  699TMC3    O210345   2.009   2.495  13.271  0.5488  0.4382  0.0022
  700TMC3    C110346   1.415   0.294   0.250 -0.1661 -0.1526  0.5824
  700TMC3    C210347   1.499   0.196   0.211  0.0772  0.0585 -0.3141
  700TMC3    C310348   1.612   0.180   0.283  0.1423 -0.1085  0.1544
  700TMC3    C410349   1.438   0.391   0.336 -0.2937  0.5423  0.0490
  700TMC3    C510350   1.547   0.369   0.417 -0.4764 -0.9667  0.1462
  700TMC3    C610351   1.637   0.268   0.383  0.0093 -0.3856  0.3384
  700TMC3     C10352   1.332   0.330   0.139 -0.1980  0.1583  1.0332
  700TMC3     O10353   1.252   0.247   0.092  0.0597 -0.2380  0.6385
  700TMC3     H10354   1.475   0.118   0.140 -2.0508 -0.4556  0.9706
  700TMC3    H110355   1.370   0.473   0.357  0.9767  1.5878  0.0369
  700TMC3    H210356   1.721   0.262   0.452  1.8173 -2.2445 -2.0456
  700TMC3    C710357   1.594   0.483   0.488 -0.0854 -0.0264  0.7578
  700TMC3    C810358   1.725   0.137   0.197  0.1745 -0.7565  0.1236
  700TMC3    O110359   1.655   0.462   0.596 -0.5574  0.3046  0.1006
  700TMC3    O210360   1.698   0.069   0.100 -0.2938  0.3875  0.4440
  701TMC3    C110361   1.045   3.862  16.205  0.1695  0.0081 -1.0367
  701TMC3    C210362   1.063   3.728  16.186 -0.8271  0.1329  0.4038
  701TMC3    C310363   1.115   3.702  16.059 -0.1635  0.9331 -0.9137
  701TMC3    C410364   1.081   3.960  16.109 -0.5558 -0.5570  1.0949
  701TMC3    C510365   1.155   3.923  15.992 -0.1728 -0.8338  0.4902
  701TMC3    C610366   1.166   3.791  15.967 -0.8379  0.4166  0.0582
  701TMC3     C10367   0.994   3.909  16.330  0.3817 -0.3380 -0.0464
  701TMC3     O10368   0.995   4.028  16.357 -0.1438  0.3967  0.0405
  701TMC3     H10369   1.050   3.651  16.260 -0.0734  0.9057  1.3333
  701TMC3    H110370   1.063   4.063  16.139 -3.2010 -0.7540  0.1508
  701TMC3    H210371   1.215   3.766  15.874  0.0013 -0.5442  0.7558
  701TMC3    C710372   1.216   4.026  15.906 -0.4696  0.2421  0.3208
  701TMC3    C810373   1.117   3.563  16.025  0.5957 -0.3329 -0.5824
  701TMC3    O110374   1.260   3.989  15.798 -0.2666 -0.1845  0.1612
  701TMC3    O210375   1.098   3.486  16.119  0.1127  0.1686  0.2239
  702MPD2     C10376   0.426   1.268  10.607 -0.3352  1.4708 -0.8641
  702MPD2    C110377   0.462   1.389  10.671  0.0347  0.2784 -0.1619
  702MPD2    C210378   0.478   1.498  10.591 -1.1029  0.3104 -0.1057
  702MPD2    C310379   0.467   1.496  10.456 -0.2362  0.2789 -0.3301
  702MPD2    C410380   0.430   1.381  10.390  0.3540 -0.8486 -0.0221
  702MPD2    C510381   0.408   1.268  10.469  0.1861  0.1925 -0.6291
  702MPD2     H10382   0.510   1.591  10.636  0.6255  0.3790 -1.4493
  702MPD2    H110383   0.413   1.375  10.283 -0.8421  0.2622  0.1163
  702MPD2    H210384   0.414   1.176  10.663  1.9297  2.3967  1.1501
  702MPD2    H310385   0.381   1.179  10.414  0.8543 -0.6645  0.4331
  702MPD2     N10386   0.507   1.621  10.400  0.1058 -0.5754 -0.6835
  702MPD2    H510387   0.503   1.707  10.454  0.2150 -0.2256 -1.2351
  702MPD2    N110388   0.467   1.399  10.806  0.1270  0.3028  0.7265
  702MPD2    H710389   0.478   1.493  10.842  1.4114 -0.0484  1.2497
  703TMC3    C110390   0.468   1.796  10.262 -0.2415 -0.1505  0.8469
  703TMC3    C210391   0.381   1.833  10.357  0.1571  0.7783  0.8569
  703TMC3    C310392   0.403   1.940  10.439  0.4191  0.8045 -0.2877
  703TMC3    C410393   0.582   1.868  10.233 -0.2658  0.4790 -0.1316
  703TMC3    C510394   0.602   1.979  10.316 -0.2159  0.7905  0.4329
  703TMC3    C610395   0.518   2.010  10.417  0.7309  0.0832  0.6330
  703TMC3     C10396   0.500   1.653  10.268 -0.5450 -0.0904  0.2967
  703TMC3     O10397   0.508   1.585  10.172 -0.3262  0.3163  0.0356
  703TMC3     H10398   0.303   1.769  10.396 -0.4089  1.3711  0.7036
  703TMC3    H110399   0.649   1.836  10.154  0.7657  2.0705  0.0889
  703TMC3    H210400   0.541   2.097  10.477  0.2178 -0.0816  1.0598
  703TMC3    C710401   0.721   2.068  10.284  0.0272 -0.3751 -0.4583
  703TMC3    C810402   0.384   1.892  10.572 -0.4327 -0.4789  0.4474
  703TMC3    O110403   0.786   2.042  10.184 -0.1565  0.2123  0.7061
  703TMC3    O210404   0.484   1.841  10.621  0.3566 -0.5373 -0.1422
  704TMC3    C110405   2.618   4.134  12.588 -0.4111  0.1419  0.0932
  704TMC3    C210406   2.746   4.185  12.600  0.9550  0.0191 -1.2386
  704TMC3    C310407   2.839   4.133  12.682  1.0349  0.4911  0.5484
  704TMC3    C410408   2.591   4.010  12.644  0.2955  0.5061 -0.1988
  704TMC3    C510409   2.695   3.951  12.715 -0.1398 -0.3525  0.1590
  704TMC3    C610410   2.816   4.013  12.749  0.2208 -0.3086  0.0339
  704TMC3     C10411   2.564   4.154  12.463 -0.0293 -0.5898  0.2131
  704TMC3     O10412   2.443   4.131  12.450  0.0107  0.9819  0.5553
  704TMC3     H10413   2.775   4.278  12.551  1.9085 -0.1992 -1.0812
  704TMC3    H110414   2.496   3.959  12.634  1.6231 -2.0310 -0.0849
  704TMC3    H210415   2.897   3.966  12.804  2.3464  3.0045 -0.2414
  704TMC3    C710416   2.722   3.812  12.688 -0.1541 -0.4877  0.5127
  704TMC3    C810417   2.974   4.158  12.633  0.6132  0.1309  0.5825
  704TMC3    O110418   2.837   3.779  12.704 -0.3006 -0.4405 -0.3691
  704TMC3    O210419   2.978   4.194  12.515 -0.4270 -0.9814  0.2719
  705MPD2     C10420   3.286   2.473  16.615 -0.1472  0.1827  0.0531
  705MPD2    C110421   3.196   2.532  16.529  0.6702  0.1726  0.0363
  705MPD2    C210422   3.081   2.579  16.590  0.4614  0.0182 -0.4217
  705MPD2    C310423   3.050   2.567  16.720 -0.0575 -0.0533  0.6142
  705MPD2    C410424   3.145   2.506  16.799  0.0550 -0.2018  0.2231
  705MPD2    C510425   3.266   2.466  16.752 -0.4374  0.2609 -0.3123
  705MPD2     H10426   3.020   2.638  16.522  0.3589  0.2399 -0.1371
  705MPD2    H110427   3.124   2.494  16.905  0.2351  0.2996  0.3176
  705MPD2    H210428   3.370   2.420  16.573  0.1630  0.0391  0.8607
  705MPD2    H310429   3.339   2.414  16.813 -0.4444  0.2808 -0.2872
  705MPD2     N10430   2.931   2.621  16.777  0.2780  0.2630 -0.1022
  705MPD2    H510431   2.871   2.674  16.715 -0.6056  0.3471  0.8240
  705MPD2    N110432   3.219   2.555  16.391  0.1874 -0.0284  0.4256
  705MPD2    H710433   3.152   2.617  16.347  1.1715  0.7951  0.0669
  706TMC3    C110434   3.437   2.590  15.990 -0.6161 -0.0981  0.2591
  706TMC3    C210435   3.381   2.712  15.956  0.5871 -0.2452 -0.3527
  706TMC3    C310436   3.335   2.789  16.061 -0.6267 -0.2506 -0.1630
  706TMC3    C410437   3.438   2.542  16.115  0.0481 -0.2183 -0.5194
  706TMC3    C510438   3.365   2.614  16.207 -0.8556  0.1562  0.0471
  706TMC3    C610439   3.322   2.741  16.186  0.1534  0.1122 -0.0409
  706TMC3     C10440   3.512   2.509  15.891 -0.7330 -0.4602  0.9107
  706TMC3     O10441   3.595   2.432  15.935 -0.1200  0.0507  0.4433
  706TMC3     H10442   3.374   2.751  15.855 -1.2266  2.4924  0.8102
  706TMC3    H110443   3.500   2.459  16.146  0.3854 -0.3191 -1.4547
  706TMC3    H210444   3.259   2.788  16.260 -1.4582 -1.9187 -0.1387
  706TMC3    C710445   3.350   2.553  16.335  0.4035 -0.0219 -0.1245
  706TMC3    C810446   3.252   2.904  16.024 -0.7190 -0.5273 -0.8673
  706TMC3    O110447   3.454   2.504  16.376  0.5065  0.3711 -0.4329
  706TMC3    O210448   3.203   2.902  15.913 -0.1352 -0.0020  0.0378
  707TMC3    C110449   0.361   0.627   1.669 -0.9364  0.3193 -0.3555
  707TMC3    C210450   0.455   0.639   1.769  0.0519  0.4265 -0.0433
  707TMC3    C310451   0.450   0.561   1.882 -0.2783  0.0014  0.3103
  707TMC3    C410452   0.275   0.517   1.668 -0.1715  0.5214  0.1158
  707TMC3    C510453   0.270   0.432   1.781 -0.6326  0.4519  0.2860
  707TMC3    C610454   0.362   0.450   1.886 -0.6283 -0.1352 -0.0106
  707TMC3     C10455   0.406   0.706   1.552  0.0193  0.6750  0.1550
  707TMC3     O10456   0.494   0.796   1.550 -0.2043  0.1542 -0.0552
  707TMC3     H10457   0.528   0.719   1.767  2.3619 -1.7389 -2.6057
  707TMC3    H110458   0.208   0.489   1.587  0.0483 -0.8085  0.4009
  707TMC3    H210459   0.354   0.391   1.977  2.6099  1.7895  1.4908
  707TMC3    C710460   0.163   0.334   1.783 -0.0339  0.3110 -0.5265
  707TMC3    C810461   0.563   0.559   1.974  0.5424 -0.3682  0.2101
  707TMC3    O110462   0.105   0.311   1.677  0.2410 -0.0133  0.3718
  707TMC3    O210463   0.534   0.527   2.092 -0.2300 -0.4365  0.1310
  708MPD2     C10464   1.087   1.445  13.731 -0.5694 -0.3741  0.1109
  708MPD2    C110465   0.985   1.363  13.777  0.4949  0.2469  0.3340
  708MPD2    C210466   1.006   1.298  13.899  0.0457 -0.5962  1.1333
  708MPD2    C310467   1.127   1.294  13.966  0.1561  0.1728 -0.3796
  708MPD2    C410468   1.218   1.377  13.905  0.0339 -0.6500 -0.0982
  708MPD2    C510469   1.197   1.454  13.797  0.3083 -0.3201 -0.3509
  708MPD2     H10470   0.926   1.242  13.945 -0.2726  0.0443  1.3468
  708MPD2    H110471   1.316   1.384  13.951 -0.0815  0.0261  0.0416
  708MPD2    H210472   1.062   1.514  13.651 -1.7783  0.0164  0.8189
  708MPD2    H310473   1.276   1.523  13.767  0.0687  0.7241  1.3743
  708MPD2     N10474   1.162   1.223  14.085  0.4135 -0.4557 -0.5421
  708MPD2    H510475   1.243   1.260  14.134 -0.2936  0.0811  0.2234
  708MPD2    N110476   0.860   1.377  13.721  0.3542 -0.2991 -0.2165
  708MPD2    H710477   0.851   1.439  13.641 -1.0505  0.2608  0.3785
  709TMC3    C110478   0.633   1.305  13.688  0.7534  0.2248  1.2251
  709TMC3    C210479   0.565   1.188  13.655  0.2644  0.2038  0.1329
  709TMC3    C310480   0.430   1.190  13.672 -0.4907  0.2063 -0.1426
  709TMC3    C410481   0.567   1.406  13.756  0.1626 -0.2487 -0.4011
  709TMC3    C510482   0.446   1.387  13.805 -0.6315  0.0481 -0.1759
  709TMC3    C610483   0.373   1.274  13.766  0.1729  0.0892  0.5465
  709TMC3     C10484   0.767   1.275  13.731  0.3077 -0.4513  0.1047
  709TMC3     O10485   0.785   1.159  13.772 -0.1134  0.2357  0.3669
  709TMC3     H10486   0.629   1.114  13.610 -0.9979 -0.9704  0.2610
  709TMC3    H110487   0.621   1.499  13.766 -0.9336  0.3044  0.2822
  709TMC3    H210488   0.267   1.270  13.786  0.1315 -2.4484 -0.0712
  709TMC3    C710489   0.452   1.391  13.950  0.6100 -0.6348 -0.4015
  709TMC3    C810490   0.342   1.140  13.574  0.4304  0.3801 -0.3836
  709TMC3    O110491   0.536   1.469  13.989  0.2738  0.2402  0.3642
  709TMC3    O210492   0.218   1.155  13.591  0.1799 -0.4976  0.3723
  710TMC3    C110493   3.098   2.528   1.009 -0.1378  0.5909  0.5151
  710TMC3    C210494   3.168   2.448   0.919  0.0477 -0.4886  0.0854
  710TMC3    C310495   3.241   2.338   0.964 -0.0618 -0.3439 -0.0284
  710TMC3    C410496   3.079   2.483   1.136 -0.1656 -0.3238  0.4394
  710TMC3    C510497   3.149   2.371   1.177  0.5025  0.1179  0.6755
  710TMC3    C610498   3.234   2.301   1.094  0.8314 -0.1361  0.1207
  710TMC3     C10499   3.013   2.631   0.949 -0.3877 -0.3765 -0.3530
  710TMC3     O10500   3.007   2.638   0.828  0.0566  0.7599 -0.1256
  710TMC3     H10501   3.158   2.470   0.813 -0.2854  0.0220  0.2228
  710TMC3    H110502   3.028   2.541   1.212  3.6756 -1.7427  4.0744
  710TMC3    H210503   3.277   2.210   1.133  2.3616 -0.2719 -1.8506
  710TMC3    C710504   3.149   2.347   1.320  0.3955 -0.2812 -0.1521
  710TMC3    C810505   3.301   2.254   0.865  0.2445 -0.6249 -0.3313
  710TMC3    O110506   3.049   2.392   1.379  0.3329  0.1782  0.0756
  710TMC3    O210507   3.340   2.309   0.762  0.1845  0.0021  0.2662
  711TMC3    C110508   1.564   2.938  15.670 -0.4405 -0.1073 -0.4347
  711TMC3    C210509   1.583   3.032  15.761  0.0449  0.5514  0.5351
  711TMC3    C310510   1.695   3.034  15.831 -0.0359  0.1382 -0.8061
  711TMC3    C410511   1.653   2.834  15.662 -0.4295  0.0202 -0.3898
  711TMC3    C510512   1.766   2.837  15.736 -0.1386 -0.3145  0.1062
  711TMC3    C610513   1.785   2.936  15.825  0.4454  0.5662  0.4700
  711TMC3     C10514   1.484   2.972  15.553  0.6633  0.1955  0.2869
  711TMC3     O10515   1.464   2.889  15.463  0.2307 -0.7692  0.0128
  711TMC3     H10516   1.503   3.103  15.779 -0.4484  0.8345 -2.7316
  711TMC3    H110517   1.617   2.750  15.604  0.8027  0.8736 -2.3991
  711TMC3    H210518   1.870   2.941  15.892  3.8188 -2.3432 -3.5808
  711TMC3    C710519   1.873   2.751  15.713  0.0175  0.2180 -0.1736
  711TMC3    C810520   1.724   3.157  15.905 -0.1530 -0.5699  0.1228
  711TMC3    O110521   1.976   2.768  15.774 -0.0543 -0.4252 -0.4841
  711TMC3    O210522   1.624   3.226  15.919 -0.2789 -0.2582  0.2148
  712MPD2     C10523   2.704   4.282  13.696 -0.2330 -0.7444  0.4350
  712MPD2    C110524   2.671   4.381  13.606  0.3624  0.2322  0.1664
  712MPD2    C210525   2.733   4.509  13.608  0.1727 -0.5490 -0.1264
  712MPD2    C310526   2.825   4.544  13.707  0.7067  0.4963  0.5124
  712MPD2    C410527   2.860   4.438  13.792 -0.2236 -0.0759  1.0205
  712MPD2    C510528   2.813   4.310  13.781  0.6811 -0.2676 -0.0356
  712MPD2     H10529   2.699   4.577  13.531 -4.1648 -0.1791  2.0848
  712MPD2    H110530   2.933   4.463  13.868  1.2792 -2.0951  0.2295
  712MPD2    H210531   2.655   4.186  13.706 -1.6892 -0.2545 -2.0728
  712MPD2    H310532   2.847   4.242  13.859 -0.8486  0.4361  1.2499
  712MPD2     N10533   2.872   4.672  13.720 -0.2162  0.7223  0.8133
  712MPD2    H510534   2.947   4.686  13.787  0.9495 -3.4059  0.3839
  712MPD2    N110535   2.585   4.360  13.497  0.1268 -0.0412 -0.3489
  712MPD2    H710536   2.563   4.432  13.428  2.8969  1.1368  0.0190
  713TMC3    C110537   2.896   0.171  13.677  0.0735 -0.6786 -0.2760
  713TMC3    C210538   3.028   0.158  13.692 -0.3659 -0.2712 -0.4463
  713TMC3    C310539   3.100   0.276  13.670 -0.1470 -0.0286 -0.4849
  713TMC3    C410540   2.828   0.291  13.648  0.0265  0.0290  0.2090
  713TMC3    C510541   2.908   0.403  13.617  0.4921  0.1537  0.7749
  713TMC3    C610542   3.040   0.390  13.630  1.1610  0.1949  0.9789
  713TMC3     C10543   2.825   0.057  13.645 -0.1044 -0.1938  0.1059
  713TMC3     O10544   2.713   0.074  13.592 -0.1652  0.4750 -0.2440
  713TMC3     H10545   3.085   0.066  13.695  2.6990  1.7276  4.4266
  713TMC3    H110546   2.719   0.292  13.645  0.1289  1.0238 -3.0886
  713TMC3    H210547   3.106   0.474  13.609 -0.9273  1.5949  0.0138
  713TMC3    C710548   2.848   0.537  13.621  0.5584  0.2494 -0.2906
  713TMC3    C810549   3.240   0.267  13.648  0.3403  0.1405  0.2055
  713TMC3    O110550   2.921   0.625  13.653 -0.3614  0.1069 -0.1436
  713TMC3    O210551   3.279   0.326  13.551  0.4990  0.0192  0.1736
  714MPD2     C10552   0.378   3.302   1.731  0.2757 -0.6150 -0.5127
  714MPD2    C110553   0.441   3.249   1.615 -0.0976  0.4295  0.2354
  714MPD2    C210554   0.416   3.317   1.498  0.1819  0.0016 -0.7139
  714MPD2    C310555   0.323   3.420   1.491 -1.0840 -0.4145 -0.2299
  714MPD2    C410556   0.260   3.460   1.602 -0.7969 -0.1164  0.3795
  714MPD2    C510557   0.291   3.402   1.722  0.5136 -0.5604  0.2222
  714MPD2     H10558   0.463   3.296   1.403 -0.6664 -1.3189 -0.8507
  714MPD2    H110559   0.192   3.543   1.586 -2.4586 -1.0601  2.6718
  714MPD2    H210560   0.400   3.274   1.834 -1.4678 -0.4667 -0.1109
  714MPD2    H310561   0.254   3.444   1.815 -0.3811 -0.4461 -0.1871
  714MPD2     N10562   0.308   3.475   1.367 -0.5796  0.2925  0.0446
  714MPD2    H510563   0.348   3.433   1.284  1.9070  1.8267  0.4648
  714MPD2    N110564   0.534   3.141   1.636  0.3193  0.3030  0.4703
  714MPD2    H710565   0.568   3.120   1.730  0.4213  0.2952  0.4320
  715TMC3    C110566   0.697   2.979   1.587 -0.7039  0.1009  1.4070
  715TMC3    C210567   0.720   2.856   1.520  0.3323  0.3721  0.2029
  715TMC3    C310568   0.837   2.785   1.545 -0.1059 -0.1931  0.4371
  715TMC3    C410569   0.786   3.028   1.671  0.4550 -0.4441 -0.4311
  715TMC3    C510570   0.898   2.955   1.693 -0.1069  0.0613 -0.4265
  715TMC3    C610571   0.926   2.833   1.640 -0.0970  0.3626 -0.3188
  715TMC3     C10572   0.581   3.058   1.538  0.1735 -0.4209 -0.3706
  715TMC3     O10573   0.514   3.033   1.433  0.4942  0.3448 -0.0880
  715TMC3     H10574   0.642   2.820   1.453  0.8318 -0.1141 -0.1143
  715TMC3    H110575   0.771   3.127   1.714  0.3370  0.4765 -2.5971
  715TMC3    H210576   1.025   2.793   1.658 -1.0862 -1.5747  0.8255
  715TMC3    C710577   1.014   3.021   1.750 -0.3662  0.6503  0.2629
  715TMC3    C810578   0.880   2.674   1.456  0.0103 -0.7955  0.2400
  715TMC3    O110579   1.122   2.971   1.729 -0.8361 -0.4466 -0.8419
  715TMC3    O210580   0.811   2.672   1.354  0.0606 -0.3932  0.0627
  716MPD2     C10581   0.641   1.311  10.045 -0.3600 -0.1490 -0.7494
  716MPD2    C110582   0.568   1.336   9.932  0.5326 -0.2770 -0.8895
  716MPD2    C210583   0.578   1.244   9.826  0.3359 -0.0476  0.1637
  716MPD2    C310584   0.660   1.134   9.838 -0.1689 -0.8156 -0.4466
  716MPD2    C410585   0.737   1.117   9.950  0.8250 -1.0779 -1.1905
  716MPD2    C510586   0.726   1.205  10.052  0.3378 -0.0944 -0.7330
  716MPD2     H10587   0.523   1.262   9.734 -0.3589  2.4987  1.0588
  716MPD2    H110588   0.808   1.035   9.961 -0.2960 -1.8321  0.5122
  716MPD2    H210589   0.631   1.375  10.132  0.7444 -1.3906  0.2930
  716MPD2    H310590   0.786   1.195  10.141 -0.3800 -0.1024 -0.2553
  716MPD2     N10591   0.667   1.047   9.721 -0.5158  0.4901 -0.6119
  716MPD2    H510592   0.614   1.075   9.640 -2.6880 -4.1024 -0.8189
  716MPD2    N110593   0.490   1.454   9.929 -0.2284  0.8874 -0.9991
  716MPD2    H710594   0.495   1.516  10.008 -2.4322 -0.1474 -0.0527
  717TMC3    C110595   0.759   0.899   9.562  0.0015 -0.2655  0.5872
  717TMC3    C210596   0.711   0.986   9.464 -0.1075 -0.1297 -0.6964
  717TMC3    C310597   0.689   0.934   9.340  0.1239  1.2464 -0.1404
  717TMC3    C410598   0.785   0.769   9.530 -0.4792 -0.4431 -0.7475
  717TMC3    C510599   0.774   0.732   9.402  0.5542 -0.3917  0.0772
  717TMC3    C610600   0.730   0.807   9.298  0.2887 -0.5733 -0.3226
  717TMC3     C10601   0.748   0.934   9.703 -0.0592 -0.0707 -0.7139
  717TMC3     O10602   0.816   0.865   9.780  0.2834  0.1783 -0.9389
  717TMC3     H10603   0.684   1.087   9.491  0.1839  0.5155 -2.8511
  717TMC3    H110604   0.809   0.698   9.609  1.2347 -0.7351 -1.5313
  717TMC3    H210605   0.725   0.776   9.194 -0.5222  0.4593 -0.5912
  717TMC3    C710606   0.757   0.594   9.369  0.0215  0.1088  0.2200
  717TMC3    C810607   0.595   1.001   9.256  0.0029  0.2156 -0.3095
  717TMC3    O110608   0.663   0.564   9.292 -0.3534 -0.1651  0.2075
  717TMC3    O210609   0.555   1.101   9.309 -0.4146 -0.2645 -0.1134
  718MPD2     C10610   4.332   1.036  12.226  0.4667 -0.4068  0.9825
  718MPD2    C110611   4.280   0.927  12.166 -0.2886 -0.2070 -0.4592
  718MPD2    C210612   4.217   0.832  12.241  0.0107  0.1518 -0.8676
  718MPD2    C310613   4.221   0.842  12.377  0.0017 -0.3362  1.0544
  718MPD2    C410614   4.278   0.952  12.442 -0.0455  0.2845  0.5657
  718MPD2    C510615   4.331   1.049  12.360 -0.6991 -0.0449  0.0784
  718MPD2     H10616   4.164   0.755  12.187 -0.4970  0.4762 -0.8336
  718MPD2    H110617   4.270   0.963  12.550  2.8731  0.0374  0.8003
  718MPD2    H210618   4.376   1.115  12.166 -1.3417  0.0924  0.2869
  718MPD2    H310619   4.361   1.143  12.403 -0.1570 -0.0412 -0.2966
  718MPD2     N10620   4.164   0.726  12.438  0.0234  0.0109 -0.4771
  718MPD2    H510621   4.146   0.644  12.381  1.7706 -1.2098  0.7465
  718MPD2    N110622   4.295   0.919  12.023  0.0111  0.1156  0.1648
  718MPD2    H710623   4.339   0.999  11.980 -1.8436 -0.7144 -3.2091
  719TMC3    C110624   4.321   0.807  11.821 -0.6385 -0.0584 -0.9027
  719TMC3    C210625   4.312   0.677  11.773 -1.0492  0.3742  0.1201
  719TMC3    C310626   4.425   0.620  11.722  0.1428  0.2090 -0.5323
  719TMC3    C410627   4.442   0.873  11.809  0.3569  0.4687 -0.8873
  719TMC3    C510628   4.549   0.820  11.751 -0.0084  0.5099  0.7191
  719TMC3    C610629   4.545   0.691  11.705 -0.2489  0.6820 -0.2677
  719TMC3     C10630   4.246   0.818  11.941 -0.2737 -0.0550  0.2165
  719TMC3     O10631   4.204   0.705  11.965  0.0485  0.7549  0.1548
  719TMC3     H10632   4.218   0.623  11.767 -2.1379  2.3461 -0.4444
  719TMC3    H110633   4.441   0.977  11.839 -2.2359 -0.0146  0.7334
  719TMC3    H210634   4.635   0.640  11.671 -0.2103  0.1623  0.5998
  719TMC3    C710635   4.683   0.878  11.770 -0.5669 -0.1727 -0.2433
  719TMC3    C810636   4.452   0.491  11.777 -0.1325  0.6931  0.2419
  719TMC3    O110637   0.060   0.819  11.721 -0.1450 -0.1648  0.3711
  719TMC3    O210638   4.538   0.419  11.729  0.0580  0.2986 -0.3081
  720MPD2     C10639   3.132   1.880  14.361 -0.7479 -0.0523  0.4805
  720MPD2    C110640   3.230   1.866  14.268 -0.3971  0.2560  0.0435
  720MPD2    C210641   3.347   1.802  14.304  0.4415  0.1537  0.0127
  720MPD2    C310642   3.360   1.752  14.433 -0.9596 -0.0178  0.1354
  720MPD2    C410643   3.256   1.764  14.523  0.0263  0.3972 -0.2434
  720MPD2    C510644   3.138   1.826  14.482  0.8765 -0.1129 -1.0745
  720MPD2     H10645   3.431   1.785  14.238  0.7933  0.0502  0.4876
  720MPD2    H110646   3.267   1.735  14.626 -3.4063  3.5865  1.0142
  720MPD2    H210647   3.038   1.924  14.330  0.1972  1.8618  0.3480
  720MPD2    H310648   3.057   1.835  14.554  1.8730 -0.3658  0.0767
  720MPD2     N10649   3.488   1.708  14.464  0.2063  0.4278 -0.4962
  720MPD2    H510650   3.560   1.722  14.394  2.2786 -1.0539  1.3565
  720MPD2    N110651   3.217   1.924  14.137  0.0503  0.5799 -0.5581
  720MPD2    H710652   3.142   1.991  14.122 -0.8753 -0.2988  0.0832
  721TMC3    C110653   3.666   1.628  14.594  1.0451 -0.4464  0.6134
  721TMC3    C210654   3.711   1.605  14.719  0.0903 -0.6530  0.5502
  721TMC3    C310655   3.844   1.628  14.751 -0.9008 -0.0111  0.1484
  721TMC3    C410656   3.751   1.685  14.500  0.6089 -0.4039  0.2497
  721TMC3    C510657   3.879   1.712  14.535  0.1433 -1.0116 -0.4319
  721TMC3    C610658   3.928   1.695  14.664 -0.4476  0.1557  0.2808
  721TMC3     C10659   3.520   1.650  14.585  0.0511  0.2960 -0.4853
  721TMC3     O10660   3.457   1.615  14.683  0.1090  0.5094 -0.2581
  721TMC3     H10661   3.651   1.577  14.804 -1.1605  0.7539  0.1170
  721TMC3    H110662   3.726   1.711  14.398  0.6608  0.2629  0.4065
  721TMC3    H210663   4.025   1.730  14.698 -1.1137 -1.4163  3.7667
  721TMC3    C710664   3.981   1.758  14.445  0.4457 -0.0241 -0.2772
  721TMC3    C810665   3.899   1.571  14.872 -0.1431 -0.3023  0.5053
  721TMC3    O110666   4.096   1.753  14.491 -0.3693  0.1786 -0.0283
  721TMC3    O210667   3.990   1.625  14.933  0.1417 -0.1630 -0.0919
  722MPD2     C10668   1.716   0.445  13.283 -0.4685 -0.2680  0.2036
  722MPD2    C110669   1.699   0.565  13.229 -0.3938  0.0977  0.1086
  722MPD2    C210670   1.590   0.585  13.143 -0.1435  1.0413  0.2208
  722MPD2    C310671   1.505   0.484  13.103 -0.9011 -0.1031  0.3563
  722MPD2    C410672   1.534   0.360  13.160  1.0897 -0.6097  0.6559
  722MPD2    C510673   1.640   0.344  13.249  0.1002  0.6112  0.4988
  722MPD2     H10674   1.571   0.680  13.095 -0.7993  0.1811 -1.2351
  722MPD2    H110675   1.469   0.277  13.137  0.4885  0.4530 -1.4670
  722MPD2    H210676   1.792   0.428  13.359 -0.4346  1.7669  0.6217
  722MPD2    H310677   1.656   0.250  13.300 -0.4918 -0.4955 -1.3600
  722MPD2     N10678   1.403   0.512  13.003  0.6045  0.6103  0.0530
  722MPD2    H510679   1.403   0.605  12.963 -0.9666  0.5268 -0.1563
  722MPD2    N110680   1.769   0.683  13.268  0.0538 -0.6833 -0.2709
  722MPD2    H710681   1.748   0.770  13.221  1.8127  0.8047  1.7238
  723TMC3    C110682   1.227   0.468  12.850 -0.3042 -0.8109 -0.0488
  723TMC3    C210683   1.145   0.370  12.809 -0.2304  0.0620  0.0686
  723TMC3    C310684   1.065   0.396  12.700  0.0984  0.2987 -0.1797
  723TMC3    C410685   1.239   0.593  12.796  0.8960 -0.2875  0.5631
  723TMC3    C510686   1.152   0.615  12.692 -0.2772 -0.5819 -0.3086
  723TMC3    C610687   1.063   0.523  12.649  0.9170  0.2599 -0.3356
  723TMC3     C10688   1.308   0.421  12.962  0.8980 -0.2318  0.4079
  723TMC3     O10689   1.278   0.318  13.010 -0.8308 -0.1976 -0.4771
  723TMC3     H10690   1.144   0.275  12.861 -2.0423  0.6949  1.1913
  723TMC3    H110691   1.316   0.665  12.823  1.4687 -1.1091  1.1287
  723TMC3    H210692   0.996   0.544  12.567  0.0798  2.7311  0.9996
  723TMC3    C710693   1.159   0.740  12.618 -0.5099  0.1530 -0.1449
  723TMC3    C810694   0.977   0.291  12.638 -0.1617 -0.3025  0.4760
  723TMC3    O110695   1.066   0.743  12.535 -0.4388  0.2916  0.6986
  723TMC3    O210696   0.884   0.332  12.571  0.0683  0.5140 -1.8079
  724TMC3    C110697   1.546   2.979   9.345 -0.0876  0.4647 -0.4499
  724TMC3    C210698   1.513   3.090   9.416  0.7169  0.3608  1.0974
  724TMC3    C310699   1.605   3.193   9.430  0.6277  0.4313  0.5151
  724TMC3    C410700   1.665   2.970   9.282 -0.5222  0.6830 -0.1507
  724TMC3    C510701   1.747   3.076   9.288 -0.3779 -0.7196  1.0965
  724TMC3    C610702   1.720   3.188   9.358 -0.2892  0.4467  0.5051
  724TMC3     C10703   1.450   2.868   9.332 -0.4066 -0.1690  0.3293
  724TMC3     O10704   1.495   2.759   9.298  0.3115  0.0189 -0.4630
  724TMC3     H10705   1.431   3.085   9.487  0.1850 -2.2801  0.2988
  724TMC3    H110706   1.672   2.883   9.218  3.1376  0.6562  0.2937
  724TMC3    H210707   1.786   3.274   9.354  1.3518 -0.9379 -2.1565
  724TMC3    C710708   1.870   3.070   9.211 -0.1868 -0.3640 -0.1276
  724TMC3    C810709   1.573   3.307   9.512 -0.4306 -0.2631  0.5298
  724TMC3    O110710   1.937   3.173   9.207 -0.1057 -0.4868 -0.0750
  724TMC3    O210711   1.454   3.333   9.533 -0.0608 -0.1642 -0.1385
  725TMC3    C110712   3.776   2.193  12.989 -0.0433  1.0481 -0.4729
  725TMC3    C210713   3.701   2.233  12.879  0.7144 -0.3083  0.0757
  725TMC3    C310714   3.609   2.140  12.830 -1.0098  0.0411  0.0620
  725TMC3    C410715   3.774   2.066  13.046  0.8516  0.3048  0.6098
  725TMC3    C510716   3.678   1.981  12.993  0.4354 -1.1683 -0.1432
  725TMC3    C610717   3.590   2.017  12.893 -0.2016  0.6299 -0.4286
  725TMC3     C10718   3.843   2.296  13.064 -0.5575 -1.0188 -0.7934
  725TMC3     O10719   3.851   2.404  13.014 -0.1286  0.6561  0.6026
  725TMC3     H10720   3.727   2.321  12.822 -2.2831  0.6657  0.2051
  725TMC3    H110721   3.851   2.023  13.108  1.9270  0.1255 -0.8439
  725TMC3    H210722   3.517   1.945  12.860  0.7494 -0.6215  0.1903
  725TMC3    C710723   3.723   1.846  12.983 -0.1044  0.3604  0.6857
  725TMC3    C810724   3.558   2.147  12.698 -0.0209  0.1015 -0.2729
  725TMC3    O110725   3.827   1.814  12.920 -0.5181  0.3837 -0.1204
  725TMC3    O210726   3.479   2.053  12.673  0.1162 -0.6703 -0.1874
  726MPD2     C10727   1.216   3.726  10.203  1.1940 -0.0520 -0.2753
  726MPD2    C110728   1.310   3.673  10.299 -0.0115  0.3078  0.4126
  726MPD2    C210729   1.310   3.539  10.314 -0.2089  0.3001  0.5424
  726MPD2    C310730   1.229   3.455  10.239  0.1935  0.1989  0.0362
  726MPD2    C410731   1.151   3.500  10.137  0.0599 -0.6238 -0.2121
  726MPD2    C510732   1.143   3.635  10.129  0.5781  0.7451 -0.1287
  726MPD2     H10733   1.382   3.502  10.387  2.8610  1.7767 -1.7657
  726MPD2    H110734   1.080   3.435  10.088 -0.5858  0.7974 -1.1701
  726MPD2    H210735   1.206   3.831  10.178  0.7643 -0.0230  0.0291
  726MPD2    H310736   1.063   3.674  10.067  0.0431  0.6893  0.5264
  726MPD2     N10737   1.218   3.324  10.271 -0.6868  0.1204  0.1902
  726MPD2    H510738   1.146   3.271  10.222  0.8906 -0.4167 -1.5791
  726MPD2    N110739   1.415   3.743  10.369 -0.7400  0.3504  0.1700
  726MPD2    H710740   1.476   3.685  10.426 -0.1893 -0.3898 -1.1759
  727TMC3    C110741   1.549   3.927  10.436  0.5074 -0.5137 -0.2019
  727TMC3    C210742   1.654   3.847  10.453 -0.2290  0.1002 -0.6201
  727TMC3    C310743   1.782   3.903  10.457  0.1070  0.4384 -0.2651
  727TMC3    C410744   1.558   4.057  10.465  0.2915 -0.0742 -0.2630
  727TMC3    C510745   1.680   4.106  10.496 -0.7920 -0.0511  0.1780
  727TMC3    C610746   1.794   4.036  10.482 -0.3626 -0.3322  0.2045
  727TMC3     C10747   1.429   3.880  10.371 -0.6312  0.0157  0.2656
  727TMC3     O10748   1.360   3.964  10.313  0.1143  0.1344  0.0629
  727TMC3     H10749   1.655   3.746  10.413  0.3065 -0.0298 -0.2769
  727TMC3    H110750   1.470   4.121  10.464  1.0825  1.0211 -0.6219
  727TMC3    H210751   1.887   4.090  10.463 -1.1007  0.4375 -1.2032
  727TMC3    C710752   1.683   4.246  10.520 -0.0924  0.2676  0.1556
  727TMC3    C810753   1.907   3.828  10.453 -0.4187  0.1648 -0.3248
  727TMC3    O110754   1.577   4.305  10.505  0.9861 -0.6191  0.1217
  727TMC3    O210755   1.993   3.889  10.519 -0.3003  0.5258 -0.7141
  728TMC3    C110756   1.467   2.085  15.148 -0.4323  0.5030 -0.6066
  728TMC3    C210757   1.601   2.090  15.183  0.2626 -0.2183 -1.0991
  728TMC3    C310758   1.686   2.142  15.094 -0.0380 -0.4147  0.0402
  728TMC3    C410759   1.412   2.134  15.031 -0.0860  0.0121 -0.8298
  728TMC3    C510760   1.507   2.204  14.946  0.4828  0.7005  0.0508
  728TMC3    C610761   1.641   2.200  14.982  0.3365 -0.0921 -0.2862
  728TMC3     C10762   1.374   2.043  15.254  0.3247  0.3988 -0.1952
  728TMC3     O10763   1.429   1.996  15.353  0.3944 -0.0330  0.1472
  728TMC3     H10764   1.652   2.058  15.274 -0.8612  1.2778  0.0564
  728TMC3    H110765   1.309   2.135  14.998 -0.3631 -0.0894  0.0488
  728TMC3    H210766   1.710   2.253  14.917  1.2621 -1.5661 -0.4994
  728TMC3    C710767   1.454   2.284  14.839  0.4254 -0.5975 -0.0154
  728TMC3    C810768   1.826   2.129  15.116 -0.5081  0.1265  0.1458
  728TMC3    O110769   1.348   2.338  14.862  0.1642  0.3375  0.1031
  728TMC3    O210770   1.858   2.112  15.235 -0.4426 -0.1992 -0.0412
  729MPD2     C10771   3.365   3.621  16.712 -0.3069 -0.1693  0.1518
  729MPD2    C110772   3.445   3.503  16.723  0.3859 -0.3015 -1.0899
  729MPD2    C210773   3.495   3.468  16.849 -0.6708 -0.5716  0.4298
  729MPD2    C310774   3.449   3.533  16.965 -0.3681  0.8551 -0.2177
  729MPD2    C410775   3.378   3.651  16.947 -0.6919  0.1338  0.7649
  729MPD2    C510776   3.332   3.689  16.826 -0.5795 -0.0977 -0.3836
  729MPD2     H10777   3.561   3.383  16.861 -2.0317 -1.3596  2.3033
  729MPD2    H110778   3.346   3.713  17.030 -0.4229  1.1116  0.1430
  729MPD2    H210779   3.311   3.651  16.623 -1.9220 -1.1371  0.8135
  729MPD2    H310780   3.272   3.779  16.822  0.4739  0.5292 -2.2671
  729MPD2     N10781   3.475   3.490  17.090 -0.2741  0.2891 -0.1288
  729MPD2    H510782   3.429   3.536  17.168  0.6131  0.3039  0.3940
  729MPD2    N110783   3.481   3.424  16.612  0.4376 -0.7897  0.5016
  729MPD2    H710784   3.428   3.445  16.528  0.5348 -1.6842  0.2221
  730TMC3    C110785   3.531   3.330  17.257 -0.6599  0.4321  0.5856
  730TMC3    C210786   3.649   3.289  17.314  1.1147 -0.2658 -0.4445
  730TMC3    C310787   3.677   3.335  17.440  0.0122  0.0283  0.0662
  730TMC3    C410788   3.442   3.401  17.336  0.0928 -0.2305  0.5714
  730TMC3    C510789   3.490   3.457  17.453 -0.3038  0.2636 -0.1151
  730TMC3    C610790   3.609   3.429  17.509  0.1330  0.0995  0.1709
  730TMC3     C10791   3.552   3.378  17.122  0.6680  0.4923 -0.2762
  730TMC3     O10792   3.645   3.332  17.060  0.2337  0.1973 -0.2032
  730TMC3     H10793   3.711   3.226  17.251  0.6895 -0.2241 -0.9047
  730TMC3    H110794   3.338   3.415  17.308 -0.4529  0.7722  3.1319
  730TMC3    H210795   3.644   3.465  17.606 -0.3187  0.7842  0.0799
  730TMC3    C710796   3.460   3.598  17.443  0.2169  0.3582  0.5179
  730TMC3    C810797   3.790   3.278  17.509  0.5559  0.3639 -0.1464
  730TMC3    O110798   3.392   3.642  17.347 -0.3094 -0.0849 -0.0441
  730TMC3    O210799   3.786   3.289  17.632 -0.2118 -0.4557  0.1167
  731MPD2     C10800   2.839   1.454  12.467 -0.3097  0.2927 -0.0553
  731MPD2    C110801   2.905   1.338  12.449  0.8619 -0.0926 -0.0153
  731MPD2    C210802   2.899   1.239  12.547  0.0934  0.2486  0.6325
  731MPD2    C310803   2.820   1.265  12.662  0.0723  0.7340 -0.4977
  731MPD2    C410804   2.767   1.391  12.686  1.1412  0.1748 -0.1669
  731MPD2    C510805   2.772   1.479  12.586 -1.2530 -0.4090  0.9984
  731MPD2     H10806   2.931   1.136  12.532 -2.1265 -0.6451  1.8693
  731MPD2    H110807   2.726   1.418  12.783 -0.6857  4.3289 -2.0894
  731MPD2    H210808   2.831   1.527  12.387  0.9934 -0.4907 -0.9029
  731MPD2    H310809   2.719   1.573  12.599  0.3466  1.0888 -3.1957
  731MPD2     N10810   2.810   1.157  12.749  0.0424 -0.2412 -0.2671
  731MPD2    H510811   2.840   1.066  12.715  0.3484  0.1043 -0.9329
  731MPD2    N110812   2.968   1.310  12.325 -0.2830  0.3656  0.3821
  731MPD2    H710813   2.965   1.380  12.251 -1.2545  0.8980  0.9354
  732TMC3    C110814   3.124   1.211  12.184  0.2844 -0.0516 -0.0364
  732TMC3    C210815   3.035   1.200  12.086  0.7001  0.3534  0.3733
  732TMC3    C310816   3.085   1.224  11.957  0.1360 -0.0825  0.3534
  732TMC3    C410817   3.254   1.243  12.173  0.0989  0.6989  0.5787
  732TMC3    C510818   3.293   1.270  12.041  0.0259  0.2759  0.1974
  732TMC3    C610819   3.210   1.281  11.931  0.2691 -0.9426  0.4287
  732TMC3     C10820   3.069   1.213  12.315 -0.0321  0.1159  0.0586
  732TMC3     O10821   3.116   1.134  12.397  0.0145  0.0879 -0.5330
  732TMC3     H10822   2.934   1.162  12.099  1.0808 -0.3099  1.4347
  732TMC3    H110823   3.310   1.259  12.264  2.4411  0.0663 -0.7447
  732TMC3    H210824   3.239   1.305  11.830 -1.4601  0.3012  0.2320
  732TMC3    C710825   3.423   1.331  12.019  0.1108 -0.0125 -0.1591
  732TMC3    C810826   2.992   1.243  11.848 -0.1957 -0.0695 -0.0333
  732TMC3    O110827   3.423   1.410  11.928 -0.3082 -0.1287 -0.7064
  732TMC3    O210828   3.029   1.229  11.731 -0.4211  0.2082  0.7494
  733TMC3    C110829   4.035   0.380  12.706  0.2532  0.8802 -0.5992
  733TMC3    C210830   4.043   0.515  12.684  0.3818 -0.4580  0.6071
  733TMC3    C310831   4.126   0.562  12.582 -0.7089  0.3922 -0.0947
  733TMC3    C410832   4.115   0.292  12.642 -0.4871  0.1395 -0.3246
  733TMC3    C510833   4.206   0.344  12.554 -0.6501  0.2272 -0.2986
  733TMC3    C610834   4.214   0.476  12.523 -0.0520 -0.3718  0.0595
  733TMC3     C10835   3.912   0.341  12.772 -0.7622  0.8739 -0.1029
  733TMC3     O10836   3.815   0.419  12.773  0.5089 -0.3474 -0.4837
  733TMC3     H10837   3.979   0.587  12.733  2.2195  1.0512  0.7669
  733TMC3    H110838   4.093   0.186  12.637  0.7897 -0.0805 -1.1857
  733TMC3    H210839   4.285   0.529  12.460 -0.3030  0.9478  0.8857
  733TMC3    C710840   4.255   0.256  12.446  0.4286  0.0452  0.4252
  733TMC3    C810841   4.157   0.704  12.576 -0.8917  0.4470 -0.6395
  733TMC3    O110842   4.276   0.139  12.466  0.4499  0.3359 -0.1341
  733TMC3    O210843   4.142   0.772  12.675  0.5449 -0.1171 -0.1648
  734MPD2     C10844   1.393   2.585  12.209  0.1848 -0.3975  0.5687
  734MPD2    C110845   1.306   2.480  12.167  1.2265  0.3815 -0.3408
  734MPD2    C210846   1.308   2.448  12.032 -0.0661 -0.2920 -0.2142
  734MPD2    C310847   1.375   2.528  11.943 -0.5009 -0.5324  0.4601
  734MPD2    C410848   1.463   2.619  11.984  0.4239 -0.0470  0.4957
  734MPD2    C510849   1.464   2.652  12.117 -0.4057  0.4481  0.4842
  734MPD2     H10850   1.243   2.375  11.985 -0.5720  0.0679 -0.0642
  734MPD2    H110851   1.511   2.684  11.912  1.1675 -0.6484  0.4530
  734MPD2    H210852   1.406   2.624  12.310  2.6042 -0.2130  0.1935
  734MPD2    H310853   1.518   2.736  12.158 -0.7622 -0.0386  1.9727
  734MPD2     N10854   1.350   2.498  11.809  0.3684  0.0128 -0.2770
  734MPD2    H510855   1.286   2.419  11.804 -1.6864  1.6920 -0.3732
  734MPD2    N110856   1.214   2.412  12.258 -0.2632 -0.1642 -0.1670
  734MPD2    H710857   1.235   2.413  12.357  0.0985  1.6264 -0.2644
  735TMC3    C110858   1.040   2.264  12.308 -0.0855 -0.3476 -0.5065
  735TMC3    C210859   0.928   2.208  12.254 -0.0105 -0.1661  0.5703
  735TMC3    C310860   0.909   2.070  12.273 -0.2798  0.6607 -0.1158
  735TMC3    C410861   1.132   2.195  12.374  0.0960  0.5394 -0.0675
  735TMC3    C510862   1.112   2.058  12.387  0.0175 -0.3822 -0.0011
  735TMC3    C610863   1.003   1.990  12.330 -0.3717 -0.5151 -0.6706
  735TMC3     C10864   1.098   2.352  12.214  0.4890 -0.2358  0.0274
  735TMC3     O10865   1.048   2.347  12.100 -0.4653 -0.5379 -0.5533
  735TMC3     H10866   0.858   2.266  12.195  0.5288  0.2343  0.3199
  735TMC3    H110867   1.212   2.237  12.435  0.3738  0.1660 -0.1749
  735TMC3    H210868   0.991   1.882  12.335  1.2856 -0.6226  0.8741
  735TMC3    C710869   1.224   1.982  12.435 -0.4070  0.2544  0.0840
  735TMC3    C810870   0.858   2.015  12.145 -0.3594  0.1149  0.3255
  735TMC3    O110871   1.203   1.879  12.494 -0.1562 -0.6898 -0.0520
  735TMC3    O210872   0.781   1.921  12.138  0.0503  0.5242  0.6558
  736MPD2     C10873   1.506   1.886  12.506 -0.2112 -0.1932  1.2305
  736MPD2    C110874   1.475   1.963  12.397 -0.5038  0.6158 -1.4657
  736MPD2    C210875   1.570   2.005  12.306 -0.0752 -0.3246  0.2209
  736MPD2    C310876   1.701   1.964  12.324  0.2746 -0.0805  0.1339
  736MPD2    C410877   1.730   1.895  12.442 -0.2607 -0.0114 -0.1703
  736MPD2    C510878   1.633   1.851  12.527 -0.0153  0.2573 -0.3915
  736MPD2     H10879   1.541   2.038  12.207 -1.6490 -1.8776  0.1617
  736MPD2    H110880   1.830   1.857  12.454  0.6248  2.5332  0.5164
  736MPD2    H210881   1.428   1.852  12.573  1.3478 -0.6591  2.8160
  736MPD2    H310882   1.657   1.786  12.611 -0.2668 -0.0730 -0.5733
  736MPD2     N10883   1.810   1.989  12.237  0.2694  0.7489 -0.2661
  736MPD2    H510884   1.899   1.943  12.253  0.0338  0.9444  1.5689
  736MPD2    N110885   1.345   2.019  12.375  0.7742 -0.9203  0.0840
  736MPD2    H710886   1.343   2.087  12.300  1.0185  1.0791  1.8955
  737TMC3    C110887   1.930   2.086  12.066  0.3772  0.1375  0.6737
  737TMC3    C210888   1.950   2.186  11.971 -0.2486 -0.0707 -0.0452
  737TMC3    C310889   2.046   2.174  11.876  0.3758  0.2540  0.5707
  737TMC3    C410890   2.004   1.975  12.056 -0.0364 -0.4555  0.5777
  737TMC3    C510891   2.104   1.966  11.958 -0.3153 -0.2271  0.3421
  737TMC3    C610892   2.127   2.068  11.867 -0.1918 -0.2322  0.0338
  737TMC3     C10893   1.804   2.072  12.129  0.4010 -0.3648 -0.1843
  737TMC3     O10894   1.722   2.159  12.111 -0.2203  0.2070 -0.0458
  737TMC3     H10895   1.881   2.267  11.952  0.4565  0.5710  0.1482
  737TMC3    H110896   1.991   1.887  12.117 -3.3914 -0.7220 -0.5645
  737TMC3    H210897   2.191   2.065  11.780 -1.1121 -0.2337 -0.6518
  737TMC3    C710898   2.129   1.828  11.905 -0.2479 -0.5128 -0.1158
  737TMC3    C810899   2.015   2.233  11.752 -0.0464 -0.1045 -0.5269
  737TMC3    O110900   2.040   1.748  11.928  0.2495  0.3920 -0.4249
  737TMC3    O210901   1.908   2.216  11.704 -0.9324  0.3053 -0.3350
  738MPD2     C10902   2.415   0.943  15.640 -0.1947 -0.1187  0.0485
  738MPD2    C110903   2.398   0.891  15.516  0.3641 -0.0488  0.1090
  738MPD2    C210904   2.492   0.903  15.413  0.2988 -0.6112 -0.4820
  738MPD2    C310905   2.603   0.974  15.443 -0.5964 -0.0226 -0.3063
  738MPD2    C410906   2.628   1.012  15.572  0.3902 -0.4068  0.2463
  738MPD2    C510907   2.536   0.998  15.667  0.2434  0.0388 -0.2927
  738MPD2     H10908   2.482   0.845  15.322  1.9276  0.4973 -1.3715
  738MPD2    H110909   2.723   1.059  15.592 -0.2260  1.2340 -0.7200
  738MPD2    H210910   2.354   0.925  15.727  0.3217 -0.9730  0.2424
  738MPD2    H310911   2.563   1.034  15.766 -0.0777  1.6717 -0.7866
  738MPD2     N10912   2.699   1.008  15.349  0.1003 -0.1718  0.4187
  738MPD2    H510913   2.783   1.060  15.370 -0.7128  1.3643 -0.1673
  738MPD2    N110914   2.280   0.809  15.477 -0.0615  0.1513  0.5285
  738MPD2    H710915   2.278   0.775  15.382 -1.2800  1.9393 -0.0964
  739TMC3    C110916   2.821   1.010  15.153  1.1420 -0.3771 -0.3284
  739TMC3    C210917   2.818   1.044  15.022  0.1616  0.3412 -0.2511
  739TMC3    C310918   2.909   1.140  14.984  0.4090  0.0867 -0.1896
  739TMC3    C410919   2.917   1.066  15.233  0.4915  1.1826  0.0983
  739TMC3    C510920   3.013   1.153  15.187 -0.0043  0.7780  0.0315
  739TMC3    C610921   3.005   1.198  15.060 -0.7365  0.0646 -0.4765
  739TMC3     C10922   2.694   0.963  15.215  0.5231 -0.5956  0.5120
  739TMC3     O10923   2.598   0.946  15.146 -0.4567 -0.1419 -0.3576
  739TMC3     H10924   2.741   1.000  14.959 -0.6518  0.5178  0.6019
  739TMC3    H110925   2.939   1.021  15.329  0.5286 -0.9285 -0.8931
  739TMC3    H210926   3.054   1.285  15.019 -1.1397  0.9695  0.9770
  739TMC3    C710927   3.109   1.203  15.282  0.2119 -0.1106  0.1972
  739TMC3    C810928   2.887   1.192  14.844 -0.5195 -0.4975 -0.3826
  739TMC3    O110929   3.087   1.185  15.399 -0.1844  0.3710 -0.2980
  739TMC3    O210930   2.779   1.157  14.797  0.1315 -0.1647  0.1157
  740TMC3    C110931   3.384   2.140  14.517 -0.4471 -0.3536  0.3714
  740TMC3    C210932   3.450   2.107  14.634  0.0874  0.2705 -0.3499
  740TMC3    C310933   3.576   2.051  14.623  0.2699  0.1232 -0.5462
  740TMC3    C410934   3.442   2.139  14.391 -0.6207  0.8446  0.1880
  740TMC3    C510935   3.566   2.077  14.386 -1.0391  0.1617  0.2964
  740TMC3    C610936   3.634   2.049  14.500 -0.0864  0.2682  0.1362
  740TMC3     C10937   3.257   2.200  14.532  0.5520 -0.1334 -0.0112
  740TMC3     O10938   3.239   2.296  14.463 -0.0474 -0.5063  0.0720
  740TMC3     H10939   3.408   2.130  14.731 -0.8089 -0.1086 -0.6529
  740TMC3    H110940   3.390   2.179  14.305  1.0977  1.0958 -0.7277
  740TMC3    H210941   3.739   2.020  14.496 -0.2050  0.1322 -1.9734
  740TMC3    C710942   3.608   2.016  14.264  0.4723  0.3204  1.0395
  740TMC3    C810943   3.647   2.017  14.741 -0.7889 -0.2042  0.6392
  740TMC3    O110944   3.662   1.905  14.271 -0.0146  0.0403 -0.2986
  740TMC3    O210945   3.773   2.029  14.736  0.2024  0.0765  0.3919
  741TMC3    C110946   2.551   1.487  14.536 -0.9616 -0.3773 -0.3603
  741TMC3    C210947   2.456   1.387  14.528 -0.5868 -0.1523 -0.0682
  741TMC3    C310948   2.429   1.315  14.643  0.3021 -0.0218  0.0600
  741TMC3    C410949   2.616   1.515  14.657 -0.4955 -0.1000 -0.5455
  741TMC3    C510950   2.577   1.443  14.764 -0.9094 -0.0725 -0.2664
  741TMC3    C610951   2.477   1.347  14.768  1.0088  0.6194  0.6020
  741TMC3     C10952   2.561   1.579  14.419  0.1562  0.7127 -0.6561
  741TMC3     O10953   2.512   1.544  14.314 -0.4871 -0.6194 -0.0229
  741TMC3     H10954   2.412   1.367  14.431  2.5751 -0.3943 -1.4458
  741TMC3    H110955   2.702   1.578  14.674 -0.9175  0.6762 -1.2461
  741TMC3    H210956   2.448   1.306  14.864  2.5454 -1.7657  0.0375
  741TMC3    C710957   2.663   1.451  14.884  0.0881  0.7844 -0.6409
  741TMC3    C810958   2.315   1.223  14.636 -0.4919  0.3913  0.1726
  741TMC3    O110959   2.767   1.514  14.872  0.2414  0.3577 -0.2978
  741TMC3    O210960   2.264   1.203  14.527  0.2370 -0.2216 -0.2240
  742TMC3    C110961   2.182   4.693  15.376 -0.7740  0.3036  0.1762
  742TMC3    C210962   2.094   4.663  15.282 -0.4141  0.9485  0.3235
  742TMC3    C310963   2.123   4.565  15.192 -0.6696  0.3472  0.8202
  742TMC3    C410964   2.299   4.624  15.399 -0.3340 -0.1602  0.0284
  742TMC3    C510965   2.328   4.524  15.306 -0.5491 -0.0066 -0.2074
  742TMC3    C610966   2.246   4.500  15.197 -0.1559  0.3421  0.0423
  742TMC3     C10967   2.168   0.098  15.448  0.2852 -0.2669 -0.0125
  742TMC3     O10968   2.058   0.126  15.487 -0.2873  0.0028 -0.0155
  742TMC3     H10969   2.011   0.010  15.266  0.8238  1.8704 -2.1976
  742TMC3    H110970   2.367   4.667  15.471 -1.1164  3.0306 -1.1570
  742TMC3    H210971   2.273   4.415  15.137 -0.8471 -0.0415  0.2774
  742TMC3    C710972   2.442   4.425  15.323 -0.4458  0.2470  0.6583
  742TMC3    C810973   2.052   4.540  15.073  0.0578  0.3582 -0.0701
  742TMC3    O110974   2.444   4.331  15.245  0.3951 -0.0263 -0.1273
  742TMC3    O210975   2.118   4.483  14.985 -0.0618 -0.3824 -0.2160
  743MPD2     C10976   1.648   0.630   2.044  0.0041  0.6220 -0.1780
  743MPD2    C110977   1.681   0.713   1.935  0.6453 -0.2680  0.0851
  743MPD2    C210978   1.803   0.768   1.927 -0.3465 -0.5146  0.5696
  743MPD2    C310979   1.900   0.740   2.026 -0.6134 -0.4874 -0.2590
  743MPD2    C410980   1.867   0.663   2.137 -0.1285  0.7749  0.2187
  743MPD2    C510981   1.745   0.603   2.139 -0.6472  1.0678  0.6536
  743MPD2     H10982   1.829   0.834   1.846  0.0018 -0.0563  1.0520
  743MPD2    H110983   1.938   0.639   2.215 -1.1525 -1.0621  0.5818
  743MPD2    H210984   1.554   0.578   2.058 -1.5787  2.8428 -2.4185
  743MPD2    H310985   1.727   0.537   2.223  0.3930 -0.8733 -0.6269
  743MPD2     N10986   2.033   0.781   1.997 -0.5478  0.0190  0.0847
  743MPD2    H510987   2.049   0.821   1.905 -0.9793  0.4875  0.2154
  743MPD2    N110988   1.582   0.735   1.836  0.0384 -0.0353 -0.4485
  743MPD2    H710989   1.492   0.691   1.853 -1.3452  1.6744 -3.3946
  744TMC3    C110990   1.463   0.816   1.660 -0.0194 -0.4228  0.2226
  744TMC3    C210991   1.353   0.819   1.745 -0.6745  0.1885 -0.1962
  744TMC3    C310992   1.235   0.823   1.682  0.1123 -0.0692 -0.3729
  744TMC3    C410993   1.455   0.812   1.522 -0.0455 -0.3293 -0.5148
  744TMC3    C510994   1.327   0.796   1.476 -0.3220  0.4033  0.2363
  744TMC3    C610995   1.210   0.799   1.549 -0.4024 -0.3386 -0.0263
  744TMC3     C10996   1.592   0.804   1.721 -0.1616  0.5379 -0.1020
  744TMC3     O10997   1.690   0.848   1.665  0.0454  0.0407  0.1705
  744TMC3     H10998   1.361   0.842   1.850  0.2990  1.7383 -0.6171
  744TMC3    H110999   1.537   0.798   1.453 -1.4385  0.2368 -2.2820
  744TMC3    H211000   1.109   0.794   1.509 -0.5405 -0.7913  0.3871
  744TMC3    C711001   1.318   0.763   1.333  0.8401 -0.6676 -0.3318
  744TMC3    C811002   1.115   0.829   1.760  0.0148  0.5246 -0.1230
  744TMC3    O111003   1.407   0.809   1.260 -0.2894 -0.6528 -0.1101
  744TMC3    O211004   1.010   0.852   1.701 -0.3246  0.4487  0.2947
  745TMC3    C111005   2.424   4.276  13.349  0.1803  0.1352 -0.1024
  745TMC3    C211006   2.297   4.248  13.383  0.1024  0.6045  0.2142
  745TMC3    C311007   2.198   4.335  13.357  1.0253  0.4696 -0.0657
  745TMC3    C411008   2.458   4.386  13.276  0.9619  0.3153 -0.5365
  745TMC3    C511009   2.361   4.466  13.238  0.0827 -0.2314 -0.6772
  745TMC3    C611010   2.232   4.449  13.287  0.2406 -0.0338  0.1384
  745TMC3     C11011   2.509   4.249  13.462  0.6781 -0.3570  0.6220
  745TMC3     O11012   2.497   4.152  13.530  0.6835 -0.2015  0.7193
  745TMC3     H11013   2.284   4.176  13.463  0.5749 -0.3207 -0.5523
  745TMC3    H111014   2.560   4.400  13.243  0.8490 -0.2413 -1.1277
  745TMC3    H211015   2.154   4.517  13.256  1.2697  0.5348 -1.2280
  745TMC3    C711016   2.376   4.593  13.163 -0.1623  0.1235  0.3336
  745TMC3    C811017   2.115   4.358  13.476 -0.3020 -0.3428  0.3289
  745TMC3    O111018   2.280   4.673  13.147 -0.1138 -0.9737 -0.1063
  745TMC3    O211019   2.061   4.263  13.521  0.2637  0.6749 -0.3149
  746TMC3    C111020   0.309   1.493  11.167 -0.0070  0.0650  0.1685
  746TMC3    C211021   0.392   1.460  11.061  0.0827  0.1866  0.3196
  746TMC3    C311022   0.396   1.327  11.028 -0.7712 -1.1161  1.0337
  746TMC3    C411023   0.236   1.401  11.235  0.3128  0.1859 -0.2710
  746TMC3    C511024   0.238   1.271  11.191 -0.3296  0.4569 -0.0796
  746TMC3    C611025   0.315   1.232  11.080 -0.0552 -0.1697 -0.3727
  746TMC3     C11026   0.254   1.633  11.181  0.6942 -0.3181 -0.0764
  746TMC3     O11027   0.159   1.643  11.256  0.0457  0.1514 -0.6081
  746TMC3     H11028   0.463   1.527  11.015  0.1461  0.0239  0.1802
  746TMC3    H111029   0.166   1.435  11.311 -0.6649  0.1578 -1.1564
  746TMC3    H211030   0.317   1.130  11.044 -0.8199 -0.5742  0.7509
  746TMC3    C711031   0.120   1.186  11.207 -0.1349  0.5032  0.0031
  746TMC3    C811032   0.441   1.294  10.892 -0.0546 -0.1249 -0.7245
  746TMC3    O111033   0.114   1.086  11.134 -0.4797 -0.1316 -0.0818
  746TMC3    O211034   0.461   1.178  10.864  0.2130  0.2497 -0.7285
  747TMC3    C111035   2.875   1.703  11.143 -0.1962  1.2317  0.1641
  747TMC3    C211036   2.756   1.662  11.191  0.5855 -0.5593 -0.3557
  747TMC3    C311037   2.683   1.742  11.281 -0.3856 -0.3139  0.2985
  747TMC3    C411038   2.926   1.823  11.177  0.1399 -0.4692  0.7737
  747TMC3    C511039   2.851   1.901  11.262  0.0706 -0.5691  0.9594
  747TMC3    C611040   2.736   1.860  11.325 -0.5548 -0.4040  0.6136
  747TMC3     C11041   2.974   1.601  11.109  0.2995 -0.3720 -0.1788
  747TMC3     O11042   3.083   1.623  11.158  0.2677 -0.2789 -0.2337
  747TMC3     H11043   2.724   1.559  11.182 -2.8576  0.6039 -1.3156
  747TMC3    H111044   3.021   1.851  11.132  1.1005 -1.6431  2.0445
  747TMC3    H211045   2.685   1.936  11.382 -0.1617 -0.9473  1.6873
  747TMC3    C711046   2.912   2.026  11.306  0.6417 -0.1118 -0.2531
  747TMC3    C811047   2.560   1.684  11.329  0.0842 -0.1633 -0.3537
  747TMC3    O111048   2.872   2.054  11.414  0.1313 -0.2449 -0.2236
  747TMC3    O211049   2.495   1.614  11.244 -0.3020 -0.7279 -0.1352
  748MPD2     C11050   4.601   1.584   1.559 -0.3531 -0.0608  0.3859
  748MPD2    C111051   0.014   1.577   1.533  0.0220  0.2977 -0.9894
  748MPD2    C211052   0.072   1.675   1.459  0.5990 -0.5037  0.5301
  748MPD2    C311053   4.720   1.783   1.427  0.2778  0.5245 -0.3210
  748MPD2    C411054   4.587   1.791   1.460  0.1306  0.0502 -0.8276
  748MPD2    C511055   4.529   1.688   1.520  0.2020  0.0908 -0.0607
  748MPD2     H11056   0.177   1.670   1.431  0.3106  1.5728 -0.8976
  748MPD2    H111057   4.528   1.877   1.430 -1.5891 -0.8951 -0.1763
  748MPD2    H211058   4.556   1.503   1.614 -0.3257  0.4367  1.1305
  748MPD2    H311059   4.421   1.689   1.532  0.2129 -0.0874  0.0588
  748MPD2     N11060   0.067   1.883   1.365 -0.0720 -0.0581  0.5120
  748MPD2    H511061   0.165   1.864   1.349  0.2968  2.1390  0.0919
  748MPD2    N111062   0.079   1.455   1.575  0.3168 -0.3191  0.0108
  748MPD2    H711063   0.032   1.390   1.636 -0.8258 -0.3745 -0.9338
  749TMC3    C111064   0.125   2.096   1.284 -0.0307 -0.2394  0.7606
  749TMC3    C211065   0.255   2.074   1.342  0.4481 -0.6324 -0.6644
  749TMC3    C311066   0.328   2.180   1.370 -0.2015  0.0776 -0.3209
  749TMC3    C411067   0.082   2.223   1.246 -0.1694  0.2388 -0.6530
  749TMC3    C511068   0.161   2.331   1.283  0.4368  0.4109  0.6101
  749TMC3    C611069   0.285   2.314   1.347 -0.2640  0.0542  0.2875
  749TMC3     C11070   0.017   2.007   1.327  0.0225  0.0444  0.8847
  749TMC3     O11071   4.620   2.047   1.325  0.8757 -0.4564 -0.3057
  749TMC3     H11072   0.299   1.981   1.377 -1.0614 -0.0856  2.6679
  749TMC3    H111073   4.700   2.230   1.215 -0.2759  2.4817  0.2156
  749TMC3    H211074   0.351   2.392   1.385  2.6201 -1.3089 -1.9080
  749TMC3    C711075   0.166   2.446   1.202  0.2498  0.2136  0.2205
  749TMC3    C811076   0.420   2.160   1.479  0.2435 -0.2627  0.0223
  749TMC3    O111077   0.274   2.498   1.189 -0.3871 -0.4795 -0.0974
  749TMC3    O211078   0.414   2.235   1.574  1.2363  0.5183 -0.8401
  750MPD2     C11079   0.844   3.278  10.805 -0.3876 -0.5206  0.2933
  750MPD2    C111080   0.754   3.220  10.896 -0.2299 -0.1061 -0.5773
  750MPD2    C211081   0.672   3.122  10.855 -0.2731  0.5324  0.1797
  750MPD2    C311082   0.668   3.088  10.722  0.0318  0.3550 -0.6049
  750MPD2    C411083   0.755   3.152  10.632 -0.5478  0.4116  0.0010
  750MPD2    C511084   0.842   3.249  10.674 -0.2491  1.0133  0.3504
  750MPD2     H11085   0.617   3.068  10.932  2.1419 -1.7398  0.3113
  750MPD2    H111086   0.764   3.117  10.529 -1.1071 -2.5459  0.9685
  750MPD2    H211087   0.908   3.357  10.842 -1.0081 -0.6626  1.6688
  750MPD2    H311088   0.909   3.291  10.600  1.3388 -0.8670  0.7259
  750MPD2     N11089   0.590   2.980  10.675  0.2472  0.0973 -0.6806
  750MPD2    H511090   0.605   2.953  10.579  1.9100 -0.0954 -0.3555
  750MPD2    N111091   0.768   3.255  11.033  0.3860 -0.0154 -0.4462
  750MPD2    H711092   0.845   3.316  11.060  0.7988  0.5334 -2.8928
  751TMC3    C111093   0.450   2.786  10.696  0.4379  0.3629  0.8433
  751TMC3    C211094   0.334   2.746  10.746 -0.2139  0.3275  0.3399
  751TMC3    C311095   0.266   2.648  10.680  0.3848 -0.6159 -0.6582
  751TMC3    C411096   0.502   2.733  10.577  0.2915 -0.4911 -0.2109
  751TMC3    C511097   0.435   2.628  10.521 -0.3062 -0.3710 -1.1125
  751TMC3    C611098   0.319   2.579  10.569 -0.5349  0.0440 -0.3920
  751TMC3     C11099   0.506   2.902  10.759 -0.2651  0.3291  0.0640
  751TMC3     O11100   0.444   2.939  10.855  0.3756 -0.2006 -0.2318
  751TMC3     H11101   0.280   2.794  10.827  1.8701  0.1688  1.8211
  751TMC3    H111102   0.594   2.777  10.538 -1.3333  2.8347 -0.3156
  751TMC3    H211103   0.266   2.509  10.506 -2.0718  1.1803 -0.3574
  751TMC3    C711104   0.502   2.569  10.405  0.1929 -0.2577  0.2621
  751TMC3    C811105   0.141   2.597  10.736 -0.2872 -0.4296  0.4758
  751TMC3    O111106   0.578   2.642  10.346  0.6092  0.3893 -0.0896
  751TMC3    O211107   0.111   2.488  10.693  0.1156 -0.1963  0.2952
  752TMC3    C111108   4.456   2.691  16.643 -0.0854  0.0811 -0.5609
  752TMC3    C211109   4.580   2.628  16.658  0.0100 -0.6532 -0.4867
  752TMC3    C311110   4.626   2.598  16.781  0.3480  0.0281 -1.0265
  752TMC3    C411111   4.388   2.732  16.758  0.7036  0.0113 -0.6809
  752TMC3    C511112   4.447   2.716  16.883 -0.0064  0.3814  0.4460
  752TMC3    C611113   4.566   2.649  16.897  0.2467 -0.3028  0.2976
  752TMC3     C11114   4.407   2.726  16.513 -0.2259  0.0106 -0.3393
  752TMC3     O11115   4.454   2.675  16.411  0.0453 -0.0715  0.0706
  752TMC3     H11116   4.640   2.614  16.569 -0.9787  1.2826 -1.4690
  752TMC3    H111117   4.291   2.778  16.745  0.2265 -0.3089  1.8860
  752TMC3    H211118   4.609   2.625  16.993 -1.4423 -0.9142  0.9090
  752TMC3    C711119   4.371   2.769  16.998 -0.3857  0.3564  0.1582
  752TMC3    C811120   0.045   2.551  16.784  0.7478 -0.2416  1.0448
  752TMC3    O111121   4.265   2.826  16.981  0.4613  0.2517  0.2250
  752TMC3    O211122   0.110   2.594  16.879  0.0690  0.0768  0.4035
  753TMC3    C111123   1.172   4.491  13.648 -0.3890  0.1166  0.1508
  753TMC3    C211124   1.206   4.447  13.773 -0.1429  0.1830  0.5036
  753TMC3    C311125   1.201   4.308  13.792 -0.3774 -0.1342 -0.6403
  753TMC3    C411126   1.118   4.411  13.551  0.1039  1.1002  0.8283
  753TMC3    C511127   1.096   4.278  13.586 -0.4442 -0.2665 -0.0575
  753TMC3    C611128   1.159   4.222  13.696  0.2585 -0.1797  0.3610
  753TMC3     C11129   1.209   4.628  13.595 -0.2696 -0.7391 -0.0939
  753TMC3     O11130   1.162   4.665  13.489  0.0481 -0.2692  0.3104
  753TMC3     H11131   1.220   4.520  13.852 -0.3569 -1.2013  1.8023
  753TMC3    H111132   1.071   4.454  13.463 -1.3433  0.4964  1.2989
  753TMC3    H211133   1.132   4.119  13.716 -0.7011  0.0174  0.0959
  753TMC3    C711134   1.048   4.179  13.484 -0.0326  0.0626  0.0441
  753TMC3    C811135   1.270   4.242  13.902  0.0004 -0.1631 -0.7317
  753TMC3    O111136   1.066   4.203  13.366  0.2295  0.4795 -0.0550
  753TMC3    O211137   1.280   4.121  13.897 -0.1934 -0.5837  0.5488
  754MPD2     C11138   0.078   2.946  12.847 -0.5191  0.1411  0.7334
  754MPD2    C111139   0.048   2.903  12.974  0.6009  0.3275 -0.0759
  754MPD2    C211140   4.639   2.913  13.023 -0.6169  0.0588  0.1677
  754MPD2    C311141   4.541   2.980  12.951  0.4084 -0.4269 -0.8733
  754MPD2    C411142   4.576   3.032  12.825  0.7703  0.1174 -0.7179
  754MPD2    C511143   4.701   3.011  12.783 -0.2412  0.0535 -0.0124
  754MPD2     H11144   4.618   2.878  13.123 -1.1030 -1.8698 -0.6162
  754MPD2    H111145   4.518   3.103  12.767 -2.5673 -2.0638 -0.0830
  754MPD2    H211146   0.179   2.940  12.808 -1.1011 -2.3147 -0.4066
  754MPD2    H311147   0.008   3.052  12.687  0.8647  4.1424  2.0501
  754MPD2     N11148   4.416   3.016  13.011 -0.0840 -0.2537  0.4808
  754MPD2    H511149   4.361   3.089  12.967  1.1088  1.0889  1.2064
  754MPD2    N111150   0.147   2.831  13.038  0.6044 -0.3910  0.1695
  754MPD2    H711151   0.228   2.811  12.980 -0.2755 -1.1154 -0.8020
  755MPD2     C11152   4.077   3.738  13.324  0.3201 -0.3879  0.3267
  755MPD2    C111153   3.962   3.668  13.314  0.7772  0.5142 -0.4768
  755MPD2    C211154   3.973   3.539  13.272  0.6957 -0.7043 -0.3251
  755MPD2    C311155   4.092   3.481  13.234  0.4390 -0.2202  0.5649
  755MPD2    C411156   4.209   3.545  13.262  0.2761  1.2686  0.0258
  755MPD2    C511157   4.199   3.677  13.301  0.1451 -0.0396  0.8611
  755MPD2     H11158   3.882   3.481  13.271  0.1077  0.2063  0.8356
  755MPD2    H111159   4.308   3.505  13.244 -1.3051 -1.1236 -3.3218
  755MPD2    H211160   4.084   3.842  13.356  3.2774 -0.1943 -0.9488
  755MPD2    H311161   4.282   3.747  13.302 -0.0150  0.1213  2.7993
  755MPD2     N11162   4.106   3.345  13.195 -0.0096  0.2399  0.4987
  755MPD2    H511163   4.197   3.303  13.209 -0.8123 -1.2829  1.0592
  755MPD2    N111164   3.835   3.728  13.355  0.3581 -0.6233  0.6247
  755MPD2    H711165   3.759   3.661  13.362 -1.4100  1.0356 -2.8095
  756MPD2     C11166   0.115   3.292   9.081 -0.8983 -0.2836 -0.2770
  756MPD2    C111167   0.084   3.408   9.142 -0.0724  0.3942  0.2217
  756MPD2    C211168   0.014   3.499   9.068  0.1874 -0.3025  0.2989
  756MPD2    C311169   4.695   3.472   8.929  0.1143 -0.6082  0.0005
  756MPD2    C411170   0.005   3.353   8.873 -0.3152 -0.0036 -0.5995
  756MPD2    C511171   0.083   3.262   8.952  0.1719  0.2293  0.1438
  756MPD2     H11172   4.706   3.594   9.112  0.3228 -0.4600  0.7245
  756MPD2    H111173   4.700   3.323   8.773 -0.6623  0.1342 -0.5489
  756MPD2    H211174   0.166   3.218   9.142 -0.3025  0.1636 -0.2403
  756MPD2    H311175   0.108   3.164   8.912 -0.6740  0.9918 -2.2926
  756MPD2     N11176   4.618   3.572   8.862 -0.3411 -0.3950 -0.1615
  756MPD2    H511177   4.594   3.647   8.926 -0.3792 -0.5621  0.0194
  756MPD2    N111178   0.103   3.424   9.285  0.1307  0.3749 -0.3899
  756MPD2    H711179   0.054   3.500   9.331  0.5851  1.1537 -1.1825
  757MPD2     C11180   3.925   3.756   9.303  0.1814 -0.2106 -0.6456
  757MPD2    C111181   4.033   3.674   9.313  0.3731 -0.2479  0.6569
  757MPD2    C211182   4.135   3.693   9.219  0.2604 -0.0369 -0.1718
  757MPD2    C311183   4.126   3.786   9.115  0.1882 -0.0309 -0.1097
  757MPD2    C411184   4.022   3.869   9.122  0.4316  0.0989 -0.9797
  757MPD2    C511185   3.923   3.857   9.213 -0.6337 -0.1833  0.9672
  757MPD2     H11186   4.221   3.629   9.202  0.5144  0.1216  0.5240
  757MPD2    H111187   4.006   3.950   9.052 -1.5898  1.6953  1.3208
  757MPD2    H211188   3.846   3.749   9.377 -0.9327  1.2724 -1.6883
  757MPD2    H311189   3.837   3.924   9.210 -0.7301 -0.3705 -0.4441
  757MPD2     N11190   4.226   3.795   9.020  0.1119 -0.7346  1.3967
  757MPD2    H511191   4.310   3.746   9.049  0.0549 -2.3727 -1.2262
  757MPD2    N111192   4.041   3.572   9.411  0.0570  0.1859 -0.0313
  757MPD2    H711193   3.961   3.565   9.473  0.1226 -0.5442 -0.0248
  758MPD2     C11194   0.413   3.027  15.705  0.0904 -0.7827 -0.4578
  758MPD2    C111195   0.478   2.909  15.749 -0.0560 -0.5455 -0.0873
  758MPD2    C211196   0.524   2.921  15.884 -0.4660 -0.7431  0.1467
  758MPD2    C311197   0.529   3.038  15.959 -0.0603 -0.4923 -0.3274
  758MPD2    C411198   0.454   3.144  15.913 -0.4399  0.3576 -0.8731
  758MPD2    C511199   0.397   3.133  15.790 -1.0352  0.0002 -0.1332
  758MPD2     H11200   0.578   2.836  15.925  3.6125  0.7987 -2.0660
  758MPD2    H111201   0.439   3.237  15.967  0.0170  0.8834 -1.6497
  758MPD2    H211202   0.389   3.040  15.600  1.1337  1.5626 -0.4013
  758MPD2    H311203   0.349   3.225  15.761  2.2458  1.6166 -0.5051
  758MPD2     N11204   0.589   3.043  16.090  0.1909  0.4174  0.9280
  758MPD2    H511205   0.583   3.132  16.136  2.5187  0.7058  0.6816
  758MPD2    N111206   0.495   2.794  15.662  0.9781 -0.5245  0.0305
  758MPD2    H711207   0.479   2.818  15.565  0.7396 -0.8638 -0.0151
  759MPD2     C11208   3.507   1.074  10.340 -0.1040 -0.2465  0.4791
  759MPD2    C111209   3.601   0.989  10.283  0.5780  0.0538  0.2676
  759MPD2    C211210   3.688   1.034  10.187  0.1825 -0.7798 -0.8606
  759MPD2    C311211   3.691   1.171  10.162  0.5706  0.9169 -0.4727
  759MPD2    C411212   3.599   1.256  10.223 -0.2007  0.2293  0.2303
  759MPD2    C511213   3.502   1.205  10.308  0.0542  0.4182  0.6065
  759MPD2     H11214   3.747   0.964  10.130 -2.0630 -3.2915 -0.0839
  759MPD2    H111215   3.591   1.364  10.208  0.7020  0.7261  3.2875
  759MPD2    H211216   3.432   1.043  10.412 -2.3520  3.1526 -0.4246
  759MPD2    H311217   3.437   1.272  10.363 -0.3104 -1.3543  2.3656
  759MPD2     N11218   3.789   1.230  10.078  0.5671  0.0186 -0.5328
  759MPD2    H511219   3.854   1.169  10.030 -0.6131 -0.5452 -1.3935
  759MPD2    N111220   3.598   0.849  10.319 -0.2464  0.0429 -0.4056
  759MPD2    H711221   3.681   0.796  10.296 -0.8132 -2.4720  3.3277
  760MPD2     C11222   3.413   3.130  12.118 -0.0550 -0.0705 -1.3540
  760MPD2    C111223   3.541   3.177  12.098 -0.5990 -0.0118  0.3296
  760MPD2    C211224   3.650   3.095  12.113 -0.7371 -0.0330  0.5017
  760MPD2    C311225   3.629   2.960  12.133 -0.3763  0.5837  0.3379
  760MPD2    C411226   3.504   2.915  12.141 -0.5420 -0.5406 -0.2806
  760MPD2    C511227   3.393   2.999  12.148  0.8599  1.1718  1.1504
  760MPD2     H11228   3.751   3.134  12.111 -0.9313  0.5246  1.3110
  760MPD2    H111229   3.478   2.810  12.130 -1.4772 -0.3783  0.4172
  760MPD2    H211230   3.328   3.196  12.109  1.0614  1.5153 -0.1620
  760MPD2    H311231   3.295   2.953  12.158  0.9668  0.4721 -0.9803
  760MPD2     N11232   3.740   2.861  12.123  0.1125  0.2740  0.2166
  760MPD2    H511233   3.707   2.765  12.120 -2.4187  1.2108 -2.0185
  760MPD2    N111234   3.567   3.310  12.068 -0.5313  0.4384 -0.1655
  760MPD2    H711235   3.666   3.331  12.068 -0.8468  1.9271  0.7923
  761MPD2     C11236   4.436   2.581  11.016 -0.0302 -0.2438  0.5818
  761MPD2    C111237   4.518   2.488  10.968  0.1308 -0.1476 -0.1265
  761MPD2    C211238   4.634   2.517  10.906 -0.3366 -0.3637  0.1780
  761MPD2    C311239   4.677   2.651  10.884  0.1138  0.2958 -0.1454
  761MPD2    C411240   4.592   2.748  10.933 -0.2249 -0.1435  0.3542
  761MPD2    C511241   4.473   2.712  10.996 -0.5004  0.0068 -0.2665
  761MPD2     H11242   4.702   2.436  10.884  1.4661  1.2255 -0.0814
  761MPD2    H111243   4.616   2.853  10.920 -1.4036  0.1717  0.7183
  761MPD2    H211244   4.349   2.555  11.075  1.2268  0.2644  2.6316
  761MPD2    H311245   4.403   2.784  11.035 -1.9115 -1.7458  0.4015
  761MPD2     N11246   0.070   2.685  10.812  0.3452  0.0040 -1.3043
  761MPD2    H511247   0.082   2.784  10.795  0.3374  0.2293  0.0450
  761MPD2    N111248   4.492   2.352  10.977  0.3038 -0.2920  0.0788
  761MPD2    H711249   4.543   2.285  10.921  0.3591 -0.4984  0.3774
  762MPD2     C11250   0.041   1.634  10.870  0.1082  0.1399  0.2179
  762MPD2    C111251   4.706   1.747  10.815 -0.4429  0.2989  0.3031
  762MPD2    C211252   0.052   1.823  10.729  0.1314 -0.1637  0.4134
  762MPD2    C311253   0.187   1.804  10.703 -0.0509 -0.0361  0.2454
  762MPD2    C411254   0.241   1.680  10.753 -0.1254  0.2991  0.1473
  762MPD2    C511255   0.168   1.599  10.835 -0.0405 -0.6647 -0.0827
  762MPD2     H11256   4.716   1.900  10.680  1.8537 -1.0084 -2.8974
  762MPD2    H111257   0.345   1.654  10.737 -0.5458 -2.4019  1.7741
  762MPD2    H211258   4.706   1.570  10.938 -0.8617 -1.5950 -2.1967
  762MPD2    H311259   0.216   1.506  10.862  2.7654  0.8517  0.2400
  762MPD2     N11260   0.254   1.889  10.612 -0.6276 -0.0562 -0.0582
  762MPD2    H511261   0.199   1.966  10.575 -1.6674 -0.9418 -0.3580
  762MPD2    N111262   4.581   1.797  10.873  0.2509  0.0513  0.1043
  762MPD2    H711263   4.555   1.748  10.957  2.1223 -0.1209  0.5784
  763MPD2     C11264   2.613   2.570  16.368 -0.0832 -0.2961 -0.4738
  763MPD2    C111265   2.495   2.635  16.356 -0.2489  1.0917  0.5762
  763MPD2    C211266   2.470   2.754  16.420  0.3347 -0.3443 -1.1572
  763MPD2    C311267   2.565   2.811  16.500 -0.0794  0.0791 -0.1493
  763MPD2    C411268   2.679   2.743  16.511 -0.4471 -0.2771  0.3462
  763MPD2    C511269   2.715   2.635  16.438 -0.2125  0.0757 -0.4818
  763MPD2     H11270   2.372   2.801  16.411  0.5980  0.5353  0.6195
  763MPD2    H111271   2.752   2.781  16.582 -1.8084  0.2386  1.4568
  763MPD2    H211272   2.633   2.468  16.336 -0.3306 -0.5682  0.2377
  763MPD2    H311273   2.803   2.575  16.457 -0.4446 -0.1725 -0.1827
  763MPD2     N11274   2.543   2.934  16.571 -0.1894 -0.0808 -0.0690
  763MPD2    H511275   2.617   2.972  16.629 -1.3220  0.2468  1.1609
  763MPD2    N111276   2.390   2.582  16.277  0.3895  0.1268 -0.5668
  763MPD2    H711277   2.311   2.639  16.250  0.0539  0.3424  0.8445
  764MPD2     C11278   0.538   0.023  17.493  0.6401  0.2900 -0.0965
  764MPD2    C111279   0.445   4.653  17.434  0.0025  0.3595  0.7690
  764MPD2    C211280   0.465   4.520  17.456 -0.1309 -0.0649  0.1861
  764MPD2    C311281   0.558   4.468  17.535  1.1742  0.3974  0.6205
  764MPD2    C411282   0.652   4.558  17.600  0.0691  0.0439  0.4729
  764MPD2    C511283   0.629   4.691  17.579  0.9365 -0.2453  0.1221
  764MPD2     H11284   0.398   4.444  17.417 -0.6359  0.4378  0.0627
  764MPD2    H111285   0.735   4.525  17.661  0.6393 -1.5572 -1.1645
  764MPD2    H211286   0.526   0.129  17.478 -0.2616  0.0623 -1.0088
  764MPD2    H311287   0.697   0.038  17.629  3.1565  0.0156 -3.2142
  764MPD2     N11288   0.560   4.324  17.553  0.4234 -0.5555  0.5060
  764MPD2    H511289   0.475   4.290  17.509  0.8144 -1.7150  0.6372
  764MPD2    N111290   0.330   4.693  17.365  0.3476  0.8365  0.3355
  764MPD2    H711291   0.279   4.622  17.315 -0.2902  2.2900 -1.0861
  765MPD2     C11292   4.569   2.028  15.646  0.2895  0.0810 -0.1247
  765MPD2    C111293   4.685   2.102  15.674 -0.4583 -0.3236  0.4154
  765MPD2    C211294   0.080   2.062  15.612 -0.5488  0.1692  1.0482
  765MPD2    C311295   0.081   1.954  15.527 -0.0906  0.8725 -0.0111
  765MPD2    C411296   4.680   1.896  15.491  0.6355  0.3617 -0.2751
  765MPD2    C511297   4.567   1.926  15.561  0.6011 -0.4066 -0.0149
  765MPD2     H11298   0.172   2.112  15.641 -0.8812  1.3417  0.0424
  765MPD2    H111299   4.668   1.813  15.422  1.4358 -1.2815  1.5202
  765MPD2    H211300   4.479   2.056  15.699 -0.0792 -0.8559 -0.2567
  765MPD2    H311301   4.479   1.865  15.550 -0.0985  0.6525 -0.2326
  765MPD2     N11302   0.201   1.901  15.475 -0.0380 -0.8315  0.1491
  765MPD2    H511303   0.289   1.946  15.496 -0.1077  0.1803 -1.7862
  765MPD2    N111304   4.667   2.219  15.757  0.5229 -0.7761  0.6505
  765MPD2    H711305   4.578   2.223  15.806  1.1118  0.1845  1.6434
  766MPD2     C11306   4.148   2.426  15.627 -0.5329  0.6259 -0.7102
  766MPD2    C111307   4.280   2.384  15.613 -0.0465  0.7452 -0.1243
  766MPD2    C211308   4.308   2.308  15.504  0.2955 -0.1411  0.0843
  766MPD2    C311309   4.218   2.273  15.405 -0.2998 -0.1421 -0.2506
  766MPD2    C411310   4.089   2.319  15.423  0.0440  0.1156 -1.1618
  766MPD2    C511311   4.050   2.383  15.542 -0.0649  0.0510  0.0605
  766MPD2     H11312   4.411   2.275  15.505 -0.3281 -2.1056 -1.8978
  766MPD2    H111313   4.019   2.308  15.341 -0.0393  1.8392 -1.3092
  766MPD2    H211314   4.121   2.488  15.712 -1.0776 -1.9357  0.9712
  766MPD2    H311315   3.945   2.406  15.560  0.2362  2.4197 -1.2847
  766MPD2     N11316   4.266   2.204  15.293 -0.2083  0.0655  0.4948
  766MPD2    H511317   4.367   2.193  15.298 -0.2697 -0.8632 -0.2614
  766MPD2    N111318   4.381   2.429  15.692  0.0464 -0.3074  0.0828
  766MPD2    H711319   4.477   2.408  15.669 -0.1371 -0.3015 -0.6799
  767MPD2     C11320   3.889   2.577  15.132  0.2745  0.2908 -0.1836
  767MPD2    C111321   4.015   2.560  15.081 -0.6826  0.4892  0.6645
  767MPD2    C211322   4.020   2.504  14.958 -0.5587  0.9668 -0.1574
  767MPD2    C311323   3.902   2.466  14.886  0.6112  0.3386  0.6506
  767MPD2    C411324   3.786   2.501  14.936 -0.3228  0.7325 -0.0166
  767MPD2    C511325   3.777   2.551  15.063  0.5205 -0.1082 -0.2308
  767MPD2     H11326   4.112   2.479  14.907 -0.6583 -1.5922  0.8859
  767MPD2    H111327   3.689   2.490  14.889  0.2229 -0.0418 -0.9571
  767MPD2    H211328   3.879   2.620  15.231 -4.0180 -1.3991  0.1498
  767MPD2    H311329   3.677   2.566  15.103  0.0593 -1.7112 -0.8212
  767MPD2     N11330   3.914   2.404  14.762  0.4453  0.2646  0.4639
  767MPD2    H511331   4.006   2.371  14.735 -0.8854 -1.6374 -1.7694
  767MPD2    N111332   4.124   2.588  15.168  0.0957 -0.7068  0.2603
  767MPD2    H711333   4.097   2.620  15.260  2.2247  1.1569  0.2224
  768MPD2     C11334   0.070   0.835  10.707  0.3603  0.1433 -0.2325
  768MPD2    C111335   0.031   0.795  10.834 -0.2717 -0.4286  0.0633
  768MPD2    C211336   0.130   0.791  10.935  0.0828 -0.5173 -0.3034
  768MPD2    C311337   0.263   0.828  10.908  0.3611  0.2506 -0.8479
  768MPD2    C411338   0.297   0.871  10.775 -0.3766 -0.0180  0.5140
  768MPD2    C511339   0.201   0.870  10.680  0.1214 -0.0802  0.0503
  768MPD2     H11340   0.098   0.750  11.030 -0.9618  2.5362  0.6526
  768MPD2    H111341   0.394   0.909  10.748 -0.9170  0.5606 -0.5767
  768MPD2    H211342   0.003   0.819  10.623  0.8320 -3.4815  0.0736
  768MPD2    H311343   0.228   0.899  10.579 -0.8742 -0.7482 -0.4067
  768MPD2     N11344   0.376   0.807  10.990 -0.3902 -0.6140 -0.2910
  768MPD2    H511345   0.468   0.810  10.948 -1.2494  0.4833 -2.0778
  768MPD2    N111346   4.620   0.766  10.870  0.0871 -0.5979  0.8188
  768MPD2    H711347   4.607   0.744  10.968 -0.9851  1.3137  1.1098
  769MPD2     C11348   1.210   3.161  15.737 -0.7367 -0.0220 -0.1974
  769MPD2    C111349   1.142   3.258  15.663 -0.4237  0.1423 -0.0754
  769MPD2    C211350   1.129   3.382  15.717  0.0317  0.4274  0.8242
  769MPD2    C311351   1.170   3.414  15.845  0.6550 -0.7674  0.6858
  769MPD2    C411352   1.229   3.317  15.920  0.5044  0.6066  0.3672
  769MPD2    C511353   1.252   3.196  15.865 -0.3659 -0.1802  0.4579
  769MPD2     H11354   1.069   3.459  15.669  0.9179  0.1958 -0.6659
  769MPD2    H111355   1.253   3.330  16.025 -1.6906  0.2782  0.9123
  769MPD2    H211356   1.216   3.055  15.713  1.2402  0.1671 -0.5467
  769MPD2    H311357   1.303   3.123  15.926 -1.6915 -1.0396  0.5446
  769MPD2     N11358   1.135   3.539  15.890  0.3731 -0.3912  0.0923
  769MPD2    H511359   1.121   3.611  15.820 -1.3100  0.4882  1.3365
  769MPD2    N111360   1.096   3.209  15.543 -0.7702 -0.1310  0.0831
  769MPD2    H711361   1.123   3.112  15.532  0.7819  0.5090 -1.6495
  770MPD2     C11362   0.997   2.519  14.817 -0.6701  0.3572  0.0558
  770MPD2    C111363   0.875   2.572  14.834 -0.2838 -0.3079  1.0831
  770MPD2    C211364   0.851   2.687  14.907 -0.4283 -0.1607  0.0725
  770MPD2    C311365   0.951   2.741  14.978 -0.1142 -0.2041 -0.3117
  770MPD2    C411366   1.081   2.697  14.952  0.4372  0.4404 -0.2522
  770MPD2    C511367   1.103   2.582  14.874 -0.3793 -0.5812 -0.2658
  770MPD2     H11368   0.756   2.737  14.896  1.1858  2.3357 -2.7114
  770MPD2    H111369   1.164   2.754  14.993 -0.5356  1.2173  0.6334
  770MPD2    H211370   1.011   2.434  14.750 -1.2888 -0.5024  1.0145
  770MPD2    H311371   1.207   2.561  14.852 -0.7247  0.0782 -2.4705
  770MPD2     N11372   0.913   2.862  15.048  0.3847  0.1878 -0.6221
  770MPD2    H511373   0.825   2.907  15.023 -0.4509 -0.8707  0.4059
  770MPD2    N111374   0.781   2.500  14.761  0.1104  0.4601  0.1021
  770MPD2    H711375   0.810   2.413  14.717 -1.4478 -0.7857  1.5634
  771MPD2     C11376   1.777   1.481  13.669 -0.2251  0.0463  0.1077
  771MPD2    C111377   1.821   1.586  13.596 -0.5418 -0.4387  0.0986
  771MPD2    C211378   1.783   1.603  13.458 -0.3133  0.3339  0.2470
  771MPD2    C311379   1.702   1.512  13.398  0.9410  0.0359  0.0020
  771MPD2    C411380   1.648   1.409  13.478  0.6922  0.0508 -0.1338
  771MPD2    C511381   1.696   1.392  13.608 -0.5509 -0.0386  0.1046
  771MPD2     H11382   1.824   1.693  13.414 -1.0873  0.7471  0.3737
  771MPD2    H111383   1.579   1.334  13.442 -3.3107  3.5816  0.2199
  771MPD2    H211384   1.809   1.460  13.770 -0.0947 -0.3807 -0.0219
  771MPD2    H311385   1.663   1.307  13.666  0.6010  0.8392  2.0241
  771MPD2     N11386   1.647   1.536  13.267  0.5504 -0.7122 -0.3005
  771MPD2    H511387   1.674   1.620  13.218 -2.4253 -0.4531 -1.4816
  771MPD2    N111388   1.908   1.688  13.645  0.3665  0.4910 -0.4615
  771MPD2    H711389   1.950   1.744  13.571 -1.1948  1.0576 -0.9204
  772MPD2     C11390   1.710   2.313  14.035  0.0462 -0.2971 -0.0989
  772MPD2    C111391   1.684   2.194  13.968  0.0976  0.0941 -0.7274
  772MPD2    C211392   1.558   2.146  13.954 -0.6593 -0.3315 -0.8398
  772MPD2    C311393   1.450   2.219  14.000 -0.4527  0.1211  0.3873
  772MPD2    C411394   1.479   2.332  14.077  0.5315  0.5421  0.4909
  772MPD2    C511395   1.602   2.379  14.095 -0.3452 -0.3227 -0.2309
  772MPD2     H11396   1.542   2.055  13.897 -0.8689  1.5649 -3.7717
  772MPD2    H111397   1.403   2.395  14.122 -0.9322 -1.5287  0.9299
  772MPD2    H211398   1.809   2.347  14.061 -0.2072  0.3205  0.0710
  772MPD2    H311399   1.627   2.459  14.164  1.0539  0.5973 -1.7923
  772MPD2     N11400   1.314   2.191  13.969 -0.0283  0.1163  0.6741
  772MPD2    H511401   1.254   2.267  14.000 -2.1348 -2.3156  2.5304
  772MPD2    N111402   1.790   2.114  13.910 -0.0197  0.0295 -0.1075
  772MPD2    H711403   1.766   2.021  13.876 -1.9491  0.7479 -0.7031
  773MPD2     C11404   0.580   2.896  17.595  0.1392  0.4194  0.4670
  773MPD2    C111405   0.690   2.868  17.512  0.2493  0.0814 -0.0957
  773MPD2    C211406   0.752   2.745  17.536 -0.2596  0.7501 -0.3926
  773MPD2    C311407   0.712   2.664  17.644  0.6975 -0.1272 -0.4509
  773MPD2    C411408   0.610   2.703   0.044  0.1504  0.3017  0.6728
  773MPD2    C511409   0.552   2.821   0.017  0.3882 -0.3044  0.6897
  773MPD2     H11410   0.837   2.715  17.476  0.8687  1.9330  0.5930
  773MPD2    H111411   0.581   2.646   0.132 -0.4980 -0.4979 -0.0561
  773MPD2    H211412   0.537   2.995  17.587 -2.4792 -0.5596  2.4306
  773MPD2    H311413   0.486   2.847   0.099  0.1475 -1.0245  0.7256
  773MPD2     N11414   0.784   2.544  17.671 -0.7599 -0.7713  0.1025
  773MPD2    H511415   0.862   2.530  17.607 -1.5903 -0.2542 -1.0242
  773MPD2    N111416   0.739   2.953  17.402 -0.4744  0.0988 -0.2497
  773MPD2    H711417   0.803   2.919  17.332 -0.1401  0.6832 -0.2282
  774MPD2     C11418   4.371   2.530  13.881 -0.0407  0.0155 -0.7852
  774MPD2    C111419   4.494   2.479  13.868  0.1404 -0.6085 -0.0901
  774MPD2    C211420   4.582   2.539  13.782  0.7366 -0.3014  0.4902
  774MPD2    C311421   4.551   2.663  13.720 -0.3909 -0.7300 -0.8914
  774MPD2    C411422   4.434   2.723  13.746  0.8728  0.3124  0.2433
  774MPD2    C511423   4.339   2.653  13.826 -0.2422 -0.0371  0.4650
  774MPD2     H11424   4.674   2.485  13.764  0.9712  0.2964 -0.0944
  774MPD2    H111425   4.401   2.813  13.697  1.3513 -0.3607 -1.3154
  774MPD2    H211426   4.294   2.475  13.935  1.6275 -1.1398  0.3936
  774MPD2    H311427   4.236   2.686  13.828  0.5171  2.4140 -1.4139
  774MPD2     N11428   4.639   2.720  13.624  0.0860 -0.4629  0.5684
  774MPD2    H511429   0.001   2.673  13.589  0.6755  0.4276  0.7672
  774MPD2    N111430   4.520   2.359  13.946  0.0835 -0.2089  0.1689
  774MPD2    H711431   4.440   2.326  14.000  0.9221  1.9608  2.7192
  775MPD2     C11432   1.445   3.557  16.144  0.3227 -0.4856  0.0613
  775MPD2    C111433   1.435   3.677  16.214  0.1529  0.0892 -0.5826
  775MPD2    C211434   1.470   3.791  16.144 -0.0934  0.2107  0.1313
  775MPD2    C311435   1.520   3.793  16.015  0.2889 -0.2553  1.1861
  775MPD2    C411436   1.523   3.669  15.950  0.2227 -0.1907  0.0722
  775MPD2    C511437   1.491   3.558  16.015  0.1531  0.0341  0.2746
  775MPD2     H11438   1.461   3.887  16.194 -0.0452  1.0371 -1.4650
  775MPD2    H111439   1.562   3.661  15.849  2.0531  2.1211  0.6062
  775MPD2    H211440   1.443   3.462  16.195 -0.2672 -1.2932 -1.4427
  775MPD2    H311441   1.498   3.457  15.976 -3.2832  0.3758 -1.2174
  775MPD2     N11442   1.569   3.910  15.951  0.8210  0.6474 -0.2272
  775MPD2    H511443   1.598   3.897  15.855  2.0999 -0.7969  0.3480
  775MPD2    N111444   1.363   3.678  16.338 -0.4596  0.1144  0.3232
  775MPD2    H711445   1.318   3.590  16.360 -0.7953  0.1367 -0.2694
  776MPD2     C11446   1.108   3.672  11.704  0.4414 -0.0403  0.0910
  776MPD2    C111447   1.053   3.669  11.576 -0.9873 -0.0507 -0.4260
  776MPD2    C211448   1.038   3.787  11.504  0.6743 -0.2543  0.1023
  776MPD2    C311449   1.074   3.910  11.558  0.0872 -0.0093  0.7246
  776MPD2    C411450   1.134   3.911  11.689 -0.3408 -0.3337 -0.1615
  776MPD2    C511451   1.151   3.790  11.751  0.0767  0.3845 -0.3201
  776MPD2     H11452   0.997   3.784  11.404  1.1742  1.9816 -0.1718
  776MPD2    H111453   1.168   4.005  11.731 -1.3020  0.1293 -0.4273
  776MPD2    H211454   1.126   3.577  11.751 -0.0402 -0.9567 -1.5840
  776MPD2    H311455   1.214   3.778  11.838  0.3376  1.8023 -0.3233
  776MPD2     N11456   1.045   4.033  11.496  0.2460  0.3761  0.4291
  776MPD2    H511457   1.053   4.117  11.553  1.8301  1.4265 -1.3277
  776MPD2    N111458   1.016   3.547  11.527  0.4885  0.8767 -1.1386
  776MPD2    H711459   1.018   3.473  11.597  0.1105 -0.6414 -2.7222
  777MPD2     C11460   1.355   1.613   0.852  1.0227 -0.5847 -0.3074
  777MPD2    C111461   1.272   1.516   0.907 -0.5266  0.7349 -0.7224
  777MPD2    C211462   1.255   1.398   0.840  0.9773 -0.7391 -0.2241
  777MPD2    C311463   1.314   1.368   0.715  0.1482 -0.0494 -0.8680
  777MPD2    C411464   1.399   1.458   0.661 -0.4614 -0.4602 -0.5350
  777MPD2    C511465   1.419   1.574   0.733 -0.6078 -0.3696  0.9726
  777MPD2     H11466   1.199   1.313   0.877 -2.2619  1.5613  0.0540
  777MPD2    H111467   1.453   1.447   0.567  3.1971 -0.0277  1.5122
  777MPD2    H211468   1.391   1.700   0.905  0.2420  1.2315 -2.7433
  777MPD2    H311469   1.496   1.641   0.696  0.7251 -1.5697  1.5837
  777MPD2     N11470   1.296   1.240   0.659  0.3417 -0.9982 -0.3902
  777MPD2    H511471   1.230   1.183   0.710  2.2210 -2.7577  0.0855
  777MPD2    N111472   1.203   1.542   1.025 -0.0818 -0.3273 -0.6147
  777MPD2    H711473   1.249   1.611   1.084 -1.5574 -0.5810  0.8477
  778MPD2     C11474   1.899   1.672  14.876  0.0959 -0.1004 -0.3289
  778MPD2    C111475   1.882   1.533  14.864 -0.0300 -0.6655  0.0224
  778MPD2    C211476   1.932   1.463  14.753 -0.2492 -0.9201 -0.9073
  778MPD2    C311477   1.983   1.538  14.648 -0.5564 -0.5728  0.1268
  778MPD2    C411478   1.994   1.676  14.658 -0.0917 -0.1299  0.3480
  778MPD2    C511479   1.956   1.739  14.769  0.0971 -0.2158 -0.6075
  778MPD2     H11480   1.923   1.356  14.740  0.1124 -1.1789  1.0483
  778MPD2    H111481   2.028   1.740  14.577  1.6409  0.1346  1.2894
  778MPD2    H211482   1.870   1.733  14.961  0.9569 -0.9076  0.5513
  778MPD2    H311483   1.964   1.847  14.770  0.8439 -0.2842  1.0314
  778MPD2     N11484   2.040   1.464  14.547  0.2516 -0.2033  0.1889
  778MPD2    H511485   2.021   1.364  14.544  0.2953 -0.2429  1.3883
  778MPD2    N111486   1.837   1.464  14.982  0.4869  0.3178 -0.1191
  778MPD2    H711487   1.791   1.374  14.967 -0.9916  1.4584 -2.4126
  779MPD2     C11488   1.195   0.456  14.433  0.2598  0.5933  0.1653
  779MPD2    C111489   1.320   0.454  14.488  0.6382  0.1871 -0.1911
  779MPD2    C211490   1.396   0.570  14.499 -0.0876  1.1428 -0.1205
  779MPD2    C311491   1.353   0.680  14.436 -0.3203  0.4019 -0.9349
  779MPD2    C411492   1.236   0.672  14.364  0.4883 -0.5399  0.3930
  779MPD2    C511493   1.156   0.567  14.365  0.4170 -0.5586 -0.2357
  779MPD2     H11494   1.493   0.561  14.547  1.5792  5.5294 -2.7132
  779MPD2    H111495   1.198   0.743  14.291 -0.9230 -3.0131 -1.2737
  779MPD2    H211496   1.132   0.368  14.431 -0.9381  1.4148  1.5907
  779MPD2    H311497   1.064   0.578  14.308  0.0864 -1.0219  0.2157
  779MPD2     N11498   1.433   0.795  14.434 -0.6284  0.1658 -0.4312
  779MPD2    H511499   1.526   0.795  14.477 -0.6995  1.1863 -0.2770
  779MPD2    N111500   1.373   0.331  14.540 -0.3045 -0.3421  0.0347
  779MPD2    H711501   1.458   0.330  14.596 -1.4425  2.1379  1.8412
  780MPD2     C11502   1.257   0.059   1.561 -0.5139  0.5318  0.4768
  780MPD2    C111503   1.183   0.103   1.454  0.5388  0.4003  0.5636
  780MPD2    C211504   1.251   0.141   1.341  0.7846 -0.2532  0.1112
  780MPD2    C311505   1.388   0.126   1.319  0.0549  0.2292 -0.1341
  780MPD2    C411506   1.451   0.060   1.428  0.1770  0.1903 -0.4733
  780MPD2    C511507   1.392   0.043   1.547  0.1494 -0.6156 -0.2880
  780MPD2     H11508   1.209   0.185   1.252  1.9843  0.0439 -0.3121
  780MPD2    H111509   1.558   0.045   1.424  0.2985  0.7123  1.0882
  780MPD2    H211510   1.204   0.041   1.653  0.3846 -1.7893  0.5427
  780MPD2    H311511   1.454   0.014   1.632  0.5703  0.8165 -0.1092
  780MPD2     N11512   1.451   0.145   1.195  0.6255  0.2928  0.2862
  780MPD2    H511513   1.399   0.193   1.122 -0.9287  0.0145  1.2139
  780MPD2    N111514   1.041   0.104   1.460 -0.3226 -1.0827  0.0330
  780MPD2    H711515   0.999   0.081   1.549  0.1855  1.5758  0.9854
  781MPD2     C11516   2.643   2.349  12.222  0.0819 -0.0218  0.2368
  781MPD2    C111517   2.767   2.333  12.279 -0.8633 -0.2112 -0.0513
  781MPD2    C211518   2.886   2.354  12.203 -0.1043  0.0448  0.1101
  781MPD2    C311519   2.877   2.388  12.066  0.4552 -0.2528  0.0843
  781MPD2    C411520   2.749   2.409  12.017 -0.4112  0.1128 -0.0769
  781MPD2    C511521   2.640   2.388  12.095 -0.2769  0.5370  0.1014
  781MPD2     H11522   2.981   2.327  12.249  0.1916  0.0445 -0.4970
  781MPD2    H111523   2.726   2.439  11.915 -0.5976  1.1240  0.2585
  781MPD2    H211524   2.546   2.324  12.262  0.7161 -2.9601 -0.0350
  781MPD2    H311525   2.545   2.415  12.050 -1.6804 -0.8338  2.2692
  781MPD2     N11526   2.992   2.410  11.985  0.8657 -0.2952 -0.2640
  781MPD2    H511527   2.960   2.451  11.897 -0.9443  0.2920  0.6567
  781MPD2    N111528   2.772   2.297  12.418 -0.6430 -0.3455  0.1223
  781MPD2    H711529   2.869   2.292  12.449 -0.0443  1.5514 -1.4711
  782MPD2     C11530   0.733   2.721   9.868 -0.9666 -0.2410 -0.2505
  782MPD2    C111531   0.849   2.791   9.844  0.1455  0.7282  0.4569
  782MPD2    C211532   0.912   2.866   9.942 -0.1836  0.4161 -0.3267
  782MPD2    C311533   0.861   2.861  10.071 -0.2654  0.0567 -0.1360
  782MPD2    C411534   0.752   2.777  10.100 -0.1806  0.7331  0.4187
  782MPD2    C511535   0.692   2.718   9.996 -0.1890 -0.2558 -0.2278
  782MPD2     H11536   0.999   2.927   9.920 -1.5281  3.1068  1.7488
  782MPD2    H111537   0.718   2.756  10.201  0.9729  3.6514  1.4322
  782MPD2    H211538   0.676   2.672   9.790  0.4368  0.8961 -2.0086
  782MPD2    H311539   0.608   2.653  10.018 -2.3379  2.4860 -0.2516
  782MPD2     N11540   0.926   2.935  10.175 -0.4618 -0.2248 -0.3709
  782MPD2    H511541   1.008   2.991  10.153  0.4484 -0.5794  2.0584
  782MPD2    N111542   0.907   2.786   9.719 -0.2957  0.6054 -0.1323
  782MPD2    H711543   0.994   2.837   9.709 -0.1686  0.6935  1.4657
  783MPD2     C11544   0.400   2.284  10.211 -0.5624  0.1651 -0.4177
  783MPD2    C111545   0.494   2.368  10.261  0.8871 -0.1751  0.0263
  783MPD2    C211546   0.605   2.397  10.188 -0.6917 -0.2611 -0.2114
  783MPD2    C311547   0.637   2.324  10.072  0.9326 -0.7766  0.2146
  783MPD2    C411548   0.541   2.235  10.017  0.3456 -0.2312 -0.7676
  783MPD2    C511549   0.420   2.224  10.085  0.1319  0.0690  0.1668
  783MPD2     H11550   0.662   2.480  10.229  0.2663 -0.6380 -0.7712
  783MPD2    H111551   0.550   2.194   9.918 -0.4266 -1.5489 -0.3001
  783MPD2    H211552   0.317   2.250  10.273  0.6503 -0.5977  0.7932
  783MPD2    H311553   0.337   2.161  10.057  1.3430 -0.2965 -2.5657
  783MPD2     N11554   0.743   2.373   9.991 -0.3657 -0.1127  0.1908
  783MPD2    H511555   0.805   2.448  10.021  0.4150 -0.8041  0.3219
  783MPD2    N111556   0.463   2.437  10.380 -0.2701  0.4146 -0.4619
  783MPD2    H711557   0.389   2.398  10.437 -0.7648  0.4111 -1.1026
  784MPD2     C11558   3.366   3.190   0.449  0.2350 -0.3020 -0.5087
  784MPD2    C111559   3.305   3.232   0.567  0.3609 -0.0822 -0.1382
  784MPD2    C211560   3.185   3.304   0.558  0.3711  0.2385  0.8112
  784MPD2    C311561   3.128   3.344   0.442 -0.3805 -0.1129 -0.2345
  784MPD2    C411562   3.187   3.297   0.324  0.4382 -0.2332 -0.2403
  784MPD2    C511563   3.294   3.211   0.338 -0.1611  0.0796  0.3267
  784MPD2     H11564   3.140   3.340   0.649  1.1137 -1.0915  1.7037
  784MPD2    H111565   3.134   3.302   0.229 -0.3770 -1.6871  0.1491
  784MPD2    H211566   3.465   3.146   0.442 -0.7747 -2.9447  1.6811
  784MPD2    H311567   3.329   3.170   0.244 -0.7950  2.9451 -1.1340
  784MPD2     N11568   3.017   3.421   0.435  0.4247 -0.0829  0.8810
  784MPD2    H511569   2.976   3.443   0.526  0.9494 -0.8009  1.2924
  784MPD2    N111570   3.362   3.221   0.698 -0.3797 -0.2504 -0.0320
  784MPD2    H711571   3.310   3.264   0.774 -1.7814 -1.0900 -0.5241
  785MPD2     C11572   3.492   1.501  10.669  0.0894  0.9285  0.5702
  785MPD2    C111573   3.457   1.634  10.702 -0.1644  0.3003 -0.8586
  785MPD2    C211574   3.324   1.674  10.726  0.2941 -0.7710 -0.3212
  785MPD2    C311575   3.224   1.585  10.701 -0.5600  0.6659  0.2649
  785MPD2    C411576   3.251   1.451  10.674 -0.2687  0.1009 -0.0547
  785MPD2    C511577   3.383   1.413  10.656 -0.0683  0.4050 -0.2297
  785MPD2     H11578   3.300   1.774  10.760  3.0423  1.0736 -3.7943
  785MPD2    H111579   3.172   1.389  10.633 -0.0835  1.2343 -2.1395
  785MPD2    H211580   3.590   1.456  10.655 -0.5416  0.0680 -1.0091
  785MPD2    H311581   3.401   1.321  10.602 -1.1066  0.1143 -0.0747
  785MPD2     N11582   3.087   1.630  10.719  0.1517 -0.5995 -0.1891
  785MPD2    H511583   3.067   1.724  10.750  2.1406 -0.0317 -0.6291
  785MPD2    N111584   3.555   1.726  10.721 -0.2037 -0.2817 -0.3944
  785MPD2    H711585   3.524   1.806  10.776 -1.1844 -2.1112  1.6891
  786MPD2     C11586   1.647   4.349  14.847  0.3346 -0.2989  0.2932
  786MPD2    C111587   1.780   4.312  14.836  0.1322 -0.1775  0.0592
  786MPD2    C211588   1.863   4.375  14.917  0.6829 -0.4642 -0.3742
  786MPD2    C311589   1.828   4.473  15.003  0.7786 -0.7697 -0.0766
  786MPD2    C411590   1.691   4.498  15.015 -0.1254 -0.3285 -0.3712
  786MPD2    C511591   1.601   4.440  14.935  0.1178  0.3134 -0.3256
  786MPD2     H11592   1.960   4.332  14.938  0.3098 -0.7497  0.7848
  786MPD2    H111593   1.653   4.563  15.093  2.7245  0.3235  0.4705
  786MPD2    H211594   1.579   4.314  14.770  1.1611  0.7538 -0.9347
  786MPD2    H311595   1.495   4.466  14.933 -0.3547 -1.6879 -0.8256
  786MPD2     N11596   1.919   4.534  15.093 -0.0286  0.3491 -0.1961
  786MPD2    H511597   1.869   4.588  15.162 -1.1945 -2.2320  0.9763
  786MPD2    N111598   1.835   4.210  14.749 -0.3415 -0.7701 -0.6923
  786MPD2    H711599   1.933   4.191  14.766  0.0191  1.5496 -0.2345
  787MPD2     C11600   2.128   3.670  14.930 -0.1328 -0.0681 -0.1277
  787MPD2    C111601   2.153   3.666  14.789 -0.0570 -0.0982 -1.1948
  787MPD2    C211602   2.230   3.562  14.737  0.5899  0.1923 -0.1670
  787MPD2    C311603   2.294   3.473  14.822 -0.7781 -1.1067 -0.7937
  787MPD2    C411604   2.265   3.484  14.956  0.4717  0.3677 -0.0822
  787MPD2    C511605   2.181   3.571  15.005  0.5370 -0.1598 -1.1169
  787MPD2     H11606   2.256   3.551  14.633 -0.7952 -2.1048 -0.2709
  787MPD2    H111607   2.307   3.416  15.031 -1.1490  0.6754  1.0992
  787MPD2    H211608   2.057   3.737  14.977  1.6445  1.9748 -0.3702
  787MPD2    H311609   2.160   3.572  15.111 -0.0192  0.2688 -1.2323
  787MPD2     N11610   2.381   3.377  14.769 -0.6195 -1.0933 -0.7147
  787MPD2    H511611   2.406   3.391  14.671  1.3428 -0.3384 -0.0952
  787MPD2    N111612   2.086   3.765  14.704  0.1219 -0.4315 -0.3363
  787MPD2    H711613   2.011   3.811  14.755  0.5343 -0.1056 -0.0275
  788MPD2     C11614   3.833   2.148   1.135 -0.0094  0.1036 -0.5827
  788MPD2    C111615   3.812   2.147   0.998 -0.2155 -0.5515 -0.4763
  788MPD2    C211616   3.911   2.197   0.909  0.0972  0.4566 -0.2521
  788MPD2    C311617   4.026   2.257   0.956 -0.5840 -0.5725 -0.7723
  788MPD2    C411618   4.040   2.265   1.091 -0.6624  0.2284  0.0347
  788MPD2    C511619   3.953   2.202   1.181 -0.3830  0.4762  0.7475
  788MPD2     H11620   3.895   2.204   0.803  0.1610  1.0509 -0.2211
  788MPD2    H111621   4.125   2.317   1.132  0.9292 -2.1029 -0.3105
  788MPD2    H211622   3.764   2.109   1.209  2.2577 -0.7588  1.0733
  788MPD2    H311623   3.970   2.219   1.286  0.7245  1.3469  0.4270
  788MPD2     N11624   4.128   2.318   0.873 -0.2711  0.0304 -0.5937
  788MPD2    H511625   4.209   2.349   0.925 -0.7166  1.4883 -0.7829
  788MPD2    N111626   3.703   2.086   0.942  0.0881  0.0246  0.2145
  788MPD2    H711627   3.722   2.056   0.847  1.4770  1.7154 -0.0379
  789MPD2     C11628   0.104   2.282  16.169  0.4544  0.2847  0.1419
  789MPD2    C111629   0.001   2.205  16.121 -0.2773 -0.0226  0.2125
  789MPD2    C211630   4.591   2.246  16.142  0.0630 -0.3169 -0.0809
  789MPD2    C311631   4.567   2.368  16.213  0.1438 -0.2568 -0.4025
  789MPD2    C411632   4.670   2.437  16.269  0.4845 -0.0833 -0.7179
  789MPD2    C511633   0.079   2.397  16.240 -0.1649  0.4393 -0.9686
  789MPD2     H11634   4.512   2.191  16.092 -1.8787  2.1171  0.2896
  789MPD2    H111635   4.661   2.533  16.318  2.1281 -0.0036 -0.5792
  789MPD2    H211636   0.207   2.260  16.143  0.3227  1.1776 -1.1826
  789MPD2    H311637   0.162   2.460  16.269  0.4880 -0.2019 -1.4430
  789MPD2     N11638   4.441   2.422  16.239 -0.8542  0.5396  0.2199
  789MPD2    H511639   4.432   2.501  16.302 -1.0774  0.2579  0.5405
  789MPD2    N111640   0.024   2.083  16.042  0.1030  0.0990 -0.5086
  789MPD2    H711641   4.663   2.037  16.003  1.4275 -1.6549 -1.2546
  790MPD2     C11642   0.760   4.280  13.694 -0.5731  1.0154  0.5067
  790MPD2    C111643   0.713   4.156  13.726  0.2807 -0.1241 -0.2554
  790MPD2    C211644   0.618   4.101  13.635  0.3509 -0.6414 -0.7948
  790MPD2    C311645   0.575   4.169  13.518  0.3701 -1.0850  0.2330
  790MPD2    C411646   0.617   4.300  13.505 -0.0488  0.1224  0.2356
  790MPD2    C511647   0.712   4.352  13.587 -0.0225 -0.0058  0.3489
  790MPD2     H11648   0.592   3.996  13.636 -1.1456 -0.2059  3.9878
  790MPD2    H111649   0.579   4.361  13.424 -1.8762  0.7456  1.5507
  790MPD2    H211650   0.836   4.330  13.753  0.1320 -1.1489  1.4443
  790MPD2    H311651   0.747   4.450  13.556  0.8142  0.2501  2.1056
  790MPD2     N11652   0.496   4.104  13.425  0.2215 -0.2728 -0.0477
  790MPD2    H511653   0.508   4.003  13.424 -1.6727 -0.4710 -1.6178
  790MPD2    N111654   0.748   4.074  13.835 -0.6322  0.4419  0.2933
  790MPD2    H711655   0.704   3.984  13.850  1.9308 -0.9610 -0.6958
  791MPD2     C11656   4.516   4.157  13.068 -0.6785 -0.5025  0.2480
  791MPD2    C111657   4.572   4.031  13.096  0.0029  0.5547 -0.0328
  791MPD2    C211658   4.498   3.919  13.059  0.0690  0.5616  0.2371
  791MPD2    C311659   4.368   3.931  13.010 -0.4679  0.0622 -0.5587
  791MPD2    C411660   4.309   4.056  12.996  0.2084  0.0213  0.2624
  791MPD2    C511661   4.380   4.170  13.033 -0.2345 -0.6516 -0.0409
  791MPD2     H11662   4.542   3.821  13.072 -2.7728 -0.5826  1.2750
  791MPD2    H111663   4.207   4.079  12.969 -0.0896 -1.0240  0.4873
  791MPD2    H211664   4.571   4.250  13.069  0.7548 -1.3128 -2.1847
  791MPD2    H311665   4.331   4.265  13.017  1.1757 -0.0277 -0.6937
  791MPD2     N11666   4.305   3.810  12.972  0.1248 -0.3387  0.0876
  791MPD2    H511667   4.356   3.725  12.996  0.2923 -0.3264 -0.2285
  791MPD2    N111668   4.716   4.021  13.124 -0.4557 -0.0379 -0.0736
  791MPD2    H711669   0.050   4.102  13.148  0.0632 -0.6496  0.8052
  792MPD2     C11670   0.011   4.576  10.754  0.2360  0.2047 -0.1038
  792MPD2    C111671   0.111   4.484  10.758 -0.3627  1.1774  0.0834
  792MPD2    C211672   0.076   4.350  10.767  0.3682  0.1939  0.1279
  792MPD2    C311673   4.667   4.303  10.762 -0.7232  0.5596  0.1206
  792MPD2    C411674   4.565   4.403  10.776  0.7245 -0.5285  0.0921
  792MPD2    C511675   4.598   4.540  10.757 -0.4459 -0.2401  0.3148
  792MPD2     H11676   0.145   4.267  10.777  0.0357  0.1135  1.7243
  792MPD2    H111677   4.461   4.374  10.773  1.2295 -2.2494 -0.6883
  792MPD2    H211678   0.043   4.676  10.724  1.2134 -0.1870 -0.3669
  792MPD2    H311679   4.522   4.614  10.736 -0.8587 -0.3808  1.3280
  792MPD2     N11680   4.641   4.161  10.759  0.0158 -1.2851  0.1138
  792MPD2    H511681   0.001   4.101  10.748  1.9935  1.5019 -0.6588
  792MPD2    N111682   0.246   4.527  10.734  0.5425  0.0311  0.5075
  792MPD2    H711683   0.259   4.613  10.682 -0.9243 -1.9057 -3.0228
  793MPD2     C11684   4.385   3.594   9.883  0.4287  0.6809  0.7485
  793MPD2    C111685   4.516   3.596   9.918 -0.0144 -0.2929  0.3785
  793MPD2    C211686   4.553   3.654  10.035 -0.4577 -0.5979 -0.4915
  793MPD2    C311687   4.461   3.714  10.122  0.1810 -0.0855  0.8216
  793MPD2    C411688   4.333   3.717  10.084 -0.3403 -0.3843  0.3875
  793MPD2    C511689   4.294   3.660   9.963  0.5682  0.2988 -0.4708
  793MPD2     H11690   4.653   3.642  10.075 -1.3103 -2.2069  1.1559
  793MPD2    H111691   4.251   3.762  10.139  0.4450  0.1340  1.1337
  793MPD2    H211692   4.353   3.547   9.791  0.5955  2.5172 -0.2412
  793MPD2    H311693   4.190   3.669   9.935  0.6007 -1.5385 -1.1758
  793MPD2     N11694   4.502   3.758  10.247 -0.0397  0.2541  0.2141
  793MPD2    H511695   4.598   3.734  10.269  0.1051  0.5083 -0.1418
  793MPD2    N111696   4.619   3.546   9.841  0.1291 -0.2919  0.2639
  793MPD2    H711697   4.710   3.575   9.875  0.4869 -0.0931 -0.8847
  794MPD2     C11698   0.674   3.778  17.204 -0.9410  0.1456  0.4707
  794MPD2    C111699   0.632   3.695  17.099  0.0258 -0.4747  0.4088
  794MPD2    C211700   0.600   3.761  16.978  0.1363 -0.2036  0.2282
  794MPD2    C311701   0.612   3.901  16.963  0.6075 -0.0238  0.0059
  794MPD2    C411702   0.643   3.976  17.071  0.5353  0.3202 -0.0331
  794MPD2    C511703   0.679   3.913  17.191 -0.4363  0.3324 -0.3467
  794MPD2     H11704   0.570   3.693  16.898 -2.7992  0.6772  0.5849
  794MPD2    H111705   0.641   4.084  17.068  2.1177  0.4051  1.7625
  794MPD2    H211706   0.696   3.744  17.305  0.9849  1.5730  0.5483
  794MPD2    H311707   0.703   3.973  17.278 -0.1371  0.1677 -0.3180
  794MPD2     N11708   0.598   3.970  16.843 -0.3395 -0.3464  0.3504
  794MPD2    H511709   0.619   4.069  16.849  0.4718 -0.5704  1.2934
  794MPD2    N111710   0.613   3.556  17.117 -0.1123  0.6718 -0.5695
  794MPD2    H711711   0.572   3.512  17.035 -1.1531 -0.0367  0.3435
  795MPD2     C11712   2.483   0.879  13.687 -1.1065  0.1174  0.4279
  795MPD2    C111713   2.429   0.783  13.609  0.1159 -0.2128  0.0367
  795MPD2    C211714   2.509   0.668  13.576  0.4770  0.4091 -0.1754
  795MPD2    C311715   2.642   0.669  13.610 -0.2327 -0.1499 -0.4037
  795MPD2    C411716   2.690   0.779  13.686  0.1870  0.5620  0.1191
  795MPD2    C511717   2.611   0.877  13.728 -0.1125  0.3523 -0.0260
  795MPD2     H11718   2.465   0.586  13.520 -1.6182  0.4356  1.4385
  795MPD2    H111719   2.792   0.794  13.721 -0.3137  1.6686  1.0854
  795MPD2    H211720   2.433   0.968  13.722 -1.1755 -0.5771  2.0643
  795MPD2    H311721   2.639   0.952  13.801 -0.3314  1.0708 -0.6824
  795MPD2     N11722   2.714   0.548  13.591 -0.3601  0.2214  0.0481
  795MPD2    H511723   2.660   0.468  13.557 -0.0998  0.3336 -0.6225
  795MPD2    N111724   2.308   0.806  13.547  0.0934  0.6044 -0.4124
  795MPD2    H711725   2.265   0.723  13.508  0.9230  1.6496 -3.5745
  796MPD2     C11726   2.727   2.237  16.077 -0.9569  0.3863  0.2195
  796MPD2    C111727   2.834   2.313  16.115  0.4315 -0.0585 -0.1899
  796MPD2    C211728   2.834   2.451  16.101  0.0167  0.5541 -0.2120
  796MPD2    C311729   2.722   2.513  16.044  0.6261 -0.3988 -0.2956
  796MPD2    C411730   2.631   2.437  15.990 -0.2078  0.5352 -0.9773
  796MPD2    C511731   2.632   2.300  16.001  0.5289 -0.2573  0.9226
  796MPD2     H11732   2.916   2.509  16.141 -1.4390  2.0061  0.6520
  796MPD2    H111733   2.540   2.469  15.942 -0.1588  2.0499 -0.0758
  796MPD2    H211734   2.730   2.129  16.087 -0.2130  0.3938  0.0749
  796MPD2    H311735   2.559   2.232  15.958 -0.3111  1.9480 -1.1584
  796MPD2     N11736   2.717   2.653  16.051 -0.4789  0.1568  0.1251
  796MPD2    H511737   2.792   2.702  16.099  0.4556 -0.8459 -0.3449
  796MPD2    N111738   2.935   2.247  16.184 -0.6053  0.1253  0.0681
  796MPD2    H711739   2.915   2.152  16.215 -0.6345 -0.2685 -1.1649
  797MPD2     C11740   4.139   1.655  17.173  0.0793 -0.8000 -0.1588
  797MPD2    C111741   4.246   1.736  17.170 -0.1799 -0.2164  0.0719
  797MPD2    C211742   4.238   1.849  17.094 -0.1844  0.5285  0.0238
  797MPD2    C311743   4.116   1.895  17.031  0.8710  0.4578  0.4797
  797MPD2    C411744   4.016   1.806  17.041  0.1946  0.1693  0.0722
  797MPD2    C511745   4.024   1.688  17.113 -0.0446  0.4009  0.0499
  797MPD2     H11746   4.326   1.911  17.106 -0.3362  0.5313  1.0891
  797MPD2    H111747   3.924   1.833  16.992  0.1504  4.4375  2.5281
  797MPD2    H211748   4.142   1.563  17.230 -0.3649 -0.4661  0.4144
  797MPD2    H311749   3.932   1.632  17.123 -0.6390  0.9312 -2.4930
  797MPD2     N11750   4.112   2.015  16.955 -0.6327  0.6814 -0.1660
  797MPD2    H511751   4.032   2.015  16.892 -0.9000 -0.5110  0.1626
  797MPD2    N111752   4.368   1.706  17.227 -0.0287 -0.2117  0.1982
  797MPD2    H711753   4.433   1.783  17.233  0.2452 -0.2779 -1.9164
  798MPD2     C11754   0.072   2.122  16.798 -1.0785 -0.6976  0.0583
  798MPD2    C111755   4.680   2.129  16.880 -0.3302 -0.6045 -0.5027
  798MPD2    C211756   4.683   2.067  17.004 -0.3672  0.3062 -0.8663
  798MPD2    C311757   0.064   1.974  17.037  0.3373 -0.4399  0.0658
  798MPD2    C411758   0.181   1.972  16.960 -0.0371 -0.2214  0.2437
  798MPD2    C511759   0.172   2.042  16.843 -0.0188 -0.0642 -0.1459
  798MPD2     H11760   4.589   2.068  17.058 -0.7097 -1.6636 -1.3964
  798MPD2    H111761   0.273   1.916  16.972  1.0279  1.4212 -0.3356
  798MPD2    H211762   0.074   2.168  16.700 -1.8966 -0.2607  0.2476
  798MPD2    H311763   0.262   2.038  16.783  0.7502  1.2906  0.9365
  798MPD2     N11764   0.050   1.900  17.154 -0.4155  0.2113 -0.5835
  798MPD2    H511765   4.688   1.920  17.209  0.3866  0.4337  0.5484
  798MPD2    N111766   4.564   2.196  16.846 -0.0649  0.0000  0.5529
  798MPD2    H711767   4.495   2.203  16.919 -2.4775 -0.4051 -1.6868
  799MPD2     C11768   1.940   3.329  14.996  0.3415  0.0750  0.1004
  799MPD2    C111769   2.000   3.260  14.892  0.3374 -0.4299  1.0530
  799MPD2    C211770   1.976   3.305  14.766 -0.2781  0.1112  0.7240
  799MPD2    C311771   1.905   3.417  14.737  0.5190 -0.2635  0.0091
  799MPD2    C411772   1.852   3.493  14.843  0.9358  0.3389  0.3778
  799MPD2    C511773   1.870   3.442  14.973 -0.9966 -0.5588  0.4305
  799MPD2     H11774   2.019   3.250  14.683 -1.3179 -0.2796  0.4388
  799MPD2    H111775   1.799   3.585  14.822 -2.4838 -2.0116 -1.3713
  799MPD2    H211776   1.956   3.304  15.100 -0.3459  1.7501  0.6105
  799MPD2    H311777   1.820   3.507  15.044 -1.1877 -1.1881  0.8656
  799MPD2     N11778   1.875   3.461  14.611  0.4601  0.0117 -0.5110
  799MPD2    H511779   1.837   3.554  14.602  2.7561  1.1440  1.4150
  799MPD2    N111780   2.074   3.143  14.912 -0.1102 -0.1254 -0.1982
  799MPD2    H711781   2.117   3.103  14.830  0.3869 -2.2943  1.1262
  800MPD2     C11782   2.094   4.596  13.941  0.5977 -0.0281 -0.6761
  800MPD2    C111783   2.165   4.678  13.851 -0.3207 -0.6537 -0.5108
  800MPD2    C211784   2.172   4.643  13.714  0.4359 -0.3349 -0.3748
  800MPD2    C311785   2.110   4.528  13.668  0.0726 -0.5128 -0.6117
  800MPD2    C411786   2.033   4.451  13.761 -0.5790 -0.0221 -0.0017
  800MPD2    C511787   2.016   4.491  13.890  0.0895  0.6074  0.1335
  800MPD2     H11788   2.235   4.700  13.648 -0.5329  2.3148  0.9953
  800MPD2    H111789   1.979   4.363  13.726 -0.0531  0.0899 -1.1236
  800MPD2    H211790   2.098   4.622  14.046 -0.0471  0.7335 -0.8375
  800MPD2    H311791   1.965   4.428  13.963 -1.2553  1.7577  0.1751
  800MPD2     N11792   2.136   4.490  13.532 -0.0706  0.1972  0.1172
  800MPD2    H511793   2.186   4.562  13.481  0.6494 -1.9698 -2.2388
  800MPD2    N111794   2.246   0.058  13.907  0.0863 -0.6632  0.1068
  800MPD2    H711795   2.273   0.052  14.005 -1.0476  1.5617  0.5377
  801MPD2     C11796   2.852   0.739  14.032 -0.8206 -0.1215  0.2197
  801MPD2    C111797   2.720   0.708  14.063 -0.2724  0.0516 -0.2977
  801MPD2    C211798   2.661   0.779  14.168  0.4156 -0.8505 -0.1768
  801MPD2    C311799   2.722   0.871  14.243  0.1014  0.1557  0.0687
  801MPD2    C411800   2.843   0.918  14.189 -0.1912 -0.2979 -0.4342
  801MPD2    C511801   2.909   0.849  14.094 -0.1550  0.5484 -0.1574
  801MPD2     H11802   2.566   0.738  14.201 -0.8874  1.6190 -0.8834
  801MPD2    H111803   2.890   1.010  14.223 -3.8964  0.8684  1.5382
  801MPD2    H211804   2.897   0.682  13.952 -0.7942 -1.8725  1.4634
  801MPD2    H311805   2.999   0.887  14.047 -1.4995  3.9866  0.1116
  801MPD2     N11806   2.664   0.937  14.354 -0.2152  0.3240 -0.2317
  801MPD2    H511807   2.696   1.028  14.387  1.4812  0.0346 -1.0993
  801MPD2    N111808   2.676   0.595  13.991 -1.3476  0.1315  0.1362
  801MPD2    H711809   2.750   0.535  13.956 -0.0244  2.1663 -0.5651
  802MPD2     C11810   2.269   0.513  17.370  0.4157 -0.2334  0.1572
  802MPD2    C111811   2.315   0.602  17.465 -0.0519 -0.1656 -0.1497
  802MPD2    C211812   2.443   0.613  17.506  0.0065 -0.3274  0.1081
  802MPD2    C311813   2.537   0.545  17.435  0.7788  0.1292  0.1875
  802MPD2    C411814   2.501   0.465  17.330  0.4720  0.4196 -0.6280
  802MPD2    C511815   2.366   0.450  17.303  1.3153  0.1798  0.6554
  802MPD2     H11816   2.479   0.672  17.590  0.3334  2.7871 -2.1915
  802MPD2    H111817   2.562   0.414  17.257  2.4312  2.1415 -0.1777
  802MPD2    H211818   2.167   0.523  17.336  0.5377 -0.1849 -0.1945
  802MPD2    H311819   2.352   0.404  17.206  0.3317 -1.2823  1.4928
  802MPD2     N11820   2.670   0.569  17.468 -0.7235  0.1402 -0.1287
  802MPD2    H511821   2.691   0.617  17.555  0.8203 -1.1949  0.2313
  802MPD2    N111822   2.215   0.680  17.533  0.1093 -0.1251 -0.0353
  802MPD2    H711823   2.245   0.744  17.606 -0.1720  0.4402 -0.4120
  803MPD2     C11824   3.269   3.897  11.913  0.4982 -0.3788 -0.1501
  803MPD2    C111825   3.342   3.887  12.035 -0.4050 -0.1968 -0.0237
  803MPD2    C211826   3.318   3.784  12.117 -0.3844 -0.1715  0.2778
  803MPD2    C311827   3.209   3.705  12.091 -0.1421 -0.1772  0.2372
  803MPD2    C411828   3.126   3.726  11.991 -0.2224 -0.2545  0.2496
  803MPD2    C511829   3.155   3.822  11.890  0.4107  0.2565 -0.1128
  803MPD2     H11830   3.382   3.782  12.205 -0.9782 -2.0389  0.6608
  803MPD2    H111831   3.043   3.659  11.974 -1.1371  1.6205 -2.8452
  803MPD2    H211832   3.292   3.970  11.836  1.6217  1.2297  1.7009
  803MPD2    H311833   3.097   3.842  11.800  0.2703 -1.5731 -0.4216
  803MPD2     N11834   3.177   3.593  12.165  0.0598  0.1748 -0.1565
  803MPD2    H511835   3.093   3.549  12.128 -0.9525  0.0858  2.2466
  803MPD2    N111836   3.448   3.981  12.064  0.3295  0.5537 -0.5894
  803MPD2    H711837   3.487   3.980  12.157  1.8965 -0.7562 -1.2486
  804MPD2     C11838   3.066   0.455  16.965 -0.2592  0.0800 -0.0198
  804MPD2    C111839   3.073   0.402  17.088 -0.4713  0.7264  0.7521
  804MPD2    C211840   3.150   0.463  17.180  0.1457  0.1558 -0.6778
  804MPD2    C311841   3.238   0.572  17.150 -0.8358 -0.6375 -0.2395
  804MPD2    C411842   3.223   0.633  17.026 -0.0816  0.5710  0.8784
  804MPD2    C511843   3.131   0.576  16.937 -0.5399  0.2238  0.2564
  804MPD2     H11844   3.146   0.428  17.282  0.2452  0.2528 -0.6411
  804MPD2    H111845   3.268   0.729  17.004 -1.8835  1.0337 -0.7507
  804MPD2    H211846   2.996   0.419  16.890 -0.5765 -0.4506  0.5340
  804MPD2    H311847   3.112   0.624  16.842  0.8828 -3.0213 -1.6407
  804MPD2     N11848   3.332   0.616  17.243  0.1606  0.1906 -0.6423
  804MPD2    H511849   3.334   0.576  17.337 -1.5365  0.1593 -0.6147
  804MPD2    N111850   3.002   0.292  17.128 -0.3633 -0.8203  0.6507
  804MPD2    H711851   3.002   0.278  17.229  0.1206 -0.2760  0.7226
  805MPD2     C11852   1.822   3.432  15.939  0.1240 -0.8319  0.5516
  805MPD2    C111853   1.905   3.321  15.918 -0.0197  0.2510 -0.3652
  805MPD2    C211854   2.040   3.338  15.886  0.2401 -0.2560 -0.5854
  805MPD2    C311855   2.095   3.466  15.885  0.3856 -0.0726  0.0399
  805MPD2    C411856   2.013   3.578  15.909  0.2108 -0.2208 -0.1975
  805MPD2    C511857   1.877   3.557  15.930  0.9060 -0.4770  0.0338
  805MPD2     H11858   2.095   3.250  15.855  0.9728 -0.3486  0.9939
  805MPD2    H111859   2.050   3.680  15.913 -0.0522 -0.2304  2.2409
  805MPD2    H211860   1.721   3.413  15.973 -0.1275 -0.5086 -0.0187
  805MPD2    H311861   1.807   3.639  15.937 -0.4294 -1.5400 -0.7958
  805MPD2     N11862   2.232   3.490  15.864 -0.3463 -0.4807  0.4699
  805MPD2    H511863   2.253   3.589  15.866  2.1718 -0.9261 -3.4021
  805MPD2    N111864   1.857   3.188  15.903 -0.0161 -0.3704 -0.2743
  805MPD2    H711865   1.927   3.118  15.879  0.3200 -0.3600  0.6602
  806MPD2     C11866   3.281   2.929   1.156 -0.4606 -1.0933 -1.0708
  806MPD2    C111867   3.326   2.843   1.061  0.9363 -0.6008  0.3822
  806MPD2    C211868   3.275   2.847   0.933  0.0302 -0.3044  0.6268
  806MPD2    C311869   3.182   2.950   0.900 -0.3666  0.9170 -0.4943
  806MPD2    C411870   3.136   3.037   0.994 -0.0367  0.0981 -0.5500
  806MPD2    C511871   3.187   3.022   1.119  0.1009  0.6923 -0.3648
  806MPD2     H11872   3.296   2.775   0.856 -0.5931  2.5090 -2.1516
  806MPD2    H111873   3.060   3.113   0.976 -1.4002 -1.3497 -0.9268
  806MPD2    H211874   3.317   2.922   1.258 -3.1569 -0.5256 -0.1005
  806MPD2    H311875   3.154   3.087   1.200  2.6520 -1.2362  2.2364
  806MPD2     N11876   3.130   2.955   0.770 -0.1538  0.1751  0.7959
  806MPD2    H511877   3.150   2.879   0.707 -2.5853 -0.8700  1.2757
  806MPD2    N111878   3.416   2.740   1.115  0.7077 -0.6218 -1.2636
  806MPD2    H711879   3.433   2.740   1.215 -1.1548  0.9699 -0.9317
  807MPD2     C11880   3.613   2.350   1.680 -0.2072 -0.1928 -0.2181
  807MPD2    C111881   3.548   2.446   1.608 -0.4099 -0.4321  0.4277
  807MPD2    C211882   3.411   2.471   1.641 -0.1339  0.3155 -0.2558
  807MPD2    C311883   3.352   2.415   1.752  0.8475 -0.1010 -1.2176
  807MPD2    C411884   3.422   2.318   1.824 -0.3480 -0.2067 -0.1081
  807MPD2    C511885   3.553   2.292   1.787 -0.5689 -1.0085 -0.3425
  807MPD2     H11886   3.355   2.529   1.569 -1.0563  0.0216  0.2282
  807MPD2    H111887   3.377   2.275   1.912 -0.2123 -1.7179 -0.7877
  807MPD2    H211888   3.711   2.327   1.640 -0.5199  2.7346 -2.7161
  807MPD2    H311889   3.605   2.217   1.845 -0.0880 -0.6347 -0.2934
  807MPD2     N11890   3.218   2.440   1.789 -0.2503 -0.9205 -0.7002
  807MPD2    H511891   3.188   2.368   1.855  1.7974 -0.0885  1.1433
  807MPD2    N111892   3.599   2.504   1.487  0.1308  0.3782 -0.2645
  807MPD2    H711893   3.535   2.567   1.441 -0.2413  0.1482 -0.0657
  808MPD2     C11894   2.243   4.487   9.437 -0.0507  0.5548 -0.5774
  808MPD2    C111895   2.312   4.422   9.538  0.0678 -0.0600 -0.1166
  808MPD2    C211896   2.426   4.488   9.574 -0.0517 -0.4972 -0.1624
  808MPD2    C311897   2.472   4.601   9.509  0.0630 -0.2368 -0.2086
  808MPD2    C411898   2.406   4.650   9.403  0.3494  0.6754  0.1227
  808MPD2    C511899   2.285   4.600   9.369  0.2742  0.0817  0.4999
  808MPD2     H11900   2.484   4.432   9.647 -1.7481 -0.9514  0.8231
  808MPD2    H111901   2.437   0.013   9.341  0.1375 -0.2146 -1.1679
  808MPD2    H211902   2.145   4.452   9.406  0.4871  0.0951 -1.7381
  808MPD2    H311903   2.213   4.635   9.296  1.8168 -1.1886 -1.6150
  808MPD2     N11904   2.593   4.669   9.543 -0.4023  0.0030 -0.3571
  808MPD2    H511905   2.631   0.006   9.469  0.8860 -1.6191 -0.9843
  808MPD2    N111906   2.269   4.307   9.606  0.3391 -1.5280  0.2771
  808MPD2    H711907   2.328   4.269   9.680  0.0861 -1.9195  0.2763
  809MPD2     C11908   3.261   4.450   8.983  0.0921  0.4412  0.0789
  809MPD2    C111909   3.338   4.512   9.079  0.2296 -0.5458 -0.9328
  809MPD2    C211910   3.271   4.565   9.187 -0.5328 -0.6334 -0.0429
  809MPD2    C311911   3.137   4.541   9.217 -0.3985  0.8374 -0.7582
  809MPD2    C411912   3.069   4.453   9.138  0.8216  0.8495 -0.3533
  809MPD2    C511913   3.129   4.425   9.020  0.1608 -0.1587  0.3837
  809MPD2     H11914   3.326   4.629   9.255  0.2484 -1.6034  0.2353
  809MPD2    H111915   2.965   4.426   9.154  0.0188  1.9216 -3.7574
  809MPD2    H211916   3.292   4.409   8.888  1.8044 -0.0242  0.8391
  809MPD2    H311917   3.077   4.356   8.954  1.1218  0.5712 -1.1265
  809MPD2     N11918   3.070   4.587   9.328 -0.0434  0.3789 -0.3270
  809MPD2    H511919   2.977   4.547   9.339  0.4743 -0.8684 -0.4661
  809MPD2    N111920   3.478   4.537   9.068 -0.5763  0.1127  0.5032
  809MPD2    H711921   3.525   4.565   9.154 -0.2099  1.2441 -0.0693
  810MPD2     C11922   2.705   3.720   9.978  0.0957 -0.3070  0.0016
  810MPD2    C111923   2.597   3.651  10.029 -0.6026 -0.2816  0.5203
  810MPD2    C211924   2.588   3.620  10.163 -0.4921  0.5119  0.3127
  810MPD2    C311925   2.702   3.637  10.242  0.2052 -0.1668 -0.7505
  810MPD2    C411926   2.816   3.702  10.186 -0.3999 -0.6326 -0.2505
  810MPD2    C511927   2.813   3.750  10.057  0.1778  0.3496 -0.1145
  810MPD2     H11928   2.499   3.582  10.212  1.4439 -1.3548  2.4191
  810MPD2    H111929   2.908   3.734  10.234 -0.7176  0.3900 -0.3379
  810MPD2    H211930   2.703   3.750   9.873 -0.1091  0.9548  0.3666
  810MPD2    H311931   2.895   3.810  10.020  1.4428  0.1965  2.4267
  810MPD2     N11932   2.698   3.593  10.372  0.2472 -0.1649  0.0441
  810MPD2    H511933   2.621   3.539  10.411  0.7508  0.2523  1.6187
  810MPD2    N111934   2.483   3.635   9.947  0.0781  0.1895  0.2747
  810MPD2    H711935   2.484   3.681   9.856  0.5725 -0.8974 -0.2700
  811MPD2     C11936   1.670   3.903  10.075 -0.1419  0.2829 -0.3136
  811MPD2    C111937   1.799   3.923  10.067 -0.6282  0.0390  0.1458
  811MPD2    C211938   1.850   4.047  10.104 -0.3115  0.3093 -0.4015
  811MPD2    C311939   1.765   4.153  10.139 -0.7047  0.3623 -0.2254
  811MPD2    C411940   1.632   4.131  10.142 -0.3459 -0.0589 -0.4736
  811MPD2    C511941   1.584   4.006  10.104 -0.3007  0.0197  0.5859
  811MPD2     H11942   1.957   4.065  10.111  0.3147 -3.0744 -1.3379
  811MPD2    H111943   1.561   4.204  10.180  0.0767  0.3199 -0.4103
  811MPD2    H211944   1.640   3.805  10.040  0.5505 -0.5690  1.4998
  811MPD2    H311945   1.475   4.001  10.106 -0.3223  0.3977  0.3506
  811MPD2     N11946   1.817   4.275  10.170 -0.2406 -0.1688  0.3419
  811MPD2    H511947   1.919   4.278  10.165 -0.1855 -2.1768  0.2215
  811MPD2    N111948   1.886   3.813  10.046 -0.2111  0.2168 -0.0012
  811MPD2    H711949   1.844   3.721  10.056 -1.9880  1.0356  0.1538
  812MPD2     C11950   1.383   3.909  12.103  0.2078 -0.6377  0.9338
  812MPD2    C111951   1.311   3.961  12.210 -0.5056  0.3591 -0.5867
  812MPD2    C211952   1.260   3.875  12.301 -0.4902 -1.2686  0.4309
  812MPD2    C311953   1.275   3.740  12.289  0.4217 -0.1131 -0.3459
  812MPD2    C411954   1.345   3.688  12.176 -0.2137 -0.7023  0.5406
  812MPD2    C511955   1.394   3.775  12.088 -0.1162 -0.1824 -0.3542
  812MPD2     H11956   1.209   3.924  12.384  0.1308  0.4628 -0.2175
  812MPD2    H111957   1.356   3.584  12.147 -3.5544 -0.1978 -2.4814
  812MPD2    H211958   1.423   3.964  12.019 -0.9519 -0.0161  0.7952
  812MPD2    H311959   1.444   3.736  11.999 -0.2606 -0.1671 -0.4423
  812MPD2     N11960   1.232   3.662  12.396  0.2257 -0.5613  0.0234
  812MPD2    H511961   1.195   3.717  12.473 -1.6944 -1.0245 -0.5624
  812MPD2    N111962   1.295   4.104  12.213 -0.0057 -0.0523  0.2179
  812MPD2    H711963   1.349   4.158  12.146  0.7308  0.3830  1.1646
  813MPD2     C11964   4.632   1.468  12.816 -0.3672  1.1523  0.4527
  813MPD2    C111965   4.693   1.355  12.848  0.6645  0.4993 -0.7157
  813MPD2    C211966   4.652   1.292  12.967 -0.3892  0.4722 -0.3510
  813MPD2    C311967   4.550   1.354  13.045  0.2977  0.0759  0.5632
  813MPD2    C411968   4.490   1.473  13.009  0.1736 -0.3115  0.1832
  813MPD2    C511969   4.532   1.522  12.893 -0.1310 -1.0098  0.0622
  813MPD2     H11970   4.692   1.201  13.008  0.8632  1.1628 -0.0365
  813MPD2    H111971   4.413   1.524  13.067 -0.1350  0.1797 -0.6642
  813MPD2    H211972   4.668   1.529  12.734  0.5618 -0.1614 -0.1261
  813MPD2    H311973   4.488   1.617  12.865  2.3383  0.1356  0.0277
  813MPD2     N11974   4.517   1.288  13.163  0.4580 -0.8326  0.3467
  813MPD2    H511975   4.586   1.226  13.204  2.0568 -0.4151 -1.7235
  813MPD2    N111976   0.088   1.304  12.779 -0.3182  0.2172  0.1456
  813MPD2    H711977   0.138   1.226  12.821  0.4992  1.5003  1.5571
  814MPD2     C11978   0.801   2.542  12.314 -0.0971  0.5819 -0.6691
  814MPD2    C111979   0.806   2.581  12.184  0.0453  0.1549 -0.1320
  814MPD2    C211980   0.858   2.701  12.152  0.2371  0.5796 -0.8236
  814MPD2    C311981   0.908   2.789  12.252 -0.4817  0.1582 -0.4360
  814MPD2    C411982   0.912   2.745  12.382  0.8998 -0.3988 -0.1421
  814MPD2    C511983   0.854   2.627  12.414 -0.0235  0.7837  0.4332
  814MPD2     H11984   0.854   2.731  12.047  1.1496  1.2179 -0.6781
  814MPD2    H111985   0.970   2.790  12.462 -1.5766 -0.0916  1.4998
  814MPD2    H211986   0.766   2.446  12.350  0.4587  0.6036 -0.0799
  814MPD2    H311987   0.854   2.594  12.517 -1.2214 -1.7670 -0.3646
  814MPD2     N11988   0.959   2.913  12.216  0.4008 -0.9556 -0.2186
  814MPD2    H511989   1.014   2.967  12.282 -0.3296 -1.5997  0.9195
  814MPD2    N111990   0.746   2.512  12.071  0.6070  0.1457  0.1484
  814MPD2    H711991   0.771   2.540  11.977  4.0082  0.9096  1.2645
  815MPD2     C11992   1.369   0.875  11.694 -0.0409 -0.2553  0.0092
  815MPD2    C111993   1.312   0.750  11.727  0.7969  0.1460 -0.2036
  815MPD2    C211994   1.205   0.739  11.814  0.2454 -0.8178 -0.3109
  815MPD2    C311995   1.164   0.851  11.880  0.2677 -0.6351  0.3998
  815MPD2    C411996   1.223   0.976  11.846  0.2173 -0.0573 -0.8541
  815MPD2    C511997   1.327   0.991  11.752  0.4617 -0.9100 -0.7268
  815MPD2     H11998   1.157   0.645  11.837  0.4302 -0.6755  0.6276
  815MPD2    H111999   1.203   1.063  11.907  0.8815 -1.1531  0.9412
  815MPD2    H212000   1.450   0.875  11.622  0.1539  0.0763  0.2277
  815MPD2    H312001   1.368   1.090  11.738 -0.4913 -0.4281 -0.1114
  815MPD2     N12002   1.055   0.831  11.975 -1.2005 -0.2015 -0.7864
  815MPD2    H512003   1.009   0.740  11.977 -0.6373 -0.4378  1.9230
  815MPD2    N112004   1.362   0.649  11.638  0.1862 -0.1900 -0.0967
  815MPD2    H712005   1.437   0.683  11.580 -0.7898  0.1803 -1.1449
  816MPD2     C12006   2.046   0.315   0.174 -0.0633 -0.0143  0.3263
  816MPD2    C112007   1.943   0.245   0.125  0.1279  0.1436 -0.2183
  816MPD2    C212008   1.942   0.229  17.672  0.5566 -0.0817  0.0654
  816MPD2    C312009   2.058   0.244  17.589 -1.1317 -0.0124  0.8375
  816MPD2    C412010   2.162   0.313  17.649  0.1847 -0.6854  0.3880
  816MPD2    C512011   2.155   0.349   0.095  0.9404  0.4900  0.8220
  816MPD2     H12012   1.843   0.215  17.630  1.2242  2.5673 -2.4415
  816MPD2    H112013   2.250   0.342  17.592 -0.2587  0.1587  0.1359
  816MPD2    H212014   2.046   0.360   0.272  0.3100 -0.0848  0.3573
  816MPD2    H312015   2.238   0.406   0.134  1.9661  0.3291 -1.1417
  816MPD2     N12016   2.050   0.202  17.455  0.3638  0.0572 -0.7426
  816MPD2    H512017   1.958   0.172  17.422  0.8624 -0.5065 -1.6241
  816MPD2    N112018   1.837   0.218   0.222 -0.1132  0.4506 -0.2855
  816MPD2    H712019   1.831   0.284   0.299 -2.6374 -1.1202  0.8717
  817MPD2     C12020   0.769   1.754   9.886 -0.3454 -0.3301 -0.7623
  817MPD2    C112021   0.763   1.676   9.775 -0.6057  0.2842  0.3163
  817MPD2    C212022   0.704   1.725   9.661 -0.6075 -0.5754 -0.0097
  817MPD2    C312023   0.641   1.845   9.655  0.5486  0.4991  0.2425
  817MPD2    C412024   0.636   1.921   9.770  0.2327 -0.0146  0.6627
  817MPD2    C512025   0.704   1.877   9.878  0.1736  0.5125  0.5525
  817MPD2     H12026   0.706   1.667   9.570 -0.5821  0.0259 -0.3905
  817MPD2    H112027   0.584   2.015   9.783 -0.4146 -0.0809 -1.4986
  817MPD2    H212028   0.817   1.724   9.979 -1.9274  0.0096  0.1676
  817MPD2    H312029   0.713   1.944   9.963  1.3262  1.9350 -0.6831
  817MPD2     N12030   0.586   1.892   9.525 -0.6671 -0.0942  0.1068
  817MPD2    H512031   0.595   1.833   9.443 -1.5974 -0.0150 -0.0555
  817MPD2    N112032   0.838   1.558   9.757  0.6858  0.0787 -0.1325
  817MPD2    H712033   0.831   1.513   9.666 -1.6942  1.6588 -0.7249
  818MPD2     C12034   4.570   1.666   9.902 -0.4076  0.1395  1.1422
  818MPD2    C112035   4.587   1.578  10.005  0.8914  0.1053  0.6598
  818MPD2    C212036   4.689   1.487   9.993 -0.4246 -0.5417 -0.1319
  818MPD2    C312037   0.040   1.468   9.878 -0.0673  0.1430  0.1402
  818MPD2    C412038   0.017   1.558   9.778  0.5345 -0.2735 -0.1694
  818MPD2    C512039   4.648   1.660   9.791 -0.5049  0.2308  0.6960
  818MPD2     H12040   4.695   1.426  10.082  2.5197  2.4928  1.7585
  818MPD2    H112041   0.077   1.561   9.688 -0.1347  0.6571 -0.5841
  818MPD2    H212042   4.502   1.750   9.903 -0.3329  0.2674 -2.4087
  818MPD2    H312043   4.632   1.729   9.709 -1.0832 -0.6736  0.0510
  818MPD2     N12044   0.140   1.368   9.867  0.5385 -0.2086  0.0060
  818MPD2    H512045   0.156   1.330   9.774  0.4126  1.6260 -0.7672
  818MPD2    N112046   4.504   1.581  10.122 -0.0917  0.0839  0.1377
  818MPD2    H712047   4.525   1.508  10.190 -0.1303 -0.4840 -0.4544
  819MPD2     C12048   2.722   3.044  15.699 -0.2701  0.2905  0.1564
  819MPD2    C112049   2.804   2.931  15.705 -0.6569  0.2052 -0.0925
  819MPD2    C212050   2.948   2.950  15.710  0.9843 -0.2435  0.8344
  819MPD2    C312051   2.993   3.076  15.684  0.1828 -0.0139 -0.0922
  819MPD2    C412052   2.909   3.181  15.657 -0.1787 -0.2691  0.4089
  819MPD2    C512053   2.779   3.161  15.663 -0.2689  0.3282 -0.1279
  819MPD2     H12054   3.016   2.865  15.715  0.9415 -0.3088  0.2955
  819MPD2    H112055   2.943   3.283  15.639  0.9630 -0.5281  1.0861
  819MPD2    H212056   2.614   3.044  15.702 -0.2663 -0.0670  0.3801
  819MPD2    H312057   2.711   3.243  15.643  2.0660  1.9325 -1.4138
  819MPD2     N12058   3.134   3.097  15.677 -0.1323  1.0963 -0.1017
  819MPD2    H512059   3.184   3.009  15.685 -1.2774  0.4572  0.0295
  819MPD2    N112060   2.737   2.806  15.711  0.5558  0.2108 -0.1187
  819MPD2    H712061   2.642   2.795  15.680  0.4406 -0.0310  0.3196
  820MPD2     C12062   1.873   2.468  15.474  0.5619 -0.3014 -1.0970
  820MPD2    C112063   1.928   2.557  15.573 -0.2742 -0.2110  0.6076
  820MPD2    C212064   2.060   2.548  15.608 -0.7389  0.4639 -0.3215
  820MPD2    C312065   2.146   2.451  15.551  0.6074 -0.7202  0.4581
  820MPD2    C412066   2.096   2.381  15.443  0.1279 -0.2186  0.6265
  820MPD2    C512067   1.960   2.382  15.409  0.7110  0.0077  0.6211
  820MPD2     H12068   2.100   2.609  15.688  0.8739 -0.2970 -0.5371
  820MPD2    H112069   2.159   2.306  15.396 -1.2721 -0.3483 -1.0291
  820MPD2    H212070   1.774   2.466  15.429  0.2112  0.6919 -0.3699
  820MPD2    H312071   1.923   2.324  15.325  0.1457 -0.0799  0.9296
  820MPD2     N12072   2.287   2.437  15.581 -0.6934  0.3508  0.1394
  820MPD2    H512073   2.347   2.375  15.527  0.1704  1.6867 -0.4351
  820MPD2    N112074   1.841   2.649  15.623 -0.0505  0.3784 -0.8286
  820MPD2    H712075   1.744   2.645  15.593 -0.8633 -0.0285  1.7653
  821MPD2     C12076   2.456   0.040  12.935  0.1812  0.9553  0.0894
  821MPD2    C112077   2.551   4.705  13.028  0.0248  0.2060 -0.4484
  821MPD2    C212078   2.684   0.011  13.014 -0.1582 -0.1665 -0.8552
  821MPD2    C312079   2.729   0.086  12.909 -0.2764 -0.0537  0.0177
  821MPD2    C412080   2.633   0.143  12.823  0.2414  0.1654  0.1126
  821MPD2    C512081   2.501   0.116  12.830  0.3156  0.4397  0.0186
  821MPD2     H12082   2.756   4.696  13.086 -2.3441 -2.3114  0.2625
  821MPD2    H112083   2.675   0.195  12.738  0.2355  0.6310  0.3939
  821MPD2    H212084   2.355   0.001  12.936  0.7421 -0.5815 -1.8072
  821MPD2    H312085   2.427   0.157  12.763  0.2021  0.4910  0.1752
  821MPD2     N12086   2.866   0.115  12.884  0.1875  0.3841  0.0197
  821MPD2    H512087   2.876   0.172  12.801 -0.2985 -0.2979 -0.4951
  821MPD2    N112088   2.507   4.617  13.128  0.2187 -0.2346  0.1074
  821MPD2    H712089   2.587   4.571  13.169 -0.0570 -1.0841 -0.3106
  822MPD2     C12090   3.347   4.233  15.887  0.0838 -0.3527  0.5708
  822MPD2    C112091   3.456   4.320  15.895  0.9003  0.1716  0.3732
  822MPD2    C212092   3.444   4.451  15.938 -0.5766  1.0950  0.6283
  822MPD2    C312093   3.315   4.494  15.979 -0.0062 -0.1757 -0.5950
  822MPD2    C412094   3.204   4.414  15.951  0.0116 -0.4027 -0.4009
  822MPD2    C512095   3.226   4.285  15.915  0.4707  0.1738  0.3695
  822MPD2     H12096   3.531   4.514  15.949  0.3803  0.0147 -0.6581
  822MPD2    H112097   3.104   4.451  15.970 -0.0598 -0.0261 -1.4791
  822MPD2    H212098   3.346   4.134  15.843  0.5618 -0.5686  1.0387
  822MPD2    H312099   3.141   4.218  15.910  0.7560 -0.5335  5.2086
  822MPD2     N12100   3.274   4.622  16.025 -0.3800 -0.2281  0.3972
  822MPD2    H512101   3.181   4.649  16.054 -0.5791 -1.5991  1.0108
  822MPD2    N112102   3.582   4.289  15.848 -0.4708  1.1956  0.1906
  822MPD2    H712103   3.655   4.358  15.862  2.7278 -2.0753 -0.1933
  823MPD2     C12104   3.214   0.111  16.829  0.9402 -0.7107 -0.2274
  823MPD2    C112105   3.258   0.046  16.719  0.7156 -0.4738 -0.1701
  823MPD2    C212106   3.308   4.637  16.735  0.0163  0.3670  0.2654
  823MPD2    C312107   3.342   4.593  16.859  0.0121  0.0904  0.1783
  823MPD2    C412108   3.314   4.668  16.976  0.8059 -0.1539  0.2229
  823MPD2    C512109   3.249   0.070  16.955  0.7600 -0.5582 -0.2183
  823MPD2     H12110   3.330   4.567  16.655 -2.5782 -1.4845  1.1548
  823MPD2    H112111   3.333   4.627  17.075 -2.3392 -1.2393  0.3646
  823MPD2    H212112   3.162   0.205  16.814  1.5511 -0.3243  0.0560
  823MPD2    H312113   3.210   0.132  17.034  2.0202 -1.2269  0.9180
  823MPD2     N12114   3.414   4.475  16.889 -0.5900  0.0198  0.5047
  823MPD2    H512115   3.427   4.438  16.983 -0.9993  0.1799  0.6220
  823MPD2    N112116   3.243   0.100  16.591  0.2745  0.4003 -0.3086
  823MPD2    H712117   3.246   0.202  16.594 -1.7566  0.4306  0.4487
  824MPD2     C12118   4.100   3.639  15.644 -0.5050  0.6402  0.3533
  824MPD2    C112119   4.153   3.746  15.578 -0.2419  0.8151 -0.4175
  824MPD2    C212120   4.277   3.723  15.522 -0.0095 -1.0369 -0.3125
  824MPD2    C312121   4.333   3.602  15.510  0.0000 -0.2833  0.0737
  824MPD2    C412122   4.263   3.495  15.568 -0.0184 -0.1166  0.0184
  824MPD2    C512123   4.148   3.514  15.632 -0.5709  0.2022  0.2671
  824MPD2     H12124   4.316   3.811  15.472 -1.7303 -0.2808 -0.3513
  824MPD2    H112125   4.303   3.394  15.560 -0.9441 -0.0818 -5.3804
  824MPD2    H212126   4.005   3.648  15.695 -1.3412  1.5569 -1.3765
  824MPD2    H312127   4.099   3.430  15.681  0.4856 -0.6604 -0.1358
  824MPD2     N12128   4.459   3.590  15.444  0.2372  0.1044  0.1004
  824MPD2    H512129   4.493   3.669  15.390  1.5313 -0.0115  0.7639
  824MPD2    N112130   4.092   3.875  15.591  0.0234 -0.1568  0.1611
  824MPD2    H712131   4.151   3.954  15.567 -1.4146  0.9827  0.3209
  825MPD2     C12132   0.244   3.689  14.749  0.9706 -0.3228 -0.0833
  825MPD2    C112133   0.129   3.682  14.826  0.0430  0.1747 -0.4960
  825MPD2    C212134   0.012   3.734  14.771  0.1515  0.2451  0.5968
  825MPD2    C312135   0.019   3.817  14.662 -0.2363 -0.2997 -0.0865
  825MPD2    C412136   0.134   3.826  14.593 -0.0240  0.0085  0.1271
  825MPD2    C512137   0.245   3.763  14.636 -0.7495  0.2761 -0.5978
  825MPD2     H12138   4.642   3.702  14.821  0.8176 -3.3026 -0.4962
  825MPD2    H112139   0.131   3.883  14.501  1.5586  0.5555  0.4124
  825MPD2    H212140   0.337   3.649  14.788  0.4954 -0.5977  0.7541
  825MPD2    H312141   0.334   3.776  14.575  1.8848 -0.8659  3.0175
  825MPD2     N12142   4.622   3.892  14.621  0.2594 -0.1302  0.0542
  825MPD2    H512143   4.637   3.948  14.538 -0.1473 -1.7321 -1.1148
  825MPD2    N112144   0.131   3.611  14.949  0.2089 -0.0260 -0.3578
  825MPD2    H712145   0.220   3.571  14.978  0.0407  0.0204  0.2315
  826MPD2     C12146   3.864   4.054  13.736 -0.1734 -0.5687 -1.0500
  826MPD2    C112147   3.928   4.120  13.626  1.3545 -0.3034 -0.6946
  826MPD2    C212148   3.862   4.214  13.550  0.0343  0.3440  0.1364
  826MPD2    C312149   3.732   4.249  13.578 -0.0868  0.6695  0.0457
  826MPD2    C412150   3.674   4.187  13.689 -0.6578  0.3112 -0.9303
  826MPD2    C512151   3.734   4.086  13.759 -0.5060  0.4245  0.3297
  826MPD2     H12152   3.910   4.238  13.456 -1.5515  2.3563 -0.1637
  826MPD2    H112153   3.573   4.222  13.706 -0.3853 -0.4646  2.4208
  826MPD2    H212154   3.904   3.966  13.783 -1.6470  0.2772  1.7901
  826MPD2    H312155   3.673   4.034  13.833 -0.4562  1.5248  1.1355
  826MPD2     N12156   3.654   4.346  13.515 -0.7035  0.4200 -0.0548
  826MPD2    H512157   3.572   4.376  13.565 -0.8361 -2.8937  1.6934
  826MPD2    N112158   4.055   4.088  13.572 -0.7112 -0.3822  0.0684
  826MPD2    H712159   4.089   4.140  13.492 -1.9531  1.2888  0.6186
  827MPD2     C12160   0.294   0.322   9.797 -0.2265  0.2655  0.1869
  827MPD2    C112161   0.281   0.216   9.878 -0.2482  0.4654  0.2153
  827MPD2    C212162   0.199   0.113   9.845  0.3981  0.1803 -0.4666
  827MPD2    C312163   0.144   0.104   9.719  0.2124 -0.7206  0.1566
  827MPD2    C412164   0.157   0.211   9.629 -0.2233  0.5304 -0.4666
  827MPD2    C512165   0.229   0.323   9.669 -0.6977 -0.0531 -0.2788
  827MPD2     H12166   0.197   0.031   9.915 -1.6673  1.3982  0.8783
  827MPD2    H112167   0.115   0.210   9.529  0.0351 -1.1478 -0.5631
  827MPD2    H212168   0.352   0.404   9.840  0.0708  1.4201 -2.4304
  827MPD2    H312169   0.222   0.411   9.606  0.3656  0.3067  0.1157
  827MPD2     N12170   0.078   4.707   9.683  0.9205  0.0894 -0.1361
  827MPD2    H512171   0.070   4.638   9.756  0.7630  0.8095  0.5184
  827MPD2    N112172   0.346   0.220  10.001  0.3416 -0.0930 -0.2968
  827MPD2    H712173   0.417   0.291  10.016  0.4306  0.0824 -1.5597
  828MPD2     C12174   2.784   4.445  12.831  0.5090  0.0714  0.5334
  828MPD2    C112175   2.823   4.514  12.716  0.1771  0.0691  0.4531
  828MPD2    C212176   2.959   4.534  12.702  0.1220  0.0261  0.0253
  828MPD2    C312177   3.048   4.500  12.799  0.1427 -1.4236 -0.2324
  828MPD2    C412178   3.002   4.434  12.909 -0.4706 -0.2593 -0.3552
  828MPD2    C512179   2.870   4.403  12.927 -0.5781  0.5407  0.3888
  828MPD2     H12180   2.989   4.579  12.608  1.6671  0.5629  0.7861
  828MPD2    H112181   3.071   4.393  12.983  0.3446 -1.0527 -1.5583
  828MPD2    H212182   2.678   4.429  12.849  0.0068  3.0613  0.2170
  828MPD2    H312183   2.833   4.355  13.017 -0.7593 -1.0256 -0.5169
  828MPD2     N12184   3.186   4.511  12.783 -0.3120  0.1637 -0.2474
  828MPD2    H512185   3.242   4.472  12.858  2.0696  0.5661 -1.8333
  828MPD2    N112186   2.732   4.553  12.619  0.5081 -0.7189 -0.2714
  828MPD2    H712187   2.767   4.579  12.528 -2.4509  2.0558 -0.6238
  829MPD2     C12188   2.937   4.648  11.799 -0.6976  0.4982  0.2488
  829MPD2    C112189   2.802   4.623  11.794  0.3819 -0.2002  0.0629
  829MPD2    C212190   2.731   4.631  11.915  0.0364 -0.2636  0.1305
  829MPD2    C312191   2.803   4.652  12.031  0.1371 -0.0336  0.5027
  829MPD2    C412192   2.941   4.662  12.035  0.2360  0.0359  0.4626
  829MPD2    C512193   3.003   4.656  11.918  0.2586  0.1847 -0.1603
  829MPD2     H12194   2.625   4.611  11.904  0.0050 -1.1878  2.2287
  829MPD2    H112195   2.994   4.682  12.127  0.2906  0.1315  0.4093
  829MPD2    H212196   3.006   4.652  11.715 -2.3257  0.8106 -1.0606
  829MPD2    H312197   3.111   4.664  11.924  0.2113  1.5764 -0.9787
  829MPD2     N12198   2.726   4.667  12.155  0.2773  0.0080  0.4955
  829MPD2    H512199   2.774   4.645  12.242 -0.0106  0.3413  0.7382
  829MPD2    N112200   2.749   4.609  11.664  0.3152  0.6067  0.5480
  829MPD2    H712201   2.811   4.601  11.584 -1.4978  0.3960 -0.8366
  830MPD2     C12202   3.925   3.328  15.324 -0.0138  0.6649  0.9255
  830MPD2    C112203   3.799   3.291  15.289 -0.5084 -0.2209  0.3404
  830MPD2    C212204   3.770   3.270  15.154 -0.6126  0.1761 -0.5685
  830MPD2    C312205   3.870   3.308  15.061  0.6528  0.4786  0.4299
  830MPD2    C412206   3.991   3.358  15.094  0.1326  0.2887 -0.8196
  830MPD2    C512207   4.017   3.366  15.232  0.4786  0.0334  0.0541
  830MPD2     H12208   3.686   3.207  15.128  0.1416 -1.4299  0.8789
  830MPD2    H112209   4.063   3.379  15.016  0.4057  2.2268 -0.0622
  830MPD2    H212210   3.955   3.329  15.428  3.1606  0.1596  0.0201
  830MPD2    H312211   4.117   3.398  15.262  0.0703  0.3359  1.0726
  830MPD2     N12212   3.850   3.288  14.920 -0.2086  0.9586  0.2247
  830MPD2    H512213   3.926   3.324  14.862  1.0902 -0.4899  1.0377
  830MPD2    N112214   3.711   3.259  15.391 -0.1085 -0.0831  0.1714
  830MPD2    H712215   3.750   3.251  15.485 -0.4280  2.5343  0.5163
  831MPD2     C12216   3.737   0.037  16.299 -0.1924  0.0777  0.5117
  831MPD2    C112217   3.721   4.671  16.194 -0.2590 -0.2209  0.2423
  831MPD2    C212218   3.646   4.558  16.211 -0.2662 -0.2651 -0.2936
  831MPD2    C312219   3.579   4.525  16.326 -0.3581  0.1561 -0.3063
  831MPD2    C412220   3.604   4.609  16.435  0.5695 -0.9176  0.6638
  831MPD2    C512221   3.676   0.004  16.416 -1.0982  0.3390 -0.0343
  831MPD2     H12222   3.620   4.500  16.122  0.3136 -0.1041 -0.5661
  831MPD2    H112223   3.559   4.587  16.531  0.4038  0.4042  0.8856
  831MPD2    H212224   3.792   0.130  16.294 -0.7768  0.3365 -1.0291
  831MPD2    H312225   3.695   0.077  16.495  1.4003 -1.9088  1.4763
  831MPD2     N12226   3.500   4.413  16.347 -0.3278 -0.7890 -0.2591
  831MPD2    H512227   3.436   4.423  16.425 -0.0515 -0.3260 -0.0893
  831MPD2    N112228   3.764   4.711  16.066  0.1012 -0.0683 -0.4239
  831MPD2    H712229   3.802   0.082  16.049  1.3929 -0.2789  1.3688
  832MPD2     C12230   2.433   0.759  17.151 -0.7553  0.4914  0.3200
  832MPD2    C112231   2.408   0.863  17.231  0.6127  0.1600 -0.0025
  832MPD2    C212232   2.276   0.896  17.266  0.0793  0.4127 -0.2284
  832MPD2    C312233   2.170   0.825  17.207 -0.0723  0.4968 -0.1469
  832MPD2    C412234   2.202   0.719  17.124 -0.3915  0.8412 -0.1759
  832MPD2    C512235   2.330   0.685  17.094  0.0684  0.8493  0.3035
  832MPD2     H12236   2.250   0.958  17.351 -2.5111 -0.0591 -0.6658
  832MPD2    H112237   2.120   0.661  17.080  0.2924  0.5284 -1.0445
  832MPD2    H212238   2.534   0.732  17.123 -0.7910  0.0141  0.6528
  832MPD2    H312239   2.344   0.604  17.023 -0.4213  1.6072 -0.6440
  832MPD2     N12240   2.033   0.858  17.230 -0.3535  0.3935 -0.4162
  832MPD2    H512241   1.959   0.799  17.194 -0.2082  0.0274 -0.1156
  832MPD2    N112242   2.516   0.953  17.264  0.2069 -0.2668 -0.7041
  832MPD2    H712243   2.607   0.913  17.244 -0.0935 -0.5989 -1.4214
  833MPD2     C12244   4.084   2.133  12.851 -0.0094 -0.6535  0.7588
  833MPD2    C112245   4.084   2.243  12.774  0.6703  0.1445 -0.1302
  833MPD2    C212246   4.059   2.225  12.638  0.3797 -0.2853 -0.2502
  833MPD2    C312247   4.041   2.101  12.576 -0.6597  1.4783 -0.3084
  833MPD2    C412248   4.035   1.996  12.654 -0.5369  0.6620  0.0939
  833MPD2    C512249   4.058   2.014  12.791 -0.6900 -0.6822  0.6285
  833MPD2     H12250   4.070   2.311  12.573 -1.3803  0.6984  0.7612
  833MPD2    H112251   4.007   1.901  12.609  4.0756 -0.1033 -1.2374
  833MPD2    H212252   4.110   2.143  12.955  1.9596  1.5213  0.0528
  833MPD2    H312253   4.053   1.936  12.866  1.8238 -1.4688 -0.0250
  833MPD2     N12254   4.058   2.080  12.438 -0.6153 -0.3543 -0.3799
  833MPD2    H512255   4.043   1.986  12.403 -0.3117 -0.5769  0.0775
  833MPD2    N112256   4.120   2.368  12.828  0.3501  0.3994 -0.3843
  833MPD2    H712257   4.134   2.382  12.928 -1.2607  1.2222 -0.2608
  834MPD2     C12258   3.590   1.738  11.841  1.0871 -0.3139 -0.3406
  834MPD2    C112259   3.707   1.754  11.766 -0.1086 -0.3975 -0.1457
  834MPD2    C212260   3.806   1.829  11.821 -0.3082  0.3361 -0.2596
  834MPD2    C312261   3.783   1.892  11.942 -0.6432 -0.5721  0.6320
  834MPD2    C412262   3.679   1.864  12.018  0.3352  0.2008 -0.5920
  834MPD2    C512263   3.583   1.782  11.969 -0.5937  0.2752 -0.2966
  834MPD2     H12264   3.907   1.833  11.783 -0.2707  1.5162 -0.0275
  834MPD2    H112265   3.659   1.914  12.112  0.4137 -1.3110  0.2331
  834MPD2    H212266   3.505   1.680  11.805  1.2584 -1.1138  0.5496
  834MPD2    H312267   3.490   1.761  12.021  0.4164  0.2311  1.5047
  834MPD2     N12268   3.876   1.985  12.001 -0.0876  0.2671  0.0770
  834MPD2    H512269   3.860   2.006  12.099  0.0738  1.0059 -0.0537
  834MPD2    N112270   3.726   1.684  11.647 -0.5187 -0.8381 -0.0567
  834MPD2    H712271   3.652   1.628  11.607 -1.0224 -0.2037 -0.0085
  835MPD2     C12272   4.185   0.798  11.450 -0.0990 -0.2320  0.0725
  835MPD2    C112273   4.123   0.674  11.456 -0.1609  0.3528 -1.0040
  835MPD2    C212274   4.190   0.557  11.431  0.1095 -0.1313 -0.1830
  835MPD2    C312275   4.323   0.564  11.406  0.6324  0.4848  0.1305
  835MPD2    C412276   4.388   0.681  11.403  0.1327  0.1544 -0.6762
  835MPD2    C512277   4.315   0.798  11.426  0.1757  0.6127  0.4386
  835MPD2     H12278   4.140   0.465  11.455 -1.0700  1.5290  3.6659
  835MPD2    H112279   4.496   0.681  11.389  0.1029  0.7612 -0.9136
  835MPD2    H212280   4.133   0.888  11.480 -0.9723 -1.5183  2.3901
  835MPD2    H312281   4.361   0.896  11.427  0.8707  0.2892  0.1974
  835MPD2     N12282   4.398   0.441  11.390  0.1661  0.3292 -0.6396
  835MPD2    H512283   4.499   0.444  11.405 -0.0788  0.1898  1.0469
  835MPD2    N112284   3.986   0.675  11.486 -0.1406 -1.0483  0.0753
  835MPD2    H712285   3.947   0.768  11.499  0.7348 -0.6445 -0.1664
  836MPD2     C12286   4.020   4.516  11.418  0.1925  0.4144 -0.2070
  836MPD2    C112287   4.063   4.636  11.475 -0.0941 -0.2668 -0.1169
  836MPD2    C212288   3.976   4.718  11.541  0.6282  0.4039 -0.4283
  836MPD2    C312289   3.841   4.676  11.554  0.1895 -0.2397  0.0499
  836MPD2    C412290   3.801   4.559  11.494 -0.0853  0.4461  0.2796
  836MPD2    C512291   3.890   4.481  11.431 -0.8828  0.3875 -0.2079
  836MPD2     H12292   4.003   0.101  11.549  0.4802  0.4425 -0.4243
  836MPD2    H112293   3.696   4.534  11.502  0.4401 -1.3700  1.5055
  836MPD2    H212294   4.083   4.445  11.365  0.6053  1.2454 -0.8311
  836MPD2    H312295   3.847   4.394  11.383  1.6908  0.2317 -2.1975
  836MPD2     N12296   3.733   0.026  11.616  0.3938 -0.6559  0.3608
  836MPD2    H512297   3.636   0.002  11.596  0.1375  1.2145 -0.6291
  836MPD2    N112298   4.192   4.689  11.447 -0.5476  0.2674  0.5291
  836MPD2    H712299   4.213   0.061  11.481  1.4565  0.0684 -0.1973
  837MPD2     C12300   2.187   0.128  10.552 -0.0773 -0.8051 -0.0671
  837MPD2    C112301   2.180   0.181  10.424  0.7839 -0.3540 -0.1102
  837MPD2    C212302   2.194   0.321  10.410 -0.2694 -0.1956  0.5628
  837MPD2    C312303   2.200   0.404  10.524 -0.1118 -0.6995 -0.1819
  837MPD2    C412304   2.231   0.342  10.645 -0.1725  0.3941  0.0486
  837MPD2    C512305   2.227   0.203  10.656 -0.1010  0.5523 -0.6859
  837MPD2     H12306   2.177   0.362  10.311  1.2838  3.0029  1.6338
  837MPD2    H112307   2.233   0.398  10.737 -0.4291 -0.9916  0.9028
  837MPD2    H212308   2.165   0.024  10.575  0.7789 -0.6669  1.3514
  837MPD2    H312309   2.234   0.158  10.755 -0.8054 -0.2824 -1.0171
  837MPD2     N12310   2.190   0.540  10.513 -0.7590  0.3601 -0.0800
  837MPD2    H512311   2.168   0.580  10.422  2.7220 -0.4092 -1.2790
  837MPD2    N112312   2.143   0.099  10.312  0.0843  0.5956  0.1974
  837MPD2    H712313   2.126   0.144  10.222  0.0490  0.5577  0.1856
  838MPD2     C12314   0.079   2.695  11.220  0.2377  0.5412  0.3228
  838MPD2    C112315   0.132   2.795  11.302 -0.0797 -0.5943  0.7850
  838MPD2    C212316   0.062   2.823  11.411 -0.6364  0.1359  0.4645
  838MPD2    C312317   4.678   2.747  11.461  0.7706 -0.3520  0.6996
  838MPD2    C412318   4.626   2.653  11.384 -0.4945  0.1316  0.2906
  838MPD2    C512319   4.690   2.625  11.263  0.6537 -0.1247 -0.6703
  838MPD2     H12320   0.103   2.900  11.476 -2.4662  1.0337  0.5814
  838MPD2    H112321   4.534   2.599  11.403 -1.2465  2.1072  2.1234
  838MPD2    H212322   0.116   2.681  11.119 -0.2827  2.5675 -0.1447
  838MPD2    H312323   4.663   2.534  11.209  0.1318 -1.2871  1.5454
  838MPD2     N12324   4.632   2.781  11.588 -0.6067  0.2933  0.2187
  838MPD2    H512325   4.692   2.851  11.632  0.0927  1.0049 -1.8462
  838MPD2    N112326   0.247   2.879  11.278  0.2268 -0.2349 -0.5910
  838MPD2    H712327   0.258   2.963  11.335  0.9792 -0.0619 -0.9943
  839MPD2     C12328   0.208   2.474  11.808  0.8577 -0.1858  0.2949
  839MPD2    C112329   0.171   2.497  11.682  0.2018  0.4914  0.5276
  839MPD2    C212330   0.246   2.571  11.596  0.7571  0.7098  0.5572
  839MPD2    C312331   0.370   2.631  11.636  0.0538 -0.2820 -0.0508
  839MPD2    C412332   0.412   2.611  11.763  0.4133 -0.1703  0.2193
  839MPD2    C512333   0.334   2.527  11.842  0.3302  0.2858 -0.6724
  839MPD2     H12334   0.222   2.589  11.492 -0.0307 -1.9209  0.2745
  839MPD2    H112335   0.498   2.663  11.805  0.4351 -0.0263 -0.0020
  839MPD2    H212336   0.156   2.414  11.883  0.5188 -1.0801 -0.6607
  839MPD2    H312337   0.360   2.514  11.946 -0.8761 -1.7779 -0.6084
  839MPD2     N12338   0.434   2.720  11.546 -0.1405 -0.3438 -0.2125
  839MPD2    H512339   0.398   2.746  11.455  0.1765  0.9947  0.0542
  839MPD2    N112340   0.058   2.443  11.618 -0.4712 -0.2037  0.0261
  839MPD2    H712341   0.044   2.451  11.518  0.0203  0.1024 -0.0195
  840MPD2     C12342   0.713   0.667  10.150 -0.3662 -0.0192 -0.0228
  840MPD2    C112343   0.722   0.589  10.263  0.0830  0.4425 -0.2511
  840MPD2    C212344   0.812   0.634  10.365 -0.0875 -0.1679  0.4241
  840MPD2    C312345   0.883   0.760  10.346 -0.0842  0.2453  0.3845
  840MPD2    C412346   0.884   0.822  10.226  0.0891  0.1280 -0.1469
  840MPD2    C512347   0.794   0.777  10.132  0.5865  0.1070 -0.7419
  840MPD2     H12348   0.824   0.580  10.458  1.4846 -2.2380 -0.9729
  840MPD2    H112349   0.937   0.916  10.215 -0.8330  0.6304 -0.3130
  840MPD2    H212350   0.649   0.631  10.070 -1.2394 -0.4531  0.8751
  840MPD2    H312351   0.791   0.819  10.032  0.2960 -1.3378 -1.3395
  840MPD2     N12352   0.971   0.814  10.447  0.2478  0.3584 -0.2898
  840MPD2    H512353   1.025   0.895  10.418 -1.6590  1.0357 -1.9285
  840MPD2    N112354   0.634   0.481  10.270 -0.1165  0.2542  0.2569
  840MPD2    H712355   0.555   0.482  10.207  0.8234  1.1266 -0.9263
  841MPD2     C12356   0.276   0.961  14.890 -0.4128 -0.0705 -0.0618
  841MPD2    C112357   0.342   0.839  14.906  0.3307  0.0350 -0.1194
  841MPD2    C212358   0.476   0.840  14.871 -0.0233  0.3458 -0.1248
  841MPD2    C312359   0.543   0.931  14.806 -0.7809 -0.5283  0.3756
  841MPD2    C412360   0.477   1.052  14.788  0.4904 -0.3470  0.8935
  841MPD2    C512361   0.349   1.070  14.842 -0.1551  0.2901  0.0934
  841MPD2     H12362   0.526   0.744  14.874 -0.7440 -0.1043 -3.1363
  841MPD2    H112363   0.519   1.134  14.731 -3.4919  0.6334 -0.6350
  841MPD2    H212364   0.170   0.963  14.914  0.0370 -1.5614  2.0933
  841MPD2    H312365   0.295   1.163  14.827 -0.9116  0.2307  2.3864
  841MPD2     N12366   0.674   0.899  14.762 -0.3379 -0.4835 -0.0447
  841MPD2    H512367   0.712   0.805  14.776 -0.3616 -0.0920  2.8136
  841MPD2    N112368   0.285   0.719  14.940 -0.2517 -0.2442 -0.3566
  841MPD2    H712369   0.337   0.634  14.923 -0.7444 -0.6200  0.0258
  842MPD2     C12370   0.593   0.655  16.789  0.2369  0.0966 -0.1365
  842MPD2    C112371   0.648   0.764  16.722 -0.2064  0.0411  0.3437
  842MPD2    C212372   0.764   0.820  16.774 -0.5047 -0.0765 -0.0121
  842MPD2    C312373   0.838   0.749  16.874  0.2900  0.5099 -0.3293
  842MPD2    C412374   0.783   0.637  16.931 -0.7425  0.9046  0.1337
  842MPD2    C512375   0.665   0.593  16.884  0.8594 -0.1134 -0.5771
  842MPD2     H12376   0.826   0.885  16.713  3.0595 -1.5613  1.9748
  842MPD2    H112377   0.817   0.592  17.023  1.4389 -3.5163 -2.8630
  842MPD2    H212378   0.493   0.620  16.766  0.1260  1.0658 -1.1545
  842MPD2    H312379   0.621   0.510  16.938 -0.4646  0.7693 -0.2817
  842MPD2     N12380   0.964   0.792  16.929 -0.8485 -0.5216 -0.6413
  842MPD2    H512381   1.000   0.746  17.011 -1.0484  0.5596  0.0511
  842MPD2    N112382   0.576   0.819  16.617 -0.3381 -0.0049  0.1247
  842MPD2    H712383   0.483   0.782  16.601  0.4677 -1.8108 -0.3709
  843MPD2     C12384   3.356   1.681  17.644  0.1828  0.1318  0.3434
  843MPD2    C112385   3.449   1.610   0.036 -0.0365 -1.2777 -0.3353
  843MPD2    C212386   3.581   1.615  17.682  0.3086  0.9277 -0.6565
  843MPD2    C312387   3.615   1.685  17.567  0.1229 -0.1677  0.2287
  843MPD2    C412388   3.517   1.745  17.493 -0.1050 -0.1060  0.4555
  843MPD2    C512389   3.389   1.755  17.533 -0.1100  0.2259 -0.0412
  843MPD2     H12390   3.661   1.576   0.059  0.4369 -0.1764 -1.4904
  843MPD2    H112391   3.542   1.788  17.397 -0.5457  1.3600  1.0023
  843MPD2    H212392   3.250   1.680  17.667 -0.2428  0.0030 -1.6348
  843MPD2    H312393   3.319   1.811  17.473 -0.6287  0.2150  0.5490
  843MPD2     N12394   3.744   1.699  17.519  0.4923 -0.4280 -0.5583
  843MPD2    H512395   3.757   1.749  17.431  1.5116 -1.6935 -1.1231
  843MPD2    N112396   3.405   1.553   0.162 -0.1262 -0.0364  0.9585
  843MPD2    H712397   3.314   1.586   0.191 -0.7843 -1.5910  0.6595
  844MPD2     C12398   2.120   1.498  17.160  0.0910  0.1100 -0.6014
  844MPD2    C112399   2.186   1.384  17.116 -0.5440  0.8640 -0.6300
  844MPD2    C212400   2.321   1.385  17.121  0.2260  0.8072  0.2045
  844MPD2    C312401   2.388   1.498  17.143 -0.2472  0.2656  0.4327
  844MPD2    C412402   2.320   1.619  17.164 -0.2043  0.4386 -0.0843
  844MPD2    C512403   2.186   1.611  17.178  0.5240  0.1477 -0.4876
  844MPD2     H12404   2.375   1.293  17.100 -0.5668 -0.1141  2.1966
  844MPD2    H112405   2.377   1.711  17.176 -1.4092  1.3405 -1.3235
  844MPD2    H212406   2.012   1.503  17.149 -0.0471  1.4750  1.4747
  844MPD2    H312407   2.136   1.704  17.202  1.5198  0.8101 -0.9606
  844MPD2     N12408   2.529   1.496  17.131 -0.2279  0.2993 -0.0607
  844MPD2    H512409   2.571   1.418  17.082 -1.2981 -1.4047  1.7202
  844MPD2    N112410   2.120   1.270  17.053  0.3760 -0.3125  0.8738
  844MPD2    H712411   2.178   1.198  17.010 -0.4433  0.0760 -0.8573
  845MPD2     C12412   2.630   2.225  17.471 -0.5225  0.2140  0.1946
  845MPD2    C112413   2.554   2.147  17.381  0.6452  0.2723 -0.2002
  845MPD2    C212414   2.618   2.033  17.328 -0.1443  0.2005 -0.1887
  845MPD2    C312415   2.752   2.002  17.354  0.0054 -0.3593 -0.2649
  845MPD2    C412416   2.826   2.085  17.431  0.6563  0.3782  0.1496
  845MPD2    C512417   2.762   2.191  17.493 -0.5241 -0.3362 -0.5451
  845MPD2     H12418   2.564   1.970  17.258 -0.4964  1.6724 -1.2476
  845MPD2    H112419   2.933   2.075  17.445  0.9236  1.9112 -0.8007
  845MPD2    H212420   2.586   2.315  17.512 -1.0366  0.4040 -0.7517
  845MPD2    H312421   2.825   2.253  17.555 -0.3100 -1.8687  0.7846
  845MPD2     N12422   2.794   1.883  17.293  0.0242  0.1464  0.3849
  845MPD2    H512423   2.728   1.825  17.243 -1.0663  2.3204 -0.6673
  845MPD2    N112424   2.422   2.176  17.352  0.4222 -0.0251  0.2712
  845MPD2    H712425   2.377   2.244  17.412 -0.9365 -1.5784  0.9848
  846MPD2     C12426   3.639   1.987  13.763 -0.0894 -0.9702  0.8593
  846MPD2    C112427   3.600   2.118  13.787 -0.2640  0.2749 -0.4278
  846MPD2    C212428   3.578   2.149  13.920  0.0252 -0.8517 -0.5199
  846MPD2    C312429   3.592   2.058  14.022 -0.2356 -0.1423  0.5457
  846MPD2    C412430   3.620   1.929  13.988 -0.5634 -0.0643 -1.1299
  846MPD2    C512431   3.642   1.892  13.858 -0.5446  0.0555  0.4702
  846MPD2     H12432   3.560   2.252  13.946 -0.7216 -1.0674 -0.1808
  846MPD2    H112433   3.625   1.859  14.071 -0.7589 -0.7793 -1.7234
  846MPD2    H212434   3.692   1.948  13.677  1.3362  1.2344  0.7199
  846MPD2    H312435   3.681   1.796  13.825 -3.0602 -1.1573  0.9694
  846MPD2     N12436   3.585   2.100  14.161  0.4538  0.1606  0.2034
  846MPD2    H512437   3.556   2.196  14.174 -1.3765 -0.3720  0.0890
  846MPD2    N112438   3.574   2.215  13.688  0.0921  0.1332 -0.0578
  846MPD2    H712439   3.544   2.304  13.727  0.0579  0.2976 -0.4571
  847MPD2     C12440   3.316   2.921  14.324  0.2573  0.5721  0.3620
  847MPD2    C112441   3.429   2.993  14.304  0.6021 -0.2997 -0.6828
  847MPD2    C212442   3.538   2.962  14.381  1.2089 -0.7763  0.2709
  847MPD2    C312443   3.519   2.869  14.479 -0.4677  0.3497  0.4243
  847MPD2    C412444   3.404   2.807  14.512  0.3924  0.5944 -0.5135
  847MPD2    C512445   3.302   2.829  14.423  0.2711  0.1515  0.1077
  847MPD2     H12446   3.634   3.014  14.377  2.5824 -3.4101 -0.8907
  847MPD2    H112447   3.395   2.736  14.594  1.7177 -0.4782 -1.2969
  847MPD2    H212448   3.228   2.949  14.267 -0.7534 -3.9793 -0.2906
  847MPD2    H312449   3.207   2.778  14.431  1.6248 -2.2740  0.5472
  847MPD2     N12450   3.634   2.842  14.555  0.2749  0.7470  0.1194
  847MPD2    H512451   3.719   2.888  14.525  0.5547  1.0290  1.3651
  847MPD2    N112452   3.423   3.099  14.217  0.6807 -0.2723  0.1788
  847MPD2    H712453   3.333   3.117  14.173 -0.3378 -2.0999  1.5561
  848MPD2     C12454   1.427   0.947  16.790  0.0969 -0.2944 -0.0382
  848MPD2    C112455   1.463   1.051  16.874 -0.1258  0.3975 -0.5997
  848MPD2    C212456   1.467   1.187  16.829  0.3070  0.6969 -0.2978
  848MPD2    C312457   1.436   1.214  16.699 -0.4276 -0.6421 -0.8034
  848MPD2    C412458   1.405   1.104  16.612 -0.0825 -0.1260 -0.7187
  848MPD2    C512459   1.399   0.976  16.654 -0.7669  0.6306  0.2008
  848MPD2     H12460   1.496   1.270  16.893 -1.6388  0.9924  0.1977
  848MPD2    H112461   1.374   1.116  16.509 -0.0845 -1.6537 -0.8945
  848MPD2    H212462   1.432   0.843  16.823  2.0471 -0.2652 -0.2440
  848MPD2    H312463   1.367   0.900  16.583 -0.6083  0.9359 -0.1963
  848MPD2     N12464   1.410   1.335  16.641 -0.1234 -0.5905  0.6529
  848MPD2    H512465   1.381   1.337  16.543  0.4381 -1.3136  0.4643
  848MPD2    N112466   1.508   1.011  16.999 -0.2270  0.0888  0.2065
  848MPD2    H712467   1.500   0.913  17.023 -1.1174  0.1986  0.3588
  849MPD2     C12468   0.324   1.153  14.205  0.3173 -0.7253 -0.0943
  849MPD2    C112469   0.413   1.243  14.145  0.1487 -0.2641  0.0821
  849MPD2    C212470   0.530   1.266  14.203  0.2040  0.3242  0.1885
  849MPD2    C312471   0.566   1.198  14.319 -0.4288  0.4070 -0.0391
  849MPD2    C412472   0.476   1.107  14.381  0.4699 -0.6784 -0.1556
  849MPD2    C512473   0.352   1.095  14.324  0.0631 -0.1084 -0.2575
  849MPD2     H12474   0.602   1.332  14.156  1.5980 -0.9803  0.5001
  849MPD2    H112475   0.494   1.044  14.468  0.0676  0.2045  0.5739
  849MPD2    H212476   0.232   1.133  14.151  1.1132  0.8350 -2.0478
  849MPD2    H312477   0.284   1.020  14.364  2.1676 -1.3302  1.0338
  849MPD2     N12478   0.695   1.210  14.377  0.1834 -1.0609 -0.8230
  849MPD2    H512479   0.719   1.151  14.456  1.6861  1.0706  0.3206
  849MPD2    N112480   0.374   1.295  14.016 -0.5119  0.8756 -0.2666
  849MPD2    H712481   0.307   1.240  13.963  0.1210 -0.6755  0.5473
  850MPD2     C12482   2.790   3.803  14.626  1.6623 -0.1189  0.0768
  850MPD2    C112483   2.812   3.846  14.757  0.6872 -0.3554 -0.1631
  850MPD2    C212484   2.924   3.933  14.780 -0.4161 -0.1224 -0.4702
  850MPD2    C312485   3.009   3.958  14.673 -0.0050  0.1486 -0.2360
  850MPD2    C412486   2.990   3.907  14.550  0.4772 -0.1827 -0.4183
  850MPD2    C512487   2.872   3.848  14.517 -0.2178 -0.1365  0.5753
  850MPD2     H12488   2.932   3.980  14.877  1.9852 -1.7836  0.1375
  850MPD2    H112489   3.074   3.898  14.483  0.4309 -2.2513 -0.1986
  850MPD2    H212490   2.726   3.716  14.611 -1.1540  1.7203  1.4683
  850MPD2    H312491   2.864   3.795  14.423 -0.0856 -0.2691  0.6386
  850MPD2     N12492   3.129   4.033  14.697 -0.0232  0.0855 -0.4608
  850MPD2    H512493   3.191   4.031  14.616  2.2218  0.4474  1.2772
  850MPD2    N112494   2.712   3.802  14.850 -0.3100 -0.3192 -0.3667
  850MPD2    H712495   2.624   3.775  14.807 -0.4601 -0.8737  0.2882
  851MPD2     C12496   3.505   3.863  15.005  0.6975 -0.2647 -0.2036
  851MPD2    C112497   3.407   3.775  14.973  0.2850 -0.4718  0.7757
  851MPD2    C212498   3.430   3.692  14.870  0.4730  0.0872  0.4724
  851MPD2    C312499   3.539   3.701  14.791  0.5280 -0.2799  0.4467
  851MPD2    C412500   3.632   3.798  14.812 -0.2567 -0.4165  0.0743
  851MPD2    C512501   3.611   3.877  14.920  0.5884  0.8332 -0.1535
  851MPD2     H12502   3.355   3.615  14.855  3.1425 -2.2267 -0.9322
  851MPD2    H112503   3.725   3.808  14.757 -1.3911  1.4203 -1.5237
  851MPD2    H212504   3.483   3.919  15.095 -1.8411  0.5029 -1.3027
  851MPD2    H312505   3.677   3.958  14.946 -0.0384  1.1535  0.4373
  851MPD2     N12506   3.565   3.606  14.689  0.2447 -0.4411 -0.9539
  851MPD2    H512507   3.504   3.525  14.691  1.4790 -1.3742 -0.4434
  851MPD2    N112508   3.284   3.786  15.040  0.1735  0.4438  0.4408
  851MPD2    H712509   3.279   3.865  15.104  0.9639  0.5909  0.3130
  852MPD2     C12510   2.773   2.017  10.102  0.2327  0.0731  0.1004
  852MPD2    C112511   2.875   2.026  10.196  0.1493 -0.0068 -0.9351
  852MPD2    C212512   2.984   2.102  10.169  0.3385 -0.0766 -0.8973
  852MPD2    C312513   2.997   2.173  10.054 -0.1954  0.0932  0.0570
  852MPD2    C412514   2.892   2.171   9.964  0.5403 -0.3017  0.7760
  852MPD2    C512515   2.780   2.100   9.991  0.5523 -0.3316 -0.9648
  852MPD2     H12516   3.057   2.110  10.249 -0.3116 -1.9978 -0.1114
  852MPD2    H112517   2.891   2.225   9.870  2.0148 -1.7818 -0.0920
  852MPD2    H212518   2.682   1.962  10.120 -0.1285  1.2992  1.9923
  852MPD2    H312519   2.694   2.104   9.925  0.8997  0.1367 -1.3883
  852MPD2     N12520   3.131   2.221  10.040 -0.6066  0.2073 -0.1721
  852MPD2    H512521   3.191   2.182  10.111  0.1465  1.7128  0.0183
  852MPD2    N112522   2.875   1.960  10.320  0.4002 -0.0004 -0.2201
  852MPD2    H712523   2.949   1.993  10.382 -0.1229  1.2168 -0.2493
  853MPD2     C12524   0.535   1.709  12.395 -0.5589 -0.1190  0.3949
  853MPD2    C112525   0.395   1.707  12.393  1.0673 -0.7629  0.6451
  853MPD2    C212526   0.322   1.649  12.289  0.7817  0.1353 -0.0787
  853MPD2    C312527   0.400   1.610  12.179  0.5446  0.4562 -0.9982
  853MPD2    C412528   0.534   1.608  12.183  0.1847  0.1765 -0.2846
  853MPD2    C512529   0.604   1.645  12.298 -0.2233 -0.4859  0.3941
  853MPD2     H12530   0.214   1.650  12.283  0.7935  0.5123 -0.2429
  853MPD2    H112531   0.591   1.567  12.100 -0.5739 -1.1875 -0.1181
  853MPD2    H212532   0.581   1.748  12.484  3.4005 -0.5161 -1.4943
  853MPD2    H312533   0.707   1.616  12.317 -0.5440 -1.6519  0.3926
  853MPD2     N12534   0.356   1.551  12.061 -0.3384 -0.7396 -0.1475
  853MPD2    H512535   0.427   1.515  11.999 -2.3908 -3.0344 -1.1991
  853MPD2    N112536   0.329   1.763  12.505  0.2074 -0.0143  0.8593
  853MPD2    H712537   0.385   1.796  12.583 -0.2606  0.9869  0.7724
  854MPD2     C12538   2.316   2.218  12.811  0.0835  0.2137 -0.6969
  854MPD2    C112539   2.209   2.136  12.789  0.4366  0.5031 -0.6174
  854MPD2    C212540   2.202   2.014  12.850  0.5626  0.1253  0.3451
  854MPD2    C312541   2.303   1.966  12.939  0.3758 -0.7389 -0.4386
  854MPD2    C412542   2.402   2.056  12.960 -0.1795 -0.0180  0.5374
  854MPD2    C512543   2.411   2.176  12.897 -0.3309  0.3083  0.2174
  854MPD2     H12544   2.114   1.954  12.831  0.8702 -0.4767  0.8243
  854MPD2    H112545   2.491   2.039  13.019 -0.9520  0.0869  1.7251
  854MPD2    H212546   2.332   2.313  12.761 -0.3073  1.1509  0.9472
  854MPD2    H312547   2.504   2.229  12.915 -0.4759  1.5421 -2.7230
  854MPD2     N12548   2.299   1.841  13.009 -0.6014  0.1872  0.1632
  854MPD2    H512549   2.388   1.829  13.058 -0.2575  0.3650 -0.4105
  854MPD2    N112550   2.115   2.181  12.689 -0.1519 -0.1104 -0.1994
  854MPD2    H712551   2.145   2.260  12.634  0.6542  1.3535  2.3125
  855MPD2     C12552   2.745   1.682  13.663 -0.3222  0.0598 -0.1477
  855MPD2    C112553   2.677   1.564  13.664 -0.0597  0.0458  0.4729
  855MPD2    C212554   2.624   1.523  13.540  0.2094  0.7651  0.5199
  855MPD2    C312555   2.638   1.597  13.424  0.5580  0.1849  0.0917
  855MPD2    C412556   2.714   1.709  13.428 -0.3958 -0.4237 -0.4625
  855MPD2    C512557   2.769   1.751  13.545  0.3125 -0.2879  0.3110
  855MPD2     H12558   2.575   1.426  13.544 -0.5716  1.1909  1.4189
  855MPD2    H112559   2.731   1.768  13.339 -2.2587 -0.8658 -1.1061
  855MPD2    H212560   2.796   1.715  13.753 -1.4048  2.2589 -0.3491
  855MPD2    H312561   2.834   1.838  13.541  0.2221 -0.2132  0.4822
  855MPD2     N12562   2.568   1.568  13.304 -0.5578 -0.1147  1.1398
  855MPD2    H512563   2.578   1.633  13.227  0.6396 -0.6437  0.8559
  855MPD2    N112564   2.634   1.490  13.780  0.1834  0.1132  0.1976
  855MPD2    H712565   2.571   1.411  13.773  2.3765 -1.8267  2.6015
  856MPD2     C12566   4.247   2.485  14.250 -0.3116 -0.7134 -0.6430
  856MPD2    C112567   4.332   2.591  14.223  1.0550 -0.2946  0.1750
  856MPD2    C212568   4.278   2.706  14.168  1.4866  0.2782  0.4671
  856MPD2    C312569   4.144   2.729  14.172  0.1984 -0.3442 -0.5625
  856MPD2    C412570   4.064   2.624  14.190 -0.2918  0.7947  0.3237
  856MPD2    C512571   4.113   2.499  14.213  0.0289 -0.3843  0.0849
  856MPD2     H12572   4.346   2.786  14.142  1.4638  0.2156  0.2185
  856MPD2    H112573   3.957   2.631  14.171 -0.5231  0.3505  1.4574
  856MPD2    H212574   4.285   2.389  14.285  0.0510 -0.5304 -0.5377
  856MPD2    H312575   4.056   2.407  14.216 -1.6141  0.6169 -0.6125
  856MPD2     N12576   4.091   2.858  14.138 -0.0039 -0.7236 -0.2226
  856MPD2    H512577   3.995   2.867  14.108 -0.4443 -0.3929  1.2634
  856MPD2    N112578   4.473   2.589  14.233  0.2083  0.1316 -0.2267
  856MPD2    H712579   4.510   2.669  14.184  1.3555 -0.0274  0.3802
  857MPD2     C12580   0.858   4.526  12.558  0.5312  0.5594 -0.2769
  857MPD2    C112581   0.991   4.537  12.598  0.2130  0.3843 -0.0147
  857MPD2    C212582   1.052   4.657  12.629 -0.5251 -0.4059  0.0949
  857MPD2    C312583   0.976   0.051  12.619 -0.1593 -0.0002  0.5763
  857MPD2    C412584   0.846   0.043  12.578 -0.2495 -0.1565 -0.5745
  857MPD2    C512585   0.787   4.643  12.548  0.2268  0.0781 -0.4283
  857MPD2     H12586   1.153   4.656  12.668 -1.4550  0.7975  2.5552
  857MPD2    H112587   0.779   0.128  12.578 -0.9145 -0.6812 -0.4250
  857MPD2    H212588   0.814   4.429  12.538  0.2447  0.7856 -0.7663
  857MPD2    H312589   0.684   4.626  12.517  1.3747 -1.7665 -3.2536
  857MPD2     N12590   1.035   0.171  12.656  0.3901 -0.8242  0.4715
  857MPD2    H512591   1.127   0.164  12.698 -0.1351 -0.3479  1.7112
  857MPD2    N112592   1.059   4.414  12.605  0.3183 -0.4050 -0.4531
  857MPD2    H712593   1.009   4.326  12.592  0.7199 -0.8707  1.1468
  858MPD2     C12594   2.152   3.737  16.568  0.0562 -0.0538  0.0859
  858MPD2    C112595   2.252   3.715  16.659  0.0737 -0.0512 -0.2313
  858MPD2    C212596   2.279   3.820  16.749  0.1744 -0.2372  0.6098
  858MPD2    C312597   2.204   3.937  16.747 -0.2400 -0.7229  0.5206
  858MPD2    C412598   2.109   3.953  16.653 -0.1931  0.4215 -0.6358
  858MPD2    C512599   2.078   3.852  16.568  0.5537  0.2363  0.5037
  858MPD2     H12600   2.347   3.808  16.833  1.1181 -0.1182 -0.1375
  858MPD2    H112601   2.048   4.042  16.640  0.3007  0.7069 -1.0081
  858MPD2    H212602   2.131   3.660  16.495 -2.3347 -2.2063  3.0739
  858MPD2    H312603   1.997   3.864  16.497  2.0569 -2.4888 -1.6561
  858MPD2     N12604   2.241   4.031  16.838  0.1723  0.2435 -0.3877
  858MPD2    H512605   2.317   4.002  16.899  0.9832 -0.1786 -1.6029
  858MPD2    N112606   2.323   3.591  16.671 -0.4556 -0.0099 -0.3277
  858MPD2    H712607   2.403   3.599  16.733 -0.1614  0.1582 -0.7293
  859MPD2     C12608   0.941   1.072  15.483 -0.1791  0.0856  0.0784
  859MPD2    C112609   0.931   1.003  15.360  0.1126  0.7234 -0.1970
  859MPD2    C212610   0.904   0.863  15.351  0.0053 -0.3648 -0.8315
  859MPD2    C312611   0.869   0.794  15.466 -0.6795 -0.3021 -0.2771
  859MPD2    C412612   0.859   0.867  15.580 -1.0185 -0.1550 -0.6134
  859MPD2    C512613   0.902   1.001  15.594  0.6196 -0.2550  0.2379
  859MPD2     H12614   0.904   0.809  15.257 -1.5540  0.6309 -1.3977
  859MPD2    H112615   0.819   0.826  15.673 -1.1718  1.0998 -0.1293
  859MPD2    H212616   0.967   1.177  15.480 -3.1167  0.8248  0.5853
  859MPD2    H312617   0.916   1.043  15.693  3.0394 -1.6055  0.4848
  859MPD2     N12618   0.845   0.659  15.480  0.5080  0.0901  0.8675
  859MPD2    H512619   0.825   0.625  15.574  2.5138 -0.6058  1.0473
  859MPD2    N112620   0.960   1.076  15.243  0.2482  0.2817  0.7133
  859MPD2    H712621   0.995   1.171  15.254  0.0841  0.5067 -0.7689
  860MPD2     C12622   2.741   1.264  11.695 -0.4275  0.1289 -0.0869
  860MPD2    C112623   2.758   1.318  11.817  0.1383 -0.6759  0.5853
  860MPD2    C212624   2.656   1.380  11.884  0.8113  0.4508 -0.5853
  860MPD2    C312625   2.531   1.400  11.824  0.4977  0.2807 -0.1729
  860MPD2    C412626   2.508   1.352  11.698  0.1492  0.6331  0.1421
  860MPD2    C512627   2.612   1.283  11.632 -0.0733  0.5419 -0.4384
  860MPD2     H12628   2.670   1.427  11.981 -1.4673 -0.0030 -0.0436
  860MPD2    H112629   2.408   1.354  11.655  0.1636 -1.4789  0.0166
  860MPD2    H212630   2.821   1.213  11.644  3.4789  3.0845  3.1035
  860MPD2    H312631   2.600   1.248  11.530 -0.1774  1.2889 -0.6825
  860MPD2     N12632   2.430   1.445  11.913  0.3482  0.3461 -0.3820
  860MPD2    H512633   2.463   1.461  12.008 -0.9990  1.0539 -0.0395
  860MPD2    N112634   2.874   1.290  11.895  0.0905 -0.0839 -0.3829
  860MPD2    H712635   2.865   1.313  11.993 -1.6308 -0.5442 -0.4359
  861MPD2     C12636   1.757   4.204  11.074  0.1540 -0.2403  0.0712
  861MPD2    C112637   1.626   4.168  11.060  1.1217 -0.2459 -0.5181
  861MPD2    C212638   1.539   4.225  10.967  0.3327 -0.0851 -0.1736
  861MPD2    C312639   1.579   4.325  10.881 -0.7469 -0.1137  0.1868
  861MPD2    C412640   1.717   4.350  10.891 -0.1358  0.8422  0.4160
  861MPD2    C512641   1.804   4.303  10.985 -0.0818  0.7960  0.0137
  861MPD2     H12642   1.434   4.199  10.971  0.6253 -1.6581 -2.9806
  861MPD2    H112643   1.754   4.430  10.828 -1.3277  0.8067 -0.3198
  861MPD2    H212644   1.831   4.168  11.145  1.1411  0.4237 -0.6155
  861MPD2    H312645   1.901   4.349  10.996 -0.1407  0.8332  0.3718
  861MPD2     N12646   1.503   4.411  10.796  0.6614 -0.9892  1.0465
  861MPD2    H512647   1.546   4.481  10.737 -2.3366  0.8049  1.0117
  861MPD2    N112648   1.571   4.072  11.146  0.5987 -0.5947  0.7411
  861MPD2    H712649   1.472   4.052  11.136  0.9136 -0.1973 -2.9363
  862MPD2     C12650   0.805   4.402  10.292 -0.0289 -0.6910 -0.1041
  862MPD2    C112651   0.888   4.345  10.385  0.3775  0.5494 -0.0778
  862MPD2    C212652   0.882   4.209  10.399 -0.7142  0.0358 -0.9767
  862MPD2    C312653   0.791   4.130  10.334  0.2554 -0.0410 -0.3704
  862MPD2    C412654   0.703   4.187  10.240  0.5563  0.5461  0.3049
  862MPD2    C512655   0.717   4.326  10.220 -0.5782 -0.1314  0.7988
  862MPD2     H12656   0.956   4.158  10.461 -1.3904 -1.8527 -1.7188
  862MPD2    H112657   0.625   4.136  10.185 -0.5799  0.5518  1.9104
  862MPD2    H212658   0.826   4.505  10.265  0.3580 -0.4973  0.9524
  862MPD2    H312659   0.648   4.378  10.155 -0.6434 -1.2446 -0.0270
  862MPD2     N12660   0.810   3.994  10.351  0.1510 -0.0430  0.2348
  862MPD2    H512661   0.872   3.968  10.427 -0.8099  0.5079  1.2243
  862MPD2    N112662   0.985   4.407  10.462  0.1726  1.3069 -0.5446
  862MPD2    H712663   1.053   4.343  10.502 -0.4272  0.4768 -0.8443
  863MPD2     C12664   1.259   3.087  16.671  0.3172 -0.0851  1.1415
  863MPD2    C112665   1.166   2.984  16.660  0.2514  0.2397 -0.1051
  863MPD2    C212666   1.180   2.868  16.734 -0.1223 -0.3738 -0.1005
  863MPD2    C312667   1.278   2.860  16.836 -0.1502  0.3462 -0.1873
  863MPD2    C412668   1.378   2.951  16.827  0.7910  0.1063 -0.4581
  863MPD2    C512669   1.367   3.064  16.757  0.1334  0.0387 -0.0361
  863MPD2     H12670   1.098   2.796  16.731 -0.8556  0.5896 -2.7809
  863MPD2    H112671   1.470   2.935  16.882  0.9212 -0.0348 -0.7177
  863MPD2    H212672   1.250   3.178  16.612  4.3783  0.3517  1.2122
  863MPD2    H312673   1.434   3.149  16.766 -0.5035  0.7946 -2.2140
  863MPD2     N12674   1.290   2.758  16.930  0.0055 -0.2501  0.4609
  863MPD2    H512675   1.366   2.768  16.996  0.7426  0.5932 -0.5404
  863MPD2    N112676   1.066   3.001  16.566 -0.0922  0.0696 -0.1043
  863MPD2    H712677   1.047   3.095  16.532 -0.2812  0.5232  1.2407
  864MPD2     C12678   1.253   3.324   0.136  0.6247  0.5970  0.4718
  864MPD2    C112679   1.300   3.295   0.010 -0.6105  0.2233 -0.2510
  864MPD2    C212680   1.333   3.396  17.604 -0.9339  0.8143 -0.1917
  864MPD2    C312681   1.321   3.528  17.648  0.4057  0.5202  0.4151
  864MPD2    C412682   1.282   3.548   0.086  0.6728  0.3249  0.0260
  864MPD2    C512683   1.243   3.452   0.171 -0.3580 -0.8253  0.2633
  864MPD2     H12684   1.368   3.371  17.505 -1.8648  2.2500 -0.8880
  864MPD2    H112685   1.271   3.649   0.123  0.2317  0.5134 -0.6169
  864MPD2    H212686   1.226   3.245   0.205 -1.1929  1.7519  1.0833
  864MPD2    H312687   1.220   3.475   0.274 -1.9160 -0.6261 -0.1299
  864MPD2     N12688   1.361   3.636  17.568  0.0221  0.4368 -0.3107
  864MPD2    H512689   1.360   3.722  17.622 -1.9679  0.9318 -1.1228
  864MPD2    N112690   1.308   3.157  17.661 -0.1092 -0.1870 -0.3086
  864MPD2    H712691   1.251   3.094   0.030  1.5719 -1.3079  0.1546
  865MPD2     C12692   1.434   4.213  16.931  0.0256 -0.8376  0.1517
  865MPD2    C112693   1.364   4.104  16.972  0.2324  0.1232  0.5684
  865MPD2    C212694   1.311   4.104  17.100  0.3574  0.1719 -0.0458
  865MPD2    C312695   1.337   4.214  17.183 -0.7704  0.7756 -0.5176
  865MPD2    C412696   1.400   4.328  17.136  0.1168 -0.0335  0.1295
  865MPD2    C512697   1.447   4.327  17.006 -0.0207  0.2802 -0.1718
  865MPD2     H12698   1.251   4.022  17.137  0.0749  0.2360 -0.3564
  865MPD2    H112699   1.412   4.419  17.194  0.2399  1.7807 -2.7078
  865MPD2    H212700   1.471   4.217  16.829  0.8783 -0.7025  0.4687
  865MPD2    H312701   1.493   4.416  16.964  1.8462 -0.2748  0.6923
  865MPD2     N12702   1.312   4.216  17.324 -0.8729 -0.1360 -0.4157
  865MPD2    H512703   1.304   4.310  17.361 -1.3288 -0.6552  0.8127
  865MPD2    N112704   1.362   3.997  16.886  0.1005  0.1459  0.1827
  865MPD2    H712705   1.403   4.015  16.794  0.6228 -0.6797  0.2567
  866MPD2     C12706   2.004   4.014  11.563  0.1172 -0.3431  0.5548
  866MPD2    C112707   2.064   4.099  11.474  1.0670  0.1209 -0.2407
  866MPD2    C212708   1.987   4.206  11.429  0.4270 -0.5320  0.2615
  866MPD2    C312709   1.860   4.223  11.486  0.1071  0.0952  1.0590
  866MPD2    C412710   1.813   4.138  11.584 -0.5137 -0.2069  0.2635
  866MPD2    C512711   1.889   4.037  11.623  0.5884 -0.3178 -0.1031
  866MPD2     H12712   2.034   4.288  11.376  2.9565 -2.1598  0.0019
  866MPD2    H112713   1.711   4.145  11.619 -0.9929  1.3346 -1.4318
  866MPD2    H212714   2.053   3.925  11.601  2.0219  0.7855  0.7412
  866MPD2    H312715   1.857   3.971  11.703 -0.7139  1.7339  1.0782
  866MPD2     N12716   1.773   4.328  11.439  0.6773 -0.6118 -0.2099
  866MPD2    H512717   1.681   4.337  11.482  1.0660 -0.2776  0.5415
  866MPD2    N112718   2.187   4.061  11.413 -0.1801  0.5784 -1.0266
  866MPD2    H712719   2.221   3.969  11.441 -0.0388  1.2466  0.9880
  867MPD2     C12720   0.102   4.519  16.429  0.5343  0.0466 -0.0788
  867MPD2    C112721   0.204   4.483  16.520  0.6197 -0.1616  0.0074
  867MPD2    C212722   0.210   4.557  16.641  0.3859  0.5015  0.4956
  867MPD2    C312723   0.110   4.647  16.674 -0.6223 -0.5013  0.0823
  867MPD2    C412724   0.013   4.675  16.580 -0.3095 -0.0212 -0.5936
  867MPD2    C512725   0.011   4.614  16.458  0.2554  0.0510  0.4292
  867MPD2     H12726   0.275   4.527  16.722  0.1254 -0.9619  0.1611
  867MPD2    H112727   4.656   0.029  16.596  0.1713 -0.3529  3.2697
  867MPD2    H212728   0.089   4.472  16.332  1.5859  1.7303 -1.0346
  867MPD2    H312729   4.657   4.634  16.382  0.3168 -0.0431  0.3455
  867MPD2     N12730   0.095   4.716  16.801  0.7471 -0.2656  0.2134
  867MPD2    H512731   0.008   0.045  16.816  1.7336  1.6586 -0.3039
  867MPD2    N112732   0.292   4.365  16.494 -0.1176 -0.0208 -0.3792
  867MPD2    H712733   0.255   4.306  16.420  2.4150  0.2720 -1.8734
  868MPD2     C12734   1.549   3.154  13.109 -0.1257  0.7623 -0.1093
  868MPD2    C112735   1.574   3.030  13.154  0.3199 -0.1005 -0.5368
  868MPD2    C212736   1.487   2.973  13.241  0.4967 -0.6158 -0.8989
  868MPD2    C312737   1.381   3.044  13.289  1.0842  0.1422  0.0980
  868MPD2    C412738   1.354   3.170  13.242 -0.5087  0.4289 -0.2014
  868MPD2    C512739   1.437   3.224  13.145 -1.0762  0.1381  0.1621
  868MPD2     H12740   1.504   2.871  13.271  2.1400 -0.5083 -1.4828
  868MPD2    H112741   1.266   3.226  13.271 -0.6413  0.0686  0.0956
  868MPD2    H212742   1.616   3.190  13.032  0.8459 -2.0176 -0.5657
  868MPD2    H312743   1.419   3.324  13.107  0.0916  0.1374 -0.3728
  868MPD2     N12744   1.302   2.977  13.384  1.1490  0.4820  0.4252
  868MPD2    H512745   1.326   2.881  13.407 -1.3031  0.0489  1.2877
  868MPD2    N112746   1.700   2.975  13.114  0.3587  0.2635  0.6604
  868MPD2    H712747   1.765   3.043  13.075 -1.5580  1.4840 -0.3859
  869MPD2     C12748   3.386   0.456   1.813 -0.2122 -0.4710  0.6008
  869MPD2    C112749   3.259   0.498   1.839  0.2862 -0.0526  0.0868
  869MPD2    C212750   3.197   0.596   1.761  0.1167  0.0772 -0.1380
  869MPD2    C312751   3.266   0.644   1.654  0.2668 -0.2326  0.3179
  869MPD2    C412752   3.390   0.599   1.625 -0.3616 -0.3133 -0.0735
  869MPD2    C512753   3.450   0.506   1.704 -0.5305 -0.9674  0.1386
  869MPD2     H12754   3.093   0.620   1.777  0.0065  0.2247 -1.0469
  869MPD2    H112755   3.451   0.643   1.547 -0.6149 -0.4579 -0.3555
  869MPD2    H212756   3.437   0.378   1.868 -1.2440  0.4984  2.9366
  869MPD2    H312757   3.554   0.479   1.694  0.1609  0.4469  3.5289
  869MPD2     N12758   3.210   0.755   1.574 -0.0995  0.7776  0.1851
  869MPD2    H512759   3.272   0.792   1.502  1.4065 -2.7616 -0.3456
  869MPD2    N112760   3.185   0.444   1.953  0.4952 -0.1949 -0.3809
  869MPD2    H712761   3.221   0.367   2.008 -0.8107  0.3570  1.2576
  870MPD2     C12762   1.881   0.099   1.652  0.3410 -0.2526  0.0683
  870MPD2    C112763   2.019   0.119   1.664 -0.1079  0.2731  0.4315
  870MPD2    C212764   2.077   0.198   1.563 -0.3037 -0.5566  0.1640
  870MPD2    C312765   2.009   0.229   1.452 -0.0314 -0.2518 -0.1629
  870MPD2    C412766   1.869   0.217   1.448  0.4637  0.8455  0.3004
  870MPD2    C512767   1.808   0.155   1.553 -0.9523  0.1412  0.4730
  870MPD2     H12768   2.184   0.212   1.554 -0.4295  0.7291  0.6543
  870MPD2    H112769   1.805   0.244   1.365  0.6615 -1.1957 -0.5222
  870MPD2    H212770   1.829   0.049   1.733 -0.0210  0.0213  0.0051
  870MPD2    H312771   1.700   0.158   1.554 -0.9189  1.7107 -1.5619
  870MPD2     N12772   2.086   0.275   1.343  0.4742 -0.1970  0.7896
  870MPD2    H512773   2.186   0.255   1.339  0.8207  1.5827  0.3514
  870MPD2    N112774   2.085   0.079   1.775 -0.2753  0.3428 -0.1156
  870MPD2    H712775   2.032   0.025   1.843 -0.1887  1.7128  1.0323
  871MPD2     C12776   3.721   4.038  16.397 -0.3459  0.1129 -0.5673
  871MPD2    C112777   3.704   3.953  16.504 -0.1443 -0.7638 -0.4153
  871MPD2    C212778   3.676   3.820  16.484 -0.2396  1.4840  0.1204
  871MPD2    C312779   3.663   3.766  16.360  0.3740  0.5996  0.6413
  871MPD2    C412780   3.675   3.855  16.250 -0.4548  0.3211  0.0373
  871MPD2    C512781   3.708   3.987  16.273 -0.2586 -0.1619 -0.3486
  871MPD2     H12782   3.660   3.754  16.569 -0.2867 -0.1486 -1.1651
  871MPD2    H112783   3.646   3.823  16.151  1.4008 -0.7329 -0.1762
  871MPD2    H212784   3.747   4.143  16.394  0.8729 -0.1505  0.6137
  871MPD2    H312785   3.719   4.049  16.184  1.7618  2.2967  1.6112
  871MPD2     N12786   3.639   3.627  16.341  0.6660  0.2825  0.6900
  871MPD2    H512787   3.631   3.569  16.424 -0.2470 -1.3460 -0.5285
  871MPD2    N112788   3.705   4.015  16.631 -0.2200 -0.0013  0.1744
  871MPD2    H712789   3.729   4.114  16.630 -3.7323  0.8678  2.1662
  872MPD2     C12790   4.165   1.838  13.981 -0.0460 -1.2456 -0.5162
  872MPD2    C112791   4.227   1.856  14.097 -0.1968  0.3463  0.7393
  872MPD2    C212792   4.157   1.846  14.214  0.0951  0.5442  0.2426
  872MPD2    C312793   4.020   1.830  14.209 -0.0761  0.2530 -0.1714
  872MPD2    C412794   3.952   1.821  14.097  0.3418  0.0034  0.0090
  872MPD2    C512795   4.030   1.819  13.983 -0.2066 -0.1635 -1.0920
  872MPD2     H12796   4.202   1.857  14.312 -1.5099  1.6156  0.8733
  872MPD2    H112797   3.844   1.810  14.087  0.4164 -2.9942  2.3740
  872MPD2    H212798   4.212   1.837  13.883 -0.5738  3.8207 -0.8098
  872MPD2    H312799   3.979   1.804  13.888  0.4389 -1.5333 -1.2274
  872MPD2     N12800   3.936   1.804  14.320  0.1923 -0.3731 -0.1411
  872MPD2    H512801   3.836   1.817  14.307 -0.3041 -2.8273  1.2250
  872MPD2    N112802   4.363   1.894  14.109 -0.4408  0.1661  0.2376
  872MPD2    H712803   4.402   1.939  14.192 -0.3461  2.8082 -1.2275
  873MPD2     C12804   1.749   1.455   0.792  0.1656 -0.1904  0.5245
  873MPD2    C112805   1.811   1.498   0.911  0.1255  0.3738 -0.5276
  873MPD2    C212806   1.933   1.449   0.947 -0.2864  0.5903 -0.0246
  873MPD2    C312807   2.010   1.360   0.869 -0.0500  0.0842 -0.2652
  873MPD2    C412808   1.962   1.328   0.741 -0.0524 -0.1608  0.1060
  873MPD2    C512809   1.828   1.364   0.717  0.5568 -0.4460  0.4902
  873MPD2     H12810   1.983   1.482   1.037 -0.2729 -1.4375  0.7187
  873MPD2    H112811   2.015   1.261   0.674  0.3009 -0.6802  0.8910
  873MPD2    H212812   1.646   1.473   0.763  0.0580 -0.7694  0.5558
  873MPD2    H312813   1.779   1.306   0.640  1.2679  0.3783 -0.5708
  873MPD2     N12814   2.143   1.323   0.898  0.0107 -0.0036  0.1220
  873MPD2    H512815   2.183   1.271   0.820 -0.0963  0.9912 -0.5982
  873MPD2    N112816   1.744   1.592   0.989 -0.0446  0.2469  0.0025
  873MPD2    H712817   1.654   1.624   0.953  0.4569  0.4416 -1.0820
  874MPD2     C12818   0.779   1.489  16.084  0.2274  0.3384 -0.3592
  874MPD2    C112819   0.781   1.432  16.209  0.1671  0.5332 -0.2683
  874MPD2    C212820   0.894   1.458  16.287  0.6321 -0.6007  0.4464
  874MPD2    C312821   1.000   1.536  16.248 -0.2948 -0.1380 -0.2915
  874MPD2    C412822   0.990   1.596  16.119 -0.1055  0.0127 -0.5277
  874MPD2    C512823   0.879   1.576  16.042  0.9422  0.3851  0.1469
  874MPD2     H12824   0.902   1.406  16.381  1.5625 -2.6267 -0.7432
  874MPD2    H112825   1.061   1.670  16.084 -0.1074  0.4224  0.3275
  874MPD2    H212826   0.695   1.476  16.016 -0.0168  0.8928 -0.1683
  874MPD2    H312827   0.876   1.617  15.942 -1.0582 -1.5821 -0.5743
  874MPD2     N12828   1.102   1.563  16.344 -0.1174  0.4798 -0.2921
  874MPD2    H512829   1.098   1.499  16.423 -0.1241  0.3629 -0.3864
  874MPD2    N112830   0.682   1.332  16.230  0.8244  0.3938 -0.2747
  874MPD2    H712831   0.617   1.311  16.155 -0.3332  1.5583  0.4071
  875MPD2     C12832   2.046   0.092  14.841  0.2691  0.2184 -0.4235
  875MPD2    C112833   1.921   0.119  14.900  0.1146  0.8505  0.2214
  875MPD2    C212834   1.913   0.194  15.016  0.0867 -0.2326  0.5208
  875MPD2    C312835   2.024   0.250  15.073  0.3537  0.0078  0.7985
  875MPD2    C412836   2.147   0.226  15.018 -0.0873 -0.5232  0.8588
  875MPD2    C512837   2.158   0.143  14.906 -0.4565  0.0192 -0.5282
  875MPD2     H12838   1.819   0.205  15.068 -0.5787 -0.4550 -0.6350
  875MPD2    H112839   2.231   0.286  15.050  1.7844 -0.8491 -3.4521
  875MPD2    H212840   2.040   0.057  14.738 -0.2873  2.4786 -1.1578
  875MPD2    H312841   2.252   0.132  14.852 -0.6902  2.0992 -1.3378
  875MPD2     N12842   2.000   0.323  15.188 -0.1383 -0.2426 -0.5809
  875MPD2    H512843   1.914   0.304  15.239 -1.3557  0.5405 -2.3527
  875MPD2    N112844   1.808   0.069  14.832  0.0490 -0.6014 -0.3615
  875MPD2    H712845   1.823   0.002  14.757 -1.2488 -0.9359 -0.3198
  876MPD2     C12846   1.057   1.332  15.861  0.2420  0.3795  0.3324
  876MPD2    C112847   1.145   1.299  15.758 -0.4001 -0.0030 -0.7542
  876MPD2    C212848   1.206   1.170  15.764  0.0265 -0.4867 -0.3336
  876MPD2    C312849   1.165   1.077  15.856 -0.0552  0.3165 -0.2463
  876MPD2    C412850   1.091   1.116  15.965  0.1752 -0.3808  0.1231
  876MPD2    C512851   1.043   1.246  15.961 -0.0371  0.1197 -0.5945
  876MPD2     H12852   1.282   1.138  15.694  2.1964 -0.9864  2.2702
  876MPD2    H112853   1.070   1.057  16.054 -0.7852  0.1254  0.2341
  876MPD2    H212854   1.008   1.429  15.859 -0.3359  0.0704 -1.1579
  876MPD2    H312855   0.982   1.279  16.044  2.3742 -0.4696  1.3870
  876MPD2     N12856   1.218   0.945  15.850  0.3701  0.0655  0.0174
  876MPD2    H512857   1.303   0.938  15.795  1.8040  3.4463  1.8096
  876MPD2    N112858   1.170   1.402  15.667  0.1021  0.1087  0.2682
  876MPD2    H712859   1.122   1.490  15.684 -0.5060 -0.3335  0.8488
  877MPD2     C12860   0.859   1.730  15.027  0.3915  0.4087 -0.7920
  877MPD2    C112861   0.988   1.766  15.031  0.1120 -0.3091  0.2633
  877MPD2    C212862   1.042   1.838  14.923 -0.6883  0.6640  0.0810
  877MPD2    C312863   0.965   1.879  14.814  0.7410  0.4214  0.9465
  877MPD2    C412864   0.836   1.835  14.812 -0.1215  0.2097  0.6185
  877MPD2    C512865   0.789   1.764  14.917  0.2555 -0.0320 -0.2776
  877MPD2     H12866   1.150   1.847  14.920 -0.7006  1.1089  1.0669
  877MPD2    H112867   0.771   1.849  14.726  0.6301  1.4844  0.2494
  877MPD2    H212868   0.821   1.673  15.111  0.8153  0.2482 -0.7109
  877MPD2    H312869   0.693   1.715  14.915 -0.9798  2.3650  1.5248
  877MPD2     N12870   1.021   1.950  14.707 -0.2978  0.4322  0.6199
  877MPD2    H512871   0.966   1.945  14.622  0.1926  1.9355  0.2029
  877MPD2    N112872   1.079   1.738  15.140 -0.3685  0.0042  0.5289
  877MPD2    H712873   1.177   1.766  15.133  0.3843 -1.9024  3.6739
  878MPD2     C12874   0.188   0.953  13.125  0.3265  0.9894  0.4270
  878MPD2    C112875   0.302   1.039  13.103 -0.1666  0.6521 -0.2908
  878MPD2    C212876   0.369   1.085  13.212 -0.1481  0.6146  0.2714
  878MPD2    C312877   0.327   1.053  13.340 -0.1874  0.4950  0.1576
  878MPD2    C412878   0.228   0.964  13.358 -0.2781  0.9785  0.2161
  878MPD2    C512879   0.152   0.927  13.251 -0.2211 -0.1806 -0.2985
  878MPD2     H12880   0.442   1.166  13.211 -2.5203  2.7155 -0.9597
  878MPD2    H112881   0.195   0.947  13.460 -0.6416 -1.5584 -0.3091
  878MPD2    H212882   0.128   0.920  13.041  0.9614  1.4805 -0.2165
  878MPD2    H312883   0.071   0.857  13.263  0.4919 -0.7862  0.9924
  878MPD2     N12884   0.397   1.104  13.453  0.1999 -0.3071 -0.0034
  878MPD2    H512885   0.484   1.145  13.423 -0.3977  1.9776  1.3969
  878MPD2    N112886   0.339   1.073  12.972  0.3270  0.5267  1.0516
  878MPD2    H712887   0.277   1.042  12.897  0.5358 -1.2691  1.6034
  879MPD2     C12888   1.553   2.556  16.683  0.2086 -0.1589 -0.7737
  879MPD2    C112889   1.538   2.444  16.751 -0.4350  0.4812  0.0395
  879MPD2    C212890   1.457   2.344  16.702 -0.5126  0.1373  0.2052
  879MPD2    C312891   1.379   2.360  16.589  0.4444  0.8294  0.1369
  879MPD2    C412892   1.399   2.478  16.519 -0.6807  0.6082 -0.2358
  879MPD2    C512893   1.492   2.572  16.563 -0.3335  0.7329  0.5170
  879MPD2     H12894   1.457   2.248  16.754 -3.9425  0.7689  1.3614
  879MPD2    H112895   1.347   2.508  16.429 -1.0150  0.3957 -0.1132
  879MPD2    H212896   1.619   2.633  16.721 -0.1329 -1.0535  1.6093
  879MPD2    H312897   1.512   2.660  16.503  0.1760  0.6964  0.6369
  879MPD2     N12898   1.284   2.266  16.545 -0.4585  0.2089  0.5316
  879MPD2    H512899   1.240   2.296  16.459 -1.5747  0.0479  1.0376
  879MPD2    N112900   1.610   2.436  16.877 -0.6619  0.0764 -0.3590
  879MPD2    H712901   1.657   2.519  16.910 -1.2087  0.4753 -0.5748
  880MPD2     C12902   2.889   4.354   0.041 -0.0814 -0.0616 -1.1271
  880MPD2    C112903   2.891   4.335   0.181  0.3766  0.3431 -0.3685
  880MPD2    C212904   2.881   4.207   0.236 -0.2398  0.5245  0.1399
  880MPD2    C312905   2.852   4.101   0.147 -0.2295 -0.1812  0.6998
  880MPD2    C412906   2.842   4.119   0.011  0.0142 -0.0062  0.6718
  880MPD2    C512907   2.852   4.246  17.648 -0.3563  0.3000  0.0746
  880MPD2     H12908   2.872   4.193   0.343  0.2379  0.6239  0.1964
  880MPD2    H112909   2.820   4.031  17.639 -0.1831  1.1296 -0.9760
  880MPD2    H212910   2.907   4.451  17.682 -1.7237  0.7137 -0.1293
  880MPD2    H312911   2.834   4.254  17.542 -0.5523 -2.4133 -0.0788
  880MPD2     N12912   2.834   3.967   0.190 -0.2162 -0.2591 -0.2969
  880MPD2    H512913   2.831   3.899   0.114  2.2094  0.2277 -0.8092
  880MPD2    N112914   2.912   4.450   0.252  0.1653 -0.1794  0.2028
  880MPD2    H712915   2.930   4.537   0.202 -1.2147  0.2954  0.5337
  881MPD2     C12916   2.569   0.278  17.645  0.2123 -0.6126  0.5836
  881MPD2    C112917   2.674   0.188  17.625  0.9800  0.9493  0.0143
  881MPD2    C212918   2.773   0.180   0.038 -0.3962 -0.0323 -0.2299
  881MPD2    C312919   2.758   0.231   0.169  0.8747  0.1036 -0.3768
  881MPD2    C412920   2.640   0.299   0.195  0.4095 -0.3028  0.4831
  881MPD2    C512921   2.550   0.328   0.087  0.6161  0.6170  0.2889
  881MPD2     H12922   2.864   0.121   0.028  0.2868  0.9461  0.1921
  881MPD2    H112923   2.615   0.342   0.292 -2.4209  0.2229 -0.4808
  881MPD2    H212924   2.501   0.297  17.564 -0.2885 -2.2970  0.6089
  881MPD2    H312925   2.472   0.398   0.114  0.6003  0.8073 -0.2448
  881MPD2     N12926   2.848   0.207   0.280  0.2596 -0.5730  0.2397
  881MPD2    H512927   2.816   0.235   0.372  2.0150  0.5546  0.4965
  881MPD2    N112928   2.703   0.144  17.495  0.0354  0.3853  0.0257
  881MPD2    H712929   2.653   0.180  17.415  1.1610 -2.5927 -2.0509
  882MPD2     C12930   1.058   1.726  14.086  0.0362  0.1119 -0.3799
  882MPD2    C112931   0.988   1.832  14.139 -0.5189 -0.1223 -0.3516
  882MPD2    C212932   0.846   1.830  14.144  0.2452 -0.0412 -0.0403
  882MPD2    C312933   0.777   1.715  14.115  0.3675 -0.0247  0.2385
  882MPD2    C412934   0.848   1.609  14.059  0.1233 -0.2420  0.8189
  882MPD2    C512935   0.982   1.621  14.041 -0.5628 -0.2643  0.3433
  882MPD2     H12936   0.793   1.915  14.186 -0.8573 -1.4299  1.3808
  882MPD2    H112937   0.809   1.510  14.041  1.8688 -0.3961 -2.0615
  882MPD2    H212938   1.163   1.722  14.056 -0.2602  2.4094 -1.7158
  882MPD2    H312939   1.021   1.531  13.997  2.1350  0.8719  0.3876
  882MPD2     N12940   0.635   1.696  14.142  0.5810  0.0168 -0.0313
  882MPD2    H512941   0.593   1.608  14.115  1.7009 -0.4467 -0.2956
  882MPD2    N112942   1.064   1.936  14.191  0.5997 -0.4226 -0.6502
  882MPD2    H712943   1.162   1.914  14.204  1.1660  2.8504  0.4447
  883MPD2     C12944   3.135   1.781  16.318  0.1774 -0.4835  0.0373
  883MPD2    C112945   3.194   1.860  16.218  0.4184 -0.1556 -0.5151
  883MPD2    C212946   3.333   1.882  16.222  0.4187  0.0525 -0.1769
  883MPD2    C312947   3.406   1.836  16.327  0.0687  0.1118  0.5763
  883MPD2    C412948   3.349   1.752  16.421  0.8653  0.1809  0.0760
  883MPD2    C512949   3.212   1.724  16.415 -0.1223  0.2946 -0.7183
  883MPD2     H12950   3.379   1.934  16.139  1.2703  1.0761  0.9425
  883MPD2    H112951   3.412   1.716  16.502 -2.7522 -2.3230  1.7928
  883MPD2    H212952   3.027   1.767  16.321 -0.2248  1.8467 -4.0775
  883MPD2    H312953   3.166   1.650  16.480 -1.3490  2.2970  0.6685
  883MPD2     N12954   3.544   1.853  16.315 -0.2033  0.5770 -0.0305
  883MPD2    H512955   3.576   1.878  16.222 -1.5110  1.3229 -0.2851
  883MPD2    N112956   3.128   1.921  16.110  0.1953  0.6281 -0.4041
  883MPD2    H712957   3.192   1.941  16.033  1.7758 -3.3707 -0.1150
  884MPD2     C12958   0.287   2.236  15.219  0.8033 -0.8832  0.0609
  884MPD2    C112959   0.246   2.323  15.117 -0.5893 -0.0595 -0.0845
  884MPD2    C212960   0.140   2.402  15.158 -0.9796  0.3317  0.0513
  884MPD2    C312961   0.087   2.400  15.286 -0.7108  0.1254 -0.3410
  884MPD2    C412962   0.137   2.317  15.379  0.2894 -0.5935 -0.3632
  884MPD2    C512963   0.237   2.235  15.344 -0.5119 -0.4885 -0.4743
  884MPD2     H12964   0.092   2.471  15.089 -0.3636 -0.4114 -1.1242
  884MPD2    H112965   0.103   2.307  15.482  1.7078  3.4327  0.5069
  884MPD2    H212966   0.368   2.171  15.192  2.3841  1.6468 -1.2985
  884MPD2    H312967   0.277   2.159  15.409  0.1611  1.6132  1.5819
  884MPD2     N12968   4.701   2.484  15.309 -0.4448  0.5823 -0.2016
  884MPD2    H512969   4.671   2.544  15.233 -2.0874 -1.7942 -1.4670
  884MPD2    N112970   0.297   2.332  14.988  0.0843  0.1674  0.5002
  884MPD2    H712971   0.244   2.388  14.921  1.4038  1.8883  0.9060
  885MPD2     C12972   3.525   3.027  17.670  0.1936  0.2650 -0.1894
  885MPD2    C112973   3.611   2.945  17.597  0.0212 -0.0412  0.8240
  885MPD2    C212974   3.591   2.936  17.457  0.0642 -0.7385  0.1495
  885MPD2    C312975   3.475   3.003  17.407 -0.1666  0.2022 -0.2522
  885MPD2    C412976   3.395   3.081  17.487  0.3240 -0.2512  0.8808
  885MPD2    C512977   3.420   3.100  17.619  0.2982  0.2910 -0.8018
  885MPD2     H12978   3.650   2.873  17.393  1.6088  0.6032  0.2707
  885MPD2    H112979   3.320   3.144  17.441 -0.1962 -0.4003  1.5370
  885MPD2    H212980   3.542   3.039   0.090 -2.3865  0.6341  0.1686
  885MPD2    H312981   3.353   3.159  17.681  2.0551  0.6046  0.7847
  885MPD2     N12982   3.454   3.000  17.263 -0.4736 -0.3807  0.0701
  885MPD2    H512983   3.521   2.946  17.209 -0.3862 -0.8107  0.6125
  885MPD2    N112984   3.714   2.871  17.664  0.1686  0.5827 -0.1748
  885MPD2    H712985   3.724   2.876   0.078 -0.3602  3.6874 -0.2878
  886MPD2     C12986   4.326   1.056  15.106  0.2308  0.3898  0.9257
  886MPD2    C112987   4.437   1.098  15.171  0.1375  0.8371 -0.4352
  886MPD2    C212988   4.462   1.229  15.184 -0.2148 -0.2338 -0.5604
  886MPD2    C312989   4.381   1.329  15.129 -0.7117 -0.8490 -0.2616
  886MPD2    C412990   4.265   1.281  15.063 -0.1058  0.5300  0.7023
  886MPD2    C512991   4.239   1.150  15.054  0.0160  0.4828  0.3669
  886MPD2     H12992   4.559   1.254  15.226 -0.4212  0.4744 -0.4980
  886MPD2    H112993   4.193   1.348  15.017 -3.0302 -2.7934  0.4176
  886MPD2    H212994   4.321   0.957  15.062  3.3538 -0.1339  1.7374
  886MPD2    H312995   4.154   1.120  14.995  1.7396 -1.2950 -1.2285
  886MPD2     N12996   4.406   1.467  15.133 -0.2615  0.0338  0.7708
  886MPD2    H512997   4.355   1.530  15.072  0.1303  0.5851  1.0232
  886MPD2    N112998   4.532   1.012  15.222  0.4415 -0.7501 -0.0899
  886MPD2    H712999   4.623   1.046  15.251 -0.0604  0.0178  0.5903
  887MPD2     C13000   0.494   0.976  15.263  0.2437  0.1749  0.0247
  887MPD2    C113001   0.380   1.033  15.312 -0.1491  0.4592 -0.4968
  887MPD2    C213002   0.373   1.171  15.310  0.0972  1.2301 -0.1620
  887MPD2    C313003   0.478   1.253  15.269 -0.4021  0.1951 -0.0272
  887MPD2    C413004   0.594   1.193  15.227  0.3424 -0.1512  0.6725
  887MPD2    C513005   0.593   1.058  15.216 -0.3457 -0.4616  0.0312
  887MPD2     H13006   0.282   1.222  15.339 -0.3881  0.3865 -0.1911
  887MPD2    H113007   0.683   1.245  15.195  0.0205 -1.5299 -2.5043
  887MPD2    H213008   0.504   0.868  15.255 -3.4082 -0.2196  0.8036
  887MPD2    H313009   0.679   1.016  15.166 -0.2385 -0.2634  0.0511
  887MPD2     N13010   0.455   1.391  15.281  0.0904  0.1209 -0.1989
  887MPD2    H513011   0.366   1.417  15.322 -0.7580 -1.7116 -0.8576
  887MPD2    N113012   0.262   0.957  15.329  0.2369 -0.8455 -0.1195
  887MPD2    H713013   0.175   1.009  15.327  0.4000 -0.5435  0.7104
  888MPD2     C13014   2.157   1.342  15.039 -0.0867  0.0942 -0.1329
  888MPD2    C113015   2.195   1.359  15.175  0.2124 -0.1781 -1.2409
  888MPD2    C213016   2.291   1.451  15.211  0.0571 -0.5661 -0.1830
  888MPD2    C313017   2.336   1.541  15.118 -0.6286 -0.4638  0.8266
  888MPD2    C413018   2.288   1.533  14.987 -0.2193 -0.1431  0.9819
  888MPD2    C513019   2.200   1.438  14.948  0.6077 -0.2669  0.3547
  888MPD2     H13020   2.318   1.467  15.315 -0.7073 -1.2953  0.1192
  888MPD2    H113021   2.322   1.602  14.911  1.5852 -1.2810  0.7586
  888MPD2    H213022   2.083   1.271  15.004  0.7619 -0.2207 -1.2608
  888MPD2    H313023   2.157   1.434  14.849  1.0910  1.2255  0.0909
  888MPD2     N13024   2.439   1.622  15.152  0.6466  0.2531 -0.2785
  888MPD2    H513025   2.462   1.609  15.251  2.2294  2.4666 -0.3620
  888MPD2    N113026   2.132   1.282  15.287 -0.5591  0.7007  0.0401
  888MPD2    H713027   2.159   1.313  15.380  2.3274 -0.5270 -0.3997
  889MPD2     C13028   1.155   1.018  12.520 -0.2865  1.1186  0.1333
  889MPD2    C113029   1.216   0.987  12.648  0.3133  0.6464 -0.3471
  889MPD2    C213030   1.242   1.082  12.746  0.1256 -0.1027  0.0955
  889MPD2    C313031   1.239   1.216  12.706  0.6901  0.2456  0.2319
  889MPD2    C413032   1.190   1.243  12.576  0.5953 -0.8672  0.6920
  889MPD2    C513033   1.140   1.148  12.485 -0.1386 -0.6950  0.1916
  889MPD2     H13034   1.280   1.054  12.843 -0.8727 -2.9957 -0.3394
  889MPD2    H113035   1.177   1.346  12.547 -1.6951 -1.1035  0.9028
  889MPD2    H213036   1.130   0.941  12.449  0.4383 -0.3608  1.4721
  889MPD2    H313037   1.091   1.187  12.397  1.0737 -0.3295 -0.3243
  889MPD2     N13038   1.274   1.312  12.804 -0.3296 -0.5162 -0.2260
  889MPD2    H513039   1.286   1.281  12.900 -1.3256 -0.5931 -0.1301
  889MPD2    N113040   1.223   0.841  12.681  0.1142  0.0759  0.4341
  889MPD2    H713041   1.263   0.814  12.771 -0.1264 -2.7920 -0.3092
  890MPD2     C13042   1.563   2.655  14.495  0.2107  0.2750 -0.1400
  890MPD2    C113043   1.482   2.654  14.612 -0.7056 -0.4911 -0.6715
  890MPD2    C213044   1.466   2.540  14.689  0.0711  0.0138 -0.3453
  890MPD2    C313045   1.542   2.429  14.657 -0.9747  0.2680  0.0321
  890MPD2    C413046   1.626   2.432  14.549 -0.4351 -0.0124 -0.0424
  890MPD2    C513047   1.633   2.543  14.463 -0.2010 -0.2394  0.0844
  890MPD2     H13048   1.400   2.540  14.775 -0.9877 -0.6754 -1.1643
  890MPD2    H113049   1.685   2.346  14.520  1.6815  1.7596 -0.9453
  890MPD2    H213050   1.565   2.746  14.437 -0.0930 -0.0248 -0.6205
  890MPD2    H313051   1.692   2.538  14.372 -1.1638  0.0028 -0.5518
  890MPD2     N13052   1.545   2.313  14.742 -0.0724 -0.1271 -0.5485
  890MPD2    H513053   1.624   2.250  14.744  0.4377  0.5647  1.1999
  890MPD2    N113054   1.408   2.772  14.642  0.0522  0.4781  0.0550
  890MPD2    H713055   1.391   2.843  14.571  0.3010 -0.2316 -0.7100
  891MPD2     C13056   3.886   0.592  16.610 -0.4394  0.2379  0.1126
  891MPD2    C113057   3.931   0.719  16.631  0.1019 -0.2383  0.8109
  891MPD2    C213058   4.058   0.738  16.681  0.3244  0.2724  0.4733
  891MPD2    C313059   4.136   0.630  16.717 -0.6414  0.0682  0.2221
  891MPD2    C413060   4.089   0.503  16.705 -0.3803 -0.4264 -0.6509
  891MPD2    C513061   3.971   0.490  16.641 -0.2043 -0.0292 -0.8867
  891MPD2     H13062   4.102   0.836  16.698 -0.2440  0.4519  0.9378
  891MPD2    H113063   4.144   0.412  16.727  2.8864  1.9335  0.8480
  891MPD2    H213064   3.783   0.572  16.583  0.4140  0.8825 -3.5967
  891MPD2    H313065   3.929   0.390  16.646  1.8329 -0.8253  0.1342
  891MPD2     N13066   4.261   0.666  16.765 -0.2877 -0.3551  0.6013
  891MPD2    H513067   4.287   0.764  16.760  0.6950 -0.6153  0.4984
  891MPD2    N113068   3.845   0.821  16.591  0.0229  0.0108 -0.0946
  891MPD2    H713069   3.772   0.788  16.528 -0.1923  0.9394 -0.3225
  892MPD2     C13070   0.181   1.968  14.967 -0.7124  1.0885 -0.4654
  892MPD2    C113071   0.092   1.991  14.864  0.4282  0.5565 -0.4452
  892MPD2    C213072   0.137   1.946  14.740  0.1959 -0.0412  0.7539
  892MPD2    C313073   0.255   1.871  14.728 -0.0806 -0.4430  0.3675
  892MPD2    C413074   0.341   1.856  14.829  0.3836  0.5564  0.1448
  892MPD2    C513075   0.298   1.905  14.948 -0.3665  0.4865 -1.1212
  892MPD2     H13076   0.088   1.963  14.645 -0.7740  0.7210  1.3931
  892MPD2    H113077   0.435   1.802  14.820 -0.7604 -1.4988  0.7309
  892MPD2    H213078   0.164   2.009  15.066  0.1268 -0.4901  0.3361
  892MPD2    H313079   0.367   1.887  15.029 -4.5003  0.1635  2.3202
  892MPD2     N13080   0.294   1.823  14.600 -0.1627 -0.3532 -1.3436
  892MPD2    H513081   0.392   1.798  14.596  0.0919  0.1506  1.5764
  892MPD2    N113082   4.701   2.081  14.870 -0.4123  0.0872 -0.4910
  892MPD2    H713083   4.646   2.103  14.788 -1.4164  1.6580  0.6005
  893MPD2     C13084   1.605   0.483   1.346 -0.0720 -0.4760 -0.2397
  893MPD2    C113085   1.647   0.495   1.478 -0.0417 -0.2002  0.1139
  893MPD2    C213086   1.558   0.485   1.582 -0.4914 -0.2764  0.2790
  893MPD2    C313087   1.424   0.456   1.552  0.1493  0.5572 -0.1788
  893MPD2    C413088   1.387   0.439   1.423 -0.8252 -0.4966 -0.7225
  893MPD2    C513089   1.475   0.447   1.320 -0.6477 -0.5699  0.3054
  893MPD2     H13090   1.582   0.511   1.685  0.0897  0.6594 -0.0948
  893MPD2    H113091   1.284   0.413   1.405 -0.8520  1.2617 -3.1536
  893MPD2    H213092   1.669   0.484   1.259 -0.1717  1.6286 -0.2983
  893MPD2    H313093   1.435   0.450   1.219 -2.9631  0.9435  1.2416
  893MPD2     N13094   1.317   0.456   1.647 -0.2609  0.1365  0.1464
  893MPD2    H513095   1.221   0.450   1.616  0.4473 -1.8940 -1.6694
  893MPD2    N113096   1.780   0.534   1.507  0.1028 -0.4024  0.0946
  893MPD2    H713097   1.845   0.543   1.429 -0.5578  1.0139 -0.2933
  894MPD2     C13098   4.505   3.061   0.872  0.0801  0.1399  0.5836
  894MPD2    C113099   4.580   3.051   0.991  0.5973 -0.0874 -0.8084
  894MPD2    C213100   4.687   3.132   1.008 -0.4894  0.3009  0.0403
  894MPD2    C313101   0.008   3.216   0.906  0.0372  0.1996  0.5203
  894MPD2    C413102   4.661   3.224   0.784 -0.2675  0.1635  0.8855
  894MPD2    C513103   4.555   3.142   0.770 -0.2358  0.5514 -0.2398
  894MPD2     H13104   0.006   3.136   1.109  1.6730 -0.4574 -0.7911
  894MPD2    H113105   4.691   3.298   0.710 -1.2714 -1.8626 -1.5389
  894MPD2    H213106   4.417   2.999   0.853 -1.0982  0.4925  4.8528
  894MPD2    H313107   4.509   3.147   0.672  0.8136  3.0526 -0.5995
  894MPD2     N13108   0.093   3.314   0.952  0.1044 -0.3839  0.1215
  894MPD2    H513109   0.133   3.303   1.045  2.2893  0.0834 -0.7536
  894MPD2    N113110   4.547   2.975   1.108  0.4309 -0.4452  0.3063
  894MPD2    H713111   4.620   2.978   1.179  0.1652 -0.5173  0.5839
  895MPD2     C13112   3.964   1.252  13.677  0.8971  0.6862  0.2251
  895MPD2    C113113   3.891   1.136  13.650  0.0131  0.0327  1.0272
  895MPD2    C213114   3.953   1.013  13.620 -0.0416 -0.8355  0.0269
  895MPD2    C313115   4.093   1.009  13.610 -0.2862  0.0563  0.0558
  895MPD2    C413116   4.162   1.120  13.639 -0.1676  0.0281 -0.0996
  895MPD2    C513117   4.102   1.242  13.673  0.6332 -0.6984  0.0022
  895MPD2     H13118   3.884   0.929  13.623 -2.7026  1.2865 -2.3865
  895MPD2    H113119   4.270   1.109  13.648 -0.2765  1.6516  3.3100
  895MPD2    H213120   3.928   1.339  13.731 -1.1788 -0.3056  0.4298
  895MPD2    H313121   4.167   1.322  13.706 -2.2219  1.5732  0.1701
  895MPD2     N13122   4.175   0.903  13.568 -0.0049  0.1408 -0.1458
  895MPD2    H513123   4.274   0.924  13.560  0.0328  0.6132  1.5016
  895MPD2    N113124   3.755   1.123  13.664  0.2408 -0.1975  0.2293
  895MPD2    H713125   3.717   1.031  13.644  0.4683 -0.1224 -0.5486
  896MPD2     C13126   1.478   3.662   1.938 -0.0077 -0.5595  0.4064
  896MPD2    C113127   1.475   3.651   1.805 -0.1764 -0.5130 -1.2711
  896MPD2    C213128   1.350   3.614   1.747  0.0542 -0.1288 -0.6094
  896MPD2    C313129   1.238   3.581   1.831  0.4013 -1.0086  0.1862
  896MPD2    C413130   1.251   3.590   1.967  0.3914  0.6607 -0.5147
  896MPD2    C513131   1.366   3.632   2.018 -0.0229 -0.6045  0.0513
  896MPD2     H13132   1.342   3.600   1.639 -0.9570 -1.1389 -0.4067
  896MPD2    H113133   1.175   3.551   2.034  0.3338 -1.2797 -1.7004
  896MPD2    H213134   1.566   3.701   1.986 -0.3460 -1.5931  1.8411
  896MPD2    H313135   1.380   3.642   2.125  0.8146  1.8734 -0.2925
  896MPD2     N13136   1.126   3.535   1.767  0.8635  0.1853 -0.2385
  896MPD2    H513137   1.131   3.531   1.665  3.0439  2.9645 -0.2444
  896MPD2    N113138   1.592   3.699   1.742  0.0673 -0.0661  0.4264
  896MPD2    H713139   1.664   3.736   1.803  0.1522  1.4026 -0.5687
  897MPD2     C13140   2.647   0.329  10.901  0.5534 -0.2350 -0.3140
  897MPD2    C113141   2.603   0.453  10.857 -0.2579 -0.6788 -0.3848
  897MPD2    C213142   2.482   0.503  10.893 -0.4595  0.4872 -0.1817
  897MPD2    C313143   2.397   0.431  10.970 -0.3794  0.3042  0.8063
  897MPD2    C413144   2.436   0.310  11.016  0.2073  0.9880 -0.1742
  897MPD2    C513145   2.556   0.259  10.976 -0.1372 -0.5044 -0.5764
  897MPD2     H13146   2.440   0.587  10.839  1.1296  0.3009 -1.7028
  897MPD2    H113147   2.369   0.243  11.068  1.9901 -1.5575 -1.1322
  897MPD2    H213148   2.737   0.281  10.866  0.2836 -1.1968  0.3310
  897MPD2    H313149   2.576   0.156  11.003 -0.9063 -0.3182  0.6836
  897MPD2     N13150   2.272   0.491  11.024  0.0239  0.3488 -0.4403
  897MPD2    H513151   2.255   0.587  10.997 -0.2565  0.7626  1.2051
  897MPD2    N113152   2.692   0.526  10.777 -0.3138  0.1159  0.5838
  897MPD2    H713153   2.774   0.477  10.743 -0.9904 -2.1533  2.2501
  898MPD2     C13154   0.692   0.969  17.185 -0.6846  0.7773  1.2756
  898MPD2    C113155   0.673   1.095  17.227 -0.4185 -0.4984 -0.2458
  898MPD2    C213156   0.612   1.190  17.147  0.2549  0.0030  0.2845
  898MPD2    C313157   0.547   1.151  17.029 -0.4400 -1.3148  0.7202
  898MPD2    C413158   0.550   1.019  16.995  0.3287  0.0589 -0.4499
  898MPD2    C513159   0.632   0.933  17.073 -0.0501 -0.7378 -0.9682
  898MPD2     H13160   0.594   1.288  17.191  1.1911 -0.3600  1.4889
  898MPD2    H113161   0.513   0.980  16.901 -1.3529 -1.9387  1.0253
  898MPD2    H213162   0.757   0.897  17.233  1.0168  0.2015 -1.8741
  898MPD2    H313163   0.638   0.829  17.046  1.7562 -0.9349  0.1739
  898MPD2     N13164   0.490   1.244  16.942  0.2531 -0.1012  0.4865
  898MPD2    H513165   0.487   1.337  16.981 -0.5533 -0.2345  0.7425
  898MPD2    N113166   0.742   1.151  17.338  0.4384  0.1710 -0.6348
  898MPD2    H713167   0.738   1.252  17.346  1.4004  0.1275  0.3801
  899MPD2     C13168   1.042   2.082  17.523  0.2653  0.8154 -0.4332
  899MPD2    C113169   0.987   2.188  17.460  0.0888  0.2625  0.4624
  899MPD2    C213170   0.856   2.230  17.482  0.1520 -0.0319 -0.6447
  899MPD2    C313171   0.772   2.155  17.565  0.1495 -0.5986  0.2137
  899MPD2    C413172   0.831   2.049  17.633 -0.3013  0.0333 -0.3580
  899MPD2    C513173   0.964   2.016  17.612  0.0737  0.3353 -0.1178
  899MPD2     H13174   0.818   2.314  17.426 -0.2854 -0.6370 -1.2586
  899MPD2    H113175   0.775   1.983   0.012  1.5307 -0.4099  0.7450
  899MPD2    H213176   1.145   2.052  17.511  0.2207  1.7791 -3.2267
  899MPD2    H313177   1.010   1.929  17.657  0.6176  0.9253  0.4806
  899MPD2     N13178   0.638   2.191  17.607 -0.2912  0.3536  0.1519
  899MPD2    H513179   0.594   2.141  17.683 -0.5980  0.8998  0.3310
  899MPD2    N113180   1.081   2.276  17.390  0.2663  0.3278 -0.0194
  899MPD2    H713181   1.178   2.244  17.387  0.3308  0.6309 -1.1170
  900MPD2     C13182   0.368   4.006  12.821 -0.5422 -0.6900  0.1133
  900MPD2    C113183   0.285   3.907  12.769 -0.2335 -0.3302  0.6879
  900MPD2    C213184   0.150   3.933  12.744  0.9326 -0.5078  0.1738
  900MPD2    C313185   0.104   4.061  12.757  0.1158 -0.3487 -0.3274
  900MPD2    C413186   0.183   4.157  12.805  0.4784 -0.3567  0.1823
  900MPD2    C513187   0.313   4.129  12.838 -0.8788  0.2957  0.1153
  900MPD2     H13188   0.072   3.865  12.711  1.5280 -0.3292 -1.6125
  900MPD2    H113189   0.154   4.259  12.826  2.2406 -0.6561  4.1795
  900MPD2    H213190   0.473   3.992  12.844 -0.1601  1.5747 -0.2546
  900MPD2    H313191   0.383   4.209  12.858 -1.2045  0.7756 -0.6661
  900MPD2     N13192   4.687   4.073  12.724 -0.3910  0.0933  0.8644
  900MPD2    H513193   4.640   3.987  12.699  1.2785 -0.3564 -0.8034
  900MPD2    N113194   0.341   3.776  12.765  0.0953  0.4982 -0.0359
  900MPD2    H713195   0.442   3.772  12.781  0.2108 -0.9316 -1.1339
  901MPD2     C13196   0.542   2.757  12.993  0.4645  0.0153  0.1367
  901MPD2    C113197   0.523   2.748  12.856 -0.2497 -0.5144 -0.0888
  901MPD2    C213198   0.477   2.863  12.795 -0.1183 -0.5021 -0.3706
  901MPD2    C313199   0.437   2.974  12.865 -1.0177 -0.7677 -0.0890
  901MPD2    C413200   0.433   2.964  13.002  1.2592 -0.1827  0.3755
  901MPD2    C513201   0.499   2.860  13.066  0.1192  0.8501 -0.7212
  901MPD2     H13202   0.503   2.883  12.692 -2.1011  1.6043 -0.4623
  901MPD2    H113203   0.395   3.045  13.064  1.9773 -0.1753  0.8052
  901MPD2    H213204   0.591   2.676  13.047 -0.1872 -0.2831  0.2858
  901MPD2    H313205   0.510   2.859  13.174  0.1673  2.3065 -0.7175
  901MPD2     N13206   0.408   3.089  12.791 -0.7051 -0.0298 -0.0077
  901MPD2    H513207   0.414   3.094  12.690  0.3093 -3.1414 -0.1133
  901MPD2    N113208   0.565   2.631  12.793  0.0587 -0.1520  0.6510
  901MPD2    H713209   0.607   2.557  12.850  0.1156  0.5330  1.4955
  902MPD2     C13210   3.500   1.582  13.109  0.1227  0.6056 -0.1752
  902MPD2    C113211   3.619   1.632  13.055 -0.0859  0.3040 -0.4680
  902MPD2    C213212   3.709   1.549  12.999 -0.0327  0.2542  0.3812
  902MPD2    C313213   3.675   1.411  12.989  0.3695  0.2045  0.7070
  902MPD2    C413214   3.562   1.362  13.039  0.2485  0.6751  0.1168
  902MPD2    C513215   3.476   1.446  13.105 -0.1896  0.7708  0.6129
  902MPD2     H13216   3.807   1.581  12.964  0.0913 -1.8941 -1.2821
  902MPD2    H113217   3.535   1.258  13.028 -0.2331  0.8701 -0.5223
  902MPD2    H213218   3.421   1.643  13.150  0.8335 -0.5225  2.8231
  902MPD2    H313219   3.384   1.403  13.143 -1.1273  1.5772 -0.7421
  902MPD2     N13220   3.760   1.320  12.922  0.1244  0.0465  0.1801
  902MPD2    H513221   3.736   1.221  12.924  0.4650 -0.0618 -1.1009
  902MPD2    N113222   3.626   1.769  13.039  0.2977  0.4400 -0.2469
  902MPD2    H713223   3.549   1.824  13.074  0.0010 -1.2421  1.7459
  903MPD2     C13224   3.887   1.473  12.176 -0.5097  0.0201  0.4118
  903MPD2    C113225   3.850   1.358  12.249  0.0077 -0.4266 -1.0509
  903MPD2    C213226   3.728   1.298  12.220  0.4344 -0.1901 -0.5477
  903MPD2    C313227   3.645   1.347  12.119 -0.4358 -0.3630  0.6689
  903MPD2    C413228   3.684   1.457  12.047  0.1285 -0.0249  0.2420
  903MPD2    C513229   3.802   1.519  12.079  0.3097  0.2359  0.5168
  903MPD2     H13230   3.678   1.223  12.280  0.9743  1.4441  1.9150
  903MPD2    H113231   3.626   1.502  11.967  1.6207 -0.7711 -1.2562
  903MPD2    H213232   3.978   1.529  12.193 -0.5996  0.1789  0.3628
  903MPD2    H313233   3.819   1.607  12.018  0.3947 -0.5407 -0.5865
  903MPD2     N13234   3.519   1.285  12.109 -0.4625 -0.1275  0.6320
  903MPD2    H513235   3.501   1.208  12.174  1.5036 -0.4190  0.8272
  903MPD2    N113236   3.938   1.316  12.354 -0.3947 -0.2592  0.2051
  903MPD2    H713237   4.016   1.373  12.383 -0.3124 -0.2811  0.0257
  904MPD2     C13238   3.533   0.646  13.820  0.2475  0.4238  0.7017
  904MPD2    C113239   3.545   0.575  13.935 -0.5480 -0.0576 -1.1170
  904MPD2    C213240   3.670   0.557  13.992 -0.5748 -0.2302 -0.1949
  904MPD2    C313241   3.781   0.613  13.940  0.6274 -0.8652 -0.1002
  904MPD2    C413242   3.778   0.692  13.830 -0.0521  0.5795 -0.4844
  904MPD2    C513243   3.651   0.714  13.775  0.2586  0.6200  0.4269
  904MPD2     H13244   3.676   0.492  14.079 -0.2397 -0.1403 -0.1500
  904MPD2    H113245   3.857   0.748  13.781  0.4069  0.9826  0.7146
  904MPD2    H213246   3.431   0.656  13.785  1.2123 -0.3886 -2.3701
  904MPD2    H313247   3.649   0.779  13.688  1.1840 -1.3589 -1.0736
  904MPD2     N13248   3.902   0.583  14.004 -0.0319  0.3927  0.2718
  904MPD2    H513249   3.891   0.515  14.078 -0.8993  0.2107 -0.0294
  904MPD2    N113250   3.436   0.512  13.996  0.2220 -0.1439 -0.0573
  904MPD2    H713251   3.444   0.442  14.069  0.3489  0.9358  0.9682
  905MPD2     C13252   3.211   0.601  13.407 -0.0402  0.5554  0.1100
  905MPD2    C113253   3.277   0.701  13.477  0.8056  0.2855  0.4077
  905MPD2    C213254   3.410   0.725  13.454  0.6209  0.2788 -0.3294
  905MPD2    C313255   3.473   0.648  13.349  0.1752 -0.1362 -0.1389
  905MPD2    C413256   3.401   0.547  13.284  0.0013 -0.3325  0.2414
  905MPD2    C513257   3.274   0.531  13.300  0.0611  0.0454  0.4115
  905MPD2     H13258   3.463   0.802  13.510  3.8057 -0.7466 -1.9671
  905MPD2    H113259   3.454   0.485  13.212  0.7327 -0.0166  0.5000
  905MPD2    H213260   3.104   0.584  13.413 -0.1340  0.2222 -2.5768
  905MPD2    H313261   3.224   0.457  13.240  2.8156 -2.8052  1.6603
  905MPD2     N13262   3.612   0.644  13.326  0.2782 -0.3115 -0.1052
  905MPD2    H513263   3.648   0.568  13.271  0.3255 -0.6570  0.4045
  905MPD2    N113264   3.207   0.759  13.584  0.2337 -0.2555 -0.4462
  905MPD2    H713265   3.114   0.726  13.606 -1.2041  4.0004 -0.1678
  906MPD2     C13266   1.100   0.869  11.295  0.2316  0.0943  0.5209
  906MPD2    C113267   1.096   0.774  11.197 -0.1742  0.4846 -0.0586
  906MPD2    C213268   1.070   0.636  11.231 -0.3784 -0.0382  0.0213
  906MPD2    C313269   1.055   0.597  11.366  0.2065  0.5382 -0.4251
  906MPD2    C413270   1.089   0.688  11.461  1.1370  0.4741 -0.0178
  906MPD2    C513271   1.115   0.822  11.426 -0.0225 -0.6213 -0.2986
  906MPD2     H13272   1.057   0.567  11.148  1.4621  1.3554 -1.4137
  906MPD2    H113273   1.099   0.666  11.567 -1.2593 -0.9913 -0.0975
  906MPD2    H213274   1.114   0.975  11.277  0.3951  0.0435  0.3439
  906MPD2    H313275   1.132   0.903  11.496 -1.2561  0.1722 -0.9074
  906MPD2     N13276   1.005   0.471  11.408  0.0646  0.5195  0.2978
  906MPD2    H513277   0.982   0.460  11.506  2.5250 -0.9521  0.7255
  906MPD2    N113278   1.089   0.813  11.053 -0.7092  1.1359 -0.2114
  906MPD2    H713279   1.050   0.744  10.989  2.1105  0.7454 -1.4816
  907MPD2     C13280   4.142   4.382  15.115 -0.3842  0.9442  0.4846
  907MPD2    C113281   4.252   4.303  15.099  0.6349 -0.2146  0.0181
  907MPD2    C213282   4.351   4.309  15.197  0.0119 -0.6136  0.5760
  907MPD2    C313283   4.347   4.394  15.313 -0.3704 -0.3204 -0.4385
  907MPD2    C413284   4.225   4.447  15.341  0.1673  0.1468 -0.8075
  907MPD2    C513285   4.132   4.441  15.240 -0.2033 -0.4075 -0.4389
  907MPD2     H13286   4.436   4.242  15.189 -2.1806 -3.2312 -0.5651
  907MPD2    H113287   4.207   4.511  15.427 -0.5881 -0.3633 -0.5829
  907MPD2    H213288   4.066   4.396  15.039 -0.3246 -0.2149  0.2119
  907MPD2    H313289   4.042   4.498  15.262 -0.0915 -0.8603  1.1618
  907MPD2     N13290   4.459   4.393  15.403 -0.3019 -0.1810 -0.3805
  907MPD2    H513291   4.541   4.339  15.377  0.7188  0.1649  2.1147
  907MPD2    N113292   4.276   4.224  14.980  0.0776 -0.3544  0.2602
  907MPD2    H713293   4.369   4.186  14.970  0.4334  0.4754  0.4464
  908MPD2     C13294   2.906   0.394   9.934 -0.2352  0.1879  0.0183
  908MPD2    C113295   2.802   0.356  10.020 -0.4143  0.1766 -0.6687
  908MPD2    C213296   2.802   0.400  10.151  0.3469 -0.6393  0.7595
  908MPD2    C313297   2.905   0.486  10.196  0.2344 -0.2407  0.6141
  908MPD2    C413298   3.015   0.513  10.116 -0.3883  0.5181  0.0329
  908MPD2    C513299   3.018   0.468   9.988 -0.7995  0.1744  0.3244
  908MPD2     H13300   2.710   0.392  10.207 -0.6823  0.8205 -0.7399
  908MPD2    H113301   3.096   0.580  10.139  1.8771 -0.9840 -3.6269
  908MPD2    H213302   2.907   0.363   9.830  1.1117 -1.2904  0.4733
  908MPD2    H313303   3.099   0.487   9.919 -1.4051 -0.2795 -0.4970
  908MPD2     N13304   2.882   0.547  10.322  0.0935 -0.0806 -0.3506
  908MPD2    H513305   2.806   0.511  10.379  0.1689  3.5251  2.0701
  908MPD2    N113306   2.690   0.289   9.971 -0.4248 -0.0000  0.6022
  908MPD2    H713307   2.614   0.275  10.036 -1.9914 -2.1580 -1.6903
  909MPD2     C13308   2.937   3.207  11.954  0.5700  0.2595 -0.6324
  909MPD2    C113309   2.907   3.337  11.913  0.2322  1.0198  0.1165
  909MPD2    C213310   2.803   3.407  11.965  0.5879  1.1923  1.0340
  909MPD2    C313311   2.714   3.347  12.049 -0.4902  0.1227  0.2592
  909MPD2    C413312   2.741   3.216  12.089 -0.0869  0.5295  0.4455
  909MPD2    C513313   2.856   3.153  12.042  0.3338 -0.2562 -0.0431
  909MPD2     H13314   2.771   3.504  11.927 -0.6005  0.6696  0.6681
  909MPD2    H113315   2.669   3.151  12.138 -0.0994 -0.9704 -1.6089
  909MPD2    H213316   3.017   3.149  11.910 -0.0236  0.7730 -2.3851
  909MPD2    H313317   2.873   3.052  12.079  0.7510  0.3132  1.3156
  909MPD2     N13318   2.604   3.424  12.090  0.1877 -0.3284 -0.3702
  909MPD2    H513319   2.616   3.524  12.086 -2.6283  0.1237  2.4285
  909MPD2    N113320   2.967   3.394  11.795 -0.1756 -0.7905  0.3895
  909MPD2    H713321   2.934   3.485  11.764  0.3512 -0.2170  1.5189
  910MPD2     C13322   4.102   0.153  15.761  0.3692 -0.1271 -0.1605
  910MPD2    C113323   4.177   0.053  15.701 -0.1699 -0.0445 -0.6618
  910MPD2    C213324   4.177   0.058  15.568 -0.0030 -0.6031 -0.1736
  910MPD2    C313325   4.111   0.149  15.487 -0.6364  0.2585  0.0497
  910MPD2    C413326   4.026   0.233  15.551  0.1051 -0.2319 -0.3632
  910MPD2    C513327   4.017   0.235  15.689  0.4227  0.2945 -0.5480
  910MPD2     H13328   4.236   4.695  15.533  1.3703  0.2923  0.0024
  910MPD2    H113329   3.961   0.298  15.494 -0.3207  0.3835  0.8113
  910MPD2    H213330   4.110   0.166  15.868  0.2518  1.2359 -0.3139
  910MPD2    H313331   3.963   0.319  15.732 -0.4239 -0.0592 -0.9139
  910MPD2     N13332   4.110   0.145  15.345 -0.6793 -0.4802 -0.2693
  910MPD2    H513333   4.032   0.193  15.302 -1.1517  0.3357  1.5182
  910MPD2    N113334   4.248   4.676  15.768  0.2711  0.1298  0.8461
  910MPD2    H713335   4.310   4.618  15.713 -1.3943 -1.3164  0.5093
  911MPD2     C13336   2.304   1.184  16.721  0.0119 -0.3936  0.3873
  911MPD2    C113337   2.404   1.252  16.789  1.0972  0.1900 -0.0880
  911MPD2    C213338   2.401   1.393  16.794 -0.0133  0.6843 -0.2719
  911MPD2    C313339   2.297   1.460  16.746 -0.4313  0.3426  0.4911
  911MPD2    C413340   2.187   1.388  16.698 -0.0805  0.4555  0.3690
  911MPD2    C513341   2.194   1.254  16.670 -0.8458  0.0697  0.6598
  911MPD2     H13342   2.482   1.447  16.842  0.9356 -1.7049  0.8454
  911MPD2    H113343   2.108   1.454  16.666 -0.4575  0.3091  0.9793
  911MPD2    H213344   2.307   1.076  16.709 -0.5301 -0.4300  0.5745
  911MPD2    H313345   2.109   1.195  16.639 -1.2612  1.4847 -0.8975
  911MPD2     N13346   2.279   1.594  16.763 -0.6391  0.0809 -0.2591
  911MPD2    H513347   2.188   1.627  16.732 -0.7971  1.0769  1.2195
  911MPD2    N113348   2.508   1.172  16.842  0.1752 -1.2576  0.5145
  911MPD2    H713349   2.495   1.072  16.831 -1.2905 -0.5951 -3.8814
  912MPD2     C13350   1.790   1.722  16.472  0.4384 -0.4041  0.5756
  912MPD2    C113351   1.863   1.709  16.591 -0.5946 -0.7129 -0.2993
  912MPD2    C213352   1.860   1.585  16.655 -0.3504 -0.0537 -0.4358
  912MPD2    C313353   1.791   1.482  16.604  0.5756  0.2324  0.1893
  912MPD2    C413354   1.714   1.497  16.487  0.4280  0.2815 -0.3950
  912MPD2    C513355   1.714   1.620  16.430 -0.7108 -0.5062 -0.1958
  912MPD2     H13356   1.922   1.570  16.743 -1.2487  1.6394  0.4967
  912MPD2    H113357   1.644   1.426  16.445  1.1877 -1.2261  0.8770
  912MPD2    H213358   1.785   1.815  16.417 -1.4585  0.1304  1.6798
  912MPD2    H313359   1.648   1.632  16.344  0.1461  1.5866 -0.5736
  912MPD2     N13360   1.803   1.368  16.677 -0.4249 -0.1036  0.4657
  912MPD2    H513361   1.831   1.383  16.773  0.0137  0.0334  0.3154
  912MPD2    N113362   1.933   1.821  16.643  0.4835 -0.7946  0.1609
  912MPD2    H713363   1.929   1.905  16.587 -0.5823 -1.0124 -0.0740
  913MPD2     C13364   2.076   1.791  10.481  0.3890 -0.1011 -0.4425
  913MPD2    C113365   2.132   1.902  10.541 -0.0790 -0.8031  0.5684
  913MPD2    C213366   2.126   2.024  10.465 -0.2724 -0.4722  0.5207
  913MPD2    C313367   2.083   2.033  10.333  0.5100  0.2108 -0.1855
  913MPD2    C413368   2.023   1.924  10.288  0.0577  0.3473 -0.3054
  913MPD2    C513369   2.009   1.811  10.365  0.7043  0.1123  0.1284
  913MPD2     H13370   2.153   2.117  10.514  0.0290 -2.7242  4.5912
  913MPD2    H113371   1.990   1.906  10.186 -0.9316  1.0471 -0.1144
  913MPD2    H213372   2.062   1.692  10.524 -1.0575  0.9914  1.6200
  913MPD2    H313373   1.957   1.722  10.330 -0.7049  0.3427  1.6216
  913MPD2     N13374   2.087   2.145  10.252  0.5414 -0.1785 -0.1417
  913MPD2    H513375   2.025   2.142  10.172 -0.1814  0.9580  0.3692
  913MPD2    N113376   2.165   1.884  10.679 -0.1942  0.0809  0.2296
  913MPD2    H713377   2.153   1.790  10.716 -1.9427  1.1132  2.2927
  914MPD2     C13378   4.687   2.247  12.147 -0.6453  0.5112  0.1063
  914MPD2    C113379   0.018   2.378  12.155  0.2201  0.0431 -0.2668
  914MPD2    C213380   0.136   2.392  12.218 -0.0022  0.4914 -0.8990
  914MPD2    C313381   0.193   2.285  12.281 -0.2671  0.6664  0.5839
  914MPD2    C413382   0.139   2.160  12.277  1.1640 -0.2900 -0.6079
  914MPD2    C513383   0.024   2.139  12.208 -1.2343  0.4639  1.3301
  914MPD2     H13384   0.194   2.482  12.236  0.2417 -0.1155  1.3393
  914MPD2    H113385   0.182   2.084  12.341  1.5578 -0.2557 -0.8290
  914MPD2    H213386   4.602   2.228  12.082 -0.9522 -1.4575  1.0955
  914MPD2    H313387   4.706   2.039  12.194  0.4560 -0.4919  3.3906
  914MPD2     N13388   0.318   2.313  12.347  0.0239 -0.1473 -0.0142
  914MPD2    H513389   0.350   2.409  12.356 -2.7505  0.7088  0.5953
  914MPD2    N113390   4.680   2.486  12.090 -0.2049 -0.0166  0.2284
  914MPD2    H713391   4.605   2.467  12.025  0.4917  1.0746 -0.9123
  915MPD2     C13392   3.650   2.332  15.428  0.2145  0.0227 -0.0342
  915MPD2    C113393   3.546   2.425  15.402  0.0278  0.5187  0.1310
  915MPD2    C213394   3.496   2.498  15.519  0.1365  0.3118  0.8341
  915MPD2    C313395   3.531   2.456  15.649  0.1881  0.5362  0.0199
  915MPD2    C413396   3.619   2.349  15.668 -0.1969 -1.0596 -1.2519
  915MPD2    C513397   3.677   2.292  15.557  0.0832  0.1502  0.3429
  915MPD2     H13398   3.423   2.578  15.513  1.1033  1.2517  1.6140
  915MPD2    H113399   3.641   2.295  15.759 -0.3420  2.1475  0.6930
  915MPD2    H213400   3.711   2.287  15.350  1.3810 -3.2851  2.7235
  915MPD2    H313401   3.750   2.216  15.581 -0.6154 -0.7100 -0.2797
  915MPD2     N13402   3.488   2.532  15.758 -0.5375  0.5395  0.4054
  915MPD2    H513403   3.418   2.605  15.752 -1.9904 -0.9982 -1.4440
  915MPD2    N113404   3.521   2.459  15.267 -0.2518  0.4530 -0.2419
  915MPD2    H713405   3.573   2.406  15.198 -2.3849  0.2551 -1.6933
  916MPD2     C13406   1.171   0.520  15.328 -0.1415  0.1242 -0.4989
  916MPD2    C113407   1.247   0.460  15.425  1.2915 -0.4625 -0.4654
  916MPD2    C213408   1.276   0.325  15.419  0.4231  0.1079 -0.0815
  916MPD2    C313409   1.229   0.252  15.309  0.0333  1.1390  0.5658
  916MPD2    C413410   1.155   0.311  15.213  0.1191  0.4558  0.5450
  916MPD2    C513411   1.128   0.444  15.221  0.4745 -0.1018  0.0412
  916MPD2     H13412   1.316   0.269  15.502  1.0834 -2.0862 -1.8857
  916MPD2    H113413   1.104   0.251  15.139  0.3095  2.2256 -1.0333
  916MPD2    H213414   1.155   0.628  15.334 -1.9054 -0.2714  1.9622
  916MPD2    H313415   1.068   0.491  15.144 -2.4667  0.5714  2.7453
  916MPD2     N13416   1.275   0.119  15.307  0.2898  0.5636 -0.4733
  916MPD2    H513417   1.334   0.092  15.385 -2.4292  0.6704  1.6267
  916MPD2    N113418   1.283   0.538  15.539  0.1443 -0.1044 -0.7588
  916MPD2    H713419   1.253   0.635  15.540 -0.0444 -0.1580 -1.1231
  917MPD2     C13420   1.398   2.850  10.828 -0.4435  0.8214 -0.1049
  917MPD2    C113421   1.473   2.913  10.925  0.1714  0.0642  0.2932
  917MPD2    C213422   1.577   2.994  10.886  0.3421 -0.0857 -0.5670
  917MPD2    C313423   1.586   3.026  10.751  0.1674  0.3691 -0.0601
  917MPD2    C413424   1.492   2.979  10.655 -0.0871  0.3863  0.0285
  917MPD2    C513425   1.397   2.889  10.699 -0.0114  0.2362 -0.2575
  917MPD2     H13426   1.649   3.039  10.953 -0.1188  0.0963 -0.1925
  917MPD2    H113427   1.490   3.022  10.556  0.9648 -0.6474 -0.4487
  917MPD2    H213428   1.316   2.783  10.851  0.3429 -0.0850  0.0864
  917MPD2    H313429   1.323   2.853  10.629  1.1210 -0.9461 -0.8458
  917MPD2     N13430   1.686   3.111  10.700 -0.3116 -0.1379  0.1794
  917MPD2    H513431   1.671   3.146  10.607  0.2030 -0.5133 -0.0462
  917MPD2    N113432   1.450   2.876  11.062 -0.1031 -0.3266 -0.7490
  917MPD2    H713433   1.363   2.824  11.070 -0.5218  0.8798  2.3237
  918MPD2     C13434   1.633   3.426  11.939 -0.8102  0.5013  0.7132
  918MPD2    C113435   1.717   3.330  11.887  0.1777  0.3991 -0.2850
  918MPD2    C213436   1.679   3.265  11.771  0.1416 -1.1467  0.7649
  918MPD2    C313437   1.555   3.279  11.720  0.5777 -0.6546  0.2886
  918MPD2    C413438   1.464   3.362  11.785  0.1712 -0.0014 -0.5277
  918MPD2    C513439   1.508   3.441  11.889 -0.2456 -1.1528  1.0830
  918MPD2     H13440   1.734   3.190  11.715  0.6513  1.1322 -1.7425
  918MPD2    H113441   1.369   3.391  11.741  0.4963 -0.4268 -1.5158
  918MPD2    H213442   1.661   3.482  12.028 -0.1510  0.4516  0.5368
  918MPD2    H313443   1.431   3.497  11.941  1.3331  2.9781 -1.1288
  918MPD2     N13444   1.528   3.186  11.617 -0.4076  0.2386 -0.4138
  918MPD2    H513445   1.612   3.134  11.591 -0.1252  1.0017 -1.0126
  918MPD2    N113446   1.835   3.286  11.943 -0.1518  0.0077  0.1809
  918MPD2    H713447   1.887   3.210  11.901 -2.3532 -1.3824 -0.0442
  919MPD2     C13448   2.255   2.414  11.539 -0.4547  0.2608  0.4592
  919MPD2    C113449   2.146   2.333  11.562 -0.6296  0.0717  0.0891
  919MPD2    C213450   2.074   2.283  11.454  0.1506  0.5158  0.4863
  919MPD2    C313451   2.115   2.303  11.324  0.3076  0.9048 -0.4438
  919MPD2    C413452   2.219   2.385  11.303  0.1517 -0.3205 -0.5696
  919MPD2    C513453   2.294   2.438  11.407  0.3667 -0.1648  0.0033
  919MPD2     H13454   1.991   2.218  11.477  2.0104 -1.0722  2.6246
  919MPD2    H113455   2.258   2.391  11.202  1.6621  0.1029  0.0300
  919MPD2    H213456   2.316   2.449  11.622  0.6178  0.8053 -0.5733
  919MPD2    H313457   2.383   2.492  11.379 -0.6652  0.9303 -1.1872
  919MPD2     N13458   2.066   2.232  11.213  0.0266 -0.2807  0.0965
  919MPD2    H513459   2.120   2.237  11.128 -0.5681  1.5168 -0.1848
  919MPD2    N113460   2.118   2.296  11.698  0.2188 -0.7718 -0.2789
  919MPD2    H713461   2.187   2.327  11.766 -0.8580 -0.3607  0.6344
  920MPD2     C13462   1.876   2.528  10.305  0.6246 -0.0432 -0.0648
  920MPD2    C113463   1.791   2.420  10.311  0.3863  0.5753  0.2674
  920MPD2    C213464   1.809   2.328  10.421 -0.6040  0.2052 -0.4543
  920MPD2    C313465   1.899   2.348  10.523 -0.0892  0.6399  0.7142
  920MPD2    C413466   1.988   2.451  10.504  1.0057 -0.4252  0.3612
  920MPD2    C513467   1.973   2.535  10.401 -0.3971  0.6707  0.1905
  920MPD2     H13468   1.742   2.247  10.445  1.4053 -1.5527 -0.7456
  920MPD2    H113469   2.074   2.470  10.568  0.2626 -0.8107  1.4880
  920MPD2    H213470   1.877   2.590  10.217  2.5692 -0.6985 -0.4946
  920MPD2    H313471   2.054   2.606  10.386 -0.6656  1.3816  2.0163
  920MPD2     N13472   1.892   2.265  10.637 -0.4203  0.1063 -0.4535
  920MPD2    H513473   1.822   2.193  10.645 -0.0094 -0.2054  0.3280
  920MPD2    N113474   1.687   2.401  10.211  0.0308 -0.0430 -0.4767
  920MPD2    H713475   1.643   2.311  10.228 -1.4705  0.5746 -1.0654
  921MPD2     C13476   3.497   1.372  17.024  0.4085 -0.7473 -0.6954
  921MPD2    C113477   3.444   1.307  16.916 -0.8264 -0.2520 -0.3278
  921MPD2    C213478   3.322   1.244  16.929  0.1694 -0.0598 -0.0657
  921MPD2    C313479   3.243   1.251  17.039  0.0492  0.1098 -0.9528
  921MPD2    C413480   3.290   1.326  17.142 -0.2241  0.5189  0.4145
  921MPD2    C513481   3.415   1.384  17.134 -0.0786  0.3141 -0.5817
  921MPD2     H13482   3.275   1.209  16.838  0.8188 -0.2424 -0.3335
  921MPD2    H113483   3.247   1.328  17.242 -2.5051 -2.9019 -0.4889
  921MPD2    H213484   3.593   1.423  17.022  0.9158 -1.7116 -0.8804
  921MPD2    H313485   3.463   1.418  17.225 -0.9539  0.9115 -0.3461
  921MPD2     N13486   3.112   1.189  17.047 -0.2618  0.0996 -0.2980
  921MPD2    H513487   3.059   1.215  17.129 -0.7765  1.2381 -0.9863
  921MPD2    N113488   3.517   1.287  16.797  0.4292  0.8063 -0.1312
  921MPD2    H713489   3.614   1.318  16.807  0.2459  1.1272  0.6712
  922MPD2     C13490   4.230   3.058  17.560  0.3471  0.4454  0.1360
  922MPD2    C113491   4.236   3.117  17.438  1.4122 -0.2132 -0.4533
  922MPD2    C213492   4.117   3.172  17.401 -0.3724 -0.0039 -0.3383
  922MPD2    C313493   4.004   3.165  17.480 -0.6779  1.0844  0.6988
  922MPD2    C413494   4.003   3.099  17.596 -0.0163  0.6791  0.2010
  922MPD2    C513495   4.117   3.047  17.640 -0.3188 -0.3381 -0.7616
  922MPD2     H13496   4.112   3.231  17.310  4.7134 -1.9332 -1.8681
  922MPD2    H113497   3.913   3.080  17.654 -0.3128 -1.4938 -0.9854
  922MPD2    H213498   4.316   3.004  17.598 -1.1521 -0.8980  1.5790
  922MPD2    H313499   4.121   2.995   0.048  4.0165 -1.2182 -1.4048
  922MPD2     N13500   3.891   3.229  17.429 -0.0117  0.6214 -0.7503
  922MPD2    H513501   3.879   3.258  17.333  1.2419 -0.0443 -1.1066
  922MPD2    N113502   4.359   3.135  17.364  0.0761  0.4704  0.2084
  922MPD2    H713503   4.350   3.168  17.268  0.6604  0.9011  0.3012
  923MPD2     C13504   0.302   1.123   8.851  0.8419  0.0817 -0.4196
  923MPD2    C113505   0.320   1.182   8.978 -0.4080 -0.1120 -0.1327
  923MPD2    C213506   0.397   1.118   9.074 -0.0625 -0.0340  0.3218
  923MPD2    C313507   0.474   1.008   9.038  0.0613  0.3092  0.5060
  923MPD2    C413508   0.471   0.960   8.909  0.4488  0.6084  0.6476
  923MPD2    C513509   0.376   1.009   8.819  0.2541 -0.0333 -0.3973
  923MPD2     H13510   0.419   1.176   9.163 -0.8652  2.5259 -1.1839
  923MPD2    H113511   0.517   0.866   8.881  0.2501  0.6455  0.2114
  923MPD2    H213512   0.229   1.172   8.787 -0.0673 -2.5999 -1.4626
  923MPD2    H313513   0.355   0.970   8.720  0.8969 -0.2374 -0.4507
  923MPD2     N13514   0.572   0.949   9.131  0.4077  0.6260  0.2590
  923MPD2    H513515   0.637   0.888   9.082  0.6217  0.4421  0.7795
  923MPD2    N113516   0.234   1.291   9.016 -0.2653  0.6631  0.2708
  923MPD2    H713517   0.178   1.322   8.937  1.3237  0.5044 -0.9122
  924MPD2     C13518   0.327   3.765  15.449  0.1177  0.3065 -0.3014
  924MPD2    C113519   0.335   3.820  15.578  1.0205 -0.5502  0.2373
  924MPD2    C213520   0.276   3.943  15.590 -0.0445 -0.4293  0.0106
  924MPD2    C313521   0.214   4.001  15.488  0.0125  0.4548  0.4936
  924MPD2    C413522   0.226   3.956  15.361  0.4462 -0.6650  0.2863
  924MPD2    C513523   0.274   3.827  15.342  0.2622  0.0896  0.6423
  924MPD2     H13524   0.264   3.990  15.687  1.5193 -2.9589  1.4358
  924MPD2    H113525   0.182   4.001  15.272  0.7444  0.3580  0.6612
  924MPD2    H213526   0.369   3.666  15.437  0.6409  0.3100  1.5706
  924MPD2    H313527   0.293   3.784  15.244  0.4959  1.1623  0.2158
  924MPD2     N13528   0.157   4.132  15.498  0.3221 -0.3413 -0.2504
  924MPD2    H513529   0.106   4.165  15.416 -0.5943  1.3735  1.0233
  924MPD2    N113530   0.379   3.742  15.687 -0.0488 -0.4873 -0.3984
  924MPD2    H713531   0.410   3.649  15.663  1.5695 -0.3754  1.3025
  925MPD2     C13532   3.875   1.239  15.027 -0.5315  0.0088  0.1373
  925MPD2    C113533   3.884   1.379  15.028 -0.9065  0.8365  0.3967
  925MPD2    C213534   3.909   1.445  15.146 -0.8318 -0.1012  0.9289
  925MPD2    C313535   3.932   1.371  15.258 -0.5618  0.0135 -0.2810
  925MPD2    C413536   3.935   1.234  15.257  0.2875  0.1671  0.0707
  925MPD2    C513537   3.899   1.168  15.140 -0.4086  0.1938  0.6661
  925MPD2     H13538   3.916   1.553  15.145 -0.0536 -0.1561  0.3875
  925MPD2    H113539   3.967   1.180  15.345  0.0997 -0.5549 -0.3121
  925MPD2    H213540   3.840   1.178  14.945  1.0476 -2.2709  1.1665
  925MPD2    H313541   3.910   1.060  15.129 -0.7806  0.2562 -0.3789
  925MPD2     N13542   3.955   1.429  15.385 -0.0767 -0.2337 -0.5137
  925MPD2    H513543   3.974   1.369  15.465  0.9393  4.1744  2.5843
  925MPD2    N113544   3.846   1.447  14.910  0.2571  0.1905  0.5595
  925MPD2    H713545   3.786   1.399  14.843 -0.6858  0.6628  1.0689
  926MPD2     C13546   1.929   0.089  13.447  0.0841 -0.8096 -0.0833
  926MPD2    C113547   1.946   0.224  13.448 -0.4276 -0.0350  0.6818
  926MPD2    C213548   1.990   0.285  13.338  0.4800 -0.5661  0.6302
  926MPD2    C313549   2.025   0.210  13.226  0.4679  0.0115 -0.2697
  926MPD2    C413550   1.999   0.079  13.224 -0.5154  0.0299 -0.4955
  926MPD2    C513551   1.949   0.021  13.333 -0.6042 -0.4315  0.1987
  926MPD2     H13552   1.998   0.393  13.343  1.7537 -0.7000  1.3135
  926MPD2    H113553   2.033   0.026  13.136 -1.5803  0.7519 -1.3533
  926MPD2    H213554   1.885   0.025  13.523  0.9927 -2.0919 -0.6434
  926MPD2    H313555   1.939   4.634  13.331 -1.8192 -0.3113 -0.2488
  926MPD2     N13556   2.076   0.268  13.113 -0.0689 -0.2872  0.0671
  926MPD2    H513557   2.104   0.203  13.040 -0.3043  0.0683 -0.3396
  926MPD2    N113558   1.930   0.302  13.564  0.3727 -0.1089 -0.2117
  926MPD2    H713559   1.948   0.400  13.546  0.9091 -0.1295  0.2054
  927MPD2     C13560   3.228   1.894   0.830  0.0500  0.6034  0.3396
  927MPD2    C113561   3.264   2.019   0.788  0.3208  0.0380 -0.6142
  927MPD2    C213562   3.296   2.038   0.654 -0.0546 -0.1966 -0.1143
  927MPD2    C313563   3.280   1.928   0.563  0.6097 -0.6292 -0.0639
  927MPD2    C413564   3.255   1.800   0.609  0.1381 -0.4927 -0.7983
  927MPD2    C513565   3.239   1.782   0.743 -0.2590 -0.4871  0.4262
  927MPD2     H13566   3.324   2.136   0.616 -0.3661 -1.0039 -2.4506
  927MPD2    H113567   3.258   1.714   0.542  1.6837 -0.4763 -0.7390
  927MPD2    H213568   3.214   1.880   0.937 -1.3954  0.7373  0.1679
  927MPD2    H313569   3.240   1.682   0.786  1.5336  0.5984  2.8848
  927MPD2     N13570   3.293   1.954   0.425 -0.0662 -0.4957 -0.5883
  927MPD2    H513571   3.308   2.052   0.404 -1.1414  0.0776  1.3949
  927MPD2    N113572   3.267   2.118   0.888  0.0572 -0.3192 -0.1867
  927MPD2    H713573   3.223   2.095   0.977 -1.4349  1.6700 -0.3917
  928MPD2     C13574   1.062   0.564   1.166  0.1550 -0.7457  0.1695
  928MPD2    C113575   1.167   0.650   1.173 -0.2046  0.1141  0.5416
  928MPD2    C213576   1.217   0.696   1.059 -0.3916 -0.4686 -0.0145
  928MPD2    C313577   1.178   0.648   0.935 -0.5093  0.5053  0.3972
  928MPD2    C413578   1.081   0.548   0.924 -0.0497 -0.5776  0.6821
  928MPD2    C513579   1.024   0.515   1.045  0.1337 -0.3260  0.1758
  928MPD2     H13580   1.280   0.784   1.064 -1.6312  0.3922  0.2255
  928MPD2    H113581   1.032   0.521   0.831  2.1083  0.5083 -0.7805
  928MPD2    H213582   1.008   0.529   1.253  0.3252  2.4885  1.5519
  928MPD2    H313583   0.940   0.446   1.045  0.2206 -0.4142  1.5658
  928MPD2     N13584   1.233   0.706   0.819  0.0483  0.0327  0.2402
  928MPD2    H513585   1.196   0.671   0.732  0.1051 -2.2609  1.1373
  928MPD2    N113586   1.201   0.694   1.300 -0.8295  0.2744  0.5163
  928MPD2    H713587   1.145   0.658   1.376  1.3094 -0.3900  1.7881
  929MPD2     C13588   0.648   0.930  10.569 -0.0826 -0.3595 -0.0893
  929MPD2    C113589   0.562   0.839  10.518  0.4082 -0.0178  0.4785
  929MPD2    C213590   0.511   0.848  10.388 -0.6856 -0.5275  0.4257
  929MPD2    C313591   0.557   0.951  10.301 -0.2657 -0.6017  0.3075
  929MPD2    C413592   0.635   1.044  10.358 -1.0318  0.9685  0.0903
  929MPD2    C513593   0.684   1.033  10.486  0.2296 -0.0586  0.1958
  929MPD2     H13594   0.454   0.763  10.354  0.8404 -0.5896 -2.0302
  929MPD2    H113595   0.665   1.131  10.300 -3.6599  1.4272 -0.6080
  929MPD2    H213596   0.694   0.914  10.665  0.3008  1.7089  0.0783
  929MPD2    H313597   0.754   1.109  10.520  2.9665 -1.4870 -2.1686
  929MPD2     N13598   0.501   0.978  10.178  0.7323 -0.2162 -0.9587
  929MPD2    H513599   0.540   1.061  10.135 -0.9981 -0.3207 -2.6828
  929MPD2    N113600   0.535   0.719  10.585 -0.6286 -0.3864  0.1514
  929MPD2    H713601   0.573   0.714  10.679 -2.5037 -0.8391  0.8924
  930MPD2     C13602   2.055   3.102  14.301  0.7794 -0.5413  0.0863
  930MPD2    C113603   2.026   3.117  14.169 -0.0447  0.5736  0.3550
  930MPD2    C213604   1.962   3.005  14.108  0.0368 -0.9810 -0.6911
  930MPD2    C313605   1.942   2.888  14.177  0.0725 -0.0085  0.0718
  930MPD2    C413606   1.977   2.874  14.307 -0.7952  0.2576  0.0736
  930MPD2    C513607   2.027   2.986  14.372 -0.0931  0.1372 -0.3449
  930MPD2     H13608   1.933   3.013  14.003  2.9110 -3.4965 -1.6673
  930MPD2    H113609   1.951   2.782  14.358  0.0861  0.1161  0.2814
  930MPD2    H213610   2.106   3.180  14.357 -1.2764  0.5578  0.4269
  930MPD2    H313611   2.063   2.974  14.473 -2.0058 -1.8179  0.1043
  930MPD2     N13612   1.889   2.767  14.124 -0.1951 -0.3269  0.0589
  930MPD2    H513613   1.927   2.681  14.162 -0.8068 -0.5056  0.2508
  930MPD2    N113614   2.078   3.230  14.110  0.5671 -0.0213 -0.4124
  930MPD2    H713615   2.148   3.284  14.158  0.7224 -0.7430  0.1670
  931MPD2     C13616   3.376   2.137   1.528  0.1475  0.5828 -0.6170
  931MPD2    C113617   3.259   2.198   1.483  0.5407  0.1130  0.4972
  931MPD2    C213618   3.145   2.186   1.555 -0.3260  0.2950  0.1534
  931MPD2    C313619   3.141   2.093   1.657  0.1812  0.6660  0.4962
  931MPD2    C413620   3.252   2.026   1.699 -0.3134  0.0567 -0.0199
  931MPD2    C513621   3.375   2.054   1.640  0.1811 -0.6726 -0.0051
  931MPD2     H13622   3.054   2.219   1.506  0.2789  1.4850 -0.1598
  931MPD2    H113623   3.248   1.955   1.781 -1.3320 -0.7200 -0.7371
  931MPD2    H213624   3.471   2.142   1.476 -0.2690  0.2739 -1.4191
  931MPD2    H313625   3.470   2.013   1.674  0.4637 -0.9754 -1.1561
  931MPD2     N13626   3.012   2.071   1.716 -0.0386 -0.3625 -0.0535
  931MPD2    H513627   3.008   1.988   1.773 -1.0317 -0.4201 -0.2143
  931MPD2    N113628   3.255   2.271   1.367 -0.4165  0.3527  0.1297
  931MPD2    H713629   3.338   2.254   1.311 -0.8757 -0.1723 -0.4002
  932MPD2     C13630   3.404   1.135  11.279  0.5117  0.6578 -1.0865
  932MPD2    C113631   3.437   1.209  11.388 -0.1813 -0.2681 -0.3079
  932MPD2    C213632   3.406   1.157  11.513  0.3100  0.2443  0.8343
  932MPD2    C313633   3.335   1.040  11.524 -0.4114 -0.1658 -0.6267
  932MPD2    C413634   3.302   0.962  11.414 -0.4292  0.2966  0.0507
  932MPD2    C513635   3.338   1.020  11.286 -0.0220  0.8125  0.3558
  932MPD2     H13636   3.430   1.230  11.589 -1.1825  3.7980 -2.0943
  932MPD2    H113637   3.242   0.871  11.412  0.2005 -0.1348  0.5698
  932MPD2    H213638   3.424   1.163  11.177 -0.0153  1.5250 -0.9492
  932MPD2    H313639   3.300   0.968  11.199  0.2408  4.1864 -1.7598
  932MPD2     N13640   3.294   0.987  11.647 -0.1842 -0.1044 -0.0403
  932MPD2    H513641   3.219   0.919  11.637 -1.3051  1.1302 -0.1000
  932MPD2    N113642   3.528   1.320  11.387 -0.0332  0.0648 -0.4643
  932MPD2    H713643   3.560   1.352  11.478  0.9504 -1.7553 -0.1847
  933MPD2     C13644   1.045   0.685   2.090 -0.0287 -0.3054 -0.6179
  933MPD2    C113645   1.027   0.716   1.960  0.2539  0.4305 -0.4408
  933MPD2    C213646   0.902   0.676   1.902 -0.8610  0.3431  0.1539
  933MPD2    C313647   0.801   0.626   1.982 -0.4342 -0.9015 -0.5102
  933MPD2    C413648   0.820   0.604   2.115 -0.3659  0.6104  0.1143
  933MPD2    C513649   0.937   0.656   2.167 -0.5223  0.7745  0.1669
  933MPD2     H13650   0.893   0.688   1.795  1.1870  0.0765 -0.0555
  933MPD2    H113651   0.740   0.570   2.180 -0.7682 -2.4818 -2.0279
  933MPD2    H213652   1.139   0.703   2.140  0.0911 -2.6699  0.0103
  933MPD2    H313653   0.966   0.630   2.268  1.1985  0.5882 -0.3727
  933MPD2     N13654   0.687   0.586   1.914  0.8063  0.5568 -0.4216
  933MPD2    H513655   0.694   0.591   1.813 -0.8364  2.4859 -0.4452
  933MPD2    N113656   1.133   0.771   1.886 -0.2650  0.5024 -0.1013
  933MPD2    H713657   1.208   0.800   1.947  0.2054  0.6237 -0.7456
  934MPD2     C13658   1.210   3.282   2.151 -0.5599 -0.3934  0.1161
  934MPD2    C113659   1.277   3.229   2.043  0.5489  0.5401 -0.0937
  934MPD2    C213660   1.208   3.164   1.942 -0.1336 -0.0981 -0.8840
  934MPD2    C313661   1.065   3.158   1.958  0.5691 -0.1031  0.3837
  934MPD2    C413662   0.999   3.209   2.072 -0.7994 -0.4626 -0.6301
  934MPD2    C513663   1.073   3.289   2.162 -0.5950  0.1371  0.0619
  934MPD2     H13664   1.267   3.123   1.861 -0.7722  0.8305 -1.8162
  934MPD2    H113665   0.890   3.204   2.070 -0.7845 -1.1691  0.2336
  934MPD2    H213666   1.267   3.342   2.220 -3.0705 -0.9369  2.6382
  934MPD2    H313667   1.032   3.337   2.250  1.6869  0.7657  0.7620
  934MPD2     N13668   0.977   3.101   1.859 -0.3166  0.6251  0.1204
  934MPD2    H513669   0.879   3.108   1.882 -0.1275  0.4949  0.9525
  934MPD2    N113670   1.411   3.253   2.026 -0.7291  1.0990 -0.3231
  934MPD2    H713671   1.452   3.239   1.934  0.8481  0.0106  0.5574
  935MPD2     C13672   1.216   2.333   1.286  0.0377 -0.0658 -0.3992
  935MPD2    C113673   1.112   2.393   1.223 -0.5690 -0.0213  1.2554
  935MPD2    C213674   1.036   2.486   1.289 -0.7214  0.5357 -0.1325
  935MPD2    C313675   1.060   2.512   1.424 -0.1822  0.4804 -0.0804
  935MPD2    C413676   1.157   2.445   1.487  0.1020 -0.0979  0.1565
  935MPD2    C513677   1.237   2.356   1.420  0.5065  0.1365  0.6312
  935MPD2     H13678   0.965   2.552   1.240  1.4624  1.4418 -2.0731
  935MPD2    H113679   1.160   2.449   1.595  3.5570  0.9526  0.0198
  935MPD2    H213680   1.264   2.241   1.253  0.7495  0.7183 -1.5395
  935MPD2    H313681   1.310   2.301   1.479 -0.2439  0.0007  1.4400
  935MPD2     N13682   0.990   2.605   1.502  0.2191  0.0184  0.4513
  935MPD2    H513683   1.035   2.624   1.591 -0.3039  0.6335  0.5916
  935MPD2    N113684   1.097   2.384   1.079 -0.5889  0.3463  0.3826
  935MPD2    H713685   1.023   2.439   1.035 -1.8247 -0.1936  1.7631
  936MPD2     C13686   4.393   0.174  12.182  0.3250  0.2684  0.4890
  936MPD2    C113687   4.329   0.299  12.207  0.0878 -0.3273 -0.6405
  936MPD2    C213688   4.311   0.387  12.101 -0.2561 -0.3831  0.3153
  936MPD2    C313689   4.373   0.368  11.980 -0.1246 -0.0413  0.0933
  936MPD2    C413690   4.445   0.252  11.958  0.7139  0.1980 -0.3238
  936MPD2    C513691   4.451   0.147  12.058  0.7036  0.0514  0.2229
  936MPD2     H13692   4.241   0.469  12.113  0.9805  0.3521  2.4454
  936MPD2    H113693   4.485   0.226  11.861 -2.1367 -1.1454 -1.1337
  936MPD2    H213694   4.405   0.109  12.268  1.1371  0.0547  0.2190
  936MPD2    H313695   4.496   0.052  12.033  1.9559  0.0291  2.5634
  936MPD2     N13696   4.374   0.479  11.894  0.4757 -0.2250  0.0058
  936MPD2    H513697   4.313   0.559  11.909  1.5638  0.3076  1.6604
  936MPD2    N113698   4.273   0.331  12.331 -0.3640  0.0356  1.1596
  936MPD2    H713699   4.223   0.419  12.326  0.5832  0.4171 -2.2371
  937MPD2     C13700   2.186   1.631  11.682  0.1827  0.4077 -0.1879
  937MPD2    C113701   2.279   1.720  11.725  0.1946 -0.4131 -0.2811
  937MPD2    C213702   2.383   1.748  11.641  0.5422  0.1456 -0.4167
  937MPD2    C313703   2.408   1.679  11.525 -0.3212  0.3839  0.0529
  937MPD2    C413704   2.318   1.582  11.486 -0.2429  0.4325  0.0099
  937MPD2    C513705   2.211   1.563  11.566  0.1574  0.4528  0.8851
  937MPD2     H13706   2.437   1.838  11.668  0.5772 -0.4923  1.6882
  937MPD2    H113707   2.321   1.540  11.386 -2.1493  0.7910 -0.1875
  937MPD2    H213708   2.095   1.626  11.741 -0.9328 -0.8934 -2.0126
  937MPD2    H313709   2.122   1.508  11.538 -0.2809  0.4424  2.2903
  937MPD2     N13710   2.517   1.722  11.452  0.3933 -0.0568  0.6626
  937MPD2    H513711   2.586   1.782  11.496  0.8930 -0.4874  0.4719
  937MPD2    N113712   2.238   1.823  11.818  0.9594  0.2905 -0.3513
  937MPD2    H713713   2.298   1.904  11.827  2.3482 -0.6224 -1.3941
  938MPD2     C13714   4.656   2.751   0.859 -0.2488  0.0436 -0.1573
  938MPD2    C113715   0.068   2.749   0.894  0.2630  0.5700 -0.0888
  938MPD2    C213716   0.107   2.662   0.998 -0.1148 -0.6573 -0.3407
  938MPD2    C313717   0.017   2.573   1.054 -0.2757 -0.0844 -0.1728
  938MPD2    C413718   4.612   2.580   1.013 -0.0657 -0.0508 -0.9611
  938MPD2    C513719   4.569   2.666   0.918  0.5654 -0.3894  0.6129
  938MPD2     H13720   0.210   2.667   1.031  0.0967  0.3540 -1.1547
  938MPD2    H113721   4.536   2.517   1.058 -1.0064  0.8291 -1.3230
  938MPD2    H213722   4.620   2.819   0.783  0.7861 -0.2455 -0.9079
  938MPD2    H313723   4.473   2.663   0.868  1.0071 -0.0504 -0.2485
  938MPD2     N13724   0.044   2.473   1.148 -0.0412 -0.6224  0.3891
  938MPD2    H513725   4.692   2.411   1.180 -0.2858 -1.9165 -2.6540
  938MPD2    N113726   0.172   2.841   0.838  0.2577 -0.2830 -0.4071
  938MPD2    H713727   0.261   2.837   0.887  0.8208  3.0984 -1.1010
  939MPD2     C13728   1.490   3.527   0.858  0.2419  0.0267  0.1124
  939MPD2    C113729   1.425   3.647   0.844  0.6556  0.0528  0.4909
  939MPD2    C213730   1.491   3.746   0.771 -0.2048 -0.5846 -0.1806
  939MPD2    C313731   1.616   3.721   0.701 -0.2214  0.0797 -0.0275
  939MPD2    C413732   1.666   3.594   0.720  0.4619  0.3601 -0.5953
  939MPD2    C513733   1.610   3.505   0.806  0.6053 -0.3868 -0.2767
  939MPD2     H13734   1.456   3.848   0.758 -0.9194 -0.6317  1.3426
  939MPD2    H113735   1.751   3.555   0.667  0.4394  0.4264 -0.6807
  939MPD2    H213736   1.439   3.453   0.918  0.2723 -0.7360 -0.8156
  939MPD2    H313737   1.660   3.410   0.826  1.1233 -0.0853 -0.1386
  939MPD2     N13738   1.667   3.818   0.610 -0.1861  0.2894  0.2916
  939MPD2    H513739   1.614   3.904   0.601 -1.5127 -0.5970 -0.4431
  939MPD2    N113740   1.309   3.673   0.919 -0.2136  0.3862  0.2746
  939MPD2    H713741   1.271   3.603   0.982 -0.7186  0.6877  0.2998
  940MPD2     C13742   0.087   4.599  13.570 -0.8683 -0.5220  0.5176
  940MPD2    C113743   0.216   4.640  13.596  0.4702  0.6412 -0.1881
  940MPD2    C213744   0.300   4.679  13.490  0.3883  0.4215 -0.1499
  940MPD2    C313745   0.248   4.693  13.364 -0.0705 -0.2931 -0.5055
  940MPD2    C413746   0.122   4.651  13.339  0.2243 -0.3038  0.5364
  940MPD2    C513747   0.042   4.610  13.444 -0.2477 -0.0575  1.0176
  940MPD2     H13748   0.394   0.005  13.514  1.5254 -1.4891 -0.9226
  940MPD2    H113749   0.090   4.665  13.237  0.3068  0.2734  0.5898
  940MPD2    H213750   0.008   4.585  13.643 -2.7010  2.0860 -0.9598
  940MPD2    H313751   4.661   4.582  13.418 -0.4395  1.1499  0.5065
  940MPD2     N13752   0.321   0.023  13.249  0.2160  0.5252  0.3725
  940MPD2    H513753   0.274   0.026  13.159  0.6728  0.9663  0.1469
  940MPD2    N113754   0.278   4.636  13.718  0.0362 -0.5142 -0.2523
  940MPD2    H713755   0.369   4.674  13.743 -0.9310  0.9364  1.0145
  941MPD2     C13756   4.000   4.003   9.535 -0.2677  0.3713  0.3390
  941MPD2    C113757   4.090   3.897   9.554 -0.2120  0.5844  0.4065
  941MPD2    C213758   4.064   3.795   9.644 -0.3858 -0.7042  0.1425
  941MPD2    C313759   3.942   3.784   9.707 -0.5921  0.1695 -0.0204
  941MPD2    C413760   3.854   3.885   9.694  0.1943  0.7761 -0.4223
  941MPD2    C513761   3.884   3.994   9.610 -0.3427  0.0376 -1.0916
  941MPD2     H13762   4.137   3.716   9.660 -0.0880 -0.2682  0.9559
  941MPD2    H113763   3.763   3.875   9.752 -0.3425 -1.2777 -1.6178
  941MPD2    H213764   4.014   4.091   9.473  0.1259  1.7128  2.3083
  941MPD2    H313765   3.819   4.081   9.606  0.6514  0.8495  0.5705
  941MPD2     N13766   3.903   3.677   9.793 -0.4048  0.7688 -0.2609
  941MPD2    H513767   3.815   3.689   9.842 -0.8011 -1.5772 -0.4161
  941MPD2    N113768   4.223   3.911   9.498 -0.3474 -0.1352  0.2587
  941MPD2    H713769   4.289   3.835   9.496  0.6096  0.7513 -1.7285
  942MPD2     C13770   4.419   1.378   8.943 -0.7237 -0.3789  0.2196
  942MPD2    C113771   4.429   1.343   9.079  0.4350  0.3530  0.6944
  942MPD2    C213772   4.527   1.258   9.117  0.3325 -0.0821 -0.5146
  942MPD2    C313773   4.605   1.192   9.025  0.2485 -0.3371 -0.3748
  942MPD2    C413774   4.598   1.228   8.893  0.4877  0.5191  0.1403
  942MPD2    C513775   4.510   1.330   8.859 -0.1590 -0.5910  0.1534
  942MPD2     H13776   4.536   1.238   9.223  0.9722  2.2719 -0.1340
  942MPD2    H113777   4.668   1.183   8.824  0.9561  0.6293  0.5426
  942MPD2    H213778   4.345   1.446   8.902 -2.0494 -2.8956 -1.6183
  942MPD2    H313779   4.516   1.360   8.755  4.0065 -2.7429 -0.2390
  942MPD2     N13780   4.707   1.094   9.054 -0.2014 -0.6277 -0.2987
  942MPD2    H513781   0.018   1.040   8.974  0.8123 -0.1884 -0.1885
  942MPD2    N113782   4.346   1.392   9.182  0.5983  0.5354  0.0771
  942MPD2    H713783   4.376   1.360   9.273  0.3411 -0.6114 -0.2400
  943MPD2     C13784   2.495   3.809   9.336 -0.0212 -0.8936 -0.1423
  943MPD2    C113785   2.498   3.672   9.356 -0.1065  0.1190 -0.0274
  943MPD2    C213786   2.482   3.587   9.247  0.0294 -0.2576 -0.6740
  943MPD2    C313787   2.471   3.634   9.117 -0.2156  0.1156  0.2494
  943MPD2    C413788   2.457   3.771   9.102  0.0048 -0.6772  0.6967
  943MPD2    C513789   2.474   3.859   9.209 -0.1618  0.5420  0.3948
  943MPD2     H13790   2.484   3.480   9.264 -0.8780 -0.2653 -0.5961
  943MPD2    H113791   2.420   3.819   9.012 -0.2023  2.4234  2.4293
  943MPD2    H213792   2.519   3.873   9.420  1.3181 -1.4749 -0.0863
  943MPD2    H313793   2.465   3.966   9.190 -1.8078  0.2804 -0.2486
  943MPD2     N13794   2.467   3.537   9.018  0.2702  0.0028 -0.0414
  943MPD2    H513795   2.492   3.444   9.051  1.2580  1.1755  2.5747
  943MPD2    N113796   2.512   3.614   9.484  0.0164  0.1095  0.2292
  943MPD2    H713797   2.525   3.672   9.566 -0.1390  0.7392 -0.1901
  944MPD2     C13798   3.479   2.755  10.958 -0.1810 -0.6450  0.2462
  944MPD2    C113799   3.344   2.773  10.945 -0.0846  0.0541 -0.3641
  944MPD2    C213800   3.268   2.784  11.065  0.6517  1.1640  0.4573
  944MPD2    C313801   3.331   2.796  11.188 -0.3181  0.0665 -0.0805
  944MPD2    C413802   3.464   2.770  11.198  0.7417 -0.1024  0.3286
  944MPD2    C513803   3.540   2.747  11.083  0.2253 -0.1699  0.1778
  944MPD2     H13804   3.159   2.788  11.062  0.5916  0.4863  1.7047
  944MPD2    H113805   3.508   2.772  11.297 -0.3900  0.2338  0.8308
  944MPD2    H213806   3.532   2.742  10.865 -0.1620  1.2467 -0.0160
  944MPD2    H313807   3.643   2.716  11.091  0.4049  0.3088 -0.2287
  944MPD2     N13808   3.251   2.816  11.304  0.2324  0.3032  0.3826
  944MPD2    H513809   3.151   2.806  11.293  0.1969  1.1576 -0.1215
  944MPD2    N113810   3.294   2.775  10.819 -0.6247 -0.5407 -0.7570
  944MPD2    H713811   3.364   2.761  10.746  0.3744 -1.1702  0.3080
    1TCq1    O113812   1.193   3.492  14.154 -0.0605  0.2599 -0.2360
    1TCq1    C113813   1.254   3.383  14.208 -0.3151 -0.9585 -0.3005
    1TCq1    O213814   1.342   3.325  14.142  0.1520  0.2774 -0.1639
    1TCq1    C213815   1.254   3.394  14.350  0.0295 -0.3940  0.6146
    1TCq1    C313816   1.356   3.330  14.415  0.0003 -0.5128  0.6191
    1TCq1    C413817   1.354   3.325  14.553 -0.0247 -0.1243 -0.2110
    1TCq1    C513818   1.252   3.375  14.624 -0.1567  0.2217 -0.3821
    1TCq1    C613819   1.151   3.444  14.559 -0.4050  0.2459 -0.0305
    1TCq1    C713820   1.152   3.455  14.420 -0.0597  0.4359  0.2733
    1TCq1    C813821   1.076   3.542  14.648 -0.4238  0.0335  0.1849
    1TCq1    O413822   1.067   3.506  14.764  0.9208 -0.0220  0.5257
    1TCq1    C913823   1.461   3.254  14.621  0.2374 -0.0866  0.3368
    1TCq1    O513824   1.487   3.281  14.736  0.5002 -0.0003  0.4891
    1TCq1    O613825   1.525   3.173  14.551  0.3799  0.2664 -0.0709
    1TCq1    H113826   1.137   3.546  14.213  1.1061  0.1879  0.9379
    1TCq1    H213827   1.429   3.268  14.363 -1.7633 -1.3347 -0.8519
    1TCq1    H313828   1.261   3.386  14.732 -2.5885 -3.6405  0.2082
    1TCq1    H413829   1.066   3.498  14.371 -1.2530 -2.1472  0.0881
    2MPD2     C13830   0.811   3.971  14.711  0.2101 -0.4384  0.3864
    2MPD2    C113831   0.875   3.981  14.587 -0.2589 -0.1421 -0.9277
    2MPD2    C213832   0.958   3.873  14.556 -0.0349  0.3643 -0.3430
    2MPD2    C313833   0.966   3.761  14.635 -0.1651  0.1520  0.3638
    2MPD2    C413834   0.905   3.759  14.764 -0.3755  0.5869 -0.2729
    2MPD2    C513835   0.815   3.864  14.788 -0.1176 -0.0350 -0.5716
    2MPD2     H13836   1.006   3.883  14.460  1.3935  0.3726  0.3732
    2MPD2    H113837   0.921   3.681  14.837  1.7294  1.0421 -0.2447
    2MPD2    H213838   0.740   4.048  14.741 -0.8711 -1.9083  1.5633
    2MPD2    H313839   0.746   3.849  14.871 -1.2180  0.9231 -1.3109
    2MPD2     N13840   1.044   3.659  14.581 -0.2813 -0.4893  0.1313
    2MPD2    H513841   1.062   3.658  14.481  1.2215 -1.6037  0.4179
    2MPD2    N113842   0.861   4.094  14.514  0.3991 -0.6874 -0.2809
    2MPD2    H713843   0.780   4.152  14.535  2.5708  2.4032 -0.4157
    3TMC2    C113844   0.881   4.235  14.329 -0.5123  0.7084  0.2835
    3TMC2    C213845   0.748   4.241  14.309  0.0637  0.0704 -0.3893
    3TMC2    C313846   0.694   4.343  14.247 -0.4642  0.4566 -0.0885
    3TMC2    C413847   0.958   4.315  14.246 -0.2181 -0.2339 -0.0138
    3TMC2    C513848   0.898   4.407  14.163 -0.2061  0.0952 -0.5190
    3TMC2    C613849   0.763   4.432  14.172 -0.2960 -0.1882  0.4849
    3TMC2     C13850   0.934   4.125  14.406 -0.2865  0.2610 -0.3429
    3TMC2     O13851   1.052   4.102  14.377 -0.7252  0.0401 -0.0905
    3TMC2     H13852   0.681   4.168  14.354  0.2315  0.2068  0.0885
    3TMC2    H113853   1.063   4.322  14.268 -0.1253 -1.9391  0.1265
    3TMC2    H213854   0.712   4.524  14.147  0.6757  0.8026  2.1474
    3TMC2    C713855   0.986   4.508  14.102  0.1164  0.1904  0.0905
    3TMC2    C813856   0.551   4.342  14.237 -0.0690 -0.1800 -0.2256
    3TMC2    O113857   1.103   4.521  14.140  0.0545 -0.4878 -0.8442
    3TMC2    O213858   0.494   4.327  14.341  0.3421 -0.0924 -0.5227
    3TMC2    O513859   0.508   4.441  14.155 -0.4787  0.2260  0.7910
    3TMC2    H513860   0.540   4.429  14.063 -0.1220 -1.8364  1.1928
    4MPD2     C13861   4.559   0.650  13.555 -0.3204 -0.3681  0.4430
    4MPD2    C113862   4.606   0.652  13.427  0.0232 -0.4726 -0.2051
    4MPD2    C213863   0.016   0.616  13.398 -0.0862  0.2024 -0.5512
    4MPD2    C313864   0.104   0.591  13.506  0.3946  0.4863 -0.0991
    4MPD2    C413865   0.055   0.602  13.636  0.4964  0.1212  0.2551
    4MPD2    C513866   4.646   0.640  13.657 -0.1826 -0.2037  0.4319
    4MPD2     H13867   0.049   0.610  13.295  1.8963 -3.9624  0.3529
    4MPD2    H113868   0.113   0.585  13.726  0.3536 -1.3475  0.0690
    4MPD2    H213869   4.454   0.673  13.571  0.0708  1.7004 -0.0079
    4MPD2    H313870   4.611   0.642  13.760 -0.9682 -0.0816  0.1587
    4MPD2     N13871   0.240   0.543  13.479  0.1487 -0.0908  0.5117
    4MPD2    H513872   0.281   0.535  13.386  0.4180 -0.0410  0.6250
    4MPD2    N113873   4.507   0.677  13.328 -0.4774 -0.4004  0.2772
    4MPD2    H713874   4.412   0.688  13.360  0.0119  0.9765  1.2715
    5TCq2    C113875   0.320   0.489  13.580 -0.0110 -0.2265 -0.3945
    5TCq2    O213876   0.308   0.492  13.699 -0.4591 -0.7560 -0.3475
    5TCq2    C213877   0.454   0.440  13.530  0.4789  0.1839  0.1732
    5TCq2    C313878   0.503   0.473  13.403  0.5580 -0.1285  0.0702
    5TCq2    C413879   0.625   0.429  13.380  0.5462  0.3088  0.1340
    5TCq2    C513880   0.705   0.355  13.469  0.8187 -0.3630  0.6426
    5TCq2    C613881   0.649   0.327  13.592 -0.3992  0.2716 -0.4611
    5TCq2    C713882   0.527   0.373  13.626  0.5903  0.1157 -0.3653
    5TCq2    C813883   0.714   0.240  13.691  0.1703  0.4661  0.3241
    5TCq2    O413884   0.630   0.175  13.753 -0.1186  0.1765 -0.5460
    5TCq2    C913885   0.691   0.484  13.267 -0.0329  0.1636  0.2339
    5TCq2    O513886   0.777   0.405  13.208 -0.1054  0.1355 -0.1265
    5TCq2    O613887   0.635   0.588  13.218  0.8245  0.2735 -0.1080
    5TCq2    H213888   0.454   0.540  13.334 -1.4036  3.3439  4.8571
    5TCq2    H313889   0.807   0.333  13.441  0.4091  0.0591 -1.1594
    5TCq2    H413890   0.488   0.354  13.725  2.5869  1.9186  0.7712
    6MPD1     C13891   4.436   2.269  13.589  0.3083 -0.0861  0.4194
    6MPD1    C113892   4.447   2.268  13.458 -0.2410  0.1578 -0.0837
    6MPD1    C213893   4.369   2.173  13.385  0.2381 -0.3665  0.3375
    6MPD1    C313894   4.301   2.071  13.453  0.0111 -0.7289  0.2018
    6MPD1    C413895   4.297   2.081  13.589 -0.4258  0.1934  0.1780
    6MPD1    C513896   4.370   2.170  13.657 -0.4680  0.9192 -0.0579
    6MPD1     H13897   4.398   2.176  13.280  0.1351 -3.7796  0.1948
    6MPD1    H113898   4.240   2.008  13.646 -0.2785  0.0887  0.1933
    6MPD1    H213899   4.497   2.329  13.656 -1.3566  0.1171  1.7564
    6MPD1    H313900   4.364   2.158  13.764 -1.6142  0.6757 -0.1515
    6MPD1     N13901   4.228   1.968  13.386  0.0978 -0.3636  0.3553
    6MPD1    H513902   4.207   1.887  13.444  1.7004  0.3523  1.9054
    6MPD1    N113903   4.516   2.372  13.398  0.0527 -0.0635  1.6701
    6MPD1    H613904   4.602   2.394  13.448  0.4485  0.2769  0.8409
    6MPD1    H713905   4.540   2.360  13.300 -1.2311  0.7289  1.2595
    7MPD2     C13906   3.810   1.277  13.285 -0.2582 -0.1304  0.0727
    7MPD2    C113907   3.948   1.281  13.283  0.2161  0.1310 -0.1750
    7MPD2    C213908   4.018   1.173  13.244 -0.5240  0.4258 -0.8741
    7MPD2    C313909   3.958   1.058  13.196 -0.9216 -0.4892  0.5049
    7MPD2    C413910   3.817   1.066  13.183 -0.4800  0.7146  0.6076
    7MPD2    C513911   3.742   1.167  13.234  0.1306 -0.2405  0.1573
    7MPD2     H13912   4.125   1.191  13.254  0.0942 -2.4631 -2.0883
    7MPD2    H113913   3.764   0.978  13.150  3.5441 -1.1313 -0.9290
    7MPD2    H213914   3.756   1.368  13.308 -0.9115 -0.9971  1.9670
    7MPD2    H313915   3.636   1.173  13.212 -0.3864 -0.9034  2.4670
    7MPD2     N13916   4.025   0.942  13.151 -0.2547  0.4508 -0.8414
    7MPD2    H513917   3.967   0.875  13.100 -2.5029  2.6437 -1.1313
    7MPD2    N113918   4.013   1.406  13.297 -0.1511 -0.1880 -0.3095
    7MPD2    H713919   4.110   1.403  13.268  0.0081 -2.9651  0.5167
    8TMC3    C113920   4.211   0.804  13.102  0.5607 -0.3841  0.0278
    8TMC3    C213921   4.308   0.750  13.183 -0.2159 -0.7456  0.3743
    8TMC3    C313922   4.422   0.739  13.116 -0.0298  0.6726  0.2343
    8TMC3    C413923   4.220   0.839  12.969  0.6242 -0.0742 -0.0082
    8TMC3    C513924   4.346   0.836  12.913  0.1886 -0.4792 -0.2669
    8TMC3    C613925   4.444   0.776  12.990  0.1621  0.1046 -0.4859
    8TMC3     C13926   4.155   0.922  13.171  0.3429 -0.5145  0.4259
    8TMC3     O13927   4.229   0.977  13.250 -0.0136  0.1502 -0.0919
    8TMC3     H13928   4.286   0.726  13.286 -0.1800 -0.8735  0.3518
    8TMC3    H113929   4.143   0.887  12.911  1.0580 -0.0490 -0.5613
    8TMC3    H213930   4.541   0.776  12.942  0.5495 -0.3047  0.3115
    8TMC3    C713931   4.403   0.948  12.828  0.0181  0.6016 -0.3140
    8TMC3    C813932   4.540   0.699  13.200  0.0187 -0.0519  0.6681
    8TMC3    O113933   4.502   0.944  12.757  0.9760 -0.4675 -0.0479
    8TMC3    O213934   4.649   0.714  13.147  0.2676 -0.0094  0.7754
    9TMC3    C113935   4.127   1.845  13.212  0.0692  0.1474 -0.6782
    9TMC3    C213936   4.162   1.806  13.089  0.3537  0.0523 -0.4780
    9TMC3    C313937   4.121   1.684  13.052 -0.3705 -0.2845 -0.6390
    9TMC3    C413938   4.066   1.761  13.302  0.7769 -0.9173 -0.5254
    9TMC3    C513939   4.033   1.633  13.256  0.1606  1.0131  0.3300
    9TMC3    C613940   4.058   1.596  13.128  0.0987  0.3910  0.3526
    9TMC3     C13941   4.181   1.972  13.255  0.3897  0.0568  0.6840
    9TMC3     O13942   4.197   2.057  13.173 -0.3684  0.1578  0.0018
    9TMC3     H13943   4.213   1.871  13.018  0.1377  0.3757 -0.3391
    9TMC3    H113944   4.032   1.794  13.399 -0.4489 -1.4515 -0.7721
    9TMC3    H213945   3.991   1.528  13.076  0.4256 -0.6038  1.2158
    9TMC3    C713946   3.954   1.534  13.327  0.1298 -0.5256  0.6933
    9TMC3    C813947   4.152   1.632  12.922  0.6690 -0.3481 -0.1405
    9TMC3    O113948   3.850   1.566  13.386  0.3128  0.1722  0.2962
    9TMC3    O213949   4.176   1.704  12.829 -0.3394  0.0069 -0.0345
   10MPD2     C13950   4.381   1.220  12.702 -0.1092  0.5308 -0.0990
   10MPD2    C113951   4.324   1.183  12.822  0.1262 -0.0910  0.2950
   10MPD2    C213952   4.244   1.273  12.883 -0.1296  1.1602 -0.3359
   10MPD2    C313953   4.240   1.409  12.848  0.3409  0.4673  0.0282
   10MPD2    C413954   4.291   1.445  12.721 -0.2741 -0.3287 -0.3162
   10MPD2    C513955   4.359   1.344  12.651  0.0897  0.1841 -0.0803
   10MPD2     H13956   4.189   1.240  12.970  0.9761  0.3666  0.0483
   10MPD2    H113957   4.287   1.549  12.692 -0.7704  0.1247  1.3959
   10MPD2    H213958   4.445   1.152  12.648  1.5761  1.2815  0.9766
   10MPD2    H313959   4.408   1.370  12.558 -0.2829 -1.6136 -0.7600
   10MPD2     N13960   4.181   1.503  12.940  0.5878 -0.0861  0.0715
   10MPD2    H513961   4.176   1.464  13.034  1.6950 -0.0243  0.1502
   10MPD2    N113962   4.324   1.049  12.872  0.0414 -0.1944  0.3328
   10MPD2    H713963   4.267   1.037  12.955  0.4149 -2.2334  0.2860
   11MPD2     C13964   1.099   0.014  13.945 -0.4191 -0.4981  0.4805
   11MPD2    C113965   0.966   4.696  13.941  0.0643 -0.0706  0.3505
   11MPD2    C213966   0.873   0.050  13.861 -0.4181 -0.1883  0.2690
   11MPD2    C313967   0.921   0.164  13.797 -0.5967 -0.1587  0.1940
   11MPD2    C413968   1.054   0.201  13.806  0.5943  0.3744  0.6430
   11MPD2    C513969   1.146   0.124  13.876  0.1050 -0.3889  0.1915
   11MPD2     H13970   0.769   0.022  13.852 -0.4531 -0.0703  0.2980
   11MPD2    H113971   1.092   0.285  13.748  3.2477 -0.3641  1.2727
   11MPD2    H213972   1.168   4.679  14.007  1.9933 -0.0441 -1.8226
   11MPD2    H313973   1.249   0.156  13.882 -0.0557  0.4805 -1.8512
   11MPD2     N13974   0.849   0.249  13.711 -0.8776 -0.5123 -0.0413
   11MPD2    H513975   0.891   0.331  13.668 -1.7572 -0.0922 -0.1002
   11MPD2    N113976   0.917   4.576  14.003 -0.6291  0.8365 -0.7544
   11MPD2    H713977   0.820   4.552  13.987 -0.9075  1.2476  0.2766
    1MPD1     C13978   3.589   1.195  17.535  0.8002  0.6003  0.5222
    1MPD1    C113979   3.703   1.273  17.550 -0.1659 -0.0008 -0.0750
    1MPD1    C213980   3.794   1.284  17.442  0.0324 -0.0812  0.3663
    1MPD1    C313981   3.767   1.217  17.322  0.7009 -0.2068 -0.1428
    1MPD1    C413982   3.640   1.156  17.303 -0.0291 -0.3857  0.2574
    1MPD1    C513983   3.556   1.139  17.412 -0.2427 -0.7400 -0.1563
    1MPD1     H13984   3.891   1.327  17.462 -1.5363  3.5750  0.1009
    1MPD1    H113985   3.600   1.117  17.210 -0.0950  0.1872  0.0515
    1MPD1    H213986   3.514   1.196  17.613  1.7737 -1.0392  1.4899
    1MPD1    H313987   3.455   1.102  17.398 -0.2857  0.4310 -2.8593
    1MPD1     N13988   3.862   1.206  17.212  0.3712  0.1744 -0.5983
    1MPD1    H513989   3.822   1.163  17.129  1.7308  1.6934 -2.0397
    1MPD1    N113990   3.750   1.302  17.686  0.1406  0.0728 -0.0116
    1MPD1    H613991   3.674   1.319   0.066  1.0555  0.1684  1.0195
    1MPD1    H713992   3.815   1.380   0.002  0.7736 -0.4717  0.5856
    2MPD1     C13993   0.084   1.653  16.860  0.1529  0.3678 -0.2122
    2MPD1    C113994   4.686   1.707  16.826 -0.6280 -0.7567  0.4457
    2MPD1    C213995   4.567   1.648  16.849  0.0502  0.7231 -0.5526
    2MPD1    C313996   4.552   1.531  16.920 -0.2286 -0.8213  0.1059
    2MPD1    C413997   4.671   1.469  16.959  0.0719  0.3475  0.4528
    2MPD1    C513998   0.069   1.537  16.928  0.5064 -0.5935  0.3400
    2MPD1     H13999   4.473   1.685  16.810 -0.3108 -1.5847 -1.8790
    2MPD1    H114000   4.666   1.371  17.006 -1.3436 -0.6294 -1.7370
    2MPD1    H214001   0.181   1.701  16.848 -0.7491  1.8523 -1.5860
    2MPD1    H314002   0.154   1.481  16.965  1.1054 -1.6099 -2.5314
    2MPD1     N14003   4.417   1.481  16.917  0.2340 -0.9912 -0.0747
    2MPD1    H514004   4.345   1.548  16.891  2.4240  0.6693 -1.7978
    2MPD1    N114005   4.676   1.827  16.758  0.0853  0.6295 -0.2666
    2MPD1    H614006   0.017   1.892  16.805  2.9343 -0.8929 -1.9304
    2MPD1    H714007   4.581   1.865  16.755  1.3457  3.7932 -0.5142
    3TMC3    C114008   4.229   1.347  16.966  0.0508  0.2647  0.8074
    3TMC3    C214009   4.153   1.386  16.868 -1.0969 -0.2202 -0.2523
    3TMC3    C314010   4.016   1.370  16.868 -0.5405  0.5551  0.0730
    3TMC3    C414011   4.172   1.278  17.067 -0.2801  0.1286 -0.2223
    3TMC3    C514012   4.037   1.275  17.075  0.2163 -0.1331  0.1397
    3TMC3    C614013   3.957   1.325  16.980 -0.3112  0.0140 -0.9854
    3TMC3     C14014   4.373   1.359  16.971 -0.1241 -1.0437  0.7199
    3TMC3     O14015   4.432   1.269  17.031  0.4211  0.2739  0.0399
    3TMC3     H14016   4.201   1.420  16.777 -1.6669 -1.1364 -0.8819
    3TMC3    H114017   4.237   1.229  17.138 -0.1519  1.4844  0.5841
    3TMC3    H214018   3.849   1.326  16.989 -0.2364 -0.6918 -0.0017
    3TMC3    C714019   3.984   1.260  17.207 -0.3801  1.1325  0.2126
    3TMC3    C814020   3.931   1.415  16.765 -0.0297  0.2490  0.3116
    3TMC3    O114021   4.061   1.297  17.294 -0.1452 -0.4347  0.3435
    3TMC3    O214022   3.816   1.418  16.793 -0.0771  0.0686  0.3239
    4MPD1     C14023   3.770   1.433  16.282  0.0024  0.0703  0.0095
    4MPD1    C114024   3.896   1.383  16.282  0.4831  0.1436 -0.0399
    4MPD1    C214025   3.966   1.382  16.405 -0.0108 -0.3969  0.0499
    4MPD1    C314026   3.912   1.442  16.513  0.1392  0.5958 -0.1255
    4MPD1    C414027   3.789   1.497  16.509 -0.2155  0.2150  0.4760
    4MPD1    C514028   3.720   1.492  16.395 -0.6334  0.6471 -0.3459
    4MPD1     H14029   4.061   1.331  16.414  0.5543  0.8588  1.2463
    4MPD1    H114030   3.733   1.538  16.593 -2.6788 -2.2977  0.0516
    4MPD1    H214031   3.698   1.426  16.201  1.9988  2.0260 -1.9472
    4MPD1    H314032   3.623   1.538  16.385 -1.7915 -1.3376  1.7667
    4MPD1     N14033   3.982   1.417  16.633 -0.2001  0.2739 -0.7865
    4MPD1    H514034   4.074   1.379  16.611  0.1093  0.6238 -0.0839
    4MPD1    N114035   3.943   1.307  16.170  0.6466 -0.1200  0.6003
    4MPD1    H614036   3.886   1.331  16.089 -0.7038  0.9627  1.8703
    4MPD1    H714037   4.041   1.321  16.146  0.2124 -1.0010 -1.6516
    1TCq1    O114038   3.457   0.066   9.930 -0.5447  0.1979 -0.1022
    1TCq1    C114039   3.506   0.046  10.056  0.1612 -0.4979 -0.0763
    1TCq1    O214040   3.613   0.100  10.096  0.1091 -0.2067 -0.6290
    1TCq1    C214041   3.406   4.689  10.140 -0.0524 -0.0495  0.9525
    1TCq1    C314042   3.310   4.619  10.072  0.4324 -0.1433  1.0834
    1TCq1    C414043   3.222   4.553  10.155  0.2188  0.4669 -0.2754
    1TCq1    C514044   3.237   4.562  10.293  0.6169  0.2529  0.9220
    1TCq1    C614045   3.324   4.653  10.351  0.0981 -0.1584  0.1038
    1TCq1    C714046   3.413   0.003  10.275  0.1347  0.6162 -0.0567
    1TCq1    C814047   3.302   4.698  10.485 -0.6440  0.4830 -0.0994
    1TCq1    O414048   3.393   0.040  10.533 -0.2171 -0.1762  0.7082
    1TCq1    C914049   3.153   4.440  10.111 -0.1837  0.2117  0.0614
    1TCq1    O514050   3.131   4.425   9.987  0.2303  0.5576  0.7760
    1TCq1    O614051   3.081   4.381  10.195  0.2776 -0.4791 -0.2587
    1TCq1    H114052   3.362   0.041   9.931 -0.2102 -1.0372  1.5104
    1TCq1    H214053   3.333   4.586   9.971  0.9088 -0.6652  1.3677
    1TCq1    H314054   3.183   4.499  10.362  0.6469 -1.1028 -0.3013
    1TCq1    H414055   3.480   0.080  10.312  1.9388 -2.2953  2.6398
    2MPD1     C14056   3.013   0.069  10.910 -0.7233 -0.6028 -0.7105
    2MPD1    C114057   2.942   4.720  10.813  0.5584 -0.1672 -0.3984
    2MPD1    C214058   2.998   4.684  10.691  0.0899 -0.0664 -0.3146
    2MPD1    C314059   3.127   4.697  10.667  0.3409  0.1675  0.2213
    2MPD1    C414060   3.202   0.039  10.769 -0.3011 -0.0106  0.4817
    2MPD1    C514061   3.142   0.085  10.888  1.0177 -0.7303 -0.7674
    2MPD1     H14062   2.950   4.628  10.611 -1.9988  0.2079  0.7518
    2MPD1    H114063   3.307   0.062  10.756 -0.3229 -0.7603 -0.9580
    2MPD1    H214064   2.967   0.117  10.996 -1.8133 -0.8280 -1.1745
    2MPD1    H314065   3.209   0.130  10.961  1.5001 -1.4058 -0.7921
    2MPD1     N14066   3.177   4.665  10.539  0.7293 -0.7709  0.6896
    2MPD1    H514067   3.110   4.628  10.472  3.1293  0.3024 -2.3279
    2MPD1    N114068   2.808   4.704  10.833  0.3849  0.2244  0.3127
    2MPD1    H614069   2.783   4.689  10.930  2.4418  0.3696  0.8632
    2MPD1    H714070   2.766   4.627  10.780  0.1004  2.2959 -2.4509
    1TCq1    O114071   2.093   0.687   9.684  0.3997 -0.2815 -0.2666
    1TCq1    C114072   1.967   0.641   9.681  0.1574  0.4906 -0.5730
    1TCq1    O214073   1.893   0.644   9.585  0.4166 -0.3258 -0.2111
    1TCq1    C214074   1.988   0.521   9.757 -0.2349  0.4817  0.9285
    1TCq1    C314075   2.069   0.510   9.868  0.2380 -0.4724 -0.2284
    1TCq1    C414076   2.085   0.384   9.923 -0.0345  0.1219 -0.0653
    1TCq1    C514077   2.037   0.271   9.871  0.2603 -0.0203  0.4202
    1TCq1    C614078   1.958   0.288   9.764  0.3478 -0.2201 -0.8681
    1TCq1    C714079   1.937   0.405   9.705  0.1555 -0.6157  0.5885
    1TCq1    C814080   1.930   0.170   9.683  0.5258  0.7066 -0.3012
    1TCq1    O414081   1.983   0.068   9.716  0.2343 -0.1448 -0.2861
    1TCq1    C914082   2.193   0.368  10.018 -0.3252  0.0139  0.7576
    1TCq1    O514083   2.200   0.264  10.095  0.7200  0.3150  0.1158
    1TCq1    O614084   2.259   0.477  10.038  0.2876  0.2500 -0.0233
    1TCq1    H114085   2.138   0.645   9.761 -1.0468  1.1709  1.3717
    1TCq1    H214086   2.084   0.599   9.929 -0.5830  0.1752 -0.9682
    1TCq1    H314087   2.061   0.176   9.917  1.2642 -0.4077 -0.9280
    1TCq1    H414088   1.872   0.406   9.618  2.0394 -1.2452 -0.8430
    2MPD1     C14089   1.723   4.631   9.282 -0.1562  0.4273 -0.5667
    2MPD1    C114090   1.653   0.024   9.305 -0.2461 -0.4407 -0.2115
    2MPD1    C214091   1.699   0.114   9.401  1.2086  0.1521 -0.3139
    2MPD1    C314092   1.810   0.089   9.475 -0.4642  0.0391  0.4886
    2MPD1    C414093   1.880   4.685   9.460 -0.6577  0.4586 -0.3024
    2MPD1    C514094   1.832   4.602   9.360  0.1263 -0.0049 -0.4026
    2MPD1     H14095   1.649   0.207   9.426 -0.0351 -0.3983 -0.8075
    2MPD1    H114096   1.966   4.658   9.520 -1.6102 -1.2747  0.2781
    2MPD1    H214097   1.698   4.569   9.196  1.6519 -2.1809  0.7782
    2MPD1    H314098   1.881   4.510   9.332 -0.3017 -0.2774 -0.2603
    2MPD1     N14099   1.834   0.177   9.579  0.1637 -0.6970  0.5441
    2MPD1    H514100   1.782   0.264   9.570  0.5284 -0.6249 -0.7695
    2MPD1    N114101   1.555   0.066   9.205 -0.3128 -0.3861  0.3718
    2MPD1    H614102   1.513   4.716   9.145  0.4951 -0.1294 -0.5031
    2MPD1    H714103   1.482   0.126   9.242 -0.3857 -0.1847 -0.0962
    1MPD1     C14104   0.760   1.189  12.588 -0.9918  0.9622  1.0873
    1MPD1    C114105   0.851   1.283  12.625  0.2631 -0.2937  0.9565
    1MPD1    C214106   0.899   1.366  12.525  0.1877 -0.1907  0.2858
    1MPD1    C314107   0.876   1.344  12.394 -0.3000 -0.1866 -0.3383
    1MPD1    C414108   0.786   1.243  12.364  0.1295 -0.4390  0.3161
    1MPD1    C514109   0.723   1.169  12.459 -0.2671 -0.0548 -0.3928
    1MPD1     H14110   0.966   1.451  12.534  0.6732 -0.7132  1.6418
    1MPD1    H114111   0.772   1.214  12.260  1.1826  2.3882 -0.6239
    1MPD1    H214112   0.727   1.120  12.665 -1.8990  0.6261  0.3942
    1MPD1    H314113   0.649   1.093  12.437  0.1628 -0.5346 -0.2005
    1MPD1     N14114   0.948   1.422  12.301 -0.1301 -0.1848 -0.6658
    1MPD1    H514115   1.020   1.488  12.330 -0.6763 -0.0925  0.4878
    1MPD1    N114116   0.868   1.325  12.761 -0.4120 -0.1246  0.2038
    1MPD1    H614117   0.956   1.375  12.774 -0.4043 -0.0172 -0.2380
    1MPD1    H714118   0.864   1.249  12.829 -0.0028  3.4531  4.1872
    2MPD1     C14119   0.382   1.752  11.753  0.6618  0.0712 -0.2554
    2MPD1    C114120   0.358   1.715  11.621  0.1050  0.5671 -0.0285
    2MPD1    C214121   0.456   1.655  11.543 -0.1581  0.0880  0.2318
    2MPD1    C314122   0.572   1.615  11.604  0.0775 -0.5765 -0.1576
    2MPD1    C414123   0.596   1.640  11.735 -0.4422 -1.0677  0.2601
    2MPD1    C514124   0.503   1.716  11.804 -0.1183  0.5163 -0.0207
    2MPD1     H14125   0.433   1.635  11.439  2.6614  1.5800 -0.6681
    2MPD1    H114126   0.689   1.613  11.784 -0.1475 -0.0654  0.2384
    2MPD1    H214127   0.304   1.797  11.814 -0.9409 -2.0362 -0.7551
    2MPD1    H314128   0.529   1.723  11.909 -1.6357  1.3271  0.2911
    2MPD1     N14129   0.673   1.545  11.539 -0.0648  0.8492 -0.0299
    2MPD1    H514130   0.752   1.531  11.601 -0.0771 -0.5892 -0.3411
    2MPD1    N114131   0.241   1.754  11.556  0.2452  0.0763 -0.5726
    2MPD1    H614132   0.162   1.779  11.614  0.0949 -0.7975 -0.3939
    2MPD1    H714133   0.210   1.692  11.480  1.1705 -0.0058 -0.8811
    3MPD1     C14134   1.187   1.267  10.616 -0.1475 -0.0799  0.0233
    3MPD1    C114135   1.278   1.298  10.725  0.1314  1.1795 -0.0025
    3MPD1    C214136   1.219   1.311  10.851  0.4922 -0.7723 -0.6063
    3MPD1    C314137   1.090   1.319  10.866  0.1810  0.2994 -0.1093
    3MPD1    C414138   1.004   1.297  10.755  0.2754 -0.3906 -0.0273
    3MPD1    C514139   1.056   1.269  10.634 -1.0532 -0.7377 -0.4505
    3MPD1     H14140   1.279   1.295  10.940  0.7668  1.6556 -0.3512
    3MPD1    H114141   0.896   1.306  10.761  0.4163  1.8565 -0.7137
    3MPD1    H214142   1.222   1.248  10.516  2.9708 -2.0563  1.5072
    3MPD1    H314143   0.989   1.266  10.549 -1.8742  0.4293  0.1661
    3MPD1     N14144   1.045   1.338  10.998 -0.5107  0.6366  0.2194
    3MPD1    H514145   1.104   1.374  11.073  1.1657  0.5245 -1.0492
    3MPD1    N114146   1.414   1.285  10.703  0.5998  0.0892  0.1928
    3MPD1    H614147   1.466   1.332  10.777  0.0305  0.0544  0.6111
    3MPD1    H714148   1.438   1.328  10.613 -0.5860 -1.1881 -0.7212
    4MPD2     C14149   1.051   1.708  11.490  0.4082 -0.7600  0.2810
    4MPD2    C114150   1.112   1.773  11.595  0.5767  0.2284  0.3318
    4MPD2    C214151   1.228   1.842  11.571 -0.0373  0.1765  0.2907
    4MPD2    C314152   1.269   1.861  11.434  0.3559 -0.4025  0.0833
    4MPD2    C414153   1.200   1.801  11.331 -0.5394 -0.7783 -0.0840
    4MPD2    C514154   1.089   1.741  11.358  0.3194 -0.1106  0.1221
    4MPD2     H14155   1.290   1.872  11.654  1.2708  0.2433 -0.7059
    4MPD2    H114156   1.219   1.826  11.227  1.3509 -1.6725  0.0461
    4MPD2    H214157   0.957   1.659  11.512 -0.0979 -1.2175 -2.9409
    4MPD2    H314158   1.021   1.705  11.282 -0.1975 -0.5652  0.7914
    4MPD2     N14159   1.388   1.930  11.399 -0.0108  0.4017 -0.3145
    4MPD2    H514160   1.421   1.923  11.303 -1.6210 -0.0102 -0.8436
    4MPD2    N114161   1.078   1.743  11.728  0.4780  0.1524  0.2081
    4MPD2    H714162   1.132   1.793  11.798 -0.3135  0.3311  0.6921
    5TMC3    C114163   0.957   1.674  11.907 -0.3933  0.9703  0.0556
    5TMC3    C214164   0.935   1.551  11.978  0.3819  0.5017 -0.1342
    5TMC3    C314165   0.992   1.531  12.095 -0.8985 -0.1089 -0.1514
    5TMC3    C414166   1.035   1.775  11.965 -0.1065 -0.0585  0.1097
    5TMC3    C514167   1.103   1.740  12.083 -0.5575 -0.7278 -0.2776
    5TMC3    C614168   1.080   1.619  12.147  0.5848 -0.6314 -0.8394
    5TMC3     C14169   0.980   1.658  11.772 -0.4724  0.4607 -0.0927
    5TMC3     O14170   0.914   1.574  11.713  0.0597 -0.1016  0.6395
    5TMC3     H14171   0.878   1.480  11.919  4.1015 -0.6788 -2.2890
    5TMC3    H114172   1.062   1.870  11.921 -1.8271  1.1049  1.5386
    5TMC3    H214173   1.117   1.607  12.249  0.1013  0.5287 -0.5282
    5TMC3    C714174   1.245   1.772  12.062 -0.2962  0.2672 -0.6915
    5TMC3    C814175   0.935   1.415  12.170  0.4273  0.0101  0.1373
    5TMC3    O114176   1.274   1.834  11.960  0.3463 -0.1359  0.2438
    5TMC3    O214177   0.851   1.357  12.104  0.9978  0.5575 -0.6881
    6TMC3    C114178   0.787   1.417  11.363  0.5859 -0.4313  0.2524
    6TMC3    C214179   0.793   1.389  11.231 -0.4516 -0.5613 -0.4158
    6TMC3    C314180   0.902   1.326  11.183 -0.2052  0.2500 -0.3109
    6TMC3    C414181   0.889   1.388  11.451 -0.0872 -0.6573  1.2365
    6TMC3    C514182   1.005   1.336  11.393 -0.5977  0.3856 -0.1289
    6TMC3    C614183   1.014   1.301  11.263  0.7375  0.2927 -0.6625
    6TMC3     C14184   0.673   1.502  11.405  0.8003  0.4950 -0.4127
    6TMC3     O14185   0.620   1.556  11.309 -0.2018 -0.3470 -0.1349
    6TMC3     H14186   0.716   1.420  11.162 -1.7854  0.3701  1.5032
    6TMC3    H114187   0.882   1.396  11.559  1.2533  0.4293  1.2426
    6TMC3    H214188   1.094   1.241  11.222  0.2561  0.0310 -1.2280
    6TMC3    C714189   1.128   1.332  11.467  0.1477  0.8468 -0.2747
    6TMC3    C814190   0.921   1.302  11.038  0.5321 -0.3675 -0.3246
    6TMC3    O114191   1.224   1.330  11.395  0.0798  0.0123  0.1011
    6TMC3    O214192   0.825   1.265  10.978  0.0727 -0.0415  0.3803
    7MPD2     C14193   1.742   1.675  12.090 -1.1960  0.0464 -0.0616
    7MPD2    C114194   1.681   1.762  12.001 -0.2355  0.1174  0.0380
    7MPD2    C214195   1.540   1.775  12.016 -0.2215  0.0606  0.3700
    7MPD2    C314196   1.474   1.701  12.117  1.0306 -0.2438 -0.8805
    7MPD2    C414197   1.550   1.627  12.210 -0.1039  0.5846 -0.0623
    7MPD2    C514198   1.679   1.607  12.185 -0.0614  0.0110 -0.1698
    7MPD2     H14199   1.481   1.840  11.952 -0.7660 -2.7515 -1.9640
    7MPD2    H114200   1.499   1.571  12.288  0.8452 -0.7714 -0.4100
    7MPD2    H214201   1.850   1.661  12.093 -0.9807  1.8785  0.2123
    7MPD2    H314202   1.742   1.557  12.259  1.0790 -1.2021 -1.9510
    7MPD2     N14203   1.330   1.703  12.143 -0.1808 -0.5720  0.5233
    7MPD2    H514204   1.290   1.647  12.218 -2.0137 -1.0525 -0.8294
    7MPD2    N114205   1.753   1.814  11.891  0.1858  0.4594 -0.4428
    7MPD2    H714206   1.846   1.780  11.867  0.6747  1.0510  0.6272
    8TMC3    C114207   1.722   1.894  11.667  0.6785  0.0114  0.1590
    8TMC3    C214208   1.730   1.766  11.626 -0.5461 -0.4082  0.5474
    8TMC3    C314209   1.665   1.731  11.510 -0.4289  0.6243 -0.1111
    8TMC3    C414210   1.664   1.987  11.590  0.0392  0.2189 -0.6628
    8TMC3    C514211   1.601   1.960  11.474  0.0812  0.2441 -0.3329
    8TMC3    C614212   1.603   1.829  11.426 -0.9341  0.3749  0.1645
    8TMC3     C14213   1.693   1.911  11.809 -0.3165  0.1398 -0.4536
    8TMC3     O14214   1.605   1.991  11.834  0.1163  0.1602 -0.9494
    8TMC3     H14215   1.764   1.688  11.693  1.6895 -0.0455 -0.1672
    8TMC3    H114216   1.657   2.087  11.631  0.3282  0.4647 -1.2077
    8TMC3    H214217   1.552   1.791  11.338  0.8021  0.5741 -0.9425
    8TMC3    C714218   1.460   1.997  11.492  1.2450 -0.6093  0.0285
    8TMC3    C814219   1.579   1.613  11.520 -0.2785  0.0403  0.0635
    8TMC3    O114220   1.427   2.058  11.592 -0.0479  0.0445 -0.5786
    8TMC3    O214221   1.521   1.559  11.426 -0.0094 -0.0217 -0.2427
    9MPD2     C14222   1.441   1.493  11.840  0.2708 -0.1708  0.5040
    9MPD2    C114223   1.445   1.514  11.702 -0.2202 -0.3352  0.2166
    9MPD2    C214224   1.336   1.467  11.626 -0.2351 -0.5265  0.0871
    9MPD2    C314225   1.232   1.403  11.682  1.5368 -0.2557 -0.1262
    9MPD2    C414226   1.220   1.405  11.822  0.4093 -0.0755  0.3720
    9MPD2    C514227   1.331   1.436  11.902  0.6809  0.0843  0.3031
    9MPD2     H14228   1.337   1.475  11.518 -1.6349 -2.2647 -0.0672
    9MPD2    H114229   1.147   1.338  11.868 -1.6735  0.9518 -1.4296
    9MPD2    H214230   1.520   1.528  11.905  1.0633 -0.0658 -0.5151
    9MPD2    H314231   1.320   1.438  12.010 -0.3219  0.1236  0.2072
    9MPD2     N14232   1.126   1.345  11.602 -0.0962  0.1201 -1.1266
    9MPD2    H514233   1.042   1.312  11.648  1.1896  0.2224  1.2474
    9MPD2    N114234   1.548   1.587  11.652 -0.3486  0.2576  0.8243
    9MPD2    H714235   1.598   1.627  11.731 -0.7766  1.2716  0.5814
    1MPD1     C14236   0.316   0.546  16.227 -0.0242 -0.3375  0.8324
    1MPD1    C114237   0.406   0.606  16.154  0.8099 -0.6343 -0.1703
    1MPD1    C214238   0.530   0.622  16.210  0.4392 -0.2822  0.4166
    1MPD1    C314239   0.549   0.587  16.348  0.4704  0.0658  0.5482
    1MPD1    C414240   0.445   0.548  16.424  0.7423 -0.0390  0.2114
    1MPD1    C514241   0.330   0.525  16.359 -0.3881 -0.1908  0.6542
    1MPD1     H14242   0.609   0.654  16.143  0.8385 -1.3337  0.3759
    1MPD1    H114243   0.469   0.525  16.527 -0.0260  0.8752  0.5931
    1MPD1    H214244   0.217   0.524  16.189  0.1013  0.9792 -0.2758
    1MPD1    H314245   0.245   0.489  16.415 -1.6557  1.2646 -0.3420
    1MPD1     N14246   0.672   0.588  16.412  0.0187  0.7547 -0.2681
    1MPD1    H514247   0.673   0.565  16.511  0.1404  0.8798 -0.2408
    1MPD1    N114248   0.391   0.639  16.023 -0.2295 -0.7188  0.1064
    1MPD1    H614249   0.447   0.721  16.001 -0.0669 -0.6656  0.7401
    1MPD1    H714250   0.296   0.673  16.007 -0.1482 -0.3363  0.4646
    2MPD1     C14251   1.600   0.878  16.144  0.1520 -1.0150  0.3106
    2MPD1    C114252   1.484   0.957  16.155 -0.7001 -0.4875 -0.0026
    2MPD1    C214253   1.384   0.924  16.246 -1.1970  0.5041  0.7934
    2MPD1    C314254   1.389   0.795  16.301 -0.1343 -0.3137  0.4591
    2MPD1    C414255   1.500   0.706  16.280 -0.0659 -0.2899  0.2352
    2MPD1    C514256   1.610   0.758  16.212  0.9004  0.9307  0.3539
    2MPD1     H14257   1.293   0.982  16.256 -0.5134  1.8286 -0.7342
    2MPD1    H114258   1.512   0.608  16.325 -0.0231 -0.0402  0.7606
    2MPD1    H214259   1.688   0.899  16.084 -0.7785  2.2243  0.0988
    2MPD1    H314260   1.692   0.690  16.195 -1.5223 -1.6174 -1.2835
    2MPD1     N14261   1.278   0.760  16.375  0.0279 -0.2684  0.1811
    2MPD1    H514262   1.196   0.819  16.367 -0.9758 -1.8932 -1.4989
    2MPD1    N114263   1.473   1.079  16.083  0.1177 -0.6666  0.3658
    2MPD1    H614264   1.487   1.068  15.982 -1.3429  0.6698  0.0207
    2MPD1    H714265   1.383   1.124  16.094  0.1942 -0.1678 -0.9782
    3TCq2    C114266   1.268   0.651  16.452 -0.2735 -0.0213 -0.3642
    3TCq2    O214267   1.358   0.572  16.487  0.1630  0.6581 -0.3634
    3TCq2    C214268   1.128   0.628  16.498 -0.3020 -0.8206  0.5772
    3TCq2    C314269   1.116   0.572  16.619  0.0395  0.3769  0.1774
    3TCq2    C414270   0.990   0.531  16.648 -0.2329  0.0577 -0.3244
    3TCq2    C514271   0.878   0.568  16.576  0.4162 -0.2471  0.3871
    3TCq2    C614272   0.899   0.623  16.454 -0.5996  0.1340 -0.2724
    3TCq2    C714273   1.026   0.657  16.415  0.3541 -0.3606 -0.0790
    3TCq2    C814274   0.785   0.624  16.356  0.4603  0.1468 -0.4297
    3TCq2    O414275   0.806   0.656  16.240  0.2335 -0.0262 -0.1548
    3TCq2    C914276   0.984   0.436  16.752 -0.1360  0.4779  0.7230
    3TCq2    O514277   0.884   0.368  16.766 -0.5561  0.4478 -0.4036
    3TCq2    O614278   1.082   0.426  16.826  0.0759 -0.3072  0.3972
    3TCq2    H214279   1.207   0.537  16.666 -0.8610 -0.3514  1.3866
    3TCq2    H314280   0.781   0.532  16.606  0.5287 -0.6928  0.2186
    3TCq2    H414281   1.037   0.706  16.320 -0.1773 -0.4329 -0.1771
    1TCq1    O114282   3.569   3.568  13.181  0.1920 -0.0484  0.1886
    1TCq1    C114283   3.515   3.449  13.157  0.1810  0.6476  0.1878
    1TCq1    O214284   3.513   3.359  13.239  0.6827  0.7312 -0.0337
    1TCq1    C214285   3.415   3.472  13.056  0.6094 -0.2827  0.4571
    1TCq1    C314286   3.291   3.431  13.089  0.4606  0.5267  0.0851
    1TCq1    C414287   3.190   3.450  12.997  0.3436  0.2217 -0.2356
    1TCq1    C514288   3.216   3.520  12.878 -0.2615  0.9699  0.0606
    1TCq1    C614289   3.347   3.569  12.854  0.0943 -0.3709  0.3326
    1TCq1    C714290   3.453   3.538  12.944  0.5387 -0.0328  0.2303
    1TCq1    C814291   3.379   3.636  12.729 -0.0910 -0.2474  0.2237
    1TCq1    O414292   3.301   3.608  12.643  0.0092  0.4756  0.2400
    1TCq1    C914293   3.059   3.417  13.032 -0.2651 -0.0023 -0.0737
    1TCq1    O514294   2.968   3.452  12.955  0.3850  0.0162  0.0598
    1TCq1    O614295   3.044   3.354  13.139  0.2076  0.1806  0.2172
    1TCq1    H114296   3.553   3.630  13.107 -0.7322 -1.7944 -1.0657
    1TCq1    H214297   3.270   3.385  13.185 -1.2308 -0.5061 -0.7779
    1TCq1    H314298   3.137   3.533  12.805 -0.2457 -0.5735 -0.2468
    1TCq1    H414299   3.556   3.568  12.930  1.6028 -2.8164  2.0178
    2MPD2     C14300   3.552   3.755  12.531  0.4596  0.3043 -0.5941
    2MPD2    C114301   3.566   3.783  12.661 -0.4205  0.1500 -0.3186
    2MPD2    C214302   3.671   3.867  12.699  0.1680 -0.0090 -0.3092
    2MPD2    C314303   3.746   3.940  12.610 -0.2169  0.0218 -0.0045
    2MPD2    C414304   3.714   3.918  12.477  0.5384  0.2212  0.8523
    2MPD2    C514305   3.628   3.822  12.437  1.0244  0.6885 -0.9268
    2MPD2     H14306   3.690   3.894  12.802 -0.5228  1.6225 -0.6145
    2MPD2    H114307   3.767   3.973  12.401 -2.2168  2.1084  0.3050
    2MPD2    H214308   3.482   3.681  12.495  0.2031  0.4781 -0.4466
    2MPD2    H314309   3.625   3.809  12.330  1.1289  1.7977 -1.0653
    2MPD2     N14310   3.839   4.039  12.653  0.3731  0.6298  0.2540
    2MPD2    H514311   3.846   4.038  12.754  2.0898 -0.5740  0.1204
    2MPD2    N114312   3.487   3.721  12.753 -0.4784  0.1107  0.3196
    2MPD2    H714313   3.516   3.739  12.848 -2.7512 -1.0023  1.2206
    3TCq1    O114314   4.086   4.407  13.055  0.3486  0.3189  0.5653
    3TCq1    C114315   4.014   4.308  13.002 -0.9853 -0.2744  0.4161
    3TCq1    O214316   3.952   4.218  13.058  0.4231  0.1833  0.6273
    3TCq1    C214317   4.036   4.313  12.855  0.2209  0.1115 -0.1936
    3TCq1    C314318   4.053   4.434  12.790  0.5347 -0.1242  0.5132
    3TCq1    C414319   4.049   4.432  12.656 -0.4654 -0.5063 -0.8756
    3TCq1    C514320   4.025   4.317  12.577 -0.0912  0.0260 -0.4196
    3TCq1    C614321   4.006   4.202  12.647 -0.1513 -0.2914  0.7243
    3TCq1    C714322   4.004   4.200  12.784 -0.2685  0.2015  0.6760
    3TCq1    C814323   3.932   4.102  12.570 -0.1382  0.1921 -0.0272
    3TCq1    O414324   3.954   4.093  12.451  0.5704 -0.4902 -0.4917
    3TCq1    C914325   4.073   4.555  12.591 -0.2563 -0.3245 -0.9079
    3TCq1    O514326   4.145   4.630  12.657 -0.1344 -0.1119 -0.0911
    3TCq1    O614327   4.075   4.552  12.467  0.0859  0.2090  0.2056
    3TCq1    H114328   4.147   4.466  13.006  0.6508 -0.0152  0.5328
    3TCq1    H214329   4.070   4.529  12.841 -0.3686  1.3356 -1.8788
    3TCq1    H314330   4.025   4.319  12.469 -0.1302 -0.5829 -0.4272
    3TCq1    H414331   4.008   4.104  12.835 -0.2646 -0.5368 -0.7267
    1MPD2     C14332   3.064   4.526  14.740 -0.0647  0.7058 -0.0509
    1MPD2    C114333   2.975   4.522  14.845 -0.1733  0.5691  0.5413
    1MPD2    C214334   3.016   4.496  14.971 -0.3199 -0.2763  0.7011
    1MPD2    C314335   3.156   4.460  14.992  0.2747  0.2421 -0.4212
    1MPD2    C414336   3.237   4.471  14.886  0.2429  0.0064 -0.2410
    1MPD2    C514337   3.194   4.503  14.761 -0.0500  0.1016  0.0031
    1MPD2     H14338   2.952   4.510  15.057 -2.3273  1.7680 -1.1295
    1MPD2    H114339   3.343   4.461  14.904  0.0965  0.9687  1.1423
    1MPD2    H214340   3.047   4.542  14.634 -2.0904 -1.8399 -0.1223
    1MPD2    H314341   3.267   4.525  14.684 -0.8697 -1.1602 -1.1220
    1MPD2     N14342   3.210   4.420  15.120 -0.7541 -0.1333 -0.1812
    1MPD2    H514343   3.309   4.399  15.125 -0.6991  1.1616  4.6349
    1MPD2    N114344   2.841   4.562  14.825 -0.2198 -0.1819  0.0420
    1MPD2    H714345   2.818   4.593  14.731 -0.4546 -1.4290 -0.3036
    2TMC3    C114346   2.623   4.641  14.873  0.0643 -0.0445 -0.2433
    2TMC3    C214347   2.529   4.629  14.974  0.9982 -0.1433  0.4336
    2TMC3    C314348   2.483   0.020  15.034  0.2453 -0.1839  0.2002
    2TMC3    C414349   2.655   0.039  14.813  0.2520  0.0860 -0.4037
    2TMC3    C514350   2.598   0.152  14.871 -0.6281 -0.0696 -0.0127
    2TMC3    C614351   2.502   0.141  14.972 -0.0456  0.2698 -1.1446
    2TMC3     C14352   2.739   4.560  14.917 -0.3312  0.5032  0.2200
    2TMC3     O14353   2.742   4.509  15.030  0.0954 -0.0096 -0.5873
    2TMC3     H14354   2.528   4.531  15.021 -0.3109 -0.9594 -1.3028
    2TMC3    H114355   2.732   0.051  14.738 -0.3547  4.7478 -0.2452
    2TMC3    H214356   2.451   0.229  15.008  1.0322  0.3291  0.2377
    2TMC3    C714357   2.600   0.280  14.804  0.1704 -0.3621 -0.0878
    2TMC3    C814358   2.512   0.043  15.179  0.5543  0.6670 -0.0824
    2TMC3    O114359   2.503   0.356  14.785 -0.1890  0.3854 -0.2819
    2TMC3    O214360   2.462   0.144  15.235 -0.6548 -0.2213  0.9387
    3TCq1    O114361   3.596   0.809  14.391  0.4813  0.1130 -0.8042
    3TCq1    C114362   3.619   0.822  14.519 -0.2661  0.0185  0.2518
    3TCq1    O214363   3.634   0.930  14.579 -0.1945  0.4799  0.0588
    3TCq1    C214364   3.531   0.721  14.568  0.1573  0.2069  0.5384
    3TCq1    C314365   3.580   0.627  14.653  0.5182  0.6053  0.4606
    3TCq1    C414366   3.482   0.552  14.721 -0.4439  0.4080 -0.4098
    3TCq1    C514367   3.350   0.556  14.675 -0.2624  0.2487 -0.6530
    3TCq1    C614368   3.306   0.646  14.580  0.1215 -0.0119  0.1953
    3TCq1    C714369   3.398   0.737  14.532  0.0457 -0.4407 -0.3504
    3TCq1    C814370   3.172   0.637  14.526 -0.0240 -0.0013  0.0183
    3TCq1    O414371   3.148   0.711  14.426 -0.2700  0.0349  0.2420
    3TCq1    C914372   3.518   0.451  14.815  0.5514 -0.1760  0.9395
    3TCq1    O514373   3.631   0.403  14.807  0.5618 -0.2870  0.9531
    3TCq1    O614374   3.430   0.411  14.895  0.8973 -0.0978  0.8115
    3TCq1    H114375   3.572   0.714  14.379 -0.1417  0.1768 -0.0770
    3TCq1    H214376   3.684   0.627  14.684  0.7676 -0.8424 -0.3785
    3TCq1    H314377   3.296   0.469  14.711 -0.3141  1.0313  1.1382
    3TCq1    H414378   3.365   0.815  14.464  0.7273 -0.8774 -1.1786
    4MPD2     C14379   2.880   0.596  14.517 -0.1838 -0.2814 -0.2566
    4MPD2    C114380   2.965   0.535  14.604 -0.6547 -0.2935  0.6136
    4MPD2    C214381   2.908   0.448  14.695  0.4159 -0.1378 -0.4509
    4MPD2    C314382   2.774   0.422  14.708 -0.7491  0.1793 -0.4632
    4MPD2    C414383   2.693   0.482  14.611  0.3813 -0.0167 -0.3092
    4MPD2    C514384   2.750   0.563  14.521  0.1269  0.0234 -0.2825
    4MPD2     H14385   2.978   0.397  14.761  1.9426  2.5638  0.0192
    4MPD2    H114386   2.585   0.480  14.601  0.5611 -3.0851 -1.7233
    4MPD2    H214387   2.924   0.672  14.453 -0.7697 -0.2893 -0.6745
    4MPD2    H314388   2.683   0.615  14.453 -3.9739 -2.7877  1.6373
    4MPD2     N14389   2.728   0.310  14.782 -0.7279 -0.2906  0.0385
    4MPD2    H514390   2.801   0.255  14.825 -1.3957  0.1300  1.7350
    4MPD2    N114391   3.098   0.551  14.605  0.6498 -0.6535  0.7455
    4MPD2    H714392   3.142   0.516  14.690  1.1225 -1.6215  0.1059
    5TMC2    C114393   3.154   4.452  15.574  0.3955  0.1150  0.4352
    5TMC2    C214394   3.270   4.524  15.589  0.3732  0.4154 -1.0243
    5TMC2    C314395   3.350   4.519  15.483 -0.4136  0.5087  0.4877
    5TMC2    C414396   3.133   4.369  15.467  0.2374 -0.1161  0.4053
    5TMC2    C514397   3.219   4.378  15.362  0.4607  1.2641  0.1265
    5TMC2    C614398   3.336   4.446  15.368  0.3301  1.0578 -0.2471
    5TMC2     C14399   3.038   4.520  15.624  0.8136  0.7870 -0.4281
    5TMC2     O14400   3.032   4.564  15.740 -0.1541  0.0143 -0.0321
    5TMC2     H14401   3.281   4.604  15.661  0.4875  1.8646 -2.6568
    5TMC2    H114402   3.040   4.315  15.452 -0.4393  0.9721  0.6387
    5TMC2    H214403   3.408   4.469  15.291  0.7689  0.8305  0.0914
    5TMC2    C714404   3.142   4.417  15.243  0.5266  0.3639 -0.0864
    5TMC2    C814405   3.487   4.558  15.506  0.2256 -0.3125  0.5566
    5TMC2    O114406   3.022   4.420  15.264 -0.2578  0.1274 -0.8733
    5TMC2    O214407   3.559   4.582  15.411 -0.3840 -0.0458  0.5295
    5TMC2    O514408   3.526   4.490  15.617  0.1248 -0.2792  0.3082
    5TMC2    H514409   3.451   4.442  15.658  0.1065  0.0548  0.6656
    6MPD2     C14410   2.629   0.064  15.458  0.6541  1.0658  0.2401
    6MPD2    C114411   2.671   4.703  15.361 -0.2573 -1.1999 -0.0707
    6MPD2    C214412   2.778   4.617  15.381  0.7554  0.6282 -0.7277
    6MPD2    C314413   2.842   4.619  15.506 -0.6410 -0.1123  0.5232
    6MPD2    C414414   2.801   4.702  15.608 -0.2289 -0.7495  0.2248
    6MPD2    C514415   2.694   0.064  15.583  0.3700  0.5226 -0.1016
    6MPD2     H14416   2.809   4.554  15.299  0.8850  0.0282 -0.2149
    6MPD2    H114417   2.846   4.709  15.707  0.6170  0.7168 -0.2583
    6MPD2    H214418   2.544   0.131  15.450  0.7548  1.2139  0.4279
    6MPD2    H314419   2.652   0.131  15.656  0.5220 -0.7569  1.1479
    6MPD2     N14420   2.956   4.538  15.516 -0.0127 -0.0275 -0.0483
    6MPD2    H514421   2.983   4.495  15.428 -0.4337 -0.6936  0.1411
    6MPD2    N114422   2.620   4.693  15.220 -0.5667 -0.1011  0.1908
    6MPD2    H714423   2.665   4.632  15.152 -1.0120 -0.5744  0.3203
  945NH3     N114424   2.959   1.072  11.201 -0.5754  0.5525 -0.8841
  945NH3     H214425   2.944   1.063  11.101  0.4709 -0.1169 -0.9730
  945NH3     H314426   3.013   1.158  11.197  2.5728 -1.2979  3.1959
  945NH3     H414427   2.868   1.104  11.235 -0.2167 -1.4620  1.9380
  946SOD     NA14428   2.444   3.428  15.324  0.4527  0.0522  0.0399
  947SOD     NA14429   1.716   3.082  14.571 -0.6127  0.4759  0.3347
  948SOD     NA14430   3.532   3.155  10.292 -0.0725 -0.0763  0.1921
  949SOD     NA14431   0.189   4.097  11.627  0.2607 -0.1689 -0.1735
  950SOD     NA14432   2.118   4.531   0.288  0.3157 -0.3160  0.3917
  951SOD     NA14433   0.434   1.654  17.106 -0.8739  0.7439 -0.1396
  952SOD     NA14434   1.109   3.511  14.995  0.0904  0.0329  0.4699
  953SOD     NA14435   2.841   0.425   2.731 -0.0611  0.1471 -0.1224
  954SOD     NA14436   4.161   3.823  11.183  0.4081  0.4514 -0.3584
  955SOD     NA14437   3.540   0.203  14.936 -0.1991 -0.5905  0.4414
  956SOD     NA14438   2.470   4.129   8.727  0.2173 -0.1272  1.0801
  957SOD     NA14439   2.584   2.959  13.537 -0.1553 -0.2280  0.6016
  958SOD     NA14440   0.098   4.174   1.497 -0.0155  0.2203 -0.4892
  959SOD     NA14441   0.941   4.335   0.134 -0.0632 -0.7025  0.1829
  960SOD     NA14442   4.149   4.220  12.125 -0.0599  0.5369 -0.5024
  961SOD     NA14443   0.085   3.258   0.360  0.4166 -0.2759 -0.1888
  962SOD     NA14444   1.906   2.255   8.664  0.1443  0.1030 -0.2156
  963SOD     NA14445   1.076   3.970  15.399 -0.3550  0.0781 -0.4413
  964SOD     NA14446   1.415   0.508   8.390  0.3355 -0.1625  0.1688
  965SOD     NA14447   2.063   3.883  10.936  0.3872 -0.0021  0.0396
  966SOD     NA14448   4.319   0.620  15.147 -0.0187 -0.1577 -0.3927
  967SOD     NA14449   3.414   3.468  10.242 -0.1526  0.7531  0.3403
  968SOD     NA14450   4.330   4.115  14.033  0.3468  0.5730  0.0111
  969SOD     NA14451   0.362   1.210   1.120 -0.5359 -0.3781 -0.4611
  970SOD     NA14452   0.350   0.265   4.172 -0.6607  0.0540 -0.0810
  971SOD     NA14453   4.699   3.638  12.921 -0.6799  0.3735 -0.2885
  972SOD     NA14454   4.164   4.129   2.750 -0.1437  0.5361 -0.0841
  973SOD     NA14455   0.936   3.277   7.688 -0.3329 -0.1702 -0.3779
  974SOD     NA14456   0.777   2.597  14.018  0.1398 -0.3988 -0.1204
  975SOD     NA14457   2.468   4.675   7.432  0.6947 -0.1587  0.0995
  976SOD     NA14458   0.037   1.729   8.099  0.6503 -0.0666 -0.3810
  977SOD     NA14459   2.183   2.888  10.720  0.1199 -0.4523  0.2755
  978SOD     NA14460   0.304   2.553   1.806 -0.2540  0.5214  0.2068
  979SOD     NA14461   4.451   0.377  15.376  0.4047  0.5607  0.9451
  980SOD     NA14462   1.982   2.794  16.327  0.3393  0.2455 -0.3966
  981SOD     NA14463   2.974   0.789  12.357 -0.2382 -0.1265 -0.0670
  982SOD     NA14464   2.420   2.860   1.884  0.8655 -0.0500 -0.0181
  983SOD     NA14465   2.683   4.223  10.089 -0.3519  0.1316 -0.0195
  984SOD     NA14466   1.372   2.768   0.952 -0.2104 -0.6163  0.0570
  985SOD     NA14467   2.899   1.463   0.761 -0.0566  0.0855  0.3658
  986SOD     NA14468   1.120   3.096   3.892 -0.2321 -0.3312  0.0121
  987SOD     NA14469   3.886   2.127  11.657  0.5700 -0.1282 -0.2762
  988SOD     NA14470   1.173   1.105  13.482 -0.3131  0.4699 -0.3328
  989SOD     NA14471   4.567   1.030   9.648 -0.0346 -0.0953  0.2396
  990SOD     NA14472   3.979   4.163  10.705 -0.4664 -0.0310  0.5435
  991SOD     NA14473   1.009   3.045  12.972 -0.3656  0.1845 -0.2396
  992SOD     NA14474   4.278   1.202  15.494 -0.1557  0.2129 -0.1867
  993SOD     NA14475   2.269   4.331   0.954  0.4678  0.3002  0.4254
  994SOD     NA14476   0.405   2.783  12.406  0.1978  0.4186 -0.1398
  995SOD     NA14477   0.926   4.513  16.197  0.2237  0.1191  0.2385
  996SOD     NA14478   3.284   3.751  10.008  0.2998  0.0756  0.1626
  997SOD     NA14479   3.285   4.536   1.172  0.2909  0.2173 -0.1530
  998SOD     NA14480   0.088   2.628   4.475 -0.2830  0.1784 -0.0222
  999SOD     NA14481   4.470   3.680   7.642  0.5263  0.1105 -0.4794
 1000SOD     NA14482   0.346   3.182   0.147 -0.2047 -0.0664  0.2557
 1001SOD     NA14483   2.136   2.114   9.272 -0.1443 -0.0277 -0.3129
 1002SOD     NA14484   1.111   4.701  13.031  0.1684 -0.4264  0.6345
 1003SOD     NA14485   4.283   4.645  12.478  0.0201 -0.0796  0.1753
 1004SOD     NA14486   4.022   0.170   9.249 -0.1533 -0.6652 -0.0147
 1005SOD     NA14487   3.679   2.756  13.047  0.3300 -0.1061  0.5866
 1006SOD     NA14488   3.406   3.264   9.953  0.0431  0.3808 -0.0571
 1007SOD     NA14489   3.343   3.726  10.459  0.3062  0.1325 -0.6559
 1008SOD     NA14490   4.111   4.477  12.271 -0.2811  0.0663 -0.4827
 1009SOD     NA14491   3.722   0.246  14.697 -0.2459  0.2075  0.3055
 1010SOD     NA14492   1.260   4.061  14.978 -0.1110  0.2483 -0.4757
 1011SOD     NA14493   2.844   4.084  10.842  0.2930 -0.3061  0.3621
 1012SOL     OW14494   3.126   0.802   7.408  0.3324  0.1069 -0.2865
 1012SOL    HW114495   3.143   0.715   7.373 -0.4951  0.1918 -0.9062
 1012SOL    HW214496   3.152   0.856   7.333  0.3391  0.0145 -0.3515
 1013SOL     OW14497   1.131   2.654   3.211  0.1035  0.5614  1.0618
 1013SOL    HW114498   1.112   2.747   3.223 -1.5739  0.5523 -1.4668
 1013SOL    HW214499   1.045   2.616   3.232 -0.3539  0.4038 -1.0565
 1014SOL     OW14500   2.009   2.496  14.470 -0.4298 -0.1323 -0.0088
 1014SOL    HW114501   2.009   2.585  14.504  1.4429 -0.0637 -0.2033
 1014SOL    HW214502   1.978   2.472  14.557 -1.8874 -0.0748 -0.5029
 1015SOL     OW14503   1.208   4.475  17.418  0.0504 -0.4107 -0.2351
 1015SOL    HW114504   1.125   4.492  17.463  0.6232  0.7571  0.3533
 1015SOL    HW214505   1.263   4.552  17.433 -1.5762  0.1227  2.9670
 1016SOL     OW14506   1.066   2.017   6.154  1.0079  0.5112  0.1291
 1016SOL    HW114507   1.039   1.932   6.119  1.8533  0.8107 -1.2664
 1016SOL    HW214508   0.987   2.047   6.199  0.5166  1.9738 -1.7046
 1017SOL     OW14509   1.902   1.493   8.830 -0.4071 -0.4341 -0.4925
 1017SOL    HW114510   1.963   1.530   8.766  0.2938 -1.7915 -0.6112
 1017SOL    HW214511   1.898   1.576   8.877 -0.3235 -1.2090  0.9034
 1018SOL     OW14512   4.527   0.157   0.366  0.1614  0.0292 -0.2188
 1018SOL    HW114513   4.482   0.124   0.443  1.5727 -0.5349  0.3754
 1018SOL    HW214514   4.574   0.226   0.414 -1.3411 -0.2909  1.7031
 1019SOL     OW14515   2.950   0.001  14.499 -0.4572  0.4842  0.3740
 1019SOL    HW114516   2.890   0.059  14.452 -1.6538 -0.3781  0.8711
 1019SOL    HW214517   2.892   4.653  14.530  0.7066 -0.4949  0.4025
 1020SOL     OW14518   0.951   1.797  14.485  0.4525 -0.2922  0.8552
 1020SOL    HW114519   0.882   1.733  14.502  1.4303 -1.6998 -0.5020
 1020SOL    HW214520   0.991   1.756  14.408  0.7425  0.8544  0.3865
 1021SOL     OW14521   3.900   2.580   4.041 -0.0955  0.7047 -0.1136
 1021SOL    HW114522   3.991   2.609   4.034  0.1514 -0.2406 -0.8091
 1021SOL    HW214523   3.861   2.614   3.961  0.3074  1.4313  0.0010
 1022SOL     OW14524   3.752   2.576   4.540 -0.2589 -0.1954  0.0866
 1022SOL    HW114525   3.765   2.577   4.445 -3.8097 -0.2277 -0.3894
 1022SOL    HW214526   3.668   2.619   4.558 -0.2895 -0.3977  0.4323
 1023SOL     OW14527   4.173   4.388   5.752  0.1643 -0.3567 -0.6941
 1023SOL    HW114528   4.093   4.393   5.805 -1.9284 -0.2976 -3.8959
 1023SOL    HW214529   4.205   4.306   5.790  0.0092 -1.0313 -2.0256
 1024SOL     OW14530   3.885   1.872   3.178  0.0851  0.0475 -0.1105
 1024SOL    HW114531   3.943   1.946   3.200 -2.1315  1.0642  2.3361
 1024SOL    HW214532   3.883   1.861   3.083 -3.5907  1.5763 -0.2128
 1025SOL     OW14533   4.301   3.478   2.619  0.3008 -0.1865  0.0194
 1025SOL    HW114534   4.246   3.408   2.584 -1.5423  0.5853  1.3519
 1025SOL    HW214535   4.377   3.426   2.644 -0.7212 -1.0369  1.3787
 1026SOL     OW14536   0.528   0.115  14.553 -0.5688  0.2350  0.1932
 1026SOL    HW114537   0.516   0.129  14.647 -1.5692  0.3479  0.0461
 1026SOL    HW214538   0.535   0.020  14.551  2.2040  0.4519 -1.3659
 1027SOL     OW14539   2.167   2.967  16.926  0.0549 -0.2018  0.2261
 1027SOL    HW114540   2.085   2.923  16.909 -0.6303  1.2806 -0.3295
 1027SOL    HW214541   2.232   2.914  16.880 -0.0404  1.1191 -1.4325
 1028SOL     OW14542   1.005   1.386   5.748  0.3687  0.1968 -0.2781
 1028SOL    HW114543   0.929   1.441   5.767  0.8821  1.6843 -2.5022
 1028SOL    HW214544   1.009   1.405   5.654 -0.8899 -1.3804 -0.6414
 1029SOL     OW14545   4.522   3.584  13.113  0.3219  0.0693 -0.3681
 1029SOL    HW114546   4.609   3.566  13.148 -0.5413  0.4822  1.9466
 1029SOL    HW214547   4.484   3.500  13.136  0.6426  0.1134  0.3227
 1030SOL     OW14548   2.120   0.025   1.005  0.1353  0.2072  0.2228
 1030SOL    HW114549   2.059   0.094   0.980  1.0798  0.5876 -1.0306
 1030SOL    HW214550   2.186   0.052   0.942  1.0825 -2.8668 -0.1072
 1031SOL     OW14551   1.781   3.063  11.522 -0.0969 -0.0038  0.2670
 1031SOL    HW114552   1.800   2.973  11.497  0.2519  0.0318  0.4018
 1031SOL    HW214553   1.868   3.097  11.543  0.2909 -0.4786 -0.5763
 1032SOL     OW14554   3.285   3.162   1.733  0.1406  0.4851 -0.5998
 1032SOL    HW114555   3.222   3.220   1.691  0.8462  2.0631  0.5004
 1032SOL    HW214556   3.237   3.144   1.814  1.8387 -0.9919  0.0791
 1033SOL     OW14557   2.426   1.224  16.073 -0.2407  0.4184  0.5776
 1033SOL    HW114558   2.416   1.287  16.144 -1.9675 -0.1621  0.8403
 1033SOL    HW214559   2.389   1.276  16.002 -0.4772 -1.7723 -0.8920
 1034SOL     OW14560   2.473   2.675   7.987 -0.3586 -0.6353  0.1550
 1034SOL    HW114561   2.428   2.732   8.049  1.2810  0.9615 -0.1380
 1034SOL    HW214562   2.498   2.737   7.919  3.2386  0.4083  2.4188
 1035SOL     OW14563   4.054   3.910  10.351 -0.0757  0.2164 -0.1830
 1035SOL    HW114564   4.037   3.826  10.308 -0.4692  1.1236 -1.7902
 1035SOL    HW214565   4.150   3.907  10.352 -0.1129 -1.4367 -1.0717
 1036SOL     OW14566   2.586   4.156   9.497  0.0431  0.2929 -0.0438
 1036SOL    HW114567   2.634   4.227   9.539 -2.7070  0.5328  2.7680
 1036SOL    HW214568   2.588   4.093   9.569  0.3373  0.4195  0.0597
 1037SOL     OW14569   1.146   3.804   7.200 -0.1161  0.2052 -0.3447
 1037SOL    HW114570   1.200   3.848   7.134 -1.7457  0.5787 -1.4329
 1037SOL    HW214571   1.090   3.868   7.244 -0.6079 -0.5007  0.0532
 1038SOL     OW14572   2.117   0.001   7.908 -0.1524 -0.1634  0.2725
 1038SOL    HW114573   2.033   4.691   7.941 -0.7412  0.3942 -0.6994
 1038SOL    HW214574   2.165   4.643   7.882 -0.5366 -0.2114 -0.3008
 1039SOL     OW14575   3.353   2.979  15.221 -0.4699 -0.4072  0.0534
 1039SOL    HW114576   3.387   2.920  15.289  1.1223  1.1017  0.5820
 1039SOL    HW214577   3.381   3.065  15.253  2.2433 -1.8639  1.5803
 1040SOL     OW14578   4.070   0.907   8.936 -0.1942 -0.4330  0.4430
 1040SOL    HW114579   4.138   0.840   8.926  0.3263  0.1438  0.1535
 1040SOL    HW214580   4.016   0.889   8.859 -0.0559 -2.5686  0.8576
 1041SOL     OW14581   3.515   2.877   8.859 -0.2483  0.1636 -1.2417
 1041SOL    HW114582   3.589   2.828   8.896 -1.3839 -0.4958  0.1609
 1041SOL    HW214583   3.479   2.914   8.940 -2.1460  1.6997 -2.7948
 1042SOL     OW14584   2.222   3.133  13.541  0.0951  0.3732 -0.2413
 1042SOL    HW114585   2.217   3.215  13.491 -2.3964  0.1678 -0.3162
 1042SOL    HW214586   2.132   3.117  13.567  0.0134 -0.9035 -1.2865
 1043SOL     OW14587   3.750   2.082   6.193  0.0145  0.7535  0.3634
 1043SOL    HW114588   3.722   2.042   6.110  0.0384  1.3776  0.0505
 1043SOL    HW214589   3.775   2.008   6.248 -2.3511 -0.2772  0.0406
 1044SOL     OW14590   1.507   1.997  17.109 -0.0205 -0.1798 -0.5065
 1044SOL    HW114591   1.574   2.048  17.063 -0.0320 -1.5474 -2.0380
 1044SOL    HW214592   1.497   1.924  17.048  1.5413 -0.9842  0.1985
 1045SOL     OW14593   4.135   4.101   3.601  0.0718  0.5013 -0.1889
 1045SOL    HW114594   4.227   4.083   3.618 -0.6992 -1.0585  2.3662
 1045SOL    HW214595   4.102   4.026   3.649 -2.6562  1.2907 -0.7900
 1046SOL     OW14596   0.247   1.062   4.718 -0.1937 -0.3357 -0.1871
 1046SOL    HW114597   0.235   0.968   4.717 -1.1688 -0.1802 -1.5167
 1046SOL    HW214598   0.158   1.088   4.742  0.8048 -0.1505  3.3500
 1047SOL     OW14599   1.780   0.254   3.624  0.2483  0.2619  0.4102
 1047SOL    HW114600   1.867   0.242   3.662  1.0380 -0.7372 -1.6791
 1047SOL    HW214601   1.807   0.308   3.550  1.6676 -1.5971 -0.4498
 1048SOL     OW14602   2.057   3.671  11.247  0.2017 -0.3280 -0.2647
 1048SOL    HW114603   2.061   3.711  11.160  0.5652 -1.1206 -0.6111
 1048SOL    HW214604   1.981   3.614  11.243 -0.0025 -0.1144  0.6292
 1049SOL     OW14605   2.731   2.377  13.074  0.3013  0.1787  0.5920
 1049SOL    HW114606   2.722   2.382  13.169 -1.1091 -0.3332  0.4920
 1049SOL    HW214607   2.816   2.334  13.074 -0.1251 -0.6870  0.0300
 1050SOL     OW14608   1.550   1.675   6.809 -0.0200 -0.0840 -0.6197
 1050SOL    HW114609   1.532   1.718   6.726 -0.6330  1.7301  0.4367
 1050SOL    HW214610   1.464   1.672   6.851  0.0263 -0.7790 -0.5735
 1051SOL     OW14611   3.000   2.264   7.247 -0.0465  0.5136 -0.2702
 1051SOL    HW114612   2.935   2.316   7.294 -1.5540 -0.0942 -1.6929
 1051SOL    HW214613   2.973   2.283   7.158  0.7154  0.2131 -0.5702
 1052SOL     OW14614   3.155   3.533  13.352  0.1068 -0.2782 -0.2038
 1052SOL    HW114615   3.131   3.458  13.298  1.8147  0.8155 -2.4533
 1052SOL    HW214616   3.175   3.595  13.283  0.4378  1.9600  1.8892
 1053SOL     OW14617   2.526   1.770   3.842  0.1216 -0.1822  0.3393
 1053SOL    HW114618   2.525   1.809   3.754 -0.1626 -0.5839  0.1616
 1053SOL    HW214619   2.573   1.689   3.825  2.3484  1.2944 -0.4726
 1054SOL     OW14620   1.433   3.071   3.118 -0.0985  0.1809  0.0289
 1054SOL    HW114621   1.441   2.979   3.093 -2.5142 -0.3525  1.2247
 1054SOL    HW214622   1.454   3.072   3.211 -2.4835  0.1475  0.5744
 1055SOL     OW14623   0.409   0.520  10.088 -0.0818 -0.1311 -0.2674
 1055SOL    HW114624   0.313   0.528  10.086 -0.0526 -0.2301 -3.2471
 1055SOL    HW214625   0.436   0.611  10.083  1.3183 -0.5753 -0.7389
 1056SOL     OW14626   3.132   3.476   4.356  0.3192  0.0010  0.8644
 1056SOL    HW114627   3.078   3.400   4.378 -0.6390  0.6769  0.8617
 1056SOL    HW214628   3.190   3.487   4.431  0.2876  1.0532  0.7360
 1057SOL     OW14629   3.574   3.757   7.959  0.4626 -0.4583 -0.0935
 1057SOL    HW114630   3.627   3.751   7.879 -1.4964 -3.0528 -1.2071
 1057SOL    HW214631   3.566   3.663   7.979  0.3411 -0.4838 -0.2652
 1058SOL     OW14632   0.524   2.010   4.920  0.3060 -0.3032  0.0421
 1058SOL    HW114633   0.609   2.005   4.962 -0.0336  0.8239  0.8589
 1058SOL    HW214634   0.519   2.102   4.893  0.6215  0.1861  1.6880
 1059SOL     OW14635   1.298   2.875   1.925 -0.0939 -0.1088  0.5449
 1059SOL    HW114636   1.365   2.823   1.880  0.3935 -0.1782  1.3513
 1059SOL    HW214637   1.256   2.930   1.859 -0.1765 -0.3770  0.3710
 1060SOL     OW14638   3.391   1.089   7.163  0.4979  0.2741 -0.1153
 1060SOL    HW114639   3.447   1.140   7.222 -0.2358  1.3498 -0.3479
 1060SOL    HW214640   3.334   1.160   7.133  0.9428  0.3489 -0.7986
 1061SOL     OW14641   4.490   2.056   7.254 -0.2406  0.4272  0.2438
 1061SOL    HW114642   4.468   2.000   7.328  0.7405 -1.6070 -1.0027
 1061SOL    HW214643   4.478   2.146   7.284 -0.6072  0.7117 -0.7508
 1062SOL     OW14644   4.045   1.469   5.396  0.2196 -0.4214  0.6989
 1062SOL    HW114645   3.961   1.512   5.377  1.7340  1.1458 -2.4590
 1062SOL    HW214646   4.107   1.517   5.341 -1.6752  0.6596 -0.4889
 1063SOL     OW14647   3.616   1.150   3.887 -0.3842 -0.5599 -0.6230
 1063SOL    HW114648   3.595   1.113   3.973  1.1375 -2.1785 -0.9449
 1063SOL    HW214649   3.562   1.093   3.832 -1.5979 -0.3127  0.3129
 1064SOL     OW14650   3.341   3.370   8.832 -0.0904  0.3952  0.3174
 1064SOL    HW114651   3.347   3.278   8.857 -1.0799  0.5040  0.9309
 1064SOL    HW214652   3.434   3.385   8.812 -0.6431  2.5255 -0.6194
 1065SOL     OW14653   4.207   3.439  13.579  0.6563  0.2483 -0.3723
 1065SOL    HW114654   4.240   3.502  13.515  2.8251  0.9258  1.4127
 1065SOL    HW214655   4.136   3.486  13.622 -0.4830 -1.3650 -0.4991
 1066SOL     OW14656   2.425   4.404   5.645  0.1229  0.1535 -0.5579
 1066SOL    HW114657   2.401   4.451   5.725  1.7692 -1.1318  0.6964
 1066SOL    HW214658   2.393   4.317   5.667 -1.2324  1.2954  2.0426
 1067SOL     OW14659   1.055   0.447   6.064 -0.5065 -0.0100 -0.0788
 1067SOL    HW114660   1.106   0.428   6.142  1.8229 -0.2857 -1.6464
 1067SOL    HW214661   0.971   0.412   6.094 -0.1515 -0.1498  0.7577
 1068SOL     OW14662   1.251   2.354  13.587  1.0261  0.7856  0.2893
 1068SOL    HW114663   1.340   2.340  13.618 -0.3203 -1.6297  3.1014
 1068SOL    HW214664   1.234   2.271  13.543  1.1847 -0.0553  1.7947
 1069SOL     OW14665   2.158   3.473   9.412  0.4685  0.2825 -0.0528
 1069SOL    HW114666   2.252   3.467   9.428  0.5928  1.1689 -0.4425
 1069SOL    HW214667   2.134   3.552   9.461  1.5641 -0.9924  2.5405
 1070SOL     OW14668   2.720   4.089   8.772 -0.3738  0.3458 -0.3287
 1070SOL    HW114669   2.812   4.062   8.768 -0.9051 -1.5620  0.0864
 1070SOL    HW214670   2.705   4.128   8.857  0.7529 -0.7341  0.3785
 1071SOL     OW14671   0.946   1.103   6.768  0.9359  0.1518  0.0489
 1071SOL    HW114672   0.874   1.166   6.775  1.2260  0.5412 -0.4735
 1071SOL    HW214673   0.914   1.024   6.813  0.6913 -0.8439 -1.8705
 1072SOL     OW14674   3.911   4.209   1.413 -0.1856  0.2732  0.5714
 1072SOL    HW114675   3.840   4.270   1.433 -1.4457 -0.8322 -0.5051
 1072SOL    HW214676   3.897   4.209   1.318 -0.3095  0.9340  0.5891
 1073SOL     OW14677   0.424   0.523   8.060 -0.2540  0.1271  0.5503
 1073SOL    HW114678   0.436   0.615   8.083 -1.0440  0.4199 -0.1791
 1073SOL    HW214679   0.515   0.503   8.038  0.5398  2.0778  2.0149
 1074SOL     OW14680   0.776   0.617   8.184 -0.4544 -0.6580 -0.4779
 1074SOL    HW114681   0.786   0.623   8.089 -1.9529 -4.2541 -0.8715
 1074SOL    HW214682   0.711   0.681   8.214  1.5206 -0.0343  2.5076
 1075SOL     OW14683   0.678   4.280  14.616 -0.8662 -0.1944 -0.4080
 1075SOL    HW114684   0.603   4.323  14.657  0.5438  1.5635  0.3446
 1075SOL    HW214685   0.747   4.327  14.663 -1.0516  0.2785 -0.6037
 1076SOL     OW14686   4.687   0.870  17.431 -0.3986  0.5357  0.3430
 1076SOL    HW114687   4.680   0.931  17.504 -2.0634  1.6488 -0.7473
 1076SOL    HW214688   4.643   0.912  17.357 -0.0812  2.7215  1.3992
 1077SOL     OW14689   4.224   1.500   4.299  0.1019  0.4306 -0.0525
 1077SOL    HW114690   4.300   1.490   4.356  0.2890 -0.9695 -0.5649
 1077SOL    HW214691   4.157   1.533   4.360 -0.4049  0.0917 -0.4269
 1078SOL     OW14692   2.686   3.596   7.330  0.5579  0.3189  0.6259
 1078SOL    HW114693   2.692   3.595   7.235  0.0623  1.1751  0.5857
 1078SOL    HW214694   2.602   3.639   7.347  0.1025 -0.3827  0.1491
 1079SOL     OW14695   0.191   0.129   2.866 -0.0359 -0.4720  0.8548
 1079SOL    HW114696   0.126   0.129   2.935  0.9116 -1.4365  1.7452
 1079SOL    HW214697   0.185   0.222   2.844 -2.7978 -0.9581 -0.3360
 1080SOL     OW14698   4.577   4.306   2.045 -0.3351  0.4148  0.0643
 1080SOL    HW114699   4.616   4.218   2.046 -0.0281  0.5548  1.2526
 1080SOL    HW214700   4.582   4.330   1.953  2.1684 -0.0869  0.0679
 1081SOL     OW14701   1.442   2.367   7.068  0.2318 -0.0560  1.0180
 1081SOL    HW114702   1.398   2.443   7.106  0.2751 -0.2706  1.5004
 1081SOL    HW214703   1.464   2.399   6.981  1.0645  1.2271  1.7117
 1082SOL     OW14704   3.165   3.955   0.387 -0.1517  0.7533 -0.2367
 1082SOL    HW114705   3.186   4.010   0.311  1.7648  0.6306  0.2061
 1082SOL    HW214706   3.087   3.999   0.419  1.1717  1.6798  1.6984
 1083SOL     OW14707   1.266   3.102   8.824  0.2756 -0.3747  0.2176
 1083SOL    HW114708   1.225   3.170   8.770  1.6565  2.4781  2.7482
 1083SOL    HW214709   1.278   3.137   8.912  1.5648  1.5621 -0.7351
 1084SOL     OW14710   1.489   2.145   8.343 -0.5384  0.7267  0.2751
 1084SOL    HW114711   1.449   2.082   8.282  2.1558 -0.5430 -0.1741
 1084SOL    HW214712   1.431   2.220   8.331 -1.5696  0.2234  2.1827
 1085SOL     OW14713   1.441   3.894   5.054 -0.1628 -0.5852  0.1292
 1085SOL    HW114714   1.413   3.933   5.137  2.0254  0.9792  0.1325
 1085SOL    HW214715   1.517   3.844   5.084  0.0307 -0.7378 -0.6221
 1086SOL     OW14716   2.267   3.500   8.062 -0.1373  0.2598  0.4963
 1086SOL    HW114717   2.247   3.411   8.091  1.0181  0.3676  1.5874
 1086SOL    HW214718   2.193   3.553   8.092 -0.4919 -0.3007  0.6111
 1087SOL     OW14719   1.583   0.415   8.268  0.4548  0.3891  0.0903
 1087SOL    HW114720   1.595   0.324   8.243 -2.5346 -0.3466  1.2627
 1087SOL    HW214721   1.596   0.466   8.188  1.1704  0.2543  0.1243
 1088SOL     OW14722   2.723   2.259   9.090 -0.6494  0.0998  0.7980
 1088SOL    HW114723   2.792   2.323   9.076  0.7536 -1.5243  0.2724
 1088SOL    HW214724   2.721   2.243   9.185 -1.2134 -3.6525  0.1574
 1089SOL     OW14725   2.438   1.483   8.181  0.2030 -0.0924  0.0891
 1089SOL    HW114726   2.462   1.410   8.238  0.7055 -0.0284 -0.0447
 1089SOL    HW214727   2.509   1.491   8.117  0.3136  0.2154  0.2499
 1090SOL     OW14728   3.456   0.819   9.424  0.0792  0.4853  0.0972
 1090SOL    HW114729   3.491   0.742   9.468  2.1551  0.8591 -0.8812
 1090SOL    HW214730   3.405   0.854   9.497  1.5524  0.1936  1.2597
 1091SOL     OW14731   0.197   3.759  11.925 -0.0579  0.3703 -1.2535
 1091SOL    HW114732   0.288   3.739  11.945  0.2206 -0.3384 -3.1440
 1091SOL    HW214733   0.146   3.728  12.000  1.5603 -0.2784 -0.4316
 1092SOL     OW14734   1.197   1.672   1.839  0.2010 -0.3085  0.3574
 1092SOL    HW114735   1.130   1.605   1.830  0.0551 -0.0390 -0.5776
 1092SOL    HW214736   1.153   1.751   1.806  1.1535  0.0922  0.0550
 1093SOL     OW14737   4.136   3.639   3.775 -0.4388  0.0941 -0.9759
 1093SOL    HW114738   4.071   3.622   3.844  1.2981  2.6347  1.2674
 1093SOL    HW214739   4.103   3.577   3.710 -0.1806 -1.9851  0.8733
 1094SOL     OW14740   0.775   4.010   8.611 -0.7383  0.0382  0.1461
 1094SOL    HW114741   0.751   4.099   8.635 -0.0434  0.3489 -0.3445
 1094SOL    HW214742   0.719   3.953   8.664  1.7196 -1.1980  1.4481
 1095SOL     OW14743   2.663   3.705   7.985 -0.5959  0.0428  0.0411
 1095SOL    HW114744   2.666   3.758   8.065  1.5423  1.9606 -1.2947
 1095SOL    HW214745   2.757   3.685   7.982 -0.7090 -0.7731  1.6446
 1096SOL     OW14746   2.649   1.227  12.137  0.1265  0.3063  0.3249
 1096SOL    HW114747   2.680   1.159  12.195  2.0435  0.2300 -0.7922
 1096SOL    HW214748   2.607   1.177  12.067 -0.3711 -0.5926  1.2664
 1097SOL     OW14749   0.639   0.990   6.889  0.3349 -0.5135  0.0372
 1097SOL    HW114750   0.635   1.084   6.870 -1.5149 -0.6876 -0.4412
 1097SOL    HW214751   0.600   0.986   6.977  0.9127  0.8464  0.3489
 1098SOL     OW14752   1.423   1.168   8.403 -0.2137  0.4524 -0.4118
 1098SOL    HW114753   1.452   1.240   8.459  0.4788  0.2934 -0.5666
 1098SOL    HW214754   1.480   1.189   8.329  1.0034  0.3608  0.4863
 1099SOL     OW14755   3.858   0.333  17.517 -0.2668  0.0850 -0.4255
 1099SOL    HW114756   3.874   0.268  17.449 -2.4232 -1.0274  0.1272
 1099SOL    HW214757   3.918   0.405  17.497  0.6957 -0.0728  1.9549
 1100SOL     OW14758   3.909   3.291   3.858 -0.6240 -0.2459  0.0565
 1100SOL    HW114759   3.994   3.247   3.848 -1.0105 -1.0117  0.1210
 1100SOL    HW214760   3.880   3.257   3.942 -0.2596  0.2873  0.3950
 1101SOL     OW14761   3.605   1.349   6.156  0.1059 -0.2049 -0.1552
 1101SOL    HW114762   3.644   1.318   6.075 -0.7190 -0.8492 -0.3048
 1101SOL    HW214763   3.510   1.341   6.143 -0.0894  0.5059  0.8558
 1102SOL     OW14764   0.447   1.944  12.165  0.3148 -0.1352  0.4983
 1102SOL    HW114765   0.398   1.939  12.247 -0.4326  0.4659  0.0935
 1102SOL    HW214766   0.528   1.905  12.197  1.0490 -0.5504 -1.8690
 1103SOL     OW14767   4.609   4.398  13.867 -0.2891  1.0734 -0.1742
 1103SOL    HW114768   4.626   4.345  13.789  1.8953 -1.0466  1.7657
 1103SOL    HW214769   4.677   4.463  13.851  1.5162 -1.0542 -1.1754
 1104SOL     OW14770   4.158   1.736   1.393  0.1276  0.4794  0.3301
 1104SOL    HW114771   4.183   1.756   1.303 -0.8241  0.7213  0.1236
 1104SOL    HW214772   4.066   1.715   1.374  0.6501 -0.6700 -0.9725
 1105SOL     OW14773   4.236   3.132   4.562  0.0354  0.1673  0.3921
 1105SOL    HW114774   4.245   3.212   4.511  1.5377  1.3879  2.5605
 1105SOL    HW214775   4.238   3.051   4.512 -1.6260  0.0497  0.5052
 1106SOL     OW14776   1.861   1.773   6.883  0.2790  0.1715 -0.4389
 1106SOL    HW114777   1.796   1.706   6.861  2.0206 -1.3800 -0.8566
 1106SOL    HW214778   1.826   1.834   6.818 -1.3659  2.3004  2.4063
 1107SOL     OW14779   1.249   0.640   7.787 -0.6712 -0.0274 -0.4911
 1107SOL    HW114780   1.245   0.598   7.701  0.4539  1.2454 -1.1428
 1107SOL    HW214781   1.249   0.568   7.851 -2.1983  0.2898 -0.1383
 1108SOL     OW14782   3.569   2.879  13.202 -0.8705  0.3853 -0.1538
 1108SOL    HW114783   3.479   2.911  13.201 -0.8074  0.5253 -2.2514
 1108SOL    HW214784   3.619   2.951  13.239 -0.5728 -0.4434  1.0684
 1109SOL     OW14785   2.289   4.295   6.714 -0.5414 -0.4954 -0.2291
 1109SOL    HW114786   2.309   4.344   6.793  0.9702  1.5887 -1.9128
 1109SOL    HW214787   2.287   4.208   6.753 -2.4571 -0.1151  0.5521
 1110SOL     OW14788   2.198   1.815   0.537  0.0548 -0.1772 -0.3305
 1110SOL    HW114789   2.271   1.831   0.597 -0.7114  2.8575 -0.2528
 1110SOL    HW214790   2.131   1.760   0.578 -0.2173  0.1199 -0.3838
 1111SOL     OW14791   0.292   1.948   7.087  0.2054 -0.3817  0.4625
 1111SOL    HW114792   0.256   1.963   7.174 -1.6413 -0.5534 -0.2647
 1111SOL    HW214793   0.271   2.031   7.044 -2.7925 -0.0993  2.4520
 1112SOL     OW14794   4.504   1.772   5.678  0.4074  0.4205 -0.3213
 1112SOL    HW114795   4.514   1.865   5.661  1.3374  0.3357 -0.2082
 1112SOL    HW214796   4.450   1.762   5.757 -0.8425 -2.3542 -1.4966
 1113SOL     OW14797   4.518   1.938  17.286 -0.3898 -0.1945  0.1232
 1113SOL    HW114798   4.565   1.934  17.370 -0.7472  2.7415  0.4622
 1113SOL    HW214799   4.449   1.998  17.315 -0.2418 -0.1239  0.3325
 1114SOL     OW14800   1.637   0.632  13.667  0.0660  0.2320 -0.0216
 1114SOL    HW114801   1.730   0.652  13.655  0.6011 -2.1257  0.2817
 1114SOL    HW214802   1.605   0.633  13.577 -0.4712 -1.3275  0.1558
 1115SOL     OW14803   0.144   2.454   1.963 -0.4189  0.3209 -0.0423
 1115SOL    HW114804   0.123   2.389   1.896  0.9037 -0.8987  0.7315
 1115SOL    HW214805   0.206   2.405   2.017 -3.2100 -1.9103  1.1504
 1116SOL     OW14806   4.675   0.362   0.799  0.2813  0.1952  0.4258
 1116SOL    HW114807   4.654   0.286   0.853  1.5735 -0.8889 -0.5865
 1116SOL    HW214808   4.591   0.406   0.811  1.3734  2.2892  0.4765
 1117SOL     OW14809   1.971   3.728   0.884  0.0009 -0.2516  0.2382
 1117SOL    HW114810   1.917   3.695   0.812  1.1197 -0.4722 -0.4918
 1117SOL    HW214811   1.901   3.710   0.948 -0.7362  1.4803 -0.0544
 1118SOL     OW14812   3.086   0.869   9.847  0.4342 -0.1379  0.0236
 1118SOL    HW114813   3.004   0.841   9.888  1.3574 -0.9202  1.3248
 1118SOL    HW214814   3.140   0.794   9.873  0.9244 -0.0279 -0.6847
 1119SOL     OW14815   1.846   1.239   3.200  0.3883  0.0162 -0.4233
 1119SOL    HW114816   1.934   1.226   3.164  1.0721 -1.5547  1.8556
 1119SOL    HW214817   1.790   1.225   3.123 -1.5500  1.0726  0.7991
 1120SOL     OW14818   1.890   2.603   4.888 -0.4917 -0.0262  0.1905
 1120SOL    HW114819   1.916   2.559   4.969  0.6629 -1.2384 -0.8374
 1120SOL    HW214820   1.963   2.663   4.873  0.5198 -1.4918 -0.7251
 1121SOL     OW14821   0.740   4.506   2.595 -0.1271  0.6426 -0.4069
 1121SOL    HW114822   0.771   4.461   2.517  0.6421  1.1316 -0.3781
 1121SOL    HW214823   0.797   4.583   2.588 -0.7646  1.2106  0.5200
 1122SOL     OW14824   3.016   2.657   2.996  0.0206 -0.5480 -0.0540
 1122SOL    HW114825   3.049   2.684   2.910  1.9261 -1.1557  0.4802
 1122SOL    HW214826   3.008   2.744   3.035  1.6694  0.3479 -1.7318
 1123SOL     OW14827   0.161   3.734   7.728  0.4341 -0.5314  0.5770
 1123SOL    HW114828   0.132   3.723   7.818 -1.6328 -0.7895 -0.1209
 1123SOL    HW214829   0.084   3.709   7.677 -0.1343 -0.1622  1.2573
 1124SOL     OW14830   0.907   2.471   3.145 -0.4246 -0.0863  0.0857
 1124SOL    HW114831   0.980   2.445   3.088 -0.5424  0.1947 -0.1901
 1124SOL    HW214832   0.842   2.402   3.134 -1.5033  0.9660 -0.0370
 1125SOL     OW14833   1.497   3.144  17.135  0.0858  0.3533 -0.4048
 1125SOL    HW114834   1.525   3.192  17.212  0.2464  0.1314 -0.3261
 1125SOL    HW214835   1.475   3.212  17.070  1.5217 -1.4312 -2.7718
 1126SOL     OW14836   0.800   2.807   8.634 -0.2432  0.3132  0.1533
 1126SOL    HW114837   0.773   2.742   8.699  1.4654  0.6872  1.2032
 1126SOL    HW214838   0.721   2.806   8.579  0.3058  0.3563 -0.6365
 1127SOL     OW14839   0.538   3.797  13.500  0.1868 -0.2569 -0.4670
 1127SOL    HW114840   0.488   3.722  13.533 -0.1800  1.6814  3.3291
 1127SOL    HW214841   0.622   3.752  13.510  0.6388  0.5249 -0.7283
 1128SOL     OW14842   1.892   2.404   5.663 -0.6629 -0.0533 -0.4217
 1128SOL    HW114843   1.840   2.326   5.684  1.1852 -0.7404  1.5240
 1128SOL    HW214844   1.885   2.453   5.745 -0.6548 -0.8286  0.0444
 1129SOL     OW14845   3.527   4.247   7.633 -0.2794 -0.1838  0.5356
 1129SOL    HW114846   3.614   4.272   7.665  0.6727 -0.9410 -1.4961
 1129SOL    HW214847   3.473   4.316   7.673  1.6140  0.8220  1.3686
 1130SOL     OW14848   2.032   1.296  17.458  0.4394  0.3898 -0.5214
 1130SOL    HW114849   2.028   1.239  17.382  0.7403  1.0676 -1.0494
 1130SOL    HW214850   2.056   1.241  17.532 -3.0544 -0.9159 -0.3983
 1131SOL     OW14851   4.282   4.576  12.970  0.3085 -0.1682 -0.1390
 1131SOL    HW114852   4.316   4.594  13.058 -1.8285 -1.1327  0.8806
 1131SOL    HW214853   4.342   4.618  12.909 -1.3439  0.0497 -1.6185
 1132SOL     OW14854   4.569   3.356   6.174 -0.2181 -0.4120 -0.2439
 1132SOL    HW114855   4.538   3.431   6.124  2.3867  0.6433 -0.3133
 1132SOL    HW214856   4.629   3.399   6.235 -1.8263 -0.1657  1.1621
 1133SOL     OW14857   1.311   0.046  15.654  0.3635  0.1610  0.1862
 1133SOL    HW114858   1.337   4.675  15.651 -1.9591 -0.4459 -1.0839
 1133SOL    HW214859   1.216   0.050  15.661  0.3664 -1.1103  0.8645
 1134SOL     OW14860   0.545   3.697  16.299  0.2629  0.4619 -0.0575
 1134SOL    HW114861   0.573   3.654  16.379 -0.1786  1.0548  0.4191
 1134SOL    HW214862   0.452   3.677  16.309  1.0054 -1.7207  2.4835
 1135SOL     OW14863   3.942   2.838   6.370  0.0886 -0.4140 -0.5719
 1135SOL    HW114864   3.850   2.851   6.392  0.6355 -2.1361  2.7698
 1135SOL    HW214865   3.981   2.805   6.451  3.4317  1.5012 -1.4043
 1136SOL     OW14866   1.374   2.733   8.515  0.2060 -0.5723 -0.0784
 1136SOL    HW114867   1.325   2.755   8.594  0.1158 -0.4864 -0.1586
 1136SOL    HW214868   1.366   2.817   8.470 -0.3316 -0.1927  0.7166
 1137SOL     OW14869   0.953   3.175  17.561 -0.2220 -0.3661  0.4327
 1137SOL    HW114870   0.871   3.210  17.595  0.3002  0.6815  0.6155
 1137SOL    HW214871   0.956   3.098  17.618  1.6140 -0.0575  0.7608
 1138SOL     OW14872   2.603   0.418   9.196  0.1107  1.0558  0.5310
 1138SOL    HW114873   2.654   0.368   9.260 -0.9550 -1.2677 -0.4700
 1138SOL    HW214874   2.529   0.465   9.235 -1.3935 -0.4165 -0.5838
 1139SOL     OW14875   0.439   3.468  15.577 -0.1899  0.6944 -0.3744
 1139SOL    HW114876   0.367   3.418  15.538  0.5016  0.0338 -0.7975
 1139SOL    HW214877   0.514   3.411  15.558 -1.1869 -0.1316 -1.8913
 1140SOL     OW14878   1.073   3.905   7.810 -0.1534  0.4311  0.3537
 1140SOL    HW114879   1.094   3.825   7.858 -1.4900  1.0300  1.9201
 1140SOL    HW214880   1.017   3.952   7.872 -2.5603  0.0477 -1.5491
 1141SOL     OW14881   2.033   0.748   5.282  0.1374 -0.2662 -1.2657
 1141SOL    HW114882   1.958   0.780   5.332 -1.3483 -0.6520 -3.2275
 1141SOL    HW214883   2.046   0.819   5.219  1.2332 -2.2078 -3.2251
 1142SOL     OW14884   1.194   1.592  17.227  0.0199 -0.5666 -0.5252
 1142SOL    HW114885   1.216   1.516  17.173  1.7758  0.6384 -1.4761
 1142SOL    HW214886   1.170   1.553  17.311 -2.1319  0.9449 -0.4434
 1143SOL     OW14887   0.867   1.262   6.544 -0.4230 -0.0438 -0.4999
 1143SOL    HW114888   0.805   1.203   6.587 -0.0207 -0.5103 -0.5695
 1143SOL    HW214889   0.881   1.224   6.458 -0.1074  1.6803 -1.2056
 1144SOL     OW14890   3.868   0.125   5.690 -0.1677 -0.2350 -0.3945
 1144SOL    HW114891   3.805   0.185   5.728 -2.9548 -2.9445 -0.7922
 1144SOL    HW214892   3.818   0.052   5.654  1.4157 -1.5366  0.0316
 1145SOL     OW14893   3.432   1.048   5.919 -0.4006 -0.1422  0.6124
 1145SOL    HW114894   3.429   1.117   5.852 -0.8120  0.5749  1.3740
 1145SOL    HW214895   3.343   1.012   5.919 -0.0348 -1.0509  0.7663
 1146SOL     OW14896   3.276   0.583   5.898  0.3481 -0.5763 -0.7009
 1146SOL    HW114897   3.219   0.558   5.972  0.6787  2.5156  0.5757
 1146SOL    HW214898   3.316   0.503   5.864 -0.0349 -0.6349 -1.0134
 1147SOL     OW14899   1.223   2.831  12.752  0.4282  0.4056 -0.1709
 1147SOL    HW114900   1.282   2.856  12.682 -0.0165  3.6085  0.5888
 1147SOL    HW214901   1.275   2.764  12.797  0.5066  1.1004  0.7649
 1148SOL     OW14902   2.586   3.420   2.224 -0.2153 -0.1226 -0.2856
 1148SOL    HW114903   2.506   3.369   2.237 -0.8701  1.5420  2.2695
 1148SOL    HW214904   2.591   3.432   2.129 -2.8567  0.1357 -0.4043
 1149SOL     OW14905   1.032   2.515   7.522 -0.1279  0.2256 -0.8057
 1149SOL    HW114906   0.937   2.514   7.533  0.0393  1.8950  0.7487
 1149SOL    HW214907   1.047   2.597   7.475  2.2243  0.3703  0.1861
 1150SOL     OW14908   3.897   3.524   5.925 -0.3560  0.2420  0.3069
 1150SOL    HW114909   3.926   3.613   5.906  0.5670  0.0754  0.9198
 1150SOL    HW214910   3.827   3.537   5.989 -0.2110 -0.0815  0.5345
 1151SOL     OW14911   1.557   2.756   2.260  0.2505 -0.0495 -0.3277
 1151SOL    HW114912   1.489   2.823   2.246  1.5575  1.8606  2.4370
 1151SOL    HW214913   1.511   2.675   2.238  0.3430 -0.0465 -0.5272
 1152SOL     OW14914   3.575   2.196   3.633 -0.1354 -0.2010 -0.5844
 1152SOL    HW114915   3.500   2.251   3.655 -0.0084 -0.4147  0.4063
 1152SOL    HW214916   3.600   2.155   3.717 -0.5811  1.0085  0.1343
 1153SOL     OW14917   2.361   0.080   5.975  0.2701 -0.0672 -0.1180
 1153SOL    HW114918   2.293   0.141   6.003 -0.6858 -0.3164 -1.8760
 1153SOL    HW214919   2.315   0.003   6.008  1.1715 -1.4700 -2.1343
 1154SOL     OW14920   3.599   0.427  11.158  0.4973 -0.6828  0.1884
 1154SOL    HW114921   3.559   0.508  11.125  1.2815  0.1658  1.3166
 1154SOL    HW214922   3.661   0.408  11.087 -0.3527  1.4641 -1.1337
 1155SOL     OW14923   2.115   4.193  10.264 -0.6683 -0.4005  0.7518
 1155SOL    HW114924   2.197   4.238  10.244 -0.7050  0.3735  2.3679
 1155SOL    HW214925   2.119   4.177  10.358 -0.8284  0.2788  0.8707
 1156SOL     OW14926   2.808   3.807   3.147 -0.3565  0.1390 -0.4934
 1156SOL    HW114927   2.787   3.888   3.102 -1.4081 -0.1342 -0.4831
 1156SOL    HW214928   2.880   3.776   3.092 -0.1399 -1.6841  0.7792
 1157SOL     OW14929   3.630   1.689   6.082  0.1494  0.1231 -0.0736
 1157SOL    HW114930   3.709   1.635   6.080  0.9986  1.3786 -0.6013
 1157SOL    HW214931   3.664   1.778   6.072 -1.2630  0.9119  2.1917
 1158SOL     OW14932   4.048   4.017   4.149  0.0220 -0.2513 -0.2085
 1158SOL    HW114933   4.053   4.079   4.076  0.5322 -0.0021  0.0402
 1158SOL    HW214934   4.139   3.997   4.173 -0.2102 -2.8157 -1.4831
 1159SOL     OW14935   0.164   2.028  16.333  0.0328 -0.1509  0.1709
 1159SOL    HW114936   0.244   1.988  16.297  0.8099  1.4409  0.1347
 1159SOL    HW214937   0.131   2.084  16.263  0.3052 -1.1611 -0.7552
 1160SOL     OW14938   1.283   1.690  10.370 -0.2691  0.1768 -0.0684
 1160SOL    HW114939   1.189   1.689  10.383  0.1118  0.8535  2.8247
 1160SOL    HW214940   1.301   1.784  10.362 -1.2940  0.1182 -3.0570
 1161SOL     OW14941   3.994   2.050   2.238  0.3194 -0.1414  0.0207
 1161SOL    HW114942   4.087   2.030   2.228 -0.0788 -0.1777 -3.5062
 1161SOL    HW214943   3.986   2.138   2.277 -0.8670  0.6078 -1.8967
 1162SOL     OW14944   2.407   0.324   1.453 -0.3189  0.2188  0.2369
 1162SOL    HW114945   2.391   0.280   1.536  0.4555 -0.3835  0.0657
 1162SOL    HW214946   2.498   0.336   1.480 -0.3236  2.5613 -0.8218
 1163SOL     OW14947   0.365   1.417   7.637  0.5435 -1.0240 -0.7120
 1163SOL    HW114948   0.402   1.504   7.626  0.0924 -0.7521 -0.0498
 1163SOL    HW214949   0.283   1.421   7.588  0.6035  0.0908 -0.7136
 1164SOL     OW14950   1.989   2.044  13.189 -0.4073 -0.3283 -0.7168
 1164SOL    HW114951   2.082   2.061  13.174 -0.7742  1.6549 -0.7771
 1164SOL    HW214952   1.996   1.962  13.237  2.8357  0.3854  0.0344
 1165SOL     OW14953   4.556   0.101  16.833 -0.0020  0.5879  0.1513
 1165SOL    HW114954   4.574   0.167  16.900 -1.4037  0.8780  0.2509
 1165SOL    HW214955   4.469   0.126  16.801  1.0883  2.5385 -1.2987
 1166SOL     OW14956   3.044   1.284   4.520 -0.2577  0.0539 -0.5835
 1166SOL    HW114957   3.050   1.227   4.443  1.6730  0.3747 -0.6622
 1166SOL    HW214958   2.950   1.292   4.537 -0.2009  2.4406 -1.4409
 1167SOL     OW14959   4.110   2.222   3.461 -0.0489 -0.2373 -0.0473
 1167SOL    HW114960   4.156   2.230   3.545  0.7273  1.8436 -0.6782
 1167SOL    HW214961   4.172   2.251   3.394  0.2456  0.7142  0.6280
 1168SOL     OW14962   0.557   3.166   8.038  0.8093  0.0034  0.1759
 1168SOL    HW114963   0.595   3.232   8.096  0.8545 -0.6255  0.8642
 1168SOL    HW214964   0.555   3.200   7.949  0.9142  0.2573  0.2701
 1169SOL     OW14965   1.240   0.400   8.268  0.2078  0.1153 -0.3675
 1169SOL    HW114966   1.232   0.315   8.312  0.1124  0.1936 -0.2299
 1169SOL    HW214967   1.153   0.439   8.258  0.2815  0.5710  0.6989
 1170SOL     OW14968   1.763   2.564   6.980  0.2394  0.2657 -0.7022
 1170SOL    HW114969   1.679   2.538   6.942  0.0221 -0.0490  0.0052
 1170SOL    HW214970   1.802   2.495   7.035 -0.1828  1.4947  1.1200
 1171SOL     OW14971   2.804   0.200   8.640 -0.2306  0.4860 -0.0147
 1171SOL    HW114972   2.807   0.183   8.545  1.3096 -0.7347  0.2470
 1171SOL    HW214973   2.896   0.203   8.667  0.4257 -0.5440 -2.1011
 1172SOL     OW14974   3.947   0.756   2.094 -0.0570 -0.4936  0.0456
 1172SOL    HW114975   3.867   0.781   2.046 -1.1937  0.1685  2.2871
 1172SOL    HW214976   3.919   0.666   2.110  0.1532 -0.4338  0.7703
 1173SOL     OW14977   2.152   2.632  10.777 -0.0810 -0.1550 -0.6214
 1173SOL    HW114978   2.164   2.631  10.872 -3.0155 -1.1013 -0.2457
 1173SOL    HW214979   2.129   2.540  10.767 -2.0129  0.2273  0.2033
 1174SOL     OW14980   1.441   0.726   5.505 -0.0411  0.3136  0.0867
 1174SOL    HW114981   1.398   0.712   5.589 -0.7675  0.1205 -0.3243
 1174SOL    HW214982   1.525   0.761   5.534  0.7653 -2.8538  1.5389
 1175SOL     OW14983   2.365   4.227   5.175 -0.0654 -0.3134 -0.4248
 1175SOL    HW114984   2.277   4.232   5.214 -0.1255  0.5427 -0.6572
 1175SOL    HW214985   2.358   4.143   5.130  1.8454 -1.0612  0.6976
 1176SOL     OW14986   1.283   2.767   6.783  0.0080 -0.6311  0.2624
 1176SOL    HW114987   1.212   2.746   6.722 -1.0601 -0.1992  1.3798
 1176SOL    HW214988   1.329   2.837   6.736  0.3581 -0.0022  1.5498
 1177SOL     OW14989   1.305   1.319   8.028 -0.1401  0.1895  0.0479
 1177SOL    HW114990   1.388   1.293   8.070 -0.1861  0.0778  0.0712
 1177SOL    HW214991   1.322   1.271   7.947 -1.0520  0.8982 -0.5599
 1178SOL     OW14992   0.948   4.437   2.855  0.3971  0.2982  1.1113
 1178SOL    HW114993   0.887   4.495   2.809 -0.2054 -0.3536  1.0951
 1178SOL    HW214994   0.900   4.354   2.857  1.2099 -0.1527  1.9421
 1179SOL     OW14995   1.881   0.499   8.295  0.2593 -0.3077  0.8591
 1179SOL    HW114996   1.881   0.465   8.384  2.1157 -2.0547  0.1820
 1179SOL    HW214997   1.786   0.485   8.296 -0.0194  1.5449  0.6548
 1180SOL     OW14998   3.040   3.599  12.581  0.3676 -0.0527 -0.4014
 1180SOL    HW114999   2.992   3.671  12.621 -0.9838 -1.4745  0.5261
 1180SOL    HW215000   3.131   3.620  12.603  0.3992 -2.3932  1.7143
 1181SOL     OW15001   3.853   3.927   2.617 -0.3691  0.2235  0.4798
 1181SOL    HW115002   3.893   3.893   2.537 -1.2508  0.7279 -0.1894
 1181SOL    HW215003   3.920   3.924   2.685 -2.1155 -1.6450  2.1073
 1182SOL     OW15004   3.475   2.375   3.377  0.3475 -0.6428 -0.4147
 1182SOL    HW115005   3.545   2.428   3.416 -0.9790 -0.4591  1.7097
 1182SOL    HW215006   3.527   2.316   3.322  3.0853  0.8222  0.6251
 1183SOL     OW15007   1.131   1.247   9.009 -0.8921 -0.5220 -0.0916
 1183SOL    HW115008   1.097   1.247   8.920 -0.4067  0.8645 -0.2858
 1183SOL    HW215009   1.218   1.283   8.991 -1.0530 -0.0356  0.1062
 1184SOL     OW15010   2.290   2.206   9.768  0.5456  0.2956  0.5144
 1184SOL    HW115011   2.332   2.284   9.730 -2.2106  1.4554 -0.1625
 1184SOL    HW215012   2.320   2.210   9.859  0.2308 -0.5319  0.6478
 1185SOL     OW15013   4.562   3.066   5.670  0.4765  0.4699 -0.3364
 1185SOL    HW115014   4.544   2.972   5.670  1.6287  0.2538 -0.2106
 1185SOL    HW215015   4.503   3.097   5.602 -0.8555  0.6776  0.9133
 1186SOL     OW15016   1.283   3.905  11.168  0.7532  0.3007 -0.2199
 1186SOL    HW115017   1.223   3.847  11.121  0.3187 -0.1903  0.9389
 1186SOL    HW215018   1.246   3.908  11.257  0.3919  4.3221 -0.5283
 1187SOL     OW15019   4.483   0.024   5.736 -0.4511  0.3669 -0.2053
 1187SOL    HW115020   4.570   0.059   5.718  0.4397 -0.2332  2.8732
 1187SOL    HW215021   4.416   0.082   5.701  0.8562  2.1744  0.2586
 1188SOL     OW15022   3.578   3.858   1.052  0.2156 -0.1793  0.3739
 1188SOL    HW115023   3.670   3.838   1.070 -0.2204 -2.2482  0.3004
 1188SOL    HW215024   3.581   3.915   0.976  1.6527  2.4944  2.4175
 1189SOL     OW15025   3.304   0.625   5.541  0.0329 -0.2481 -0.2987
 1189SOL    HW115026   3.362   0.603   5.614 -1.3329 -0.2952  0.7785
 1189SOL    HW215027   3.222   0.652   5.583 -0.3762 -1.1253 -0.5274
 1190SOL     OW15028   4.149   2.137   6.345 -0.6796  0.7775  0.0568
 1190SOL    HW115029   4.089   2.169   6.278 -2.3646  0.6417  1.4963
 1190SOL    HW215030   4.099   2.070   6.393 -2.4695  0.4412 -2.2645
 1191SOL     OW15031   2.490   3.894   6.980  0.4603 -0.1389  0.2656
 1191SOL    HW115032   2.470   3.943   7.059 -0.7300 -1.8864  1.0732
 1191SOL    HW215033   2.437   3.814   6.988 -0.2051  0.0766 -2.0814
 1192SOL     OW15034   1.052   2.707   8.039  0.6259 -0.0589  0.4009
 1192SOL    HW115035   1.045   2.650   8.115 -1.7347  0.0948  0.3080
 1192SOL    HW215036   1.129   2.666   7.999 -2.5282 -2.5213 -3.2471
 1193SOL     OW15037   2.757   0.032   6.391  0.1990  0.0106 -0.3367
 1193SOL    HW115038   2.683   0.075   6.433 -1.6321 -2.9365 -0.5341
 1193SOL    HW215039   2.717   4.682   6.341 -1.0570  0.5349 -0.0738
 1194SOL     OW15040   2.201   1.855   6.091 -0.1559  0.0452 -0.3777
 1194SOL    HW115041   2.112   1.822   6.100  0.3880 -0.7195  2.1467
 1194SOL    HW215042   2.181   1.943   6.122  0.9702  0.4593 -0.8460
 1195SOL     OW15043   1.096   0.736  10.010  0.6684 -0.0063 -0.1614
 1195SOL    HW115044   1.162   0.710  10.074  2.0561  0.3884 -1.4576
 1195SOL    HW215045   1.140   0.810   9.968 -0.9967  0.8527 -0.3891
 1196SOL     OW15046   2.771   2.910   5.614  0.5334  0.2824  0.1302
 1196SOL    HW115047   2.750   2.825   5.654 -0.6861  0.5620  0.0908
 1196SOL    HW215048   2.851   2.933   5.661  1.2869 -1.7965 -0.1511
 1197SOL     OW15049   2.905   4.418  12.373  0.6071 -0.0133  0.1942
 1197SOL    HW115050   2.953   4.339  12.400  1.6630  0.7318  0.4712
 1197SOL    HW215051   2.981   4.476  12.369 -1.7752  3.0728 -0.0160
 1198SOL     OW15052   2.286   4.492  15.996  1.0413  0.1317 -0.0287
 1198SOL    HW115053   2.322   4.476  16.084  1.0384  0.4672  0.0351
 1198SOL    HW215054   2.364   4.488  15.941  0.7071 -0.2144 -0.4775
 1199SOL     OW15055   1.364   4.350  16.430 -0.6009  0.3236 -0.4833
 1199SOL    HW115056   1.327   4.291  16.365  0.3505 -0.2774 -0.4879
 1199SOL    HW215057   1.451   4.366  16.394 -1.2021  3.0630 -0.6786
 1200SOL     OW15058   0.936   3.285   9.147 -0.0248  0.4950 -0.0727
 1200SOL    HW115059   0.892   3.287   9.232 -2.5152 -0.1949 -1.3485
 1200SOL    HW215060   0.871   3.340   9.104  1.3017  0.8059 -1.6758
 1201SOL     OW15061   3.652   1.777   3.320 -0.7326 -0.3166  0.0813
 1201SOL    HW115062   3.717   1.836   3.283 -1.3710  0.9156  0.9225
 1201SOL    HW215063   3.682   1.781   3.411 -2.2097 -0.6570  0.5825
 1202SOL     OW15064   2.611   2.939  11.188  0.0624 -0.2691 -0.6221
 1202SOL    HW115065   2.550   2.974  11.122 -1.5790 -2.9833 -0.5259
 1202SOL    HW215066   2.694   2.955  11.143  0.8739 -3.6008 -0.2894
 1203SOL     OW15067   2.391   2.147   3.346 -0.3146  0.0596  0.6128
 1203SOL    HW115068   2.325   2.104   3.401 -2.3168  1.1711 -0.8828
 1203SOL    HW215069   2.392   2.091   3.268  1.3766  3.0840 -1.5157
 1204SOL     OW15070   0.344   0.797  17.011 -0.5430  0.3915  0.3153
 1204SOL    HW115071   0.415   0.762  17.065  0.0979  0.0818 -0.7301
 1204SOL    HW215072   0.291   0.721  17.034  0.6207  0.6427  3.8604
 1205SOL     OW15073   2.389   3.090  15.684  0.0061 -0.2627 -0.1610
 1205SOL    HW115074   2.348   3.007  15.704 -1.4158  0.4870  0.0143
 1205SOL    HW215075   2.362   3.154  15.751  0.0948  0.5495 -0.8950
 1206SOL     OW15076   2.970   0.067   6.656  0.3611 -0.1027  0.0499
 1206SOL    HW115077   3.035   0.027   6.598 -1.0061 -0.3136 -1.3502
 1206SOL    HW215078   2.898   0.059   6.593  0.4163 -0.4812  0.0319
 1207SOL     OW15079   3.624   4.579   9.628  0.1164 -0.0828  0.2563
 1207SOL    HW115080   3.628   4.533   9.712 -0.2208 -0.2389  0.1850
 1207SOL    HW215081   3.650   4.667   9.658 -0.4707 -0.0289  0.6232
 1208SOL     OW15082   0.015   3.645   5.196  0.6704  0.1036 -0.0141
 1208SOL    HW115083   0.068   3.610   5.125 -0.4269 -0.5810 -0.4867
 1208SOL    HW215084   4.650   3.658   5.156 -1.1339 -1.4796  3.3556
 1209SOL     OW15085   3.944   3.347   4.355 -0.9089  0.2375 -0.1018
 1209SOL    HW115086   3.872   3.403   4.324 -0.7316 -0.4436 -1.7427
 1209SOL    HW215087   3.908   3.266   4.319 -1.0922 -0.9554  2.8212
 1210SOL     OW15088   3.716   0.171   7.960 -0.4624  0.3152 -0.5079
 1210SOL    HW115089   3.766   0.172   7.878  1.0202 -1.8314  0.3735
 1210SOL    HW215090   3.688   0.263   7.964 -0.5131  0.2549  0.3658
 1211SOL     OW15091   0.895   0.970   8.236  0.5707  0.2716  0.2119
 1211SOL    HW115092   0.939   0.891   8.203 -0.8543  0.2885 -1.7402
 1211SOL    HW215093   0.950   1.047   8.223  0.7372  0.3977  1.5920
 1212SOL     OW15094   3.684   0.568   4.635 -0.1313 -0.1238  0.0502
 1212SOL    HW115095   3.676   0.660   4.660 -1.6461 -0.4050  0.5969
 1212SOL    HW215096   3.660   0.521   4.716  2.6520 -1.8945 -0.1495
 1213SOL     OW15097   2.203   2.815   9.500  0.0680 -0.3544 -0.7220
 1213SOL    HW115098   2.119   2.771   9.511 -1.2133  2.2973  0.0102
 1213SOL    HW215099   2.172   2.903   9.481  2.2402  0.4562 -0.5620
 1214SOL     OW15100   1.874   1.791   8.197 -0.2658 -0.7208 -0.0164
 1214SOL    HW115101   1.899   1.700   8.181  3.5155 -0.1496  2.5479
 1214SOL    HW215102   1.954   1.835   8.171 -0.5359  0.5407  1.3076
 1215SOL     OW15103   4.343   3.799  14.407 -0.9423 -0.5478  0.3764
 1215SOL    HW115104   4.382   3.725  14.359  0.3054 -0.2386  0.9168
 1215SOL    HW215105   4.316   3.753  14.486 -0.0479 -0.8287  0.5166
 1216SOL     OW15106   1.761   3.534   6.111  0.0940  0.3585  0.1075
 1216SOL    HW115107   1.730   3.620   6.084 -2.2026 -0.3977  0.3235
 1216SOL    HW215108   1.707   3.527   6.190 -1.0197  0.2897 -0.6780
 1217SOL     OW15109   2.018   4.163  16.046  0.5205 -0.0437  0.1794
 1217SOL    HW115110   2.028   4.151  15.951 -2.3511 -2.0449  0.1448
 1217SOL    HW215111   2.001   4.258  16.050  1.1502 -0.0235  2.0991
 1218SOL     OW15112   2.579   2.272  17.088  0.8281 -0.3730  0.3266
 1218SOL    HW115113   2.651   2.331  17.107 -0.6088  1.3341  0.4619
 1218SOL    HW215114   2.537   2.280  17.174 -1.2151 -0.5966 -0.6403
 1219SOL     OW15115   0.119   3.557   0.234 -0.3138  0.4796  0.0335
 1219SOL    HW115116   0.209   3.563   0.264 -0.6667  1.5937  0.8816
 1219SOL    HW215117   0.137   3.566   0.140 -3.3999  0.1326 -0.6044
 1220SOL     OW15118   2.593   3.348   3.583  0.5079 -0.0430 -0.2992
 1220SOL    HW115119   2.587   3.376   3.492 -1.9014  0.0034 -0.1186
 1220SOL    HW215120   2.638   3.420   3.628  2.1731 -0.3848 -1.4370
 1221SOL     OW15121   2.881   2.760   6.200 -0.6998 -0.5294  0.1623
 1221SOL    HW115122   2.791   2.728   6.189 -0.8568 -0.3390  0.8891
 1221SOL    HW215123   2.904   2.714   6.280  0.9255  0.4750  0.2617
 1222SOL     OW15124   2.332   2.951   1.225  0.3001  0.4157  0.5387
 1222SOL    HW115125   2.280   2.905   1.291 -2.4755  5.8134  2.0568
 1222SOL    HW215126   2.389   2.877   1.201  1.6092  1.5703  0.1082
 1223SOL     OW15127   2.353   1.532   2.985  0.5747 -0.1583  0.1396
 1223SOL    HW115128   2.446   1.556   2.990 -0.7021  4.5515  0.5419
 1223SOL    HW215129   2.356   1.436   2.991  2.4839 -0.0622  0.6919
 1224SOL     OW15130   1.662   0.980   7.851 -0.0621 -0.5988  0.5306
 1224SOL    HW115131   1.749   1.007   7.821 -0.3608 -0.4803 -0.2241
 1224SOL    HW215132   1.670   0.915   7.921 -2.0949 -2.5061 -1.0329
 1225SOL     OW15133   0.382   4.259   9.724 -0.4676 -0.1597 -0.0215
 1225SOL    HW115134   0.325   4.184   9.712  2.5598 -2.2376 -1.2815
 1225SOL    HW215135   0.472   4.227   9.716 -0.1540  0.9807 -1.0406
 1226SOL     OW15136   3.154   4.196   8.568  0.0096 -0.4569  0.2941
 1226SOL    HW115137   3.220   4.264   8.563 -0.3123 -0.2241 -0.8672
 1226SOL    HW215138   3.139   4.166   8.478  1.2661 -2.2885  0.6929
 1227SOL     OW15139   3.957   0.152   2.363  0.2067  0.1377  0.3775
 1227SOL    HW115140   3.955   0.170   2.457 -0.8281  0.3742  0.3090
 1227SOL    HW215141   3.865   0.164   2.339 -0.2596 -0.9450  1.6030
 1228SOL     OW15142   1.741   1.608   7.390  0.2687  0.3978  0.2682
 1228SOL    HW115143   1.820   1.609   7.336  0.3817  0.1668  0.4314
 1228SOL    HW215144   1.720   1.514   7.393 -0.3849  0.6014  1.8890
 1229SOL     OW15145   0.729   2.325   6.581  0.5575 -0.2658  0.7889
 1229SOL    HW115146   0.792   2.391   6.607  0.4679  0.4309 -0.7710
 1229SOL    HW215147   0.713   2.350   6.489  0.8219 -1.6165  0.3723
 1230SOL     OW15148   2.215   2.493   5.661 -0.1106  0.1071  0.5111
 1230SOL    HW115149   2.122   2.512   5.660  0.1490  1.4558  1.5405
 1230SOL    HW215150   2.211   2.398   5.673  1.3004 -0.1569 -1.1928
 1231SOL     OW15151   2.708   3.312   5.409  0.2484  0.1874 -0.4092
 1231SOL    HW115152   2.621   3.350   5.398  0.5409  0.7759 -0.6568
 1231SOL    HW215153   2.744   3.337   5.324 -1.1259  1.8503 -0.5090
 1232SOL     OW15154   1.553   0.165   4.973  0.2665  0.7123 -0.1327
 1232SOL    HW115155   1.597   0.222   5.037  0.1357  1.6625 -0.8902
 1232SOL    HW215156   1.486   0.230   4.951 -1.1031 -0.4615  0.5668
 1233SOL     OW15157   1.157   1.744   9.047 -0.6081 -0.1966  0.4267
 1233SOL    HW115158   1.179   1.691   8.970  0.8067 -0.7469  1.2080
 1233SOL    HW215159   1.114   1.822   9.012 -3.0060 -1.8005 -0.2038
 1234SOL     OW15160   1.536   0.428   8.570 -0.1046  0.8479  0.0417
 1234SOL    HW115161   1.539   0.336   8.598 -1.8324  1.3340  1.8097
 1234SOL    HW215162   1.557   0.470   8.654  0.8310 -0.7594  0.6274
 1235SOL     OW15163   3.622   1.472   5.036 -0.2868  0.3499  0.0792
 1235SOL    HW115164   3.660   1.474   4.948 -0.6545  0.9719 -0.0638
 1235SOL    HW215165   3.576   1.388   5.034  0.2957  0.0720 -1.7083
 1236SOL     OW15166   4.377   1.189   1.751  0.2823  0.1682  0.1762
 1236SOL    HW115167   4.448   1.205   1.689 -0.2841 -1.6493 -0.9433
 1236SOL    HW215168   4.419   1.122   1.806  1.6276 -0.7873 -2.0154
 1237SOL     OW15169   0.587   1.808  14.573 -0.5186 -0.1278  0.0819
 1237SOL    HW115170   0.640   1.878  14.534 -2.7976  0.2846 -2.3099
 1237SOL    HW215171   0.640   1.731  14.550  1.5999  2.0825 -2.3415
 1238SOL     OW15172   1.191   1.352   9.284  0.3742  0.3944 -0.2754
 1238SOL    HW115173   1.115   1.315   9.328  1.2017 -1.8989 -0.7973
 1238SOL    HW215174   1.172   1.327   9.194  0.5190  0.4717 -0.3273
 1239SOL     OW15175   2.570   2.253   8.037  0.3584 -0.0370  0.0153
 1239SOL    HW115176   2.586   2.342   8.068 -0.2968  0.1270 -0.1223
 1239SOL    HW215177   2.580   2.195   8.112  0.3638 -1.6007 -1.1969
 1240SOL     OW15178   4.106   1.449  14.037  0.0357  0.0101  0.3654
 1240SOL    HW115179   4.107   1.481  14.128 -1.2083 -1.3766  0.8603
 1240SOL    HW215180   4.022   1.468  13.997 -0.2329 -1.6460  0.1509
 1241SOL     OW15181   4.327   2.047   0.746 -0.1489  0.2999 -0.4037
 1241SOL    HW115182   4.416   2.061   0.713  0.0792  1.1357  0.5508
 1241SOL    HW215183   4.283   1.977   0.698  0.6376  0.9261 -2.0289
 1242SOL     OW15184   2.500   2.388   3.717 -0.3228 -0.3759 -0.4267
 1242SOL    HW115185   2.477   2.388   3.624  0.5076 -1.6315 -0.6276
 1242SOL    HW215186   2.477   2.477   3.743  1.2811 -0.4463  1.2029
 1243SOL     OW15187   1.337   0.267   9.578  0.0274 -0.2706  0.2819
 1243SOL    HW115188   1.321   0.187   9.627  1.6444 -0.9250 -0.2460
 1243SOL    HW215189   1.368   0.328   9.645 -1.1277  0.9703 -0.3131
 1244SOL     OW15190   3.816   2.717   2.791  0.1610 -0.3097 -0.3865
 1244SOL    HW115191   3.838   2.701   2.700 -1.5444  0.8028 -0.9833
 1244SOL    HW215192   3.850   2.806   2.794  1.9424 -1.0463  1.3942
 1245SOL     OW15193   2.902   1.916   2.231  0.2547  0.2500 -0.0232
 1245SOL    HW115194   2.948   1.981   2.178 -1.8566  2.5953  1.0170
 1245SOL    HW215195   2.970   1.850   2.242 -1.1939 -1.1784  0.3688
 1246SOL     OW15196   0.055   3.052  11.011  0.1033 -0.0171 -0.0655
 1246SOL    HW115197   0.068   2.962  11.040  0.9051  0.6575  1.6709
 1246SOL    HW215198   0.145   3.083  11.018  0.5643 -1.4236  0.2869
 1247SOL     OW15199   0.146   0.949   3.092  0.2030  0.6528  0.0537
 1247SOL    HW115200   0.124   1.039   3.116 -0.1399  0.8411 -0.9488
 1247SOL    HW215201   0.205   0.931   3.165  0.9701 -3.0198 -1.4919
 1248SOL     OW15202   4.616   0.432  10.084  0.0269  0.1976 -0.2428
 1248SOL    HW115203   4.650   0.458  10.170  0.5752 -1.8206  0.1766
 1248SOL    HW215204   4.562   0.360  10.119 -0.7193  0.8695 -0.0247
 1249SOL     OW15205   3.495   0.282   5.477  0.3894  0.2955  0.1835
 1249SOL    HW115206   3.535   0.216   5.421 -0.3545  0.1556 -0.1841
 1249SOL    HW215207   3.454   0.219   5.537 -0.4674  1.3802  0.7468
 1250SOL     OW15208   0.629   2.132  14.071  0.1203  0.3819  0.2826
 1250SOL    HW115209   0.689   2.194  14.113 -0.3458 -0.4114  2.1171
 1250SOL    HW215210   0.590   2.076  14.138 -0.4464 -0.6545 -0.9310
 1251SOL     OW15211   3.751   1.859   8.620  0.8430 -0.5502  0.0806
 1251SOL    HW115212   3.760   1.945   8.577 -0.2213 -0.9232 -0.8872
 1251SOL    HW215213   3.827   1.856   8.678  1.0065  0.3465 -0.0856
 1252SOL     OW15214   2.912   1.695   3.208  0.2682 -0.1986  0.2004
 1252SOL    HW115215   3.001   1.720   3.234  0.5123 -0.8964  0.0307
 1252SOL    HW215216   2.873   1.775   3.242  1.3738  1.2028 -1.7850
 1253SOL     OW15217   2.136   4.219   2.528 -0.4728  0.1599 -0.1694
 1253SOL    HW115218   2.187   4.242   2.605 -2.2111  0.1601  0.9899
 1253SOL    HW215219   2.049   4.246   2.557  0.2472  2.5566 -0.2875
 1254SOL     OW15220   2.371   0.236  11.377 -0.4836 -0.1352  0.3985
 1254SOL    HW115221   2.450   0.216  11.327  0.2955  0.3195  1.4480
 1254SOL    HW215222   2.303   0.225  11.311 -0.0803 -3.6544  0.5675
 1255SOL     OW15223   2.156   2.996   5.398  0.4380  0.1053 -0.0758
 1255SOL    HW115224   2.170   2.952   5.482 -1.3310 -1.3925 -0.5572
 1255SOL    HW215225   2.063   3.018   5.397  0.5464  0.5811  0.4883
 1256SOL     OW15226   3.758   0.408   3.024 -0.1628  0.8262  0.3997
 1256SOL    HW115227   3.693   0.474   3.044  0.7595  1.5178  1.1245
 1256SOL    HW215228   3.827   0.438   3.084  1.1394 -1.2462 -0.0251
 1257SOL     OW15229   0.712   2.113   7.317 -0.0206  0.1291  0.1889
 1257SOL    HW115230   0.775   2.049   7.282 -0.6794  0.1846 -1.1104
 1257SOL    HW215231   0.745   2.122   7.406 -1.0882 -0.9016  0.6934
 1258SOL     OW15232   2.190   2.356   7.355  0.7196  0.7642 -0.5555
 1258SOL    HW115233   2.264   2.340   7.296  0.8236 -2.0586  0.3308
 1258SOL    HW215234   2.227   2.430   7.403  0.7866  1.3317 -1.4970
 1259SOL     OW15235   0.457   3.702   9.376  0.2613  0.1494  0.0541
 1259SOL    HW115236   0.461   3.619   9.328  0.9143 -0.9895  2.0730
 1259SOL    HW215237   0.526   3.750   9.329  0.1695  0.6206  0.3985
 1260SOL     OW15238   3.911   1.092   4.378  0.4201 -0.2984 -0.8177
 1260SOL    HW115239   3.858   1.052   4.447 -0.0163  0.4662 -0.7073
 1260SOL    HW215240   3.905   1.187   4.389  1.1368 -0.2860 -0.5141
 1261SOL     OW15241   1.431   1.878   1.931  0.1545 -0.0644 -0.3916
 1261SOL    HW115242   1.468   1.931   1.861 -1.1686  1.8798  0.3796
 1261SOL    HW215243   1.481   1.909   2.007  0.2124  0.3139 -0.5863
 1262SOL     OW15244   3.255   1.540   5.988 -0.2170  0.1463 -0.4696
 1262SOL    HW115245   3.260   1.451   6.023 -0.5336  0.0453 -0.6838
 1262SOL    HW215246   3.164   1.566   6.003 -0.8531 -2.9568  1.1425
 1263SOL     OW15247   2.943   2.663  11.479 -0.4324  0.3794 -0.1336
 1263SOL    HW115248   2.875   2.727  11.456 -0.6743 -0.0264 -0.5553
 1263SOL    HW215249   2.990   2.671  11.396 -0.3144  0.8542 -0.0209
 1264SOL     OW15250   0.226   2.007   8.389  0.6408 -0.6091 -0.6514
 1264SOL    HW115251   0.227   2.067   8.314 -3.7689  0.5097  0.1943
 1264SOL    HW215252   0.314   1.972   8.380  0.8434 -0.3983  0.5327
 1265SOL     OW15253   0.488   4.598   3.234 -0.0558 -0.1751 -0.0245
 1265SOL    HW115254   0.522   4.515   3.200 -0.4027 -0.1662 -0.3931
 1265SOL    HW215255   0.556   4.616   3.298 -0.0742 -1.1216  0.2537
 1266SOL     OW15256   0.877   3.642   5.410 -0.1169 -0.3721  0.0061
 1266SOL    HW115257   0.911   3.585   5.341 -0.9690 -1.7067  0.6873
 1266SOL    HW215258   0.824   3.712   5.373  1.1207  0.1535 -0.7684
 1267SOL     OW15259   3.653   1.894   1.986  0.3471 -0.6275  0.5711
 1267SOL    HW115260   3.709   1.829   2.029  2.2149 -0.3665 -1.4762
 1267SOL    HW215261   3.611   1.829   1.930  2.2653 -0.9744 -0.4453
 1268SOL     OW15262   2.557   1.143  11.047  0.0447  0.4992 -0.2813
 1268SOL    HW115263   2.476   1.184  11.079  1.4519  0.3284  3.4502
 1268SOL    HW215264   2.596   1.098  11.121 -0.2800 -1.3594 -1.2366
 1269SOL     OW15265   0.455   2.706   7.466 -0.2484 -0.1855  0.1736
 1269SOL    HW115266   0.477   2.636   7.406  0.6086 -0.4242  0.7624
 1269SOL    HW215267   0.517   2.693   7.538 -0.6606 -0.0447  0.5543
 1270SOL     OW15268   2.889   4.100   7.789 -0.4461 -0.1404  0.0035
 1270SOL    HW115269   2.893   4.146   7.705  0.5373  1.3714  0.8921
 1270SOL    HW215270   2.796   4.112   7.809  0.3159  2.1703  2.0946
 1271SOL     OW15271   0.726   0.931   4.621  0.0323  0.3598  0.1988
 1271SOL    HW115272   0.730   0.878   4.701 -0.0989 -1.0198 -0.7043
 1271SOL    HW215273   0.797   0.889   4.572 -0.3770 -0.3431  0.2118
 1272SOL     OW15274   0.781   3.480   4.558  0.3041 -0.0532  0.0743
 1272SOL    HW115275   0.788   3.545   4.628 -1.1059  0.4060 -0.2132
 1272SOL    HW215276   0.812   3.527   4.481  0.6105  1.2788  0.9999
 1273SOL     OW15277   0.174   3.771   9.055  0.6677  0.5116  0.1078
 1273SOL    HW115278   0.082   3.782   9.032  0.2817 -3.2796 -0.1557
 1273SOL    HW215279   0.179   3.779   9.150  1.4754 -0.4048  0.1423
 1274SOL     OW15280   4.005   4.669  13.485 -0.3534  0.1619  0.4259
 1274SOL    HW115281   4.041   4.586  13.454 -3.9259 -1.2047 -0.0570
 1274SOL    HW215282   4.040   4.667  13.573 -1.2490 -0.1812  0.7744
 1275SOL     OW15283   4.313   2.047   5.462 -0.4248 -0.6959  0.4288
 1275SOL    HW115284   4.401   2.055   5.497 -0.0777  0.4409 -0.7128
 1275SOL    HW215285   4.285   2.136   5.442  0.4924 -0.6576 -0.6897
 1276SOL     OW15286   1.010   4.291  15.054  0.7780  0.6540  0.0822
 1276SOL    HW115287   1.092   4.306  15.007 -0.3221 -0.9696 -2.3362
 1276SOL    HW215288   0.992   4.377  15.092  0.3155  1.6752 -2.4881
 1277SOL     OW15289   0.304   3.936   5.280  0.3029 -0.4208 -0.6101
 1277SOL    HW115290   0.327   3.998   5.349  0.5417  0.4849 -1.5219
 1277SOL    HW215291   0.264   3.998   5.220 -0.9797  0.0672  0.7371
 1278SOL     OW15292   4.475   1.322   4.151 -0.1907 -0.7397 -0.3230
 1278SOL    HW115293   4.495   1.383   4.221  0.3642 -0.5659 -0.6336
 1278SOL    HW215294   4.451   1.241   4.195  0.3712 -0.6335  0.1740
 1279SOL     OW15295   1.028   3.979  12.006 -0.0658 -0.1996 -0.4312
 1279SOL    HW115296   1.071   4.028  11.936  0.0575 -1.5190 -1.2881
 1279SOL    HW215297   1.101   3.945  12.058  0.5710  0.6316 -0.7818
 1280SOL     OW15298   4.166   3.286  15.945 -0.0211  0.3726  0.4682
 1280SOL    HW115299   4.244   3.231  15.937 -0.2943 -0.3477  2.7716
 1280SOL    HW215300   4.091   3.237  15.911  1.3945 -0.7838 -0.9633
 1281SOL     OW15301   0.195   4.382   4.601  0.2086  0.1580  0.0405
 1281SOL    HW115302   0.218   4.475   4.613  0.0729  0.4078 -1.5959
 1281SOL    HW215303   0.136   4.372   4.675 -1.9882 -2.7473 -2.1091
 1282SOL     OW15304   0.930   1.754   3.210  0.0951 -0.6772  0.0614
 1282SOL    HW115305   1.008   1.790   3.169 -1.0513  1.0926 -0.5724
 1282SOL    HW215306   0.974   1.745   3.295  3.4519  1.4858 -1.4434
 1283SOL     OW15307   3.464   2.816  15.454 -0.6247 -0.5398  0.4965
 1283SOL    HW115308   3.379   2.840  15.490 -0.5812  0.9743 -0.3700
 1283SOL    HW215309   3.450   2.742  15.395  0.4450  0.9878 -1.6831
 1284SOL     OW15310   3.263   0.672   9.291  0.1504 -0.6482  0.3502
 1284SOL    HW115311   3.276   0.593   9.343  0.9599 -0.4555  0.4383
 1284SOL    HW215312   3.351   0.709   9.290 -0.1362  0.0610  1.8001
 1285SOL     OW15313   3.416   2.285   4.057  0.2762  0.4166 -0.0797
 1285SOL    HW115314   3.448   2.197   4.078  1.1780 -0.0015 -3.0702
 1285SOL    HW215315   3.368   2.269   3.975  0.1072 -0.9562  0.2905
 1286SOL     OW15316   0.877   0.390   0.718 -0.5904  0.5810 -0.4974
 1286SOL    HW115317   0.820   0.350   0.653  0.5019 -0.2805 -0.9345
 1286SOL    HW215318   0.810   0.406   0.785 -0.4715 -3.0013  0.4861
 1287SOL     OW15319   3.032   2.120   4.699 -0.1864 -0.1865 -0.2543
 1287SOL    HW115320   2.952   2.126   4.648  0.9870 -1.7386 -2.2642
 1287SOL    HW215321   3.093   2.174   4.649  0.7391 -1.5684 -0.6189
 1288SOL     OW15322   2.536   4.115  11.589 -0.1443 -0.2191  0.0596
 1288SOL    HW115323   2.609   4.175  11.609 -0.4825  0.4455 -0.7127
 1288SOL    HW215324   2.573   4.029  11.609  1.7009  0.6724  0.4950
 1289SOL     OW15325   0.146   0.674   0.679 -0.6414 -0.8023 -0.0959
 1289SOL    HW115326   0.168   0.582   0.664 -0.0366 -0.5477 -0.7849
 1289SOL    HW215327   0.050   0.669   0.683 -0.6741  1.5441  1.8683
 1290SOL     OW15328   2.166   4.019   2.877 -0.0780  0.2944 -0.1386
 1290SOL    HW115329   2.098   3.999   2.940  1.7023 -0.6275  1.4808
 1290SOL    HW215330   2.181   4.111   2.899  1.6930  0.3867 -1.6833
 1291SOL     OW15331   4.457   3.040   7.787 -0.6751 -0.0319  0.0055
 1291SOL    HW115332   4.485   3.116   7.839 -0.5093  0.5585 -0.9544
 1291SOL    HW215333   4.404   2.998   7.855  1.6263  1.2384  2.6097
 1292SOL     OW15334   4.489   4.308   3.933  0.2517 -0.1936 -1.1005
 1292SOL    HW115335   4.559   4.369   3.956  0.8253 -0.4331 -2.2214
 1292SOL    HW215336   4.425   4.371   3.901 -0.9618  0.0382  1.7462
 1293SOL     OW15337   0.351   3.377   7.611  0.5098 -0.7105  0.1146
 1293SOL    HW115338   0.382   3.340   7.528  1.3118 -1.0256  0.5568
 1293SOL    HW215339   0.279   3.315   7.615  0.1073 -0.3163 -0.8616
 1294SOL     OW15340   1.255   1.581   6.254 -0.1952  0.6244  0.6514
 1294SOL    HW115341   1.182   1.635   6.284  1.0979  1.8200  1.6344
 1294SOL    HW215342   1.212   1.534   6.182  0.6688 -0.7715  1.0472
 1295SOL     OW15343   2.661   3.088   3.663 -0.3707 -0.4686  0.0732
 1295SOL    HW115344   2.650   3.176   3.628 -0.7467 -0.4444  0.2464
 1295SOL    HW215345   2.730   3.044   3.614 -0.7778 -0.2996 -0.6515
 1296SOL     OW15346   4.221   3.598  11.208 -0.0038  0.7817  0.3109
 1296SOL    HW115347   4.267   3.535  11.152  0.3682  1.2340  0.1084
 1296SOL    HW215348   4.191   3.522  11.258  2.7356 -0.2212  0.4399
 1297SOL     OW15349   4.277   1.109   8.816  0.4424 -0.2262  0.1531
 1297SOL    HW115350   4.253   1.200   8.837 -0.7825 -0.4650 -0.2133
 1297SOL    HW215351   4.192   1.071   8.839 -0.5277  2.2525  0.6712
 1298SOL     OW15352   4.638   1.271   7.909  0.0549  0.3440  0.1176
 1298SOL    HW115353   0.009   1.253   7.928  0.2521 -0.6120 -1.6746
 1298SOL    HW215354   4.648   1.353   7.860 -1.4184  1.5979  1.9316
 1299SOL     OW15355   4.603   2.931   3.327 -0.2625  0.1404  0.2325
 1299SOL    HW115356   4.678   2.925   3.386  1.4757  0.9664 -1.9098
 1299SOL    HW215357   4.638   2.983   3.254  1.0978 -1.1708 -0.0459
 1300SOL     OW15358   2.696   2.659   6.921  0.6705  0.2959 -0.0489
 1300SOL    HW115359   2.702   2.621   7.009 -1.2993  1.7635  0.7104
 1300SOL    HW215360   2.604   2.686   6.921 -0.0288 -2.0530  1.1548
 1301SOL     OW15361   3.578   0.900   4.728 -0.2925 -0.0032  0.2265
 1301SOL    HW115362   3.640   0.886   4.800 -3.5213  0.8018  3.1719
 1301SOL    HW215363   3.605   0.990   4.713 -2.1936  0.4699 -0.3697
 1302SOL     OW15364   3.857   0.736  10.901 -0.6130 -0.7017  0.0390
 1302SOL    HW115365   3.779   0.788  10.919 -0.3862  0.0135 -1.0208
 1302SOL    HW215366   3.875   0.699  10.988  0.7579 -0.3930 -0.1090
 1303SOL     OW15367   4.305   1.431   7.476  0.1347 -0.0026  0.2741
 1303SOL    HW115368   4.263   1.475   7.550 -2.5603 -0.8227 -0.7737
 1303SOL    HW215369   4.237   1.366   7.462  2.7103 -2.1868 -2.1653
 1304SOL     OW15370   3.102   0.321   0.018 -0.0063 -0.3219  0.6674
 1304SOL    HW115371   3.081   0.253   0.082 -0.8874  1.6800  2.4758
 1304SOL    HW215372   3.053   0.390   0.063 -1.1178  0.1717 -1.2705
 1305SOL     OW15373   1.844   3.276   0.720 -0.2246 -0.0757  0.1894
 1305SOL    HW115374   1.863   3.287   0.813 -0.4067 -0.9419  0.3317
 1305SOL    HW215375   1.821   3.183   0.711 -1.1913  0.2374 -0.6046
 1306SOL     OW15376   2.037   2.755   8.055 -0.2605 -0.2007 -0.0967
 1306SOL    HW115377   2.031   2.668   8.017  2.6490 -0.5585  0.2723
 1306SOL    HW215378   2.102   2.743   8.124  0.9682 -0.6810 -1.3304
 1307SOL     OW15379   1.676   1.224   9.912 -0.3026  0.5540 -0.3747
 1307SOL    HW115380   1.608   1.281   9.949  0.6936  1.3344  0.2607
 1307SOL    HW215381   1.651   1.232   9.820  0.8815  0.9689 -0.6666
 1308SOL     OW15382   1.802   3.107   4.714  0.5886  0.2371 -0.3693
 1308SOL    HW115383   1.847   3.023   4.704 -1.8549 -0.9534 -1.3062
 1308SOL    HW215384   1.723   3.077   4.759 -0.8076  1.6749 -1.8494
 1309SOL     OW15385   2.683   1.351   9.515 -0.4113 -0.6235 -0.3958
 1309SOL    HW115386   2.725   1.421   9.566 -1.8270 -0.0246 -0.0514
 1309SOL    HW215387   2.596   1.390   9.512 -0.2864 -0.3482 -0.4515
 1310SOL     OW15388   3.455   3.168  11.517 -0.0213  0.1894 -0.4315
 1310SOL    HW115389   3.437   3.086  11.470  0.5993  0.0823 -0.4953
 1310SOL    HW215390   3.412   3.156  11.601 -0.0968  0.7114 -0.3972
 1311SOL     OW15391   2.382   2.096  11.538 -0.0723 -0.0177  0.3704
 1311SOL    HW115392   2.386   2.116  11.444 -1.3149 -2.4274 -0.1892
 1311SOL    HW215393   2.296   2.055  11.535  0.8484 -1.9947  1.5151
 1312SOL     OW15394   2.891   0.624   5.599 -0.0039 -0.0557 -0.1845
 1312SOL    HW115395   2.837   0.546   5.583  2.0637 -1.8128  1.4210
 1312SOL    HW215396   2.839   0.659   5.670 -0.3048  1.5852 -1.2257
 1313SOL     OW15397   3.747   1.621   2.978 -0.3398  0.0465 -0.0746
 1313SOL    HW115398   3.830   1.647   2.939 -0.5073  0.6825 -0.0027
 1313SOL    HW215399   3.689   1.695   2.960 -0.5852 -0.3188 -0.7835
 1314SOL     OW15400   0.091   3.468   6.307 -0.1165  0.2458  0.2745
 1314SOL    HW115401   0.169   3.435   6.264  0.9683  1.3740  1.3563
 1314SOL    HW215402   0.099   3.563   6.295  0.2298  0.1023 -0.5835
 1315SOL     OW15403   1.541   0.479  12.639  0.1169 -0.4447 -0.0549
 1315SOL    HW115404   1.507   0.533  12.568 -0.8668 -0.9012  0.0687
 1315SOL    HW215405   1.463   0.423  12.641 -1.2046  1.3420 -1.2938
 1316SOL     OW15406   1.885   4.573   3.068  0.4512 -0.1428 -0.3550
 1316SOL    HW115407   1.941   4.645   3.042  3.2265 -2.4606 -0.8125
 1316SOL    HW215408   1.921   4.538   3.150  1.4309 -0.4310 -0.9078
 1317SOL     OW15409   2.046   2.879  17.302 -0.1524 -0.4504 -0.1953
 1317SOL    HW115410   1.988   2.809  17.330 -1.0380 -0.4147 -1.9293
 1317SOL    HW215411   2.072   2.917  17.386  1.6684  1.9401 -1.8201
 1318SOL     OW15412   4.374   2.615   5.024  0.2731 -0.0925  0.2416
 1318SOL    HW115413   4.359   2.520   5.030 -1.8233  0.1451 -1.1393
 1318SOL    HW215414   4.297   2.645   5.072  0.1951 -1.3856  0.9255
 1319SOL     OW15415   2.584   1.786   6.361 -0.3259 -0.1086  0.3786
 1319SOL    HW115416   2.578   1.808   6.268 -0.2122 -1.7088  0.0042
 1319SOL    HW215417   2.508   1.729   6.373  0.9501 -2.4011 -2.7531
 1320SOL     OW15418   3.022   3.624  16.077 -0.2006 -0.0376 -0.0402
 1320SOL    HW115419   2.960   3.676  16.129  0.0032  0.7889 -0.6195
 1320SOL    HW215420   3.100   3.657  16.122 -0.5839  0.6936  0.0871
 1321SOL     OW15421   4.156   2.267   4.762  0.2977 -0.6933 -0.4071
 1321SOL    HW115422   4.138   2.246   4.854 -0.8345 -1.1971 -0.7393
 1321SOL    HW215423   4.095   2.339   4.750  3.2605  1.5621 -1.9519
 1322SOL     OW15424   3.771   2.180  11.151  0.0651  0.2484 -0.7202
 1322SOL    HW115425   3.690   2.216  11.115  1.4788  0.8137 -3.3695
 1322SOL    HW215426   3.815   2.260  11.180 -1.2515  0.3011  1.1246
 1323SOL     OW15427   0.775   3.453   0.841 -0.2138 -0.0825 -0.0605
 1323SOL    HW115428   0.828   3.466   0.919  0.6940 -2.0635 -0.3611
 1323SOL    HW215429   0.704   3.392   0.862  0.1159 -0.8046 -1.0485
 1324SOL     OW15430   2.933   0.713   5.360 -0.0310  0.0276  0.0313
 1324SOL    HW115431   2.860   0.775   5.368 -0.8874 -0.6495 -2.5746
 1324SOL    HW215432   2.933   0.678   5.449  0.8561 -2.2284 -0.8383
 1325SOL     OW15433   1.733   3.691  16.272  0.6435 -0.3848  0.4201
 1325SOL    HW115434   1.778   3.764  16.230  1.8955 -1.4034  0.0153
 1325SOL    HW215435   1.654   3.696  16.217  1.2062  0.9562 -0.2592
 1326SOL     OW15436   3.431   0.072   2.453 -0.0991  0.2246 -0.1922
 1326SOL    HW115437   3.367   0.141   2.434  0.6021  1.3090  1.3318
 1326SOL    HW215438   3.399   0.006   2.392 -0.9529  0.6910 -0.2514
 1327SOL     OW15439   3.065   2.325  15.658 -0.3420 -0.0910 -0.6499
 1327SOL    HW115440   3.110   2.336  15.742 -1.7743  0.8055  0.0044
 1327SOL    HW215441   3.127   2.348  15.589 -0.6153  2.6040 -0.0024
 1328SOL     OW15442   1.625   1.848   9.988 -0.1104 -0.2989 -0.1361
 1328SOL    HW115443   1.686   1.792   9.940 -1.3957 -0.9975 -0.9557
 1328SOL    HW215444   1.645   1.814  10.075  2.1567 -0.6939 -0.8131
 1329SOL     OW15445   0.158   4.171   3.969  0.0209  0.1090 -0.0964
 1329SOL    HW115446   0.210   4.167   4.049 -0.8148 -0.8188  0.3954
 1329SOL    HW215447   0.106   4.093   3.987 -0.1148  0.5760  1.5022
 1330SOL     OW15448   2.212   0.448   4.460 -0.0732 -0.5863 -0.7456
 1330SOL    HW115449   2.180   0.537   4.443  0.2612 -0.1076  1.1872
 1330SOL    HW215450   2.145   0.405   4.511 -0.5400  1.3250  0.2442
 1331SOL     OW15451   2.469   1.730   8.319 -0.1440  0.3259  0.0706
 1331SOL    HW115452   2.449   1.658   8.260 -0.8083  0.5224  0.0494
 1331SOL    HW215453   2.425   1.692   8.396 -2.3565  0.4349 -1.1361
 1332SOL     OW15454   4.581   1.689   3.135  0.3402 -0.2732 -0.0035
 1332SOL    HW115455   4.633   1.704   3.214  1.1567  0.3284 -0.6611
 1332SOL    HW215456   4.566   1.595   3.129 -0.4526 -0.1218 -0.4446
 1333SOL     OW15457   0.943   0.022   1.722  0.2167  0.0842 -0.3741
 1333SOL    HW115458   0.972   0.027   1.813 -1.0063  1.5909 -0.0762
 1333SOL    HW215459   0.859   4.702   1.739  0.2170  0.4187  0.4266
 1334SOL     OW15460   2.551   1.217   8.594 -0.2533 -0.0217  0.1646
 1334SOL    HW115461   2.488   1.146   8.588 -1.7815  1.3422  0.1560
 1334SOL    HW215462   2.589   1.182   8.674 -0.5604 -1.7808 -0.4462
 1335SOL     OW15463   0.060   2.275   5.197  0.6931 -0.6228 -0.6215
 1335SOL    HW115464   4.698   2.280   5.245  2.8739 -2.1488  3.2322
 1335SOL    HW215465   0.078   2.181   5.194 -1.6615 -1.0777 -0.9594
 1336SOL     OW15466   2.142   3.704  12.955 -0.1122 -0.1210  0.0100
 1336SOL    HW115467   2.091   3.630  12.922 -0.9928 -0.2288  1.6068
 1336SOL    HW215468   2.103   3.776  12.906  0.4826 -1.1728 -1.9931
 1337SOL     OW15469   2.457   2.183  14.202  0.2816  0.2676 -0.0534
 1337SOL    HW115470   2.389   2.166  14.267 -0.8398  1.4213 -0.9285
 1337SOL    HW215471   2.539   2.162  14.246 -0.6868  0.8737  2.0598
 1338SOL     OW15472   2.428   2.609  13.425  0.0464  0.1349 -0.0536
 1338SOL    HW115473   2.412   2.670  13.353  0.1633 -0.5988 -0.6905
 1338SOL    HW215474   2.344   2.621  13.470 -0.4453 -2.6937 -0.2468
 1339SOL     OW15475   3.381   0.913  10.024  0.0352  0.2663  0.1133
 1339SOL    HW115476   3.340   0.989   9.984 -0.4952 -0.4411 -0.7081
 1339SOL    HW215477   3.404   0.952  10.108  1.0588 -1.2212  0.5311
 1340SOL     OW15478   1.941   0.345   4.018  0.8959  0.1957 -1.0397
 1340SOL    HW115479   1.912   0.403   3.947 -0.1583 -0.0197 -0.7868
 1340SOL    HW215480   2.036   0.335   4.016  0.9044  0.1414 -0.3991
 1341SOL     OW15481   3.404   2.180  15.945  0.1641  0.7622  0.3162
 1341SOL    HW115482   3.369   2.101  15.904  0.9149 -0.7216  2.5044
 1341SOL    HW215483   3.484   2.188  15.894 -0.2940 -2.2067 -0.8867
 1342SOL     OW15484   0.152   2.881   3.423 -0.0650 -0.4560  0.2980
 1342SOL    HW115485   0.197   2.828   3.488  3.1468 -1.4503 -2.7353
 1342SOL    HW215486   0.166   2.972   3.451  0.7734 -0.3731 -0.3781
 1343SOL     OW15487   3.594   1.837   9.564 -0.1285 -0.3674  0.1601
 1343SOL    HW115488   3.594   1.782   9.643  0.0858 -1.1062 -0.3492
 1343SOL    HW215489   3.649   1.906   9.602  0.0945  0.3465 -1.4838
 1344SOL     OW15490   0.895   3.221   7.092  0.2158 -0.2161 -0.1373
 1344SOL    HW115491   0.852   3.149   7.046  0.7581 -0.7778  0.2260
 1344SOL    HW215492   0.983   3.231   7.057  0.0766  0.9647 -0.1599
 1345SOL     OW15493   2.474   0.613  16.808 -0.4129  0.2643  0.0343
 1345SOL    HW115494   2.496   0.706  16.804 -0.3927  0.3408  1.8768
 1345SOL    HW215495   2.418   0.598  16.732  1.5198 -1.6736 -1.0191
 1346SOL     OW15496   0.786   3.725   3.499  0.1315  0.1324 -0.0121
 1346SOL    HW115497   0.872   3.735   3.459 -0.9523 -1.0646 -2.5911
 1346SOL    HW215498   0.811   3.710   3.590 -4.2329 -1.4486  0.9343
 1347SOL     OW15499   3.073   4.569   5.634  0.3591  0.3595 -0.4207
 1347SOL    HW115500   3.015   4.520   5.575 -0.5358  1.3289 -0.3297
 1347SOL    HW215501   3.038   4.655   5.614  1.2215  0.8007 -0.0286
 1348SOL     OW15502   1.048   4.631  13.241  0.2768  0.1465  0.0695
 1348SOL    HW115503   1.081   4.670  13.323  1.4129  0.4390 -0.5275
 1348SOL    HW215504   1.085   4.544  13.255 -0.2900  0.2347  2.2039
 1349SOL     OW15505   3.689   3.725   1.949  0.0435  0.2543  0.2580
 1349SOL    HW115506   3.622   3.663   1.977  0.8712 -0.7424  0.0337
 1349SOL    HW215507   3.751   3.676   1.895 -2.9980 -0.1911 -2.8512
 1350SOL     OW15508   1.121   1.132   5.748 -0.3652 -0.1326  0.4496
 1350SOL    HW115509   1.066   1.209   5.738  2.0105  1.5637  0.3161
 1350SOL    HW215510   1.044   1.081   5.774 -0.5499 -0.4321 -0.6779
 1351SOL     OW15511   1.711   0.967  11.138  0.4777 -0.0232 -0.1242
 1351SOL    HW115512   1.631   1.010  11.169  2.2051  1.4012  2.2925
 1351SOL    HW215513   1.679   0.884  11.102 -0.4426  0.4709 -0.4453
 1352SOL     OW15514   4.565   1.614   3.545  0.0374  0.6919 -0.2066
 1352SOL    HW115515   4.486   1.585   3.499 -0.4053  2.6698 -0.7046
 1352SOL    HW215516   4.528   1.683   3.600 -0.2602 -1.8082  2.7244
 1353SOL     OW15517   4.093   0.480   3.595  0.4876  0.7637  0.1983
 1353SOL    HW115518   4.071   0.405   3.541 -0.1764  1.2806 -0.2529
 1353SOL    HW215519   4.187   0.494   3.583  0.5823  0.3288  0.4502
 1354SOL     OW15520   0.984   0.945   2.420  0.0690  0.1649 -0.5955
 1354SOL    HW115521   0.978   0.937   2.325 -0.0765  1.6747 -0.7077
 1354SOL    HW215522   0.920   0.877   2.439  1.1665 -0.9448 -0.8244
 1355SOL     OW15523   1.272   4.367  14.766 -0.6407  0.4454 -0.2035
 1355SOL    HW115524   1.277   4.354  14.860  1.4296 -0.5163 -0.4488
 1355SOL    HW215525   1.342   4.309  14.738  0.0660  1.2127 -0.0371
 1356SOL     OW15526   1.176   0.711   7.126  0.1283  0.2145 -0.1129
 1356SOL    HW115527   1.269   0.691   7.112 -0.1390 -1.0505 -0.0934
 1356SOL    HW215528   1.137   0.625   7.111 -0.2768  0.2256  0.8408
 1357SOL     OW15529   1.944   4.050  17.335  0.5788  0.2170 -0.0612
 1357SOL    HW115530   1.965   4.142  17.316  3.6063 -0.3957  0.3259
 1357SOL    HW215531   1.907   4.022  17.251 -1.8457 -0.6169  1.2623
 1358SOL     OW15532   3.168   4.476   0.979  1.0308  0.3746 -0.2961
 1358SOL    HW115533   3.148   4.384   0.999 -1.1606  0.8833 -0.1461
 1358SOL    HW215534   3.081   4.507   0.954  0.6913 -0.3788 -0.0537
 1359SOL     OW15535   2.664   1.415   3.207 -0.5093 -0.5372 -0.3532
 1359SOL    HW115536   2.727   1.478   3.243  1.4006 -1.7246 -1.6372
 1359SOL    HW215537   2.585   1.465   3.228 -0.8366 -1.3498  0.3399
 1360SOL     OW15538   3.759   2.770   6.694  0.0598  0.1946  0.0319
 1360SOL    HW115539   3.706   2.695   6.669  0.5798  0.1473 -0.9453
 1360SOL    HW215540   3.712   2.794   6.774  0.5292  3.4095 -0.6353
 1361SOL     OW15541   3.640   0.204   0.099  0.4079 -0.0178  0.8191
 1361SOL    HW115542   3.693   0.206   0.019  0.3815 -1.1388  0.7753
 1361SOL    HW215543   3.708   0.197   0.167  0.5483  1.5327  0.8336
 1362SOL     OW15544   2.759   1.031   8.414 -0.2513 -0.6211 -0.2159
 1362SOL    HW115545   2.810   0.952   8.431 -0.4093 -0.5015  0.8098
 1362SOL    HW215546   2.818   1.099   8.446  0.1210 -1.6903  1.4024
 1363SOL     OW15547   2.946   2.511   9.748  0.0584  0.1317 -0.9850
 1363SOL    HW115548   2.964   2.588   9.802  2.6239  1.0150 -3.1324
 1363SOL    HW215549   3.014   2.451   9.778  1.1925  1.9435  0.0709
 1364SOL     OW15550   0.818   3.892  11.773 -0.1604 -0.2431 -0.1594
 1364SOL    HW115551   0.813   3.830  11.700  1.1897 -0.3224 -0.1808
 1364SOL    HW215552   0.905   3.880  11.810 -1.2432 -0.0448  2.4898
 1365SOL     OW15553   2.088   3.427   3.429 -0.0618 -0.5968  0.0030
 1365SOL    HW115554   2.104   3.437   3.335 -0.9986 -0.0701 -0.1037
 1365SOL    HW215555   2.044   3.342   3.431 -1.5599  0.1388 -1.6093
 1366SOL     OW15556   0.885   4.343   2.384 -0.4037  0.5516 -0.1943
 1366SOL    HW115557   0.892   4.303   2.297  1.5722 -0.5555  0.4762
 1366SOL    HW215558   0.962   4.399   2.378 -1.4266  1.9087 -0.5708
 1367SOL     OW15559   4.572   1.217   3.076  0.0372 -0.1226  0.2510
 1367SOL    HW115560   4.538   1.305   3.057  0.5939 -0.5437 -2.7659
 1367SOL    HW215561   4.488   1.177   3.099  0.0713 -0.5820 -0.4215
 1368SOL     OW15562   3.594   1.873  16.016  0.5535 -0.3877 -0.7965
 1368SOL    HW115563   3.553   1.828  15.942 -1.5428  3.8959 -2.2576
 1368SOL    HW215564   3.643   1.943  15.973  0.6478 -0.6272 -1.0685
 1369SOL     OW15565   0.454   1.811   4.136 -0.1171  0.0980 -0.1797
 1369SOL    HW115566   0.386   1.877   4.148 -0.8441 -0.4725 -1.1742
 1369SOL    HW215567   0.485   1.785   4.223 -1.3191 -0.2100  0.1574
 1370SOL     OW15568   0.840   4.169   8.314 -0.4541  0.3202  0.3716
 1370SOL    HW115569   0.895   4.241   8.284 -2.1819  0.7599 -1.7574
 1370SOL    HW215570   0.805   4.210   8.393 -0.6853  0.1575  0.3532
 1371SOL     OW15571   1.659   0.748   7.323 -0.3335  0.5036 -0.2955
 1371SOL    HW115572   1.667   0.808   7.397 -2.8319 -1.1771  1.3178
 1371SOL    HW215573   1.676   0.814   7.256 -1.1053 -0.5758 -1.5577
 1372SOL     OW15574   4.488   3.719   5.134 -0.1391  0.8269 -0.2172
 1372SOL    HW115575   4.415   3.689   5.079  1.5271  0.8645 -2.4557
 1372SOL    HW215576   4.507   3.805   5.096 -0.6074  0.4194 -1.3911
 1373SOL     OW15577   1.458   4.643   5.613  0.5875 -0.6336 -0.0245
 1373SOL    HW115578   1.408   4.692   5.548  0.0702 -2.1692 -0.7683
 1373SOL    HW215579   1.540   4.633   5.565 -0.5262 -0.1226 -2.0485
 1374SOL     OW15580   3.760   3.350   2.647 -0.2248 -0.3304 -0.8152
 1374SOL    HW115581   3.719   3.424   2.690 -0.8693 -1.2193  0.1021
 1374SOL    HW215582   3.836   3.382   2.599  0.5242 -2.9547 -1.3830
 1375SOL     OW15583   1.942   0.314   5.050  0.4763 -0.0225  0.2275
 1375SOL    HW115584   1.869   0.332   4.990  1.5601 -0.1196 -1.1053
 1375SOL    HW215585   2.014   0.296   4.990 -0.7112  0.8061 -1.4530
 1376SOL     OW15586   1.655   4.000   1.332 -0.1708  0.1736  0.2906
 1376SOL    HW115587   1.564   4.029   1.329  0.2961  1.7977  1.8336
 1376SOL    HW215588   1.663   3.962   1.245  0.8864 -1.1439  0.9675
 1377SOL     OW15589   3.190   2.044   2.939 -0.1519  0.1594  0.3093
 1377SOL    HW115590   3.111   2.068   2.987 -2.5010 -2.0507 -2.4201
 1377SOL    HW215591   3.187   1.948   2.941  2.8303  0.0494  0.8994
 1378SOL     OW15592   0.929   3.371   0.282  0.5082 -0.1002  0.9051
 1378SOL    HW115593   0.902   3.457   0.250  1.2532  1.0384  3.3071
 1378SOL    HW215594   1.016   3.401   0.308 -0.7657  2.8796  1.7391
 1379SOL     OW15595   1.389   0.020  12.510  0.0121 -0.0693  0.3242
 1379SOL    HW115596   1.352   0.065  12.586 -2.6270 -1.9713  0.1732
 1379SOL    HW215597   1.378   4.650  12.538 -0.9363 -0.0522  0.0118
 1380SOL     OW15598   2.932   0.142   3.041 -0.0289  0.6260  0.1546
 1380SOL    HW115599   2.919   0.231   3.009  0.2578  0.2528 -1.0093
 1380SOL    HW215600   2.930   0.094   2.959  0.2013 -1.0297  1.1110
 1381SOL     OW15601   4.121   3.655   5.584  0.8222 -0.0965 -0.1165
 1381SOL    HW115602   4.206   3.699   5.588  1.6736 -1.7956  0.7180
 1381SOL    HW215603   4.144   3.563   5.596 -1.8448 -0.7324  0.0271
 1382SOL     OW15604   4.475   3.492  16.062  0.5371 -0.2801 -0.4231
 1382SOL    HW115605   4.475   3.398  16.081 -1.1572  0.1774  1.9394
 1382SOL    HW215606   4.476   3.479  15.967  2.3224  1.3442 -0.6244
 1383SOL     OW15607   0.951   3.094   4.492  0.6486 -0.2516  0.1137
 1383SOL    HW115608   0.984   3.031   4.555 -0.7131 -0.7695  0.3136
 1383SOL    HW215609   0.955   3.177   4.540 -0.2324  1.7407 -3.1947
 1384SOL     OW15610   1.684   1.054   6.738 -0.3195 -0.5178 -0.6910
 1384SOL    HW115611   1.602   1.003   6.745 -0.6325  0.0402 -0.2871
 1384SOL    HW215612   1.755   0.992   6.725  0.1692 -0.3501  1.1133
 1385SOL     OW15613   4.063   0.766   0.681  0.2262 -0.4183 -0.4540
 1385SOL    HW115614   4.021   0.748   0.597 -1.5843  2.4611 -0.1756
 1385SOL    HW215615   3.989   0.729   0.730  0.7351  1.7280  1.9270
 1386SOL     OW15616   1.495   2.881   0.496  0.0718  0.0272 -0.0394
 1386SOL    HW115617   1.440   2.895   0.574  2.9810 -0.4686  2.1174
 1386SOL    HW215618   1.520   2.789   0.497  0.7104  0.2109  1.1088
 1387SOL     OW15619   0.604   3.376  13.537  0.4083 -0.4225  0.2974
 1387SOL    HW115620   0.652   3.356  13.457  1.4382  2.4363  0.1750
 1387SOL    HW215621   0.674   3.397  13.600  1.7030 -0.7415 -1.0365
 1388SOL     OW15622   3.490   1.631   5.469  0.3702 -1.0217  0.3866
 1388SOL    HW115623   3.576   1.614   5.506 -0.8683 -0.6719  3.3690
 1388SOL    HW215624   3.514   1.713   5.426 -0.2859 -1.3423 -0.6100
 1389SOL     OW15625   1.132   0.932   5.558 -0.3674  0.1755  0.1875
 1389SOL    HW115626   1.197   0.951   5.491 -0.0779  0.1193  0.4512
 1389SOL    HW215627   1.123   1.015   5.606  1.4148  0.5655 -0.1464
 1390SOL     OW15628   0.308   1.798   1.214 -0.2430 -0.3855  0.1239
 1390SOL    HW115629   0.349   1.716   1.244  0.6082 -0.1011 -0.2527
 1390SOL    HW215630   0.376   1.840   1.161 -1.8982 -2.5425 -3.6956
 1391SOL     OW15631   0.674   3.964   4.454  0.2488 -0.1278  0.4907
 1391SOL    HW115632   0.634   3.881   4.482 -0.2132 -0.1064 -0.1216
 1391SOL    HW215633   0.753   3.968   4.508 -1.9983  0.6196  3.7047
 1392SOL     OW15634   1.543   2.611   0.508 -0.6857  0.7609 -0.1464
 1392SOL    HW115635   1.634   2.595   0.485 -0.9863  1.5225 -1.8781
 1392SOL    HW215636   1.505   2.523   0.501 -3.0628  1.7550  0.0763
 1393SOL     OW15637   4.569   2.263   6.644  0.6102  0.1289  0.4142
 1393SOL    HW115638   4.584   2.356   6.662 -0.5399  0.6020 -1.0178
 1393SOL    HW215639   4.554   2.220   6.728 -2.4997  1.6002  0.6217
 1394SOL     OW15640   0.267   1.314   2.140  0.1836  0.1606  0.8873
 1394SOL    HW115641   0.220   1.271   2.069  0.0976  0.9269  0.4841
 1394SOL    HW215642   0.200   1.307   2.207  0.8190  1.1131  1.6262
 1395SOL     OW15643   1.040   3.956   4.817 -0.1128 -0.2798 -0.1979
 1395SOL    HW115644   0.957   3.980   4.860 -0.4645 -3.3983  0.9110
 1395SOL    HW215645   1.092   3.934   4.894  0.2360 -0.5709 -0.5191
 1396SOL     OW15646   4.307   2.017   1.752 -0.4460 -0.0647 -0.3937
 1396SOL    HW115647   4.274   2.106   1.744  0.7210  0.3596 -0.5181
 1396SOL    HW215648   4.307   1.979   1.664 -2.7162 -0.8827 -0.0473
 1397SOL     OW15649   3.377   1.136   9.417  0.0601  0.1526 -0.6368
 1397SOL    HW115650   3.295   1.093   9.442  0.9927 -0.9372  0.5215
 1397SOL    HW215651   3.350   1.227   9.423 -1.0378 -0.2700  0.8087
 1398SOL     OW15652   1.071   0.918  13.876 -0.6274  0.6041  0.2633
 1398SOL    HW115653   1.034   0.970  13.948  0.0880 -0.5980  1.4932
 1398SOL    HW215654   1.161   0.908  13.907  0.2918  1.0965 -2.3038
 1399SOL     OW15655   3.012   1.253   4.117  0.1391  0.2723 -0.1150
 1399SOL    HW115656   3.034   1.199   4.193  1.3171  2.0507  0.8320
 1399SOL    HW215657   3.044   1.337   4.152 -0.9355  0.7537 -0.2965
 1400SOL     OW15658   3.708   2.637   7.952 -0.0529  0.1294  0.1124
 1400SOL    HW115659   3.710   2.691   7.872  0.2688  2.3800  1.6540
 1400SOL    HW215660   3.791   2.590   7.943  0.2597  0.7730 -0.4362
 1401SOL     OW15661   2.332   1.521   2.688  0.3314  0.4932  0.6416
 1401SOL    HW115662   2.340   1.616   2.685 -2.1654  0.7400  1.5112
 1401SOL    HW215663   2.414   1.487   2.724  2.0976  0.4543 -3.3992
 1402SOL     OW15664   3.764   1.239   8.065 -0.2383  0.4423  0.0837
 1402SOL    HW115665   3.688   1.294   8.049  1.0488  2.1157 -0.2461
 1402SOL    HW215666   3.792   1.268   8.152  0.7784  1.6577 -0.6345
 1403SOL     OW15667   3.991   1.811   0.336 -0.5160 -0.0065  0.0050
 1403SOL    HW115668   3.931   1.854   0.397  2.2432  0.8796  2.0676
 1403SOL    HW215669   3.944   1.732   0.311  2.9934 -1.9573 -0.4324
 1404SOL     OW15670   1.050   1.364  16.561  0.2786  0.2754 -0.1080
 1404SOL    HW115671   1.042   1.275  16.595  1.9047  0.8147  1.6808
 1404SOL    HW215672   0.971   1.403  16.599 -0.0768  1.7996 -2.3868
 1405SOL     OW15673   3.901   1.663   9.040 -0.3626  0.1537  0.1663
 1405SOL    HW115674   3.830   1.610   9.077  0.1742 -0.5984  0.1389
 1405SOL    HW215675   3.858   1.747   9.050  1.2890  1.0834 -0.6094
 1406SOL     OW15676   4.411   0.945   1.559 -0.8251  0.1467  0.8397
 1406SOL    HW115677   4.452   1.031   1.561 -2.9345  1.2248 -1.7687
 1406SOL    HW215678   4.491   0.892   1.566 -0.3775  0.8623  1.2074
 1407SOL     OW15679   4.497   1.080   7.788 -0.3111 -0.2397 -0.4959
 1407SOL    HW115680   4.487   1.101   7.695 -2.1870 -0.7268 -0.4079
 1407SOL    HW215681   4.536   1.158   7.828 -3.0617  0.6652  0.4092
 1408SOL     OW15682   2.462   0.960   5.318 -0.1217  0.4534  0.4261
 1408SOL    HW115683   2.442   0.867   5.327 -0.1201  0.4566  0.4622
 1408SOL    HW215684   2.386   0.998   5.361 -0.0865  1.8527 -0.7383
 1409SOL     OW15685   3.145   2.491   8.262 -0.0288  0.6231 -0.5509
 1409SOL    HW115686   3.159   2.480   8.356 -0.6661 -1.5035 -0.7204
 1409SOL    HW215687   3.050   2.495   8.261 -0.0834 -1.6049 -3.3704
 1410SOL     OW15688   0.446   4.206   7.630  0.0421 -0.9325 -0.0070
 1410SOL    HW115689   0.439   4.187   7.723  0.2132  0.4694  0.2839
 1410SOL    HW215690   0.380   4.139   7.609 -0.4749 -0.6729  0.8119
 1411SOL     OW15691   0.090   4.401  16.984 -0.5970 -0.8421  0.2988
 1411SOL    HW115692   0.075   4.309  16.966 -1.4734 -0.4134 -1.1494
 1411SOL    HW215693   0.005   4.434  16.954  0.6697  1.4120 -0.8721
 1412SOL     OW15694   2.888   0.700   2.292  0.1150  0.2516 -0.3390
 1412SOL    HW115695   2.979   0.713   2.268  0.6117 -1.9121  0.4120
 1412SOL    HW215696   2.851   0.717   2.205 -0.0514  1.4756 -0.0311
 1413SOL     OW15697   4.365   0.607   9.820  0.2292 -0.2098 -0.5310
 1413SOL    HW115698   4.370   0.639   9.910 -0.8586  2.0719 -1.2896
 1413SOL    HW215699   4.322   0.522   9.823 -2.1381  1.0322 -0.0993
 1414SOL     OW15700   1.756   3.268   3.476 -0.0135  0.1828  0.2368
 1414SOL    HW115701   1.825   3.210   3.444  0.7353  1.5161 -0.5969
 1414SOL    HW215702   1.715   3.285   3.392  1.3528  1.3907 -0.1934
 1415SOL     OW15703   0.781   0.093   4.312 -0.3545 -0.4285  0.7054
 1415SOL    HW115704   0.752   0.020   4.257  1.4710 -2.4511  2.4368
 1415SOL    HW215705   0.704   0.112   4.366 -0.5689  1.5985 -0.3227
 1416SOL     OW15706   4.269   0.511  15.408 -0.0041 -0.6120 -0.3842
 1416SOL    HW115707   4.266   0.565  15.487 -3.1724  0.1518 -1.0227
 1416SOL    HW215708   4.180   0.479  15.395 -0.5704  0.8352 -0.0544
 1417SOL     OW15709   2.288   0.049   1.286 -0.7405 -0.0809  0.2081
 1417SOL    HW115710   2.224   0.017   1.349 -3.1608  2.9882 -0.6741
 1417SOL    HW215711   2.318   4.691   1.242 -0.2894 -0.0315  0.4236
 1418SOL     OW15712   2.443   0.024   8.588  0.2353  0.1218  0.6045
 1418SOL    HW115713   2.371   4.687   8.561 -0.2998  0.2085  1.8385
 1418SOL    HW215714   2.449   0.021   8.684  2.7536  0.4279  0.4482
 1419SOL     OW15715   1.852   4.034   4.649 -0.2993  0.0732 -0.3446
 1419SOL    HW115716   1.795   3.960   4.671  0.1647  0.1719  1.1395
 1419SOL    HW215717   1.934   3.997   4.681 -2.6097 -4.6386  0.0865
 1420SOL     OW15718   0.791   0.577  15.759 -0.3905  0.4825 -0.6847
 1420SOL    HW115719   0.737   0.501  15.781 -2.0827  1.9028  0.1001
 1420SOL    HW215720   0.776   0.628  15.839  0.3244  0.7812 -0.7420
 1421SOL     OW15721   0.281   3.737   3.325 -0.0962  1.0485  0.1682
 1421SOL    HW115722   0.305   3.797   3.255 -0.6408  0.9959 -0.0573
 1421SOL    HW215723   0.260   3.658   3.276 -0.8649 -0.1323  2.4123
 1422SOL     OW15724   1.135   0.603   5.353  0.1091 -0.1129 -0.7965
 1422SOL    HW115725   1.093   0.532   5.306 -0.3993 -0.3759  0.0499
 1422SOL    HW215726   1.115   0.677   5.296 -0.1075  0.2670 -0.2366
 1423SOL     OW15727   1.802   0.865   1.436 -0.4634  0.3415 -0.6691
 1423SOL    HW115728   1.745   0.862   1.513  0.1914  1.0460 -0.1555
 1423SOL    HW215729   1.785   0.956   1.414  0.0286  0.8674  1.1001
 1424SOL     OW15730   2.595   0.046   4.992  0.1515  0.0477 -0.3686
 1424SOL    HW115731   2.647   0.004   4.924  0.7951 -0.1313  0.2380
 1424SOL    HW215732   2.642   0.128   5.006  0.0430 -0.6847  4.1474
 1425SOL     OW15733   1.120   3.321  17.358  0.0970 -0.6588  0.5738
 1425SOL    HW115734   1.200   3.317  17.410  1.0938 -0.3400 -0.9281
 1425SOL    HW215735   1.054   3.292  17.422  0.0589  1.6731  1.5710
 1426SOL     OW15736   1.715   3.462   7.800  0.0196 -0.5034  0.8802
 1426SOL    HW115737   1.802   3.503   7.807  1.2045 -2.6858 -0.9294
 1426SOL    HW215738   1.661   3.537   7.824  0.2560  0.3101 -1.0940
 1427SOL     OW15739   2.649   4.063  10.409 -0.7273 -0.4846 -0.6855
 1427SOL    HW115740   2.599   4.140  10.381  0.8561 -0.7160 -4.1257
 1427SOL    HW215741   2.649   4.027  10.320  0.6755  0.9395 -1.2650
 1428SOL     OW15742   2.172   1.075   1.482  0.2337  0.4264  0.2449
 1428SOL    HW115743   2.220   0.994   1.466 -0.2845  0.3459 -0.8805
 1428SOL    HW215744   2.119   1.090   1.404  1.1237 -0.6277 -0.5696
 1429SOL     OW15745   2.316   4.175  11.759 -0.3378 -0.3971  0.1814
 1429SOL    HW115746   2.309   4.081  11.775 -1.8011 -0.2791  0.2183
 1429SOL    HW215747   2.372   4.180  11.681 -1.3252  0.4075 -0.4790
 1430SOL     OW15748   1.405   0.046   3.462 -0.3049  0.4931 -0.2236
 1430SOL    HW115749   1.338   0.055   3.530 -1.5181 -1.0107 -1.1997
 1430SOL    HW215750   1.352   0.040   3.382 -0.7710  2.1186 -0.0494
 1431SOL     OW15751   4.025   1.071   9.630 -0.1296  0.0721  0.2502
 1431SOL    HW115752   4.088   1.039   9.694 -0.0207  0.8798  0.5528
 1431SOL    HW215753   4.041   1.164   9.645  1.8548  0.2099 -2.7770
 1432SOL     OW15754   2.856   3.106   7.818  0.1148 -0.3862 -0.3187
 1432SOL    HW115755   2.944   3.103   7.856 -0.4585  1.5679  1.1246
 1432SOL    HW215756   2.858   3.201   7.811  0.7861 -0.2143  2.4638
 1433SOL     OW15757   2.999   3.090   6.968  0.5781 -0.5073  0.0189
 1433SOL    HW115758   2.980   3.169   6.918  4.2824  1.1048  1.1413
 1433SOL    HW215759   2.942   3.103   7.044  2.5252  1.2516  1.1912
 1434SOL     OW15760   0.368   3.771   3.561  0.4407  0.1497 -0.1693
 1434SOL    HW115761   0.342   3.739   3.475  0.2396 -2.3286  0.8295
 1434SOL    HW215762   0.286   3.806   3.594 -0.0573  0.7574 -2.0776
 1435SOL     OW15763   4.330   3.320   1.032  0.6530  0.1858 -0.2557
 1435SOL    HW115764   4.391   3.247   1.023  0.6151 -0.1526  2.2970
 1435SOL    HW215765   4.345   3.336   1.125 -0.3945 -1.7886  0.2612
 1436SOL     OW15766   1.296   2.080  10.561 -0.3313  0.2711  0.0580
 1436SOL    HW115767   1.350   2.017  10.609  0.9227  0.6920 -0.8020
 1436SOL    HW215768   1.235   2.018  10.521 -1.4874  0.8697  0.9246
 1437SOL     OW15769   4.058   0.034  11.937  0.3158  0.0633  0.4086
 1437SOL    HW115770   4.021   0.083  11.863  1.8977 -0.4799 -0.7593
 1437SOL    HW215771   4.029   4.668  11.911 -2.6456  0.7126  1.5794
 1438SOL     OW15772   2.086   2.605   4.006 -0.4689 -0.1461 -0.2344
 1438SOL    HW115773   2.113   2.694   3.980 -0.4039  0.2107  1.0812
 1438SOL    HW215774   2.002   2.620   4.048 -0.4400 -1.7897  0.3768
 1439SOL     OW15775   0.946   1.573   2.323  0.2717 -0.0521  0.1426
 1439SOL    HW115776   0.862   1.527   2.326 -0.0162  0.4224 -0.6819
 1439SOL    HW215777   0.999   1.537   2.394  3.2982  1.0332 -1.5476
 1440SOL     OW15778   0.528   3.997   8.068 -0.2717  0.2949  0.0571
 1440SOL    HW115779   0.619   3.970   8.055 -0.6960 -2.0676  1.8700
 1440SOL    HW215780   0.526   4.035   8.155  0.7120  0.1522  0.1456
 1441SOL     OW15781   1.075   2.098   8.206 -0.3334 -0.3073  0.2432
 1441SOL    HW115782   1.082   2.169   8.142 -3.0801 -0.7562 -0.5700
 1441SOL    HW215783   1.119   2.143   8.278  0.2962 -0.7653  0.1507
 1442SOL     OW15784   0.890   4.345  15.698 -0.1315 -0.0660  0.4617
 1442SOL    HW115785   0.890   4.425  15.646  3.7510 -0.5349 -0.2405
 1442SOL    HW215786   0.898   4.383  15.785  0.7148  0.7095  0.0503
 1443SOL     OW15787   3.901   0.930   9.946  0.1233 -0.4697  0.0852
 1443SOL    HW115788   3.869   0.988   9.877 -1.2637 -1.5766 -0.2023
 1443SOL    HW215789   3.990   0.914   9.915  0.9926  1.0541  1.7659
 1444SOL     OW15790   1.042   4.235  11.691 -0.2067  0.0529  0.2557
 1444SOL    HW115791   0.979   4.276  11.751  0.0290  1.1456 -0.2577
 1444SOL    HW215792   1.114   4.227  11.754 -0.3015  0.5299  0.4224
 1445SOL     OW15793   2.481   0.015  10.558 -0.1045  0.0824 -0.3425
 1445SOL    HW115794   2.402   0.057  10.592  2.3167  3.3345  1.3031
 1445SOL    HW215795   2.549   0.076  10.588  1.4251 -2.0894  0.5772
 1446SOL     OW15796   1.480   0.433   7.808 -0.4520 -0.1059  0.5650
 1446SOL    HW115797   1.400   0.447   7.859 -0.7814 -1.4980  0.4338
 1446SOL    HW215798   1.524   0.379   7.873  0.9099 -2.0832 -2.0061
 1447SOL     OW15799   0.957   3.447   7.534  0.6810  0.0787 -0.1296
 1447SOL    HW115800   0.913   3.421   7.453  0.4073 -0.4730  0.1954
 1447SOL    HW215801   1.037   3.483   7.496  0.4540  0.4833 -0.2339
 1448SOL     OW15802   1.362   3.792   2.340  0.0603  0.1764  0.2298
 1448SOL    HW115803   1.289   3.730   2.329  0.2561 -0.3256  1.7912
 1448SOL    HW215804   1.346   3.843   2.419  1.4227 -0.2982  0.7980
 1449SOL     OW15805   1.827   1.287  10.364  0.7984 -0.0533  0.2035
 1449SOL    HW115806   1.914   1.321  10.386  1.0664 -0.1426 -0.7426
 1449SOL    HW215807   1.838   1.234  10.285 -2.0686 -1.2394  0.6211
 1450SOL     OW15808   1.037   0.888   6.967  0.2040  0.4635  0.2613
 1450SOL    HW115809   0.980   0.924   7.036 -0.6662  1.3152 -0.8990
 1450SOL    HW215810   1.083   0.824   7.021 -2.2663 -0.6777  1.0521
 1451SOL     OW15811   0.186   3.416   7.136  0.2222  0.8962  0.8098
 1451SOL    HW115812   0.169   3.328   7.170  2.9977  0.3979  0.8992
 1451SOL    HW215813   0.164   3.388   7.048  0.7476 -0.4409  1.0972
 1452SOL     OW15814   1.793   2.783   7.944 -0.3921  0.1610  0.1579
 1452SOL    HW115815   1.749   2.851   7.995 -2.4436 -0.6133 -0.5836
 1452SOL    HW215816   1.882   2.804   7.972 -0.5172  0.5106  0.2966
 1453SOL     OW15817   2.892   3.222   8.627 -0.2257 -0.0452 -0.4119
 1453SOL    HW115818   2.965   3.250   8.572 -0.9385  2.9067  0.1687
 1453SOL    HW215819   2.835   3.296   8.609  0.4804  0.6489  0.1823
 1454SOL     OW15820   3.203   2.721  12.195 -0.0702  0.3167  0.0898
 1454SOL    HW115821   3.139   2.789  12.176 -0.0814  0.4463  0.5856
 1454SOL    HW215822   3.224   2.682  12.110 -1.2488 -1.8803  0.8281
 1455SOL     OW15823   2.245   3.813   1.687  0.1525  0.4846  0.5818
 1455SOL    HW115824   2.200   3.755   1.748  0.5334  0.8672  1.2196
 1455SOL    HW215825   2.331   3.796   1.725 -0.6809 -1.6579  1.5235
 1456SOL     OW15826   4.634   3.247   1.886 -0.7155 -0.0746 -0.7182
 1456SOL    HW115827   4.554   3.196   1.897 -0.7653  0.0506 -0.5079
 1456SOL    HW215828   4.598   3.322   1.838 -0.0274  1.2905  0.9277
 1457SOL     OW15829   2.620   2.825   8.753  0.0092 -0.9217  0.3405
 1457SOL    HW115830   2.691   2.889   8.758  0.2682 -1.1377 -0.6147
 1457SOL    HW215831   2.552   2.892   8.745  0.3334 -0.7336 -0.8615
 1458SOL     OW15832   4.005   1.779   4.287 -0.5327  0.2728  0.0889
 1458SOL    HW115833   4.056   1.717   4.235 -0.4355 -0.5100  1.1215
 1458SOL    HW215834   4.011   1.741   4.374  0.0445  0.0261 -0.0605
 1459SOL     OW15835   0.975   2.955   0.056  0.2947  0.0649  0.6589
 1459SOL    HW115836   0.935   2.869   0.047  0.5359 -0.0236  0.4354
 1459SOL    HW215837   0.966   2.981   0.148 -2.5033 -0.9384  0.6627
 1460SOL     OW15838   4.006   1.318   3.427 -0.2964 -0.1172 -0.8249
 1460SOL    HW115839   4.026   1.249   3.364  1.8657 -0.9406  0.7517
 1460SOL    HW215840   4.061   1.289   3.500  0.1263  1.5817 -0.4529
 1461SOL     OW15841   1.026   1.930   1.965 -0.8174  0.2227 -0.8844
 1461SOL    HW115842   0.947   1.882   1.989 -1.2409  1.5085  0.3335
 1461SOL    HW215843   1.043   1.906   1.874 -0.8466  0.2861 -0.9069
 1462SOL     OW15844   3.216   2.808   3.694  0.4937  0.3776  0.2911
 1462SOL    HW115845   3.298   2.767   3.665 -0.9356 -1.6992 -0.8543
 1462SOL    HW215846   3.251   2.895   3.711  0.2872 -0.0736  2.9898
 1463SOL     OW15847   2.692   3.827   6.798  0.3483  0.2754  0.9215
 1463SOL    HW115848   2.779   3.824   6.836  0.4402 -2.4671  0.5071
 1463SOL    HW215849   2.635   3.844   6.874 -1.7440 -0.2698 -0.5089
 1464SOL     OW15850   1.727   4.193   1.747  0.4967  0.0525  0.7168
 1464SOL    HW115851   1.692   4.275   1.713 -0.4815  0.1339  1.9132
 1464SOL    HW215852   1.671   4.163   1.819  0.8217 -1.3931  0.3722
 1465SOL     OW15853   4.496   1.500   4.372 -0.3097 -0.1909 -0.0017
 1465SOL    HW115854   4.546   1.580   4.390 -1.3933  0.2263  1.1304
 1465SOL    HW215855   4.532   1.437   4.434 -1.3744 -0.5906  0.2006
 1466SOL     OW15856   2.273   2.959   7.181  0.5466  0.2158  0.1272
 1466SOL    HW115857   2.367   2.941   7.187 -0.1348 -3.0392  0.7329
 1466SOL    HW215858   2.274   2.983   7.088 -1.3145 -0.0051  0.0454
 1467SOL     OW15859   3.289   3.572   0.126  0.0601  0.5192  0.1086
 1467SOL    HW115860   3.344   3.633   0.176  0.8309  0.1443 -0.2881
 1467SOL    HW215861   3.216   3.554   0.185 -1.1041  3.2981 -0.4904
 1468SOL     OW15862   3.927   3.156   5.031  0.0272 -0.2853  0.1269
 1468SOL    HW115863   3.947   3.232   5.086 -0.7338 -0.6170  0.8608
 1468SOL    HW215864   4.000   3.105   5.067  1.3576  2.5762  1.5110
 1469SOL     OW15865   2.035   0.631   3.605  0.0540 -0.3666 -0.2375
 1469SOL    HW115866   2.044   0.724   3.581  0.4165 -0.5485 -0.8191
 1469SOL    HW215867   2.114   0.624   3.659 -1.8589 -1.8437  2.3726
 1470SOL     OW15868   4.536   1.772   4.097  0.0905 -0.3200 -0.0063
 1470SOL    HW115869   4.572   1.814   4.019  0.5700  1.0076  0.9229
 1470SOL    HW215870   4.486   1.842   4.141 -0.6313 -0.7308 -0.1684
 1471SOL     OW15871   4.540   1.600   6.380 -0.2330  0.4003 -0.3603
 1471SOL    HW115872   4.612   1.653   6.344 -0.0384 -0.4596 -1.2194
 1471SOL    HW215873   4.576   1.511   6.383 -2.8231 -0.6129  0.6530
 1472SOL     OW15874   3.272   3.315  13.489 -0.2100 -0.2860  0.1855
 1472SOL    HW115875   3.245   3.407  13.487 -1.3433 -0.6378 -0.3558
 1472SOL    HW215876   3.350   3.322  13.434 -0.0891 -2.2882  0.0983
 1473SOL     OW15877   2.839   4.137   9.959 -0.4538  0.1042 -0.5559
 1473SOL    HW115878   2.833   4.068   9.892 -0.9737  1.3605 -1.8200
 1473SOL    HW215879   2.933   4.153   9.960 -0.4068 -0.0330 -2.2218
 1474SOL     OW15880   1.778   4.364   4.347 -0.0351 -0.1755 -0.5184
 1474SOL    HW115881   1.819   4.361   4.261 -0.5231  0.3033 -0.7664
 1474SOL    HW215882   1.749   4.455   4.351  1.8032  0.3396  1.1547
 1475SOL     OW15883   2.668   1.973   5.481  0.5820  0.3023 -0.2639
 1475SOL    HW115884   2.701   2.007   5.398  0.1786 -1.8076 -1.2928
 1475SOL    HW215885   2.719   1.893   5.496 -0.0461 -0.1845 -0.7101
 1476SOL     OW15886   0.238   0.640  11.802  0.0886  0.3122 -0.0032
 1476SOL    HW115887   0.164   0.684  11.760 -1.3726 -0.1332  2.1010
 1476SOL    HW215888   0.301   0.627  11.731  1.0362 -0.5792  1.0067
 1477SOL     OW15889   1.501   4.674   2.306  0.1431 -0.1780  0.1067
 1477SOL    HW115890   1.459   0.007   2.239  0.7309 -1.9100 -1.6614
 1477SOL    HW215891   1.523   4.599   2.250  1.7476  1.6990 -1.7407
 1478SOL     OW15892   0.969   3.604   3.211 -0.0119 -0.0298 -0.7248
 1478SOL    HW115893   1.033   3.539   3.239 -1.4865  0.1532  3.1504
 1478SOL    HW215894   1.018   3.680   3.242 -0.9583  0.4827 -0.4850
 1479SOL     OW15895   4.514   1.058  10.921 -0.3983  0.4268 -0.1963
 1479SOL    HW115896   4.472   1.103  10.848 -0.0983 -0.6939 -1.0624
 1479SOL    HW215897   4.592   1.113  10.914 -1.5470  2.0754  0.1480
 1480SOL     OW15898   2.225   3.839  15.203  0.0110  0.0623  0.3657
 1480SOL    HW115899   2.285   3.893  15.255  1.3244 -1.4285  0.4350
 1480SOL    HW215900   2.246   3.873  15.116  0.0026 -0.9649 -0.0354
 1481SOL     OW15901   1.693   0.635   4.815  0.0864  0.6722 -0.2399
 1481SOL    HW115902   1.725   0.724   4.831 -1.2160  0.0070  6.0070
 1481SOL    HW215903   1.681   0.643   4.720  1.2929 -3.2423 -0.7333
 1482SOL     OW15904   3.830   4.192   9.919  0.3216  0.2056  0.1529
 1482SOL    HW115905   3.924   4.174   9.916  0.2253  0.2014 -2.9081
 1482SOL    HW215906   3.804   4.120   9.976 -1.0916  0.6653  0.0784
 1483SOL     OW15907   4.247   0.490   1.978 -0.1461  0.1051 -0.1994
 1483SOL    HW115908   4.317   0.430   2.002 -1.1382 -0.3114  1.6383
 1483SOL    HW215909   4.187   0.428   1.938  1.1207  0.4229 -2.6208
 1484SOL     OW15910   2.454   4.190   0.109 -0.6637  0.2371 -0.0664
 1484SOL    HW115911   2.477   4.127   0.177 -1.4924  1.4098  1.2853
 1484SOL    HW215912   2.466   4.146   0.025 -0.8526  0.4600 -0.2103
 1485SOL     OW15913   3.652   2.183   7.678  0.4060  0.3457  0.0728
 1485SOL    HW115914   3.611   2.243   7.741  0.7134  0.0798  0.5286
 1485SOL    HW215915   3.621   2.204   7.590  1.6156  0.2170 -0.3863
 1486SOL     OW15916   0.380   3.586  10.885  0.9143 -0.1177  0.2168
 1486SOL    HW115917   0.471   3.557  10.894  0.4401 -2.2128 -1.9642
 1486SOL    HW215918   0.390   3.679  10.906 -3.1220  0.3657 -0.0202
 1487SOL     OW15919   2.703   4.597  14.567  0.1401  0.0747  0.1375
 1487SOL    HW115920   2.662   4.657  14.506  0.6063  0.8194  0.5465
 1487SOL    HW215921   2.672   4.510  14.544  1.3022  0.1743 -1.8229
 1488SOL     OW15922   3.867   1.883   3.897  0.5127  0.3812 -0.2957
 1488SOL    HW115923   3.912   1.812   3.852  2.0706  2.9056 -2.7001
 1488SOL    HW215924   3.811   1.825   3.948 -0.5019  0.6265 -1.1171
 1489SOL     OW15925   1.400   2.840  10.079 -0.0741  0.4429 -0.0900
 1489SOL    HW115926   1.383   2.768  10.019  1.5638  0.1643 -0.2198
 1489SOL    HW215927   1.425   2.791  10.158 -2.2523  1.5965  1.2927
 1490SOL     OW15928   3.220   3.364   9.876 -0.4520  0.2156 -0.5009
 1490SOL    HW115929   3.134   3.327   9.895  0.1000 -0.0961  1.3968
 1490SOL    HW215930   3.200   3.457   9.872  1.2978  0.4727 -3.6274
 1491SOL     OW15931   1.862   3.862   8.522 -0.0361 -0.0902  0.8631
 1491SOL    HW115932   1.902   3.848   8.607 -0.8902 -2.5809  0.8465
 1491SOL    HW215933   1.809   3.783   8.519  2.5540 -1.7004 -1.7669
 1492SOL     OW15934   4.193   1.551   5.983  0.1172 -0.0469  0.0937
 1492SOL    HW115935   4.152   1.633   5.954  0.0819 -0.1979 -0.2791
 1492SOL    HW215936   4.244   1.583   6.058 -1.1222  1.0808  0.4678
 1493SOL     OW15937   3.217   1.484  11.397 -0.1287 -0.5386 -0.2256
 1493SOL    HW115938   3.210   1.388  11.403  0.3340 -0.6260 -1.0530
 1493SOL    HW215939   3.126   1.505  11.379  0.4949  1.7595 -0.6182
 1494SOL     OW15940   1.426   1.747  13.765  0.2086 -0.3388  0.2848
 1494SOL    HW115941   1.382   1.817  13.814 -0.6174 -0.7018  0.0713
 1494SOL    HW215942   1.513   1.766  13.800  0.2346  0.1649 -0.0526
 1495SOL     OW15943   3.348   4.241   6.918 -0.5300 -0.3003 -0.3546
 1495SOL    HW115944   3.379   4.302   6.985 -0.9767 -0.7454  0.2558
 1495SOL    HW215945   3.298   4.298   6.859  0.1907 -0.5809 -1.2426
 1496SOL     OW15946   0.809   4.677   5.659  0.0233 -0.0863 -0.0175
 1496SOL    HW115947   0.757   4.671   5.739 -0.3701 -3.1573 -0.4829
 1496SOL    HW215948   0.748   4.703   5.590  2.5242  0.8199 -1.8896
 1497SOL     OW15949   3.637   0.859   2.746 -0.4629 -0.1240  0.4668
 1497SOL    HW115950   3.719   0.812   2.759 -0.8984 -1.1815 -0.6574
 1497SOL    HW215951   3.637   0.865   2.651 -0.3942 -0.6299  0.4347
 1498SOL     OW15952   2.511   0.146  17.279  0.4377  0.5002 -0.5975
 1498SOL    HW115953   2.500   0.062  17.236  0.2706  1.0092 -1.5590
 1498SOL    HW215954   2.426   0.147  17.322 -0.2008 -2.4534 -1.8147
 1499SOL     OW15955   1.400   0.500   9.779  0.3800  0.0743 -0.0431
 1499SOL    HW115956   1.394   0.579   9.832 -0.0142  1.3049 -1.8915
 1499SOL    HW215957   1.405   0.428   9.841  0.7060  0.2651  0.1538
 1500SOL     OW15958   3.379   2.563   0.656 -0.0083  0.4790  0.2677
 1500SOL    HW115959   3.432   2.605   0.724 -0.2510 -2.7188  2.4333
 1500SOL    HW215960   3.408   2.473   0.672 -1.9118  0.1725  1.9324
 1501SOL     OW15961   4.265   0.712   5.591  0.2532  0.0978 -0.6709
 1501SOL    HW115962   4.220   0.773   5.532  0.7283 -0.9729 -2.1316
 1501SOL    HW215963   4.208   0.709   5.668 -1.5677 -0.7890 -2.0537
 1502SOL     OW15964   1.583   3.609   5.558 -0.3895 -0.3431  0.2424
 1502SOL    HW115965   1.569   3.703   5.569  4.0697  0.3268  0.2158
 1502SOL    HW215966   1.579   3.605   5.463 -0.3797  0.5683  0.1973
 1503SOL     OW15967   2.137   3.031   7.410  0.3423 -0.1121 -0.3694
 1503SOL    HW115968   2.182   3.001   7.331  3.3251 -0.5585  1.5077
 1503SOL    HW215969   2.202   3.020   7.479 -1.9063 -2.6973  1.3397
 1504SOL     OW15970   1.603   2.225  15.693  0.1972  0.3456 -0.7787
 1504SOL    HW115971   1.596   2.140  15.650 -0.4481  0.7558 -1.5072
 1504SOL    HW215972   1.559   2.275  15.623  1.4757  2.3077 -0.1801
 1505SOL     OW15973   1.747   1.009   7.460 -0.3394 -0.3546 -0.4008
 1505SOL    HW115974   1.685   1.068   7.417 -1.7803 -1.7822 -0.2765
 1505SOL    HW215975   1.802   1.063   7.516 -0.2620 -0.0190 -0.7991
 1506SOL     OW15976   2.972   0.892   2.688  0.0917 -0.2486 -0.2175
 1506SOL    HW115977   2.935   0.968   2.734  0.5806 -0.9918  1.3947
 1506SOL    HW215978   2.951   0.920   2.599 -0.3502 -0.4569 -0.1799
 1507SOL     OW15979   0.600   0.358   4.905  0.2410 -0.2424 -0.5110
 1507SOL    HW115980   0.636   0.270   4.917 -1.0987 -1.0696 -2.4774
 1507SOL    HW215981   0.573   0.360   4.813  0.4133  1.1328 -0.5319
 1508SOL     OW15982   0.927   0.642   9.847 -0.1452 -0.0306 -0.4128
 1508SOL    HW115983   0.986   0.688   9.906 -1.0606  0.1394  0.3682
 1508SOL    HW215984   0.877   0.709   9.799  0.2446 -0.1481 -0.9822
 1509SOL     OW15985   2.657   0.162  13.341 -0.2616  0.0278  0.1222
 1509SOL    HW115986   2.655   0.125  13.429  0.8464 -2.2510 -0.8183
 1509SOL    HW215987   2.747   0.143  13.315 -0.0179 -0.3961  1.2975
 1510SOL     OW15988   2.388   0.516   7.006  0.2924 -0.2387  0.3440
 1510SOL    HW115989   2.413   0.483   6.920  1.4572 -3.4161  1.9252
 1510SOL    HW215990   2.330   0.442   7.021  0.0586 -0.4212 -1.4908
 1511SOL     OW15991   3.625   0.785   7.882  0.7001  0.1700  0.1926
 1511SOL    HW115992   3.709   0.740   7.874  0.1114 -0.8130 -0.4330
 1511SOL    HW215993   3.619   0.810   7.789 -0.2800  1.1544  0.5190
 1512SOL     OW15994   1.715   4.576   2.742  0.1442 -0.0037  0.2265
 1512SOL    HW115995   1.675   4.566   2.655 -0.1590 -1.1046  0.5012
 1512SOL    HW215996   1.664   4.648   2.781  1.8010  1.2317  0.0982
 1513SOL     OW15997   3.484   1.907  11.543 -0.0518  0.3069  0.2254
 1513SOL    HW115998   3.430   1.844  11.591  2.2377 -1.7127  0.1258
 1513SOL    HW215999   3.433   1.909  11.462 -2.5086 -1.8075  1.7248
 1514SOL     OW16000   4.498   2.178   1.862  0.5122  0.1057 -0.1188
 1514SOL    HW116001   4.436   2.114   1.829  1.3962  0.5489 -2.6552
 1514SOL    HW216002   4.457   2.262   1.839 -1.6500 -0.8666  0.2104
 1515SOL     OW16003   2.012   1.672   5.145 -0.7917 -0.4287  0.1909
 1515SOL    HW116004   2.100   1.702   5.120 -1.3036 -0.5756 -1.8320
 1515SOL    HW216005   2.037   1.638   5.230  2.6318  0.3910 -0.4712
 1516SOL     OW16006   4.359   4.706   6.222 -0.3894  0.0479  0.2361
 1516SOL    HW116007   4.398   0.072   6.215  1.2644 -0.7328 -0.1729
 1516SOL    HW216008   4.359   4.683   6.129  0.8449 -1.8469  0.7060
 1517SOL     OW16009   4.031   1.039   4.086  0.1966 -0.1925 -0.2083
 1517SOL    HW116010   4.041   1.120   4.136  0.9501 -1.0292  0.9883
 1517SOL    HW216011   4.000   1.073   4.001 -0.3973 -0.6078 -0.1529
 1518SOL     OW16012   0.009   1.720   2.541 -0.0688  0.3925  0.6106
 1518SOL    HW116013   0.057   1.705   2.622  1.6821  0.8183 -0.3571
 1518SOL    HW216014   0.070   1.675   2.482 -1.7476 -2.3259  0.9451
 1519SOL     OW16015   1.489   3.158   1.338 -0.2656  0.1885  0.4555
 1519SOL    HW116016   1.420   3.099   1.367 -0.1725  0.2980  0.8889
 1519SOL    HW216017   1.463   3.240   1.380 -1.0017  0.2815 -0.1691
 1520SOL     OW16018   2.339   3.009   3.402 -0.1901 -0.5062 -0.3589
 1520SOL    HW116019   2.405   3.053   3.456  0.4835 -1.2549 -0.5770
 1520SOL    HW216020   2.248   3.027   3.428 -0.5935  2.2020 -3.6359
 1521SOL     OW16021   4.270   3.278   7.680  0.1458 -0.0762 -0.2798
 1521SOL    HW116022   4.327   3.204   7.659 -2.5129 -1.7501 -1.5524
 1521SOL    HW216023   4.289   3.308   7.769  3.4632 -2.0944 -0.3177
 1522SOL     OW16024   4.580   3.771  12.761 -1.0332  0.2794 -0.0478
 1522SOL    HW116025   4.601   3.713  12.689  0.4191 -2.2603  2.4162
 1522SOL    HW216026   4.489   3.790  12.738 -0.5570  1.0185 -1.2987
 1523SOL     OW16027   2.574   0.849   3.807  0.0078 -0.4852  0.5844
 1523SOL    HW116028   2.636   0.900   3.859  1.0426  0.1247 -1.2440
 1523SOL    HW216029   2.622   0.767   3.797  0.1193 -0.1818 -1.3417
 1524SOL     OW16030   4.152   2.836   4.962  0.4651  0.3781 -0.1529
 1524SOL    HW116031   4.107   2.753   4.944 -1.4692  1.1818  1.0011
 1524SOL    HW216032   4.078   2.867   5.014 -0.8479 -1.8135 -0.7047
 1525SOL     OW16033   1.017   0.118  16.814 -0.2262  0.0233  0.2152
 1525SOL    HW116034   1.101   0.158  16.835 -0.8374  1.5520 -0.2640
 1525SOL    HW216035   0.955   0.190  16.821  1.6506  1.7015 -0.6175
 1526SOL     OW16036   3.384   4.628   2.235 -0.0448  0.3585  0.2371
 1526SOL    HW116037   3.444   4.577   2.289 -0.6338 -2.7904 -2.1338
 1526SOL    HW216038   3.426   4.610   2.151  1.0085 -4.3778  1.7784
 1527SOL     OW16039   4.698   2.674   0.540 -0.1634  0.0866  0.2332
 1527SOL    HW116040   0.029   2.740   0.587 -1.7790  2.4671 -1.2984
 1527SOL    HW216041   0.012   2.593   0.577  0.5868 -0.5442 -1.9108
 1528SOL     OW16042   1.552   4.498   2.112  0.0491 -0.1952 -0.3824
 1528SOL    HW116043   1.548   4.542   2.027  0.0422 -1.8543 -1.2322
 1528SOL    HW216044   1.539   4.404   2.096  0.9147 -0.1532 -1.3049
 1529SOL     OW16045   1.071   4.203   3.956 -0.1824  0.0299 -0.0789
 1529SOL    HW116046   1.114   4.271   4.008 -0.8951  2.1564 -2.2784
 1529SOL    HW216047   0.976   4.214   3.962 -0.0744  0.1585  1.4457
 1530SOL     OW16048   0.859   2.794   8.930  0.4127  0.2388 -0.3805
 1530SOL    HW116049   0.899   2.880   8.945  1.0213 -0.0233 -0.4890
 1530SOL    HW216050   0.796   2.786   9.002 -1.9155  1.2222 -2.3017
 1531SOL     OW16051   1.589   2.881   6.513 -0.1083  0.7359 -0.1106
 1531SOL    HW116052   1.650   2.808   6.520  0.2785  0.7894 -2.8040
 1531SOL    HW216053   1.626   2.942   6.577  0.3407 -1.8264  2.0698
 1532SOL     OW16054   2.581   3.217  12.967  0.2958  0.2611  0.3161
 1532SOL    HW116055   2.660   3.240  12.918  0.2285  2.1772  1.0798
 1532SOL    HW216056   2.550   3.308  12.971 -0.4406 -0.0361  1.7307
 1533SOL     OW16057   3.262   0.673   9.902  0.5162 -0.0282  0.0386
 1533SOL    HW116058   3.306   0.592   9.928  0.4091 -0.4943 -1.2376
 1533SOL    HW216059   3.308   0.740   9.954  0.3129  0.5004 -0.4595
 1534SOL     OW16060   0.299   3.686   8.193 -0.1993 -0.2889 -0.1343
 1534SOL    HW116061   0.279   3.746   8.121  0.4322  2.2782  1.8156
 1534SOL    HW216062   0.279   3.738   8.271  2.0023 -0.3796  0.5140
 1535SOL     OW16063   0.181   4.544   4.906  0.3684 -0.3644  0.5361
 1535SOL    HW116064   0.119   4.616   4.888  0.4007 -1.1671 -2.7437
 1535SOL    HW216065   0.131   4.467   4.879  0.8576 -0.7677  0.7907
 1536SOL     OW16066   1.627   4.094   3.820 -0.0994 -0.1102  0.3912
 1536SOL    HW116067   1.564   4.136   3.762  0.6423  0.5143  0.0348
 1536SOL    HW216068   1.651   4.170   3.873 -0.0577 -0.4395  0.8462
 1537SOL     OW16069   0.427   3.085   6.304 -0.1555 -0.2362 -0.2621
 1537SOL    HW116070   0.507   3.046   6.269  1.0573  1.3972  0.7109
 1537SOL    HW216071   0.447   3.178   6.296 -0.6137  0.1660  3.1420
 1538SOL     OW16072   2.691   2.463   3.274 -0.2569  0.0134 -0.1765
 1538SOL    HW116073   2.607   2.508   3.284 -0.3977 -0.6177  1.4056
 1538SOL    HW216074   2.725   2.513   3.200  0.4752 -0.5892 -0.2566
 1539SOL     OW16075   3.546   1.423   8.547 -0.1147  0.1569 -0.2208
 1539SOL    HW116076   3.467   1.470   8.521 -0.6612 -2.4228 -3.3049
 1539SOL    HW216077   3.514   1.333   8.545 -0.1671  0.2221 -2.4453
 1540SOL     OW16078   0.566   2.164  12.953 -0.0404  0.7669 -0.6222
 1540SOL    HW116079   0.602   2.253  12.957 -0.7527  1.0832 -1.2239
 1540SOL    HW216080   0.630   2.105  12.994 -0.7278  1.0927  0.9389
 1541SOL     OW16081   4.457   1.636  14.292  0.2220 -0.3668 -0.3253
 1541SOL    HW116082   4.498   1.551  14.282 -0.8152 -0.8046 -0.8695
 1541SOL    HW216083   4.447   1.654  14.385 -0.7382  0.9701 -0.6818
 1542SOL     OW16084   1.156   1.362   3.815 -0.6290 -0.0443 -0.1581
 1542SOL    HW116085   1.119   1.384   3.901 -2.0328 -1.2923 -0.4320
 1542SOL    HW216086   1.115   1.277   3.798 -0.2674  0.1421 -1.9525
 1543SOL     OW16087   2.122   0.032  16.750  0.2002 -0.0285 -0.0211
 1543SOL    HW116088   2.047   4.710  16.792  0.6699 -2.4658 -1.7257
 1543SOL    HW216089   2.112   0.002  16.660  0.9727  2.2170 -0.8645
 1544SOL     OW16090   0.382   0.579   8.427 -0.0026 -0.0780  0.1804
 1544SOL    HW116091   0.364   0.547   8.515 -0.6062 -0.9297 -0.2563
 1544SOL    HW216092   0.454   0.641   8.440  0.2694 -0.6084  1.1740
 1545SOL     OW16093   3.864   0.147  10.515 -0.2775 -0.0992  0.2193
 1545SOL    HW116094   3.770   0.159  10.530  0.4440  1.5712  3.2510
 1545SOL    HW216095   3.867   0.137  10.420  0.5191  1.2522  0.1122
 1546SOL     OW16096   0.131   3.348  16.214 -0.3711  0.0734 -0.1118
 1546SOL    HW116097   0.222   3.320  16.220 -0.2339  0.3327 -0.9569
 1546SOL    HW216098   0.111   3.361  16.307  1.4632  0.3498  0.2428
 1547SOL     OW16099   0.967   0.253  17.338  0.7044 -0.1280  0.3572
 1547SOL    HW116100   1.030   0.249  17.266  0.5289 -0.7873  0.2428
 1547SOL    HW216101   0.930   0.341  17.331  0.8091 -0.1300 -0.2021
 1548SOL     OW16102   1.680   0.564   4.372  0.0970 -0.6149 -0.1893
 1548SOL    HW116103   1.752   0.575   4.309 -0.7058  1.2460 -0.7810
 1548SOL    HW216104   1.696   0.471   4.385 -0.9468 -0.8692 -0.7145
 1549SOL     OW16105   4.557   1.440   8.305 -0.0378  0.2934 -0.1541
 1549SOL    HW116106   4.622   1.445   8.375 -1.3513 -1.6516  1.2157
 1549SOL    HW216107   4.485   1.494   8.338 -0.4112 -0.5691  0.4494
 1550SOL     OW16108   0.765   0.597   5.544  0.2057 -0.2458  0.5480
 1550SOL    HW116109   0.809   0.682   5.545  0.2901 -0.2824 -1.3457
 1550SOL    HW216110   0.756   0.579   5.638  0.4797 -1.1537  0.3948
 1551SOL     OW16111   0.506   4.092   7.239  0.5008  0.6543 -0.1007
 1551SOL    HW116112   0.507   4.183   7.209 -0.5019  1.1065  1.2729
 1551SOL    HW216113   0.416   4.064   7.227  0.5593 -1.1328  3.5101
 1552SOL     OW16114   2.687   0.802  11.549 -0.2426  0.2440 -0.0099
 1552SOL    HW116115   2.665   0.710  11.560 -0.1915  0.3464  0.9683
 1552SOL    HW216116   2.729   0.808  11.635 -0.8864  0.3148  0.2968
 1553SOL     OW16117   2.974   2.766  11.214  0.2411 -0.0103  0.1948
 1553SOL    HW116118   2.960   2.851  11.174 -1.9336 -2.3339 -3.9355
 1553SOL    HW216119   2.901   2.715  11.179  0.3447 -0.5006  0.6894
 1554SOL     OW16120   2.169   4.198  10.538  1.0525  0.4587  0.2978
 1554SOL    HW116121   2.153   4.186  10.632  2.2099 -1.0591  0.3085
 1554SOL    HW216122   2.198   4.288  10.554  0.8192  0.8249 -1.3612
 1555SOL     OW16123   4.382   4.066   2.773 -0.3311  0.4492 -0.5974
 1555SOL    HW116124   4.404   3.991   2.828 -1.0907 -0.7245 -1.8782
 1555SOL    HW216125   4.471   4.080   2.739 -0.0562 -1.2773 -0.6384
 1556SOL     OW16126   0.749   3.460   9.016 -0.4973  0.2182  0.6347
 1556SOL    HW116127   0.757   3.546   8.974  1.9277 -0.6233 -0.5899
 1556SOL    HW216128   0.684   3.416   8.961  0.2936  0.6644 -0.6367
 1557SOL     OW16129   4.385   3.692  12.317 -0.0039  0.0063  0.2015
 1557SOL    HW116130   4.446   3.764  12.301 -0.9833  0.4164 -1.7173
 1557SOL    HW216131   4.306   3.743  12.331 -0.2173  0.0160 -1.0003
 1558SOL     OW16132   4.366   3.054  16.774 -0.7935 -0.0895 -0.0601
 1558SOL    HW116133   4.429   3.010  16.831  1.1037  3.4032  0.5131
 1558SOL    HW216134   4.426   3.092  16.711 -0.2599  0.6610  0.9119
 1559SOL     OW16135   0.578   1.713   1.168  0.2429 -0.1396 -0.6367
 1559SOL    HW116136   0.545   1.636   1.214 -0.0839  1.4045  1.7076
 1559SOL    HW216137   0.664   1.714   1.211 -0.0002 -1.0830 -0.1221
 1560SOL     OW16138   4.479   4.526  14.650  0.0802  0.1474  0.0688
 1560SOL    HW116139   4.484   4.457  14.584  1.6574 -0.1324  0.4983
 1560SOL    HW216140   4.486   4.610  14.606  1.5962  0.3704  0.7530
 1561SOL     OW16141   3.976   4.603   1.231  0.0025  0.6015  0.1653
 1561SOL    HW116142   3.975   4.585   1.325  1.6823  0.8825  0.2419
 1561SOL    HW216143   3.958   4.697   1.222 -1.0949  0.3017 -0.7370
 1562SOL     OW16144   1.531   3.000   2.661  0.0142 -0.1866 -0.3645
 1562SOL    HW116145   1.509   2.907   2.653  2.7601 -0.8707  0.0710
 1562SOL    HW216146   1.489   3.035   2.582  2.1236 -0.9866 -1.8472
 1563SOL     OW16147   1.091   1.689  15.728 -0.0999 -0.2233  0.0681
 1563SOL    HW116148   1.170   1.712  15.776 -0.2520  0.6263 -0.0969
 1563SOL    HW216149   1.033   1.750  15.775  2.6932  1.5469  1.1713
 1564SOL     OW16150   0.702   0.019  10.349  0.5572  0.3198 -0.3102
 1564SOL    HW116151   0.782   4.703  10.387 -0.3927 -0.9510  0.4225
 1564SOL    HW216152   0.676   0.090  10.408  2.3172  0.2524  0.5686
 1565SOL     OW16153   4.279   1.559   7.109 -0.0542 -0.3424 -0.0437
 1565SOL    HW116154   4.256   1.616   7.182 -0.8110 -1.4700  0.5951
 1565SOL    HW216155   4.236   1.476   7.130  0.8207 -0.7127  0.2944
 1566SOL     OW16156   4.182   2.169  15.913  0.8477 -0.1999  0.1501
 1566SOL    HW116157   4.233   2.090  15.898  2.3405  1.5891 -4.1099
 1566SOL    HW216158   4.234   2.215  15.979  1.1850  0.9701 -0.9155
 1567SOL     OW16159   4.155   3.401   5.622 -0.4068  0.4229  0.7415
 1567SOL    HW116160   4.128   3.335   5.558  1.4673  1.9335 -1.6099
 1567SOL    HW216161   4.166   3.349   5.701 -2.4170 -0.1901  0.6323
 1568SOL     OW16162   4.058   1.592   3.427  0.3344 -0.4759 -0.2853
 1568SOL    HW116163   4.043   1.499   3.442  0.3306 -0.5231 -0.5725
 1568SOL    HW216164   4.009   1.613   3.347 -1.0339  1.4909  1.0709
 1569SOL     OW16165   0.791   4.634   6.188 -0.4561  0.2709  0.0114
 1569SOL    HW116166   0.802   4.653   6.281  0.4149 -0.1633 -0.0043
 1569SOL    HW216167   0.879   4.650   6.153 -0.3298 -0.3493  0.0524
 1570SOL     OW16168   2.930   3.738  16.328 -0.1567  0.2180 -0.9439
 1570SOL    HW116169   2.880   3.754  16.409  0.4900 -1.4058 -0.2246
 1570SOL    HW216170   2.914   3.825  16.291  1.1132  1.3081  1.0401
 1571SOL     OW16171   2.062   4.022   0.985  0.3307 -0.1707  0.6382
 1571SOL    HW116172   2.081   3.932   0.958 -0.6669  0.6722 -2.7890
 1571SOL    HW216173   2.143   4.027   1.036  1.0670  0.4169 -0.5901
 1572SOL     OW16174   3.095   1.965  12.546 -0.2196 -0.0589  0.7359
 1572SOL    HW116175   3.058   1.882  12.517 -1.1031  0.6046 -0.0298
 1572SOL    HW216176   3.189   1.959  12.527 -0.5373  0.3323 -0.9861
 1573SOL     OW16177   1.585   4.355   0.634  0.2392 -0.3684 -0.0288
 1573SOL    HW116178   1.588   4.310   0.550 -0.1520  0.9342 -0.7229
 1573SOL    HW216179   1.674   4.389   0.646 -0.1898  1.3700 -1.9211
 1574SOL     OW16180   3.218   4.219   9.322  0.1216 -0.7458 -0.1999
 1574SOL    HW116181   3.214   4.288   9.256  1.5302 -1.2033 -0.7853
 1574SOL    HW216182   3.235   4.271   9.400 -0.4507  0.0392 -0.6122
 1575SOL     OW16183   4.039   3.900   3.748 -0.0556  0.5221  0.1082
 1575SOL    HW116184   4.083   3.817   3.767  0.7226  1.0285  0.5537
 1575SOL    HW216185   3.968   3.871   3.690 -0.6094  1.5980  0.2583
 1576SOL     OW16186   3.942   2.797   7.510  0.7561  0.0292  0.5973
 1576SOL    HW116187   3.853   2.763   7.513  0.4014  1.0196  1.0713
 1576SOL    HW216188   3.929   2.848   7.430  0.6000  1.5001  1.5628
 1577SOL     OW16189   1.983   1.641   3.982  0.1412 -0.2259 -0.5510
 1577SOL    HW116190   1.911   1.586   4.014 -0.3034  0.7621  0.1725
 1577SOL    HW216191   2.008   1.695   4.057  2.2294  0.4741 -1.7568
 1578SOL     OW16192   0.589   0.223   3.119  0.1630  0.4621  0.1562
 1578SOL    HW116193   0.608   0.257   3.207 -2.8745  0.7192  0.7270
 1578SOL    HW216194   0.494   0.237   3.116  0.0563 -1.3116 -4.4462
 1579SOL     OW16195   3.779   4.385   1.961 -0.1289  0.3546 -0.2392
 1579SOL    HW116196   3.714   4.324   1.926  1.5407 -1.1221 -0.7122
 1579SOL    HW216197   3.725   4.434   2.023  0.8357  2.9231 -1.4098
 1580SOL     OW16198   3.197   4.324   1.801 -0.6503  0.0264  0.0755
 1580SOL    HW116199   3.228   4.362   1.882  0.3828  1.9936 -1.2535
 1580SOL    HW216200   3.129   4.261   1.827 -0.0864  1.1153  4.1226
 1581SOL     OW16201   2.730   3.021   6.956  0.1952 -0.3570  0.0722
 1581SOL    HW116202   2.702   3.099   7.004  0.1227 -0.4115  0.1189
 1581SOL    HW216203   2.774   3.070   6.887  1.2218 -1.0101  0.2721
 1582SOL     OW16204   3.058   2.622   3.288 -0.5115  0.0920  0.1561
 1582SOL    HW116205   3.046   2.527   3.288 -2.3119  0.3136  0.9116
 1582SOL    HW216206   3.068   2.634   3.194  1.4858  1.5698  0.5619
 1583SOL     OW16207   2.032   2.455   2.458  0.5589 -0.4273  1.1516
 1583SOL    HW116208   1.958   2.409   2.499  0.0754  0.6660  1.5123
 1583SOL    HW216209   2.026   2.543   2.495 -2.8046 -0.9472  1.8914
 1584SOL     OW16210   3.317   2.021  12.014 -0.3843 -0.1626  0.4339
 1584SOL    HW116211   3.237   2.067  11.986 -0.8932  0.6975  3.2640
 1584SOL    HW216212   3.282   1.932  12.016 -0.5403 -0.0862  1.2988
 1585SOL     OW16213   1.529   2.743   9.032  0.4037  0.4131 -0.3637
 1585SOL    HW116214   1.536   2.835   9.006  1.6867  0.1204 -1.0869
 1585SOL    HW216215   1.554   2.753   9.124  1.1056 -0.4276 -0.4604
 1586SOL     OW16216   0.167   3.953   1.455 -0.0259 -0.0009 -0.2438
 1586SOL    HW116217   0.120   3.902   1.520 -1.2222 -1.4554 -2.2406
 1586SOL    HW216218   0.208   3.872   1.423  0.8707  0.0889  0.6805
 1587SOL     OW16219   3.023   3.712   5.596  0.0324 -0.0504  0.3108
 1587SOL    HW116220   2.948   3.752   5.640  1.2145  0.3374  1.9852
 1587SOL    HW216221   3.033   3.772   5.523  0.7606 -2.2729 -1.4182
 1588SOL     OW16222   3.438   2.503  14.680  0.7999  0.2162 -0.1270
 1588SOL    HW116223   3.437   2.577  14.742 -0.4849 -2.7589  3.4000
 1588SOL    HW216224   3.527   2.471  14.694  1.0119  1.0919  0.5694
 1589SOL     OW16225   3.606   2.113   3.041 -0.5435  0.4816  0.2085
 1589SOL    HW116226   3.521   2.137   3.078 -0.8293  0.4875 -0.4569
 1589SOL    HW216227   3.640   2.062   3.115 -0.9659 -1.8906 -1.2247
 1590SOL     OW16228   1.832   1.188   7.645  0.4764  0.3262  0.0006
 1590SOL    HW116229   1.764   1.244   7.682 -0.4967 -0.1675 -1.0576
 1590SOL    HW216230   1.873   1.143   7.719  1.5356  1.0875 -0.1345
 1591SOL     OW16231   4.023   4.212  17.130  0.1508 -0.3563 -0.2160
 1591SOL    HW116232   3.964   4.136  17.132  1.8585 -1.7073 -0.2969
 1591SOL    HW216233   4.106   4.171  17.156  0.5947  0.3916 -0.4496
 1592SOL     OW16234   1.579   4.241   2.410 -0.3810 -0.4250  0.1219
 1592SOL    HW116235   1.590   4.334   2.429 -0.2619 -0.0874 -1.6624
 1592SOL    HW216236   1.628   4.205   2.484 -0.3938  0.5198  0.5949
 1593SOL     OW16237   3.167   2.476  17.671  0.0175  0.6599 -0.3526
 1593SOL    HW116238   3.204   2.562   0.000 -0.7552  1.3142 -2.1565
 1593SOL    HW216239   3.078   2.494  17.640 -0.5423 -1.0191  0.2324
 1594SOL     OW16240   2.165   1.568  17.500 -0.0077  1.1414 -0.1464
 1594SOL    HW116241   2.135   1.549  17.411 -1.5217 -0.3465  0.6755
 1594SOL    HW216242   2.090   1.552  17.557 -1.1422  0.5008 -1.8202
 1595SOL     OW16243   4.409   1.542   8.612 -0.4386 -0.3476 -0.4977
 1595SOL    HW116244   4.344   1.476   8.591  0.9067 -2.0956  0.8406
 1595SOL    HW216245   4.355   1.608   8.656  0.3524 -2.7329  4.0134
 1596SOL     OW16246   2.607   1.384   6.654 -0.4390  0.1246 -0.3419
 1596SOL    HW116247   2.625   1.478   6.649 -1.7438  0.4106  0.3007
 1596SOL    HW216248   2.513   1.387   6.675 -0.7494  0.1741 -1.7058
 1597SOL     OW16249   4.547   4.005   5.084  0.2740  0.7029 -0.3387
 1597SOL    HW116250   4.562   4.017   4.990 -0.9352  1.0080 -0.4906
 1597SOL    HW216251   4.481   4.072   5.103  0.3837  0.9887 -0.9577
 1598SOL     OW16252   0.744   2.890   3.823  0.1662  0.4669 -0.2310
 1598SOL    HW116253   0.834   2.856   3.824 -0.3459 -0.9038 -2.6131
 1598SOL    HW216254   0.702   2.849   3.748  0.2052 -0.3825  0.2070
 1599SOL     OW16255   3.580   2.042  17.336 -0.4425  0.5708  0.5938
 1599SOL    HW116256   3.652   2.064  17.277 -2.4846  1.7830 -1.4403
 1599SOL    HW216257   3.563   2.125  17.379 -2.8048 -0.8169  2.3825
 1600SOL     OW16258   1.142   3.823   0.260 -0.0011  0.0243  0.2761
 1600SOL    HW116259   1.055   3.786   0.247  0.1153 -0.6298  1.4024
 1600SOL    HW216260   1.164   3.809   0.352 -0.1044 -1.1222  0.1282
 1601SOL     OW16261   2.968   0.890   1.946  0.3089  0.0063  1.2547
 1601SOL    HW116262   3.031   0.875   1.876  0.7915  2.2942  1.2110
 1601SOL    HW216263   2.979   0.820   2.010 -0.9029 -1.6851 -0.3709
 1602SOL     OW16264   2.829   2.144   2.725 -0.6526  0.5644  0.0134
 1602SOL    HW116265   2.798   2.230   2.698  0.6490  0.8092 -0.7005
 1602SOL    HW216266   2.885   2.122   2.651 -1.8835  0.7952 -0.9789
 1603SOL     OW16267   4.642   3.312   2.970  0.7843 -0.3488  0.0499
 1603SOL    HW116268   4.687   3.396   2.974  0.9659 -0.5891  2.5196
 1603SOL    HW216269   4.630   3.276   3.057  0.1103  1.1009  0.5512
 1604SOL     OW16270   1.372   2.958   2.176  0.1741 -0.1654 -0.0364
 1604SOL    HW116271   1.372   2.911   2.093 -3.4908  2.3740 -1.4718
 1604SOL    HW216272   1.281   2.990   2.179 -0.3763 -1.8340  1.1402
 1605SOL     OW16273   1.113   1.589  10.613  0.0572 -0.2610  1.0687
 1605SOL    HW116274   1.028   1.562  10.646 -0.6579  1.1088  0.3235
 1605SOL    HW216275   1.135   1.508  10.566  0.6037  0.4334  0.1315
 1606SOL     OW16276   2.559   3.917   5.528  0.7982  0.4409  0.0857
 1606SOL    HW116277   2.465   3.901   5.524  0.5905  1.6207  0.3132
 1606SOL    HW216278   2.556   4.006   5.494  0.5216  0.0204 -1.0159
 1607SOL     OW16279   4.232   4.157  15.487  0.0122  0.4343 -0.2565
 1607SOL    HW116280   4.265   4.175  15.575  0.2651  3.0743 -0.9056
 1607SOL    HW216281   4.193   4.241  15.461 -0.9641 -0.0560 -0.3943
 1608SOL     OW16282   3.148   3.663  17.242 -0.2274  0.4705 -0.1694
 1608SOL    HW116283   3.116   3.731  17.302  2.1694 -1.2349  3.0824
 1608SOL    HW216284   3.238   3.665  17.275 -0.0788  3.4004 -0.6990
 1609SOL     OW16285   1.894   4.040   6.378 -0.1014 -0.4756 -0.0900
 1609SOL    HW116286   1.906   4.014   6.286  0.0290  0.9649 -0.4791
 1609SOL    HW216287   1.807   4.079   6.380  0.0232 -0.1205 -1.4671
 1610SOL     OW16288   0.695   3.197   2.537 -0.2602 -0.2991 -0.1179
 1610SOL    HW116289   0.656   3.118   2.500  1.8619 -1.2488 -0.2982
 1610SOL    HW216290   0.701   3.255   2.460  3.5668  1.0989  1.2369
 1611SOL     OW16291   2.361   1.929   8.838 -0.3991  0.1259 -0.2159
 1611SOL    HW116292   2.357   1.997   8.906 -0.0444 -2.2505  2.1675
 1611SOL    HW216293   2.288   1.872   8.862  1.4704 -1.2973  2.0705
 1612SOL     OW16294   0.312   1.297   4.216  0.1958  0.2288 -0.2087
 1612SOL    HW116295   0.266   1.217   4.240 -0.7846  0.2590 -1.9544
 1612SOL    HW216296   0.249   1.363   4.244 -2.2568 -1.8274 -0.8913
 1613SOL     OW16297   0.649   1.036   0.856 -0.3789 -0.2925  0.2493
 1613SOL    HW116298   0.607   1.093   0.919 -1.4297 -0.4849 -0.2831
 1613SOL    HW216299   0.709   1.095   0.810  1.0192 -0.0090  2.4377
 1614SOL     OW16300   3.803   3.085   9.990  0.0795 -0.1031 -0.9015
 1614SOL    HW116301   3.717   3.116  10.017 -0.1198  0.0580 -1.7155
 1614SOL    HW216302   3.832   3.033  10.065 -1.1540 -2.3172 -1.9326
 1615SOL     OW16303   2.776   2.447   8.521  0.0149 -0.2120 -0.5867
 1615SOL    HW116304   2.781   2.497   8.603  1.5239 -1.9503  0.3657
 1615SOL    HW216305   2.688   2.464   8.488 -1.7802 -2.9096  2.8694
 1616SOL     OW16306   2.624   1.910   0.679 -0.1798 -0.0683 -0.3313
 1616SOL    HW116307   2.587   1.955   0.603  2.6392  1.9340 -0.5183
 1616SOL    HW216308   2.603   1.817   0.673 -2.3877  0.4470 -0.5369
 1617SOL     OW16309   0.183   1.360   3.771 -0.5387  0.1753  0.3002
 1617SOL    HW116310   0.109   1.340   3.827  0.7645  1.4077  2.4484
 1617SOL    HW216311   0.144   1.415   3.702 -3.5487 -2.8160 -0.3309
 1618SOL     OW16312   3.431   2.150   5.787 -0.4346  0.1699 -0.1113
 1618SOL    HW116313   3.437   2.188   5.699 -2.0253 -0.7725 -0.6213
 1618SOL    HW216314   3.336   2.155   5.799 -0.4148 -2.9701  1.1560
 1619SOL     OW16315   3.406   1.910  17.178 -0.1352  0.0383 -0.7255
 1619SOL    HW116316   3.324   1.891  17.224  0.0167 -0.9959 -0.8695
 1619SOL    HW216317   3.445   1.976  17.235 -0.6935 -1.2993  1.1964
 1620SOL     OW16318   0.237   1.873   2.142  1.2001 -0.1150 -1.2378
 1620SOL    HW116319   0.279   1.907   2.220  0.3469  0.4681 -1.0360
 1620SOL    HW216320   0.170   1.820   2.186 -0.2406  0.9142 -2.1978
 1621SOL     OW16321   1.706   4.315   7.380  0.1594 -0.4867  0.2700
 1621SOL    HW116322   1.642   4.281   7.443  3.2392 -0.6071  3.3493
 1621SOL    HW216323   1.750   4.382   7.432 -0.5322  0.5902 -0.5541
 1622SOL     OW16324   0.397   3.502  16.905  0.1227  0.3939  0.7127
 1622SOL    HW116325   0.306   3.499  16.877 -0.1422  0.8631  1.5282
 1622SOL    HW216326   0.402   3.596  16.923 -1.2940  0.4413  0.8473
 1623SOL     OW16327   1.844   4.066  17.600 -0.3547  0.3864 -0.3891
 1623SOL    HW116328   1.752   4.039  17.606  0.2641 -1.9149 -0.9393
 1623SOL    HW216329   1.870   4.025  17.517 -0.4207 -1.2531  0.3838
 1624SOL     OW16330   3.806   2.662   9.936  0.0403  0.0614 -0.3760
 1624SOL    HW116331   3.892   2.685   9.901 -0.2651 -0.7831 -1.6907
 1624SOL    HW216332   3.837   2.641  10.024 -1.2001 -0.1502  0.0113
 1625SOL     OW16333   1.159   1.208   4.664  0.4522 -0.3443  0.1204
 1625SOL    HW116334   1.171   1.128   4.715  1.3274 -0.7340 -0.6935
 1625SOL    HW216335   1.069   1.195   4.634  0.0848  0.3535  0.9383
 1626SOL     OW16336   0.863   4.671   9.105  0.0280 -0.2083  0.6436
 1626SOL    HW116337   0.824   0.036   9.119 -0.5017 -0.3556  0.0586
 1626SOL    HW216338   0.937   4.691   9.048 -0.4747 -1.0371 -0.2906
 1627SOL     OW16339   1.079   0.539   0.576 -0.0218 -0.4486 -0.3328
 1627SOL    HW116340   1.078   0.553   0.481 -1.8396 -0.1189 -0.2628
 1627SOL    HW216341   1.000   0.491   0.597 -1.0904  0.6497 -1.8942
 1628SOL     OW16342   2.788   0.654   1.807 -0.0638 -0.1575  0.5984
 1628SOL    HW116343   2.847   0.706   1.752  1.0064  1.1087  2.9404
 1628SOL    HW216344   2.823   0.674   1.894 -1.8051 -0.6544  1.4146
 1629SOL     OW16345   1.124   0.040   4.077  0.2532 -0.1239 -0.9141
 1629SOL    HW116346   1.199   0.099   4.084  1.5148 -1.9878  1.3206
 1629SOL    HW216347   1.078   0.052   4.160 -1.1120  0.0740 -1.7118
 1630SOL     OW16348   3.257   2.849   4.517  0.4337 -0.2044 -0.0616
 1630SOL    HW116349   3.303   2.810   4.443 -1.5830 -0.9309 -0.9191
 1630SOL    HW216350   3.228   2.928   4.471  2.0708  2.5069  3.5377
 1631SOL     OW16351   4.223   2.887   4.415 -0.4513  0.2599  0.1533
 1631SOL    HW116352   4.147   2.876   4.472 -1.4855 -0.2286 -1.2974
 1631SOL    HW216353   4.266   2.801   4.414  1.7144  1.3416 -0.9212
 1632SOL     OW16354   3.672   4.388   0.988 -0.7220  0.4680 -0.0447
 1632SOL    HW116355   3.746   4.362   1.043 -1.4147 -0.1873  0.5812
 1632SOL    HW216356   3.685   4.482   0.989  2.3670  0.0372  0.2442
 1633SOL     OW16357   2.150   3.029   8.041  0.7827  0.0326 -0.8266
 1633SOL    HW116358   2.110   2.943   8.031 -0.0935  0.4649 -1.0644
 1633SOL    HW216359   2.073   3.082   8.020  1.2928  1.6620  1.4225
 1634SOL     OW16360   1.288   2.217   7.273 -0.1115 -0.4453  0.1646
 1634SOL    HW116361   1.329   2.258   7.197 -1.3849  0.3921 -0.0731
 1634SOL    HW216362   1.204   2.200   7.231 -0.4870  0.4931  0.5547
 1635SOL     OW16363   3.161   0.639  12.377  0.1155  0.1582  0.8378
 1635SOL    HW116364   3.169   0.636  12.473 -0.4667 -2.3003  0.8078
 1635SOL    HW216365   3.140   0.549  12.349  0.7163  0.1213  0.5182
 1636SOL     OW16366   1.528   2.195   1.122  0.7753  0.2978  0.7068
 1636SOL    HW116367   1.572   2.124   1.075 -2.3199 -2.3526  1.7815
 1636SOL    HW216368   1.451   2.223   1.073 -0.7209 -2.2156  1.6242
 1637SOL     OW16369   0.118   2.498  13.042  0.5489 -0.0419  0.4500
 1637SOL    HW116370   0.168   2.542  13.111  0.5668 -1.1285  1.1309
 1637SOL    HW216371   0.032   2.485  13.083 -0.1315 -0.5954 -1.1623
 1638SOL     OW16372   0.265   0.899   6.928 -0.2318 -0.4470 -0.7470
 1638SOL    HW116373   0.274   0.819   6.877  4.3020 -1.0749  1.0387
 1638SOL    HW216374   0.223   0.859   7.005 -1.5939 -1.0624 -1.8054
 1639SOL     OW16375   0.341   3.532   5.459  0.5226 -0.3035  0.1832
 1639SOL    HW116376   0.406   3.513   5.527 -1.4466 -1.9639  1.6426
 1639SOL    HW216377   0.351   3.457   5.400 -0.8468 -0.5061  0.1981
 1640SOL     OW16378   1.928   0.348   8.808  0.0916 -0.0365 -0.1079
 1640SOL    HW116379   1.880   0.266   8.799 -0.1274  0.0710  0.0611
 1640SOL    HW216380   1.979   0.335   8.887 -0.8000  1.9452  0.8176
 1641SOL     OW16381   3.929   0.545   4.547 -0.0958 -0.1153  0.0456
 1641SOL    HW116382   3.843   0.539   4.590  0.7529 -1.3064  1.5472
 1641SOL    HW216383   3.916   0.496   4.466 -4.0314  0.7280  0.1538
 1642SOL     OW16384   4.197   1.521  14.303  0.2931 -0.1028  0.4536
 1642SOL    HW116385   4.158   1.585  14.362 -1.5734  0.3571 -1.2707
 1642SOL    HW216386   4.272   1.568  14.265 -1.2011  0.1318 -2.2249
 1643SOL     OW16387   2.447   4.587  15.688 -0.1631  0.3999 -0.4810
 1643SOL    HW116388   2.444   4.679  15.713  1.2518  0.0265  1.1410
 1643SOL    HW216389   2.497   4.546  15.760 -0.2903  2.0394  0.5367
 1644SOL     OW16390   2.637   2.397   6.552 -0.2166  0.0491 -0.6747
 1644SOL    HW116391   2.646   2.309   6.517  2.5928 -0.3392  1.0497
 1644SOL    HW216392   2.546   2.416   6.531 -0.5315 -0.8577 -0.1414
 1645SOL     OW16393   3.470   3.515   8.529  0.0732  0.2070 -0.4138
 1645SOL    HW116394   3.424   3.577   8.586 -1.1846 -1.2163  0.1329
 1645SOL    HW216395   3.553   3.494   8.572  0.1192 -1.2423 -1.2008
 1646SOL     OW16396   3.901   3.554   0.277  0.2087 -0.2708 -0.1329
 1646SOL    HW116397   3.984   3.565   0.322 -0.2859 -1.5706  1.0707
 1646SOL    HW216398   3.882   3.645   0.255  4.1801  0.5153 -0.2461
 1647SOL     OW16399   1.295   4.660   4.397  0.0853  0.2428  0.4509
 1647SOL    HW116400   1.209   4.683   4.363  1.0505  1.1302 -1.3907
 1647SOL    HW216401   1.344   4.634   4.319 -2.0190  1.6621 -1.3256
 1648SOL     OW16402   1.645   1.270  11.592  0.0094 -0.1136 -0.0045
 1648SOL    HW116403   1.585   1.228  11.531 -1.5181  1.2497  0.5702
 1648SOL    HW216404   1.579   1.285  11.659  1.5752  1.2184  1.2501
 1649SOL     OW16405   2.644   2.338   9.336  0.2717 -0.2600 -0.4275
 1649SOL    HW116406   2.563   2.354   9.288 -0.3921  2.3526  1.5190
 1649SOL    HW216407   2.626   2.404   9.403 -1.2332  0.7029 -1.7959
 1650SOL     OW16408   2.167   2.831   4.328 -0.6240 -0.1970 -0.1777
 1650SOL    HW116409   2.231   2.867   4.391 -1.4503  0.0282  0.5401
 1650SOL    HW216410   2.229   2.766   4.296  0.2413  0.7572 -0.4751
 1651SOL     OW16411   3.673   2.091   3.885 -0.5769 -0.2300  0.5147
 1651SOL    HW116412   3.733   2.164   3.904  1.2228 -0.9662 -2.2729
 1651SOL    HW216413   3.725   2.016   3.914 -0.2033  0.7895  2.5111
 1652SOL     OW16414   4.014   3.780   2.996  0.1994 -0.0958 -0.4939
 1652SOL    HW116415   3.964   3.800   3.075 -1.3985  1.0785 -1.7940
 1652SOL    HW216416   4.100   3.806   3.029 -0.5385  2.4593 -0.5736
 1653SOL     OW16417   0.637   0.075   3.822  0.4966  0.2980 -0.0862
 1653SOL    HW116418   0.642   0.104   3.731  0.3725  0.1928 -0.1276
 1653SOL    HW216419   0.682   4.712   3.816 -0.7462 -0.4777  1.4316
 1654SOL     OW16420   2.848   2.623   8.113 -0.4899 -0.0568  0.4186
 1654SOL    HW116421   2.859   2.668   8.029  1.2478  2.2645  1.8761
 1654SOL    HW216422   2.876   2.682   8.183  2.1635  0.0963 -0.7771
 1655SOL     OW16423   3.067   3.759   7.456  0.0798 -0.2274 -0.0087
 1655SOL    HW116424   2.987   3.712   7.477 -1.3777  2.5459  0.6229
 1655SOL    HW216425   3.133   3.702   7.496  0.5012 -1.5976 -2.6469
 1656SOL     OW16426   1.917   3.128   1.136 -0.0615 -0.4632  0.4954
 1656SOL    HW116427   2.010   3.141   1.149  0.0046  0.2946 -0.7331
 1656SOL    HW216428   1.876   3.148   1.220 -0.2233 -1.3806  0.6324
 1657SOL     OW16429   2.869   0.833   3.533 -0.1352  0.1048 -0.2345
 1657SOL    HW116430   2.815   0.784   3.471 -2.5320  2.7173 -0.2255
 1657SOL    HW216431   2.840   0.923   3.515 -2.8425 -0.4956  1.1433
 1658SOL     OW16432   2.435   4.666   2.554  0.4122  1.1658 -0.2962
 1658SOL    HW116433   2.516   4.616   2.559 -1.1688 -1.1861  1.7468
 1658SOL    HW216434   2.460   0.022   2.503  1.7725  0.5134 -0.5988
 1659SOL     OW16435   0.951   3.075   0.307 -0.3065  0.4482  0.6517
 1659SOL    HW116436   0.922   3.163   0.328 -1.3174  0.3116 -0.1920
 1659SOL    HW216437   1.033   3.070   0.355 -1.9159  1.1166  3.4446
 1660SOL     OW16438   3.882   2.761   2.523 -0.9837 -0.2909  0.2842
 1660SOL    HW116439   3.797   2.778   2.482 -0.8961  1.4887  0.8247
 1660SOL    HW216440   3.949   2.790   2.461 -1.3075 -1.4521 -0.5993
 1661SOL     OW16441   3.406   3.125   1.412  0.0066 -0.5003  0.9050
 1661SOL    HW116442   3.312   3.123   1.429  0.3387  1.4089  3.0028
 1661SOL    HW216443   3.434   3.184   1.482  0.9119  1.2561 -0.9358
 1662SOL     OW16444   1.885   2.943   4.371  0.3403 -0.5309  0.2569
 1662SOL    HW116445   1.977   2.969   4.364 -0.5343  2.7032  0.7100
 1662SOL    HW216446   1.876   2.940   4.466 -0.7064 -2.1181  0.1255
 1663SOL     OW16447   2.831   0.281  11.160  0.3793 -0.0861 -0.7394
 1663SOL    HW116448   2.785   0.294  11.242 -1.0973 -0.4906 -1.4935
 1663SOL    HW216449   2.826   0.186  11.149  1.6324 -0.1058 -1.1918
 1664SOL     OW16450   2.645   0.060   6.087 -0.1884 -0.4916  0.5580
 1664SOL    HW116451   2.738   0.072   6.103 -0.0192 -1.6349  0.4661
 1664SOL    HW216452   2.604   0.143   6.111  1.1747  0.3115  0.0532
 1665SOL     OW16453   1.623   4.693   4.800  0.1974  0.6109 -0.0063
 1665SOL    HW116454   1.604   0.039   4.865  1.8160  0.5234  0.5646
 1665SOL    HW216455   1.587   0.010   4.720 -1.3873 -2.3896 -0.7283
 1666SOL     OW16456   4.701   0.499  11.323  0.5380  0.0325 -0.3292
 1666SOL    HW116457   0.018   0.439  11.259 -1.8679  0.6038 -2.3034
 1666SOL    HW216458   0.056   0.536  11.368  0.5154 -2.4355  1.7097
 1667SOL     OW16459   2.598   2.796   1.497 -0.0815 -0.2190  0.3003
 1667SOL    HW116460   2.668   2.809   1.562 -1.5235 -3.3673  2.4673
 1667SOL    HW216461   2.534   2.861   1.526 -1.0039 -1.2043  0.4662
 1668SOL     OW16462   3.190   3.483   5.939 -0.1549  0.0952  0.7663
 1668SOL    HW116463   3.206   3.527   6.022  0.4636 -0.6617  1.0482
 1668SOL    HW216464   3.239   3.550   5.890 -0.6746  1.6480  2.3803
 1669SOL     OW16465   3.715   2.777   3.043  0.1975 -0.0343 -0.7262
 1669SOL    HW116466   3.712   2.754   2.950 -1.7067 -0.1017 -0.6534
 1669SOL    HW216467   3.625   2.807   3.054  0.0745 -0.6762  0.0178
 1670SOL     OW16468   4.649   4.393   5.222  0.2383  0.0157  0.6215
 1670SOL    HW116469   4.621   4.380   5.312  0.5649  0.8388  0.8427
 1670SOL    HW216470   4.693   4.310   5.202 -1.4149 -0.4009 -1.2201
 1671SOL     OW16471   2.933   4.235   3.833  0.2105 -0.0245 -0.4942
 1671SOL    HW116472   2.919   4.319   3.878 -1.4802 -1.0709  0.8999
 1671SOL    HW216473   2.993   4.189   3.893 -0.8045  0.5320  0.9522
 1672SOL     OW16474   4.654   0.268   4.416  0.3134 -0.2728  0.0848
 1672SOL    HW116475   4.600   0.224   4.350  1.6636 -1.9874  0.1064
 1672SOL    HW216476   4.678   0.343   4.361  0.0256 -0.3645 -0.1655
 1673SOL     OW16477   1.490   2.241   5.251 -0.3044  0.1070  0.0268
 1673SOL    HW116478   1.472   2.334   5.235  0.1127 -0.3149 -2.7979
 1673SOL    HW216479   1.549   2.226   5.178  0.2554  1.4672  0.1931
 1674SOL     OW16480   4.498   0.209  15.505 -0.4159  0.0505 -0.2498
 1674SOL    HW116481   4.566   0.175  15.563  0.3263  0.6685 -0.7489
 1674SOL    HW216482   4.432   0.140  15.513 -1.4815  1.2472  1.1927
 1675SOL     OW16483   3.362   4.418  17.180  0.2855 -0.1288  0.2213
 1675SOL    HW116484   3.411   4.389  17.257  0.5300  1.1058  0.5262
 1675SOL    HW216485   3.291   4.466  17.222  0.7689  1.0136 -0.2736
 1676SOL     OW16486   1.784   1.573   2.778 -0.3682 -0.5667 -0.5227
 1676SOL    HW116487   1.791   1.574   2.683 -0.0561  0.5438 -0.4890
 1676SOL    HW216488   1.711   1.518   2.806 -2.0112  1.7899 -0.1660
 1677SOL     OW16489   3.947   0.447   5.570 -0.2317 -0.6961 -0.4882
 1677SOL    HW116490   3.887   0.466   5.641  0.5889 -0.9607  0.2691
 1677SOL    HW216491   3.975   0.529   5.531 -0.7271 -0.3279 -0.0668
 1678SOL     OW16492   3.108   3.478   1.298 -0.4055  0.1130  0.3924
 1678SOL    HW116493   3.178   3.441   1.244 -0.0710  0.3655  0.6564
 1678SOL    HW216494   3.038   3.444   1.243 -0.8114 -0.5070  1.3041
 1679SOL     OW16495   3.285   3.191   9.204 -0.2366  0.5550 -0.5185
 1679SOL    HW116496   3.266   3.284   9.192 -1.9520  0.1079 -1.3822
 1679SOL    HW216497   3.237   3.168   9.283 -0.6077  3.3838  0.0482
 1680SOL     OW16498   0.387   0.863   3.729 -0.0104  0.1630  0.2999
 1680SOL    HW116499   0.394   0.813   3.648 -1.8092 -0.0938  0.2934
 1680SOL    HW216500   0.349   0.945   3.696 -0.2520 -0.3497 -0.7027
 1681SOL     OW16501   4.644   3.856   5.666 -0.7274  0.1280 -0.0391
 1681SOL    HW116502   4.662   3.794   5.596  2.2885 -1.2419  1.9443
 1681SOL    HW216503   4.699   3.931   5.640  0.1088  0.6007  3.0512
 1682SOL     OW16504   2.018   0.752   8.859 -0.2121  0.5990  0.6462
 1682SOL    HW116505   2.026   0.762   8.954  1.6420 -2.0598  0.7516
 1682SOL    HW216506   2.083   0.818   8.835  1.4180 -1.4046 -0.4173
 1683SOL     OW16507   4.341   4.444   1.048 -0.5504  0.2153 -0.0955
 1683SOL    HW116508   4.254   4.473   1.020 -1.3280 -1.0159  1.0399
 1683SOL    HW216509   4.322   4.353   1.072  0.4620 -0.1677 -0.7774
 1684SOL     OW16510   1.116   4.327   6.746  0.4457 -0.0642  0.3802
 1684SOL    HW116511   1.190   4.266   6.737  0.9489  0.7130 -0.7121
 1684SOL    HW216512   1.077   4.284   6.822  1.6485  0.5961  1.3698
 1685SOL     OW16513   4.432   3.799  13.898 -0.2252 -0.1046  0.3955
 1685SOL    HW116514   4.370   3.818  13.968 -1.3404 -0.6624 -0.4442
 1685SOL    HW216515   4.423   3.883  13.853 -4.1871 -1.6660 -1.7510
 1686SOL     OW16516   3.503   4.615  14.648  1.0660  0.0165  0.1930
 1686SOL    HW116517   3.518   4.582  14.737  0.9633 -1.7400 -0.4260
 1686SOL    HW216518   3.565   4.558  14.601 -0.9776 -1.4182 -0.7781
 1687SOL     OW16519   0.963   0.379   9.929 -0.5773  0.0080 -0.1076
 1687SOL    HW116520   0.956   0.470   9.900 -0.9736 -0.0210 -0.1151
 1687SOL    HW216521   0.874   0.356   9.901 -0.7837  2.2423 -1.2815
 1688SOL     OW16522   4.119   2.838  11.073  0.2874  0.0401 -0.2615
 1688SOL    HW116523   4.039   2.846  11.124  0.6112  0.4038  0.1886
 1688SOL    HW216524   4.131   2.746  11.095  0.4269 -0.3802 -2.1066
 1689SOL     OW16525   2.662   0.322  16.446  0.2307 -0.1014 -0.6174
 1689SOL    HW116526   2.613   0.403  16.461  1.8043  0.7645 -0.2343
 1689SOL    HW216527   2.683   0.304  16.538  2.1013  3.1929 -0.3891
 1690SOL     OW16528   0.784   3.211   7.526 -0.0808  0.0400  0.0589
 1690SOL    HW116529   0.694   3.241   7.536  0.8218  2.2268  1.8039
 1690SOL    HW216530   0.801   3.263   7.448  4.3618  0.1674  1.0858
 1691SOL     OW16531   2.654   0.951  16.026  0.0263  0.5298  0.4160
 1691SOL    HW116532   2.704   1.001  15.962  0.1643  1.9610  1.6495
 1691SOL    HW216533   2.683   0.990  16.108  1.2015 -0.7553  0.6196
 1692SOL     OW16534   4.362   1.637   2.341 -0.0965 -0.0919  0.9989
 1692SOL    HW116535   4.365   1.558   2.287 -0.3406  0.3289  0.3654
 1692SOL    HW216536   4.281   1.675   2.308  1.0491 -0.7541 -2.6247
 1693SOL     OW16537   4.209   0.983  15.438  0.5478 -0.0906 -0.0279
 1693SOL    HW116538   4.231   0.891  15.451  2.6713  0.4117 -0.0467
 1693SOL    HW216539   4.114   0.978  15.440  0.5474  0.2869  1.1661
 1694SOL     OW16540   0.217   4.604  11.378 -0.3463  0.2471 -0.3512
 1694SOL    HW116541   0.177   4.550  11.446  1.8975 -1.0161 -0.0391
 1694SOL    HW216542   0.153   4.600  11.307 -0.0431  0.4918 -0.6455
 1695SOL     OW16543   1.022   1.024   2.855 -0.5128 -0.4003 -0.1671
 1695SOL    HW116544   0.950   1.043   2.795  0.7367 -1.4279 -1.9970
 1695SOL    HW216545   1.102   1.021   2.803  0.0389  1.5641  0.5707
 1696SOL     OW16546   4.344   1.972   8.224 -0.4578 -0.0896 -0.3197
 1696SOL    HW116547   4.302   1.989   8.139 -1.1144  0.5299  0.1395
 1696SOL    HW216548   4.271   1.969   8.286 -0.2728 -0.2620 -0.1129
 1697SOL     OW16549   3.809   2.553   3.204 -0.4353  0.5042  0.6034
 1697SOL    HW116550   3.813   2.581   3.295 -2.4556  0.2652  0.7731
 1697SOL    HW216551   3.818   2.638   3.160 -0.4007  0.3830  0.3751
 1698SOL     OW16552   4.051   3.839  15.936 -0.4281 -0.8491 -0.0994
 1698SOL    HW116553   4.094   3.755  15.952 -0.9065 -1.8804 -4.2768
 1698SOL    HW216554   3.957   3.824  15.928 -0.6806  0.3468  0.5374
 1699SOL     OW16555   3.749   1.796  17.266 -0.4893 -0.3676  0.1346
 1699SOL    HW116556   3.726   1.775  17.175  0.4054 -0.7768  0.0005
 1699SOL    HW216557   3.784   1.884  17.249  0.5114 -1.1228 -1.6918
 1700SOL     OW16558   4.286   1.989   6.831  0.1956 -0.4723  0.0285
 1700SOL    HW116559   4.312   1.932   6.904  3.0832 -0.8035 -1.2472
 1700SOL    HW216560   4.199   1.956   6.810 -0.2070  0.1038  0.8074
 1701SOL     OW16561   4.593   4.712   0.678 -0.1657 -0.7558  0.2240
 1701SOL    HW116562   4.642   4.652   0.735  2.1246  0.0325 -0.8998
 1701SOL    HW216563   4.520   0.015   0.735  0.2345  0.1551  0.3514
 1702SOL     OW16564   2.264   0.617   9.006  0.1202 -0.8016 -0.1589
 1702SOL    HW116565   2.193   0.566   8.967 -0.1675  0.0297 -0.7062
 1702SOL    HW216566   2.342   0.573   8.970  0.0857 -1.4117  0.5133
 1703SOL     OW16567   3.010   2.692  16.287  0.2602  0.0855 -0.3421
 1703SOL    HW116568   2.998   2.779  16.323  0.8324  0.6478 -1.5041
 1703SOL    HW216569   3.011   2.724  16.197  0.0216 -1.6689 -0.9811
 1704SOL     OW16570   4.713   4.211  11.707  0.2579  0.1695 -0.2520
 1704SOL    HW116571   4.637   4.166  11.744  0.5085 -0.0267  0.0189
 1704SOL    HW216572   0.028   4.260  11.781  1.2299 -0.4759 -0.3023
 1705SOL     OW16573   1.529   2.865  17.095 -0.2817  0.3420 -0.3359
 1705SOL    HW116574   1.555   2.849  17.186  1.2352 -0.3367 -0.8752
 1705SOL    HW216575   1.511   2.959  17.091  0.3677  0.4646 -0.4228
 1706SOL     OW16576   4.303   1.281   3.275  0.0638  0.2964 -0.0950
 1706SOL    HW116577   4.216   1.251   3.300  0.3672 -0.1750  0.3913
 1706SOL    HW216578   4.309   1.233   3.193 -2.7482 -0.0095 -0.0990
 1707SOL     OW16579   1.653   1.004  11.463 -0.5779  0.0707  0.4753
 1707SOL    HW116580   1.705   1.058  11.524 -0.2810 -0.6854  0.8886
 1707SOL    HW216581   1.566   1.042  11.476 -1.4514 -1.3993 -1.2119
 1708SOL     OW16582   1.830   1.969  12.942  0.0100 -0.5396  0.0080
 1708SOL    HW116583   1.854   2.016  12.862  0.1774 -1.3751 -0.4394
 1708SOL    HW216584   1.906   1.911  12.950  0.3955 -0.0834 -0.3186
 1709SOL     OW16585   4.254   3.044   2.732 -0.5016  0.8206 -0.7823
 1709SOL    HW116586   4.320   3.016   2.795 -0.9388  0.0489 -0.6650
 1709SOL    HW216587   4.255   2.969   2.672 -1.9477 -0.0376  0.2651
 1710SOL     OW16588   0.997   4.338  14.724  0.3429  0.3132  0.3818
 1710SOL    HW116589   0.967   4.421  14.761 -1.0522 -0.4634  1.0182
 1710SOL    HW216590   1.092   4.338  14.738  0.4072 -2.6537 -0.1403
 1711SOL     OW16591   2.921   4.277   5.135  0.1481  0.3989 -0.2667
 1711SOL    HW116592   2.923   4.333   5.057  0.9785 -0.5405 -0.9171
 1711SOL    HW216593   2.865   4.339   5.182 -0.1325 -0.0274 -0.0449
 1712SOL     OW16594   0.863   0.500  14.418  0.2294 -0.2665 -0.3071
 1712SOL    HW116595   0.858   0.410  14.385 -1.3626 -0.4531  0.4106
 1712SOL    HW216596   0.772   0.527  14.400  0.3051  0.2269  0.0514
 1713SOL     OW16597   0.883   4.569  16.422  0.1357  0.1715 -0.0864
 1713SOL    HW116598   0.810   4.592  16.479  2.0024  3.2182  1.0584
 1713SOL    HW216599   0.946   4.603  16.485  1.0646  0.5241 -1.1928
 1714SOL     OW16600   2.665   3.276   4.544 -0.0839 -0.3753  0.5780
 1714SOL    HW116601   2.701   3.319   4.621 -0.9711 -3.3121  2.6433
 1714SOL    HW216602   2.694   3.185   4.549 -1.1551 -0.7454  0.1647
 1715SOL     OW16603   1.642   2.740   6.236 -0.8027 -0.2425  0.0199
 1715SOL    HW116604   1.582   2.674   6.272  0.1303 -1.7526 -1.2073
 1715SOL    HW216605   1.696   2.766   6.310  0.5076 -1.1730 -0.6049
 1716SOL     OW16606   4.658   2.512  12.434  0.0245  0.2692  0.0047
 1716SOL    HW116607   4.643   2.561  12.515  0.1542  1.0337 -0.4339
 1716SOL    HW216608   4.687   2.574  12.367 -1.8759  1.3376  0.2000
 1717SOL     OW16609   2.534   3.249  15.449  0.1422 -0.0008  0.4546
 1717SOL    HW116610   2.519   3.203  15.532 -0.4004  0.1154  0.4168
 1717SOL    HW216611   2.514   3.179  15.386 -0.4632  0.1539  0.4776
 1718SOL     OW16612   1.043   0.966  16.361 -0.2242 -0.3282  0.0381
 1718SOL    HW116613   1.012   1.017  16.436  0.2981  0.0326  0.0007
 1718SOL    HW216614   1.083   1.035  16.308 -0.0925  0.0074  0.5840
 1719SOL     OW16615   1.114   1.845   2.342 -0.4487  0.3379  0.0122
 1719SOL    HW116616   1.046   1.779   2.339  1.0958 -1.1894 -1.4658
 1719SOL    HW216617   1.185   1.806   2.291 -1.7343 -1.9963  0.0165
 1720SOL     OW16618   3.504   2.263   4.864 -0.6260 -0.1076  0.3166
 1720SOL    HW116619   3.517   2.272   4.770 -0.2552 -1.1441  0.2650
 1720SOL    HW216620   3.595   2.248   4.891 -0.8147 -1.4586  0.1730
 1721SOL     OW16621   4.693   1.759   5.401 -0.4868  0.5084  0.7387
 1721SOL    HW116622   4.668   1.676   5.441  1.3857  0.5444  1.9811
 1721SOL    HW216623   4.639   1.744   5.323 -0.2124  2.8160  0.1132
 1722SOL     OW16624   3.493   0.910   3.860 -0.7284 -0.1938  0.4345
 1722SOL    HW116625   3.515   0.827   3.902  0.5268  0.3604  0.8764
 1722SOL    HW216626   3.425   0.942   3.919 -1.6006  0.3920 -0.8834
 1723SOL     OW16627   1.734   1.566   7.683 -0.2243  0.5165 -0.4326
 1723SOL    HW116628   1.641   1.576   7.704 -0.6062 -0.1702 -1.7956
 1723SOL    HW216629   1.731   1.560   7.587  1.8734 -1.5376 -0.3738
 1724SOL     OW16630   4.050   3.773   1.139  0.1549  0.4132  0.2415
 1724SOL    HW116631   4.070   3.856   1.097  0.6301  0.9245  1.4976
 1724SOL    HW216632   4.136   3.751   1.173  0.3012  0.5528 -0.0390
 1725SOL     OW16633   3.076   1.449   2.050 -0.3549  0.5339  0.4252
 1725SOL    HW116634   3.139   1.452   1.979 -1.2141  1.9827 -0.2770
 1725SOL    HW216635   3.012   1.386   2.016  0.3603  0.1824 -0.2618
 1726SOL     OW16636   3.198   1.077   2.261  0.2886 -0.0677 -0.0429
 1726SOL    HW116637   3.153   1.110   2.183 -1.7312 -1.1461  0.6657
 1726SOL    HW216638   3.187   1.148   2.324  1.8768  1.6932 -1.7714
 1727SOL     OW16639   3.141   1.989   8.464 -0.1143 -0.0069  0.2945
 1727SOL    HW116640   3.167   2.075   8.495  1.0883 -0.7554  1.3666
 1727SOL    HW216641   3.179   1.988   8.376  0.6607 -0.3059  0.6322
 1728SOL     OW16642   3.910   3.937  17.596 -0.0223 -0.0839  0.0863
 1728SOL    HW116643   3.837   3.952  17.535 -1.1046 -0.4569  1.2732
 1728SOL    HW216644   3.992   3.951  17.549  0.8448  0.0765  1.6547
 1729SOL     OW16645   0.764   4.347   7.972 -0.1700  0.0823  0.1308
 1729SOL    HW116646   0.833   4.400   8.012  0.3859 -0.7730  0.3076
 1729SOL    HW216647   0.735   4.407   7.903  0.0402  1.2626  1.0856
 1730SOL     OW16648   1.394   1.755   9.566  0.9991  0.9380 -0.3849
 1730SOL    HW116649   1.462   1.688   9.575  0.1177 -0.1151 -1.5997
 1730SOL    HW216650   1.332   1.727   9.499  0.9813  1.5217 -0.6123
 1731SOL     OW16651   2.384   1.996   3.135 -0.0155 -0.0710 -0.3522
 1731SOL    HW116652   2.464   1.948   3.154  0.3538  1.3167  1.6024
 1731SOL    HW216653   2.418   2.042   3.059 -1.4534  0.6019 -0.5944
 1732SOL     OW16654   1.889   3.478   4.124  0.3286 -0.5559 -0.0467
 1732SOL    HW116655   1.852   3.545   4.067 -1.1855  0.2703  1.9272
 1732SOL    HW216656   1.903   3.534   4.200 -3.0594 -0.1006  0.2574
 1733SOL     OW16657   3.043   3.062  12.860 -0.4615 -0.0246  0.0395
 1733SOL    HW116658   3.096   3.106  12.794  1.7989  2.2197  3.3474
 1733SOL    HW216659   2.965   3.043  12.808 -0.1798  1.8157 -1.0383
 1734SOL     OW16660   2.913   3.150   9.538  0.2644  0.1079 -0.2941
 1734SOL    HW116661   2.831   3.198   9.521  0.2257 -0.3356 -1.3372
 1734SOL    HW216662   2.902   3.129   9.631  0.4920  0.0235 -0.2870
 1735SOL     OW16663   0.233   3.155   4.793 -0.1755  0.0006  0.3444
 1735SOL    HW116664   0.290   3.191   4.861  1.0015  0.3653 -0.8345
 1735SOL    HW216665   0.174   3.230   4.788 -1.7750 -1.2953 -0.1968
 1736SOL     OW16666   0.617   0.210  17.185 -0.0661 -0.7572 -0.1758
 1736SOL    HW116667   0.672   0.256  17.123  0.3301 -0.8005  0.1432
 1736SOL    HW216668   0.614   0.127  17.137 -0.5660  0.3598 -2.0551
 1737SOL     OW16669   2.993   3.897   5.375  0.6048 -0.2578  0.2229
 1737SOL    HW116670   2.933   3.960   5.416  0.9816  0.2040  0.0672
 1737SOL    HW216671   2.935   3.872   5.303  0.0558 -0.7327  0.8209
 1738SOL     OW16672   4.060   3.561   1.968 -0.2398  0.3515  0.1952
 1738SOL    HW116673   4.039   3.516   2.050 -0.9566  1.9489  0.8948
 1738SOL    HW216674   4.156   3.566   1.967 -0.2982  1.5639  0.2182
 1739SOL     OW16675   4.145   0.261   3.187  0.4015  0.0341  0.3989
 1739SOL    HW116676   4.068   0.317   3.192  1.0884  1.0849 -0.5955
 1739SOL    HW216677   4.200   0.308   3.124 -0.9310 -0.0690 -0.8289
 1740SOL     OW16678   3.653   0.187   5.894  0.4865  0.3409  0.8095
 1740SOL    HW116679   3.609   0.102   5.893 -0.2813  0.7428  0.6014
 1740SOL    HW216680   3.697   0.192   5.979  2.3118  0.9327 -0.1551
 1741SOL     OW16681   3.641   0.965   8.401 -0.0240 -0.4953  0.5826
 1741SOL    HW116682   3.675   0.887   8.445 -2.3101 -1.1597  1.1659
 1741SOL    HW216683   3.646   1.029   8.472  3.4093 -1.0309  0.8404
 1742SOL     OW16684   4.678   2.479   9.929 -0.4155 -0.3839  0.0331
 1742SOL    HW116685   4.718   2.423   9.995  0.7528  0.9297  0.4488
 1742SOL    HW216686   4.634   2.407   9.885 -1.9053  0.1796  0.6070
 1743SOL     OW16687   4.193   2.393   1.348 -0.3234  0.3842  0.3830
 1743SOL    HW116688   4.199   2.371   1.441 -1.7757 -0.7426  0.2109
 1743SOL    HW216689   4.225   2.314   1.305 -0.3252 -1.1398  3.1737
 1744SOL     OW16690   3.024   2.207  13.279  0.0815 -0.2454 -0.2242
 1744SOL    HW116691   3.049   2.288  13.234  0.9026 -0.4622 -0.1549
 1744SOL    HW216692   2.982   2.158  13.209 -0.1729 -0.9527  0.4250
 1745SOL     OW16693   2.730   0.163  10.636 -0.2697 -0.3097 -0.2188
 1745SOL    HW116694   2.805   0.221  10.621  0.5485 -1.4261 -0.5008
 1745SOL    HW216695   2.762   0.096  10.697 -1.4529  0.3097  1.0579
 1746SOL     OW16696   3.688   0.452  10.879 -0.0623 -0.0386 -0.2097
 1746SOL    HW116697   3.620   0.388  10.857  0.4548 -0.1652 -1.3937
 1746SOL    HW216698   3.673   0.523  10.818 -1.9838 -0.8980 -0.7415
 1747SOL     OW16699   2.788   2.062   3.172  0.3177 -0.0045 -0.3446
 1747SOL    HW116700   2.810   2.023   3.256  0.2692 -0.9521 -0.7710
 1747SOL    HW216701   2.698   2.029   3.164  0.6788 -0.6780 -1.5795
 1748SOL     OW16702   0.237   3.753  16.650  0.0746 -0.4846  0.0741
 1748SOL    HW116703   0.288   3.743  16.570 -1.3440  2.2035 -1.1710
 1748SOL    HW216704   0.191   3.831  16.621 -0.7725 -0.9467  0.1584
 1749SOL     OW16705   2.254   2.990  13.318 -0.0280  0.2269  0.0022
 1749SOL    HW116706   2.257   3.057  13.386 -1.5654  0.4220 -0.1259
 1749SOL    HW216707   2.168   2.953  13.337 -0.7041  0.7930 -1.9797
 1750SOL     OW16708   1.375   3.238   4.650 -0.1964 -0.2042  0.2182
 1750SOL    HW116709   1.387   3.170   4.584 -0.3258  1.8952 -1.9375
 1750SOL    HW216710   1.455   3.223   4.701 -0.1930 -0.6072  0.0892
 1751SOL     OW16711   2.445   1.982   4.219  0.2404 -0.0381  0.2072
 1751SOL    HW116712   2.490   2.043   4.160  1.2172  0.3623  1.3689
 1751SOL    HW216713   2.416   1.919   4.153 -0.1560 -1.3561  1.6632
 1752SOL     OW16714   2.359   3.578  11.101 -0.1248  0.3705 -0.5110
 1752SOL    HW116715   2.274   3.561  11.060 -0.4125 -0.9637  0.6383
 1752SOL    HW216716   2.335   3.568  11.193 -2.3174  0.7125 -1.0526
 1753SOL     OW16717   0.785   3.505  14.370 -0.8400  0.2603 -0.2485
 1753SOL    HW116718   0.737   3.436  14.416 -0.2016 -0.8651 -1.2588
 1753SOL    HW216719   0.723   3.557  14.318  0.0443  1.9726  0.4243
 1754SOL     OW16720   2.108   3.621   8.544 -0.1651 -0.9431  0.2733
 1754SOL    HW116721   2.133   3.535   8.509 -0.5917  0.0202 -2.3800
 1754SOL    HW216722   2.058   3.651   8.469 -1.5095  0.2517  1.6617
 1755SOL     OW16723   2.539   4.097  15.120 -0.5390  0.0100 -0.0954
 1755SOL    HW116724   2.477   4.164  15.147  0.2790  0.1242  1.5410
 1755SOL    HW216725   2.554   4.054  15.205 -1.7478  0.1108  0.1685
 1756SOL     OW16726   1.833   1.705  17.092  0.0570  0.5612 -0.0435
 1756SOL    HW116727   1.897   1.700  17.021 -0.7957  1.6605 -0.8971
 1756SOL    HW216728   1.808   1.796  17.075  1.3500  0.8500 -0.3716
 1757SOL     OW16729   3.800   0.393  12.062 -0.4765 -0.0966 -0.6056
 1757SOL    HW116730   3.855   0.315  12.073 -0.0863  0.2633 -0.0106
 1757SOL    HW216731   3.856   0.457  12.018  0.5083 -0.9435 -0.5704
 1758SOL     OW16732   1.327   0.552  13.951  0.2355 -0.0462 -0.5292
 1758SOL    HW116733   1.266   0.593  13.889 -0.0633 -0.4433 -0.4972
 1758SOL    HW216734   1.277   0.483  13.992 -0.6288  0.4084 -0.8215
 1759SOL     OW16735   1.926   2.964   9.560 -0.2834  0.0026  0.3478
 1759SOL    HW116736   1.875   3.012   9.625  0.5077 -0.0701  1.0220
 1759SOL    HW216737   1.913   2.870   9.571 -0.6551 -0.0166 -0.2365
 1760SOL     OW16738   1.122   2.649  15.704 -0.4999 -0.2840 -1.1292
 1760SOL    HW116739   1.201   2.686  15.666 -0.1789  1.9855  1.7907
 1760SOL    HW216740   1.143   2.616  15.791  0.7935  2.1815 -0.5229
 1761SOL     OW16741   0.075   3.978  16.574  0.5152 -0.1252 -0.0097
 1761SOL    HW116742   4.710   3.979  16.531 -0.1748 -2.1209  1.3181
 1761SOL    HW216743   0.091   4.066  16.606  2.9692  0.5819 -3.1590
 1762SOL     OW16744   3.042   4.326   4.653 -0.2664  0.0715 -0.0513
 1762SOL    HW116745   3.031   4.335   4.559  0.9082 -1.9207 -0.3542
 1762SOL    HW216746   3.119   4.271   4.660  1.2670  2.3467  0.8457
 1763SOL     OW16747   3.753   4.674   0.566  0.2542 -0.3361 -0.2849
 1763SOL    HW116748   3.693   4.600   0.555  0.7325 -0.7778  0.0797
 1763SOL    HW216749   3.692   0.027   0.572  0.7548  0.1838 -1.6310
 1764SOL     OW16750   1.143   3.300   8.671 -0.0996 -0.1624 -0.3491
 1764SOL    HW116751   1.086   3.313   8.747  0.9980 -0.3022  0.5039
 1764SOL    HW216752   1.074   3.271   8.611 -2.2897  1.4508  1.3978
 1765SOL     OW16753   3.274   1.948  14.844  1.0532 -0.2494  0.2197
 1765SOL    HW116754   3.195   1.893  14.837  0.9480  0.2561 -2.8740
 1765SOL    HW216755   3.253   2.021  14.902 -2.2526 -1.2079  0.2818
 1766SOL     OW16756   2.525   3.326  10.311  0.8215  0.2293  0.3440
 1766SOL    HW116757   2.441   3.350  10.272  1.8485 -0.0817 -2.0630
 1766SOL    HW216758   2.493   3.268  10.380 -1.0518  1.1352  0.2333
 1767SOL     OW16759   2.347   1.030  16.295 -0.2371 -0.3849  0.1880
 1767SOL    HW116760   2.361   1.120  16.325  0.6014 -0.7466  0.8711
 1767SOL    HW216761   2.401   1.032  16.215 -1.9956  1.7426 -0.9669
 1768SOL     OW16762   2.258   2.187   6.586  0.4796 -0.3802  0.0261
 1768SOL    HW116763   2.352   2.169   6.591  0.7390  1.2012  0.5665
 1768SOL    HW216764   2.229   2.096   6.574 -1.1818  0.5022 -2.6221
 1769SOL     OW16765   0.826   3.705   2.744  0.2277 -0.2595  0.6137
 1769SOL    HW116766   0.789   3.644   2.808  0.2349 -0.2302  0.6462
 1769SOL    HW216767   0.829   3.651   2.665 -0.2667  2.2158 -1.0947
 1770SOL     OW16768   2.915   1.995  13.970  0.4578 -0.5002  0.5118
 1770SOL    HW116769   2.897   2.059  13.901  0.4966  0.7736  1.6811
 1770SOL    HW216770   2.950   2.050  14.040 -0.2420  1.8864 -1.0129
 1771SOL     OW16771   3.193   3.285   4.158  0.0197 -0.5780  0.0387
 1771SOL    HW116772   3.150   3.287   4.073 -0.1628 -2.2869  0.0829
 1771SOL    HW216773   3.181   3.376   4.183 -1.2287 -1.0923  1.2969
 1772SOL     OW16774   0.794   4.593  14.481  0.2238  0.0973 -0.4535
 1772SOL    HW116775   0.699   4.582  14.482  0.3459 -0.7464  1.0935
 1772SOL    HW216776   0.821   4.531  14.548  1.9563  0.8064 -0.4877
 1773SOL     OW16777   0.285   2.198   6.555  0.5398 -0.4915 -0.9480
 1773SOL    HW116778   0.229   2.220   6.629  0.4091  1.7391 -1.7209
 1773SOL    HW216779   0.367   2.201   6.604 -1.0447  0.4845  1.6519
 1774SOL     OW16780   3.936   4.668   3.538 -0.7246  0.6511 -0.2828
 1774SOL    HW116781   3.930   4.717   3.456  0.3403 -0.0900 -0.8054
 1774SOL    HW216782   3.902   4.582   3.513 -1.9393  0.8846  0.5171
 1775SOL     OW16783   1.960   3.325   5.237 -0.1449  0.8263 -0.2732
 1775SOL    HW116784   1.906   3.284   5.304 -1.0130  2.4154 -0.0141
 1775SOL    HW216785   1.910   3.313   5.157  0.0613 -2.1477  0.0101
 1776SOL     OW16786   1.524   2.556   2.826  0.2373  0.5876  0.0733
 1776SOL    HW116787   1.450   2.530   2.880  1.4632 -1.3816  0.8066
 1776SOL    HW216788   1.581   2.480   2.816 -0.8143 -0.0774 -0.8188
 1777SOL     OW16789   1.809   0.854  12.990  0.0381  0.0033 -0.0866
 1777SOL    HW116790   1.748   0.829  12.921  0.3706  1.2887 -0.8560
 1777SOL    HW216791   1.881   0.796  12.967 -0.6016 -1.0653  0.5673
 1778SOL     OW16792   0.089   2.729  13.979  0.1035 -0.4613  0.0799
 1778SOL    HW116793   0.172   2.730  14.026  1.6560  1.1221 -2.6973
 1778SOL    HW216794   0.091   2.649  13.927 -1.2611  0.9255 -2.0753
 1779SOL     OW16795   1.847   2.838   7.038 -0.9817 -0.2627  0.3943
 1779SOL    HW116796   1.810   2.749   7.040 -0.5863 -0.4474 -1.0332
 1779SOL    HW216797   1.848   2.870   7.129 -0.8428  1.0854 -0.0882
 1780SOL     OW16798   4.286   1.344   2.435 -0.1213  0.5126  0.1646
 1780SOL    HW116799   4.369   1.350   2.388 -0.0694 -2.3421 -0.0858
 1780SOL    HW216800   4.245   1.271   2.389 -1.6373  1.4476  0.0308
 1781SOL     OW16801   3.374   3.295   8.017  0.4614 -0.0910 -0.3913
 1781SOL    HW116802   3.409   3.329   8.099  0.0905  1.3295 -0.8075
 1781SOL    HW216803   3.373   3.377   7.967 -1.5267 -0.0220 -0.2326
 1782SOL     OW16804   0.239   1.791   1.879  0.0200  0.1060  0.0982
 1782SOL    HW116805   0.260   1.874   1.837  5.4316 -2.4332 -2.2500
 1782SOL    HW216806   0.254   1.821   1.969 -1.7912 -0.4954  0.5936
 1783SOL     OW16807   1.517   4.593   8.307 -0.0646 -0.1226  0.0331
 1783SOL    HW116808   1.520   4.525   8.373 -0.1215  0.8711  1.0549
 1783SOL    HW216809   1.537   4.546   8.226 -2.8930  0.6928 -1.1520
 1784SOL     OW16810   2.431   1.520   3.306 -0.2869 -0.1412  0.4498
 1784SOL    HW116811   2.402   1.600   3.349  1.2817  1.1973 -0.9865
 1784SOL    HW216812   2.356   1.488   3.257 -0.5715  1.8033 -0.3747
 1785SOL     OW16813   0.374   4.174   7.899 -0.2494 -0.1768  0.6609
 1785SOL    HW116814   0.379   4.262   7.937  0.2996 -1.0894  2.7161
 1785SOL    HW216815   0.425   4.129   7.967 -1.4140  1.0147  2.3299
 1786SOL     OW16816   1.744   4.590  16.284  0.0533 -0.4832 -0.3072
 1786SOL    HW116817   1.727   4.531  16.211  0.9353 -1.3578  0.1938
 1786SOL    HW216818   1.655   4.613  16.313  0.6495  1.2290  0.1719
 1787SOL     OW16819   1.500   2.920  12.809  0.2561 -0.0100  0.1793
 1787SOL    HW116820   1.523   2.908  12.717  0.1676 -0.8895  0.2725
 1787SOL    HW216821   1.555   2.995  12.829  1.6765 -0.7187 -1.0848
 1788SOL     OW16822   2.742   1.894  16.729  0.2558 -0.1542 -0.2709
 1788SOL    HW116823   2.825   1.911  16.773  0.8956 -0.7522 -1.2545
 1788SOL    HW216824   2.685   1.920  16.802  1.4617  1.2678  0.1531
 1789SOL     OW16825   1.095   3.680   9.414  0.1620 -0.0744 -0.2321
 1789SOL    HW116826   1.171   3.733   9.439 -0.1407  0.1112  0.2850
 1789SOL    HW216827   1.025   3.738   9.443  0.9168  0.8926 -0.3077
 1790SOL     OW16828   4.378   4.637   6.930  0.2088 -0.1748  0.1436
 1790SOL    HW116829   4.355   0.004   6.902  0.2127  0.4460  2.0997
 1790SOL    HW216830   4.412   4.603   6.847 -0.5467 -1.7843  0.4981
 1791SOL     OW16831   1.898   3.046   1.778  0.4589  0.0820  0.0373
 1791SOL    HW116832   1.896   2.993   1.857  2.1240 -0.9526 -0.5993
 1791SOL    HW216833   1.816   3.032   1.731  0.1607  0.5498  0.4205
 1792SOL     OW16834   3.164   0.727   7.820 -0.1268 -0.1530  0.0924
 1792SOL    HW116835   3.126   0.713   7.906  2.4851  1.1676  1.4590
 1792SOL    HW216836   3.082   0.739   7.771  0.1980 -0.5984 -0.5741
 1793SOL     OW16837   1.771   4.005   7.956  0.3976  0.4182  0.6841
 1793SOL    HW116838   1.860   4.020   7.989  1.4257 -1.2676 -1.3226
 1793SOL    HW216839   1.798   3.994   7.865 -1.3614  2.4918 -0.0810
 1794SOL     OW16840   3.576   0.177   0.569 -0.2204  0.0774 -0.6262
 1794SOL    HW116841   3.490   0.185   0.527 -1.3568  0.3563  1.7596
 1794SOL    HW216842   3.639   0.225   0.515  0.3179 -0.1836 -0.2337
 1795SOL     OW16843   2.930   1.196   6.305 -0.2704  0.6183  0.0014
 1795SOL    HW116844   2.836   1.206   6.320 -0.1628 -0.8081  1.5475
 1795SOL    HW216845   2.968   1.253   6.373  1.2839  0.1079 -0.4452
 1796SOL     OW16846   1.781   1.980   0.944 -0.0154 -0.1442  0.2938
 1796SOL    HW116847   1.868   1.945   0.923  0.5562  1.5199 -0.1183
 1796SOL    HW216848   1.799   2.074   0.938 -0.6145 -0.2180 -2.5011
 1797SOL     OW16849   4.529   4.486  14.920  0.7665  0.5001  0.0416
 1797SOL    HW116850   4.569   4.399  14.930  0.3607  0.5713  2.2294
 1797SOL    HW216851   4.524   4.488  14.824 -0.0882  0.5033  0.0913
 1798SOL     OW16852   3.398   0.337   8.015  0.3054  0.5906  0.0900
 1798SOL    HW116853   3.403   0.341   7.919 -0.8580  1.9742  0.0853
 1798SOL    HW216854   3.386   0.429   8.038  1.5707  0.7550  0.0739
 1799SOL     OW16855   0.113   1.712   0.465 -0.8439 -0.1445  0.5822
 1799SOL    HW116856   0.048   1.661   0.514  0.5668 -1.5996  0.9163
 1799SOL    HW216857   0.110   1.796   0.511 -0.4545  0.4918 -0.5647
 1800SOL     OW16858   1.061   2.258   4.171  0.4442 -0.0039  0.2283
 1800SOL    HW116859   1.074   2.165   4.152  0.9945 -0.2243  1.6963
 1800SOL    HW216860   1.104   2.293   4.092 -0.0067 -0.0060 -0.0199
 1801SOL     OW16861   2.552   3.238   7.718  0.0861 -0.2429 -0.3023
 1801SOL    HW116862   2.564   3.315   7.773 -0.2661  0.7311 -1.5896
 1801SOL    HW216863   2.472   3.203   7.757  1.3181 -1.9915  0.6601
 1802SOL     OW16864   0.598   0.962   7.494 -0.2096 -0.2859 -0.5376
 1802SOL    HW116865   0.608   1.056   7.510 -1.0545  0.0670 -2.0355
 1802SOL    HW216866   0.510   0.958   7.457 -1.1172 -0.1539  1.6191
 1803SOL     OW16867   1.518   3.928   6.751  0.3963  0.3613 -0.0188
 1803SOL    HW116868   1.556   3.861   6.808 -1.5923 -1.4653 -0.8512
 1803SOL    HW216869   1.429   3.911   6.781  0.3381  1.9695  0.6920
 1804SOL     OW16870   3.183   2.627  15.739 -0.2804 -0.9343  0.4192
 1804SOL    HW116871   3.205   2.550  15.791  0.3801 -0.0454  1.4462
 1804SOL    HW216872   3.093   2.607  15.711  0.0447 -1.0311 -0.5592
 1805SOL     OW16873   0.266   4.339   6.811  0.3460  0.1969 -0.3199
 1805SOL    HW116874   0.189   4.355   6.864  2.3037  2.3990  1.8851
 1805SOL    HW216875   0.240   4.299   6.728  2.0178  0.2016 -0.8517
 1806SOL     OW16876   3.138   0.529   7.381 -0.6465  0.4776  0.5242
 1806SOL    HW116877   3.172   0.523   7.470 -1.0687  1.9567  0.7942
 1806SOL    HW216878   3.079   0.453   7.388  2.6301 -2.0844  0.0743
 1807SOL     OW16879   2.359   4.293  16.250 -0.1575 -0.1594 -0.0215
 1807SOL    HW116880   2.391   4.244  16.325 -0.1946  2.2083  1.5167
 1807SOL    HW216881   2.337   4.219  16.193  1.6518 -0.0608 -0.8720
 1808SOL     OW16882   2.624   2.360   7.616 -0.7600  0.6457  0.1464
 1808SOL    HW116883   2.608   2.288   7.677 -0.2703 -0.3554 -0.8958
 1808SOL    HW216884   2.553   2.417   7.645 -0.7093  1.0079 -0.4420
 1809SOL     OW16885   3.628   3.528   3.530 -0.0994 -0.5038  0.9784
 1809SOL    HW116886   3.627   3.475   3.610  1.5852 -0.9419  0.7064
 1809SOL    HW216887   3.607   3.464   3.463  1.0196 -1.8428  1.9058
 1810SOL     OW16888   4.625   2.211   3.068 -0.3217 -0.2318  0.1070
 1810SOL    HW116889   4.678   2.202   2.989 -0.7463 -0.0138 -0.2023
 1810SOL    HW216890   4.565   2.285   3.058  0.1471  0.3776  1.7867
 1811SOL     OW16891   4.020   1.352  11.490 -0.0952 -0.6573 -0.1033
 1811SOL    HW116892   4.064   1.418  11.436  1.1263 -0.9751  0.5147
 1811SOL    HW216893   3.998   1.283  11.426 -0.7683 -1.3545  0.8779
 1812SOL     OW16894   4.578   4.207  14.921  0.2908  0.2823  0.3390
 1812SOL    HW116895   4.617   4.196  14.834 -0.9894  1.7069 -0.4279
 1812SOL    HW216896   4.608   4.129  14.968  2.2489  0.2296 -0.9616
 1813SOL     OW16897   4.631   3.377  10.909 -0.1509 -0.0158 -0.3337
 1813SOL    HW116898   4.711   3.377  10.962  0.2589 -0.9427 -0.9504
 1813SOL    HW216899   4.660   3.424  10.831 -0.8443 -1.7456 -1.6207
 1814SOL     OW16900   3.837   0.974   6.501  0.2815  0.1749 -0.2775
 1814SOL    HW116901   3.828   1.060   6.542 -1.2296 -0.5980  1.0116
 1814SOL    HW216902   3.867   0.925   6.578 -0.0407  0.4314  0.0109
 1815SOL     OW16903   1.809   2.298  16.299 -0.0217  0.3556  0.5273
 1815SOL    HW116904   1.729   2.265  16.258  0.1700 -0.1671  0.5675
 1815SOL    HW216905   1.787   2.391  16.298 -0.9942  0.1077 -2.2513
 1816SOL     OW16906   1.111   2.568  16.431 -0.1696 -0.1387 -0.0010
 1816SOL    HW116907   1.105   2.521  16.514 -1.0403  0.5137  0.3087
 1816SOL    HW216908   1.074   2.654  16.450  2.6624  0.9009  0.7196
 1817SOL     OW16909   4.014   4.325   6.207  0.4442 -0.1452  0.0914
 1817SOL    HW116910   4.060   4.243   6.189 -1.4791 -0.7302 -2.2577
 1817SOL    HW216911   3.967   4.339   6.124  0.6519 -1.6640 -0.2887
 1818SOL     OW16912   3.327   2.360  12.322 -0.2627 -0.0695  0.0686
 1818SOL    HW116913   3.376   2.282  12.351 -0.5203 -0.1175  0.3767
 1818SOL    HW216914   3.277   2.333  12.245 -2.9025  1.5210  1.2276
 1819SOL     OW16915   0.157   4.585   1.378 -0.4487  0.1196  1.0803
 1819SOL    HW116916   0.148   4.492   1.401 -0.1222 -0.0913  0.3713
 1819SOL    HW216917   0.176   4.627   1.462  1.7437 -0.0392  0.6469
 1820SOL     OW16918   3.250   3.618   8.948 -0.9502  0.0286 -0.7445
 1820SOL    HW116919   3.161   3.591   8.926  0.0866 -1.5114 -3.0929
 1820SOL    HW216920   3.294   3.541   8.911  2.1153 -0.2837  3.6265
 1821SOL     OW16921   0.453   2.779  14.591 -0.2981 -0.1373  0.7419
 1821SOL    HW116922   0.362   2.751  14.583 -0.3841  1.0653 -2.5954
 1821SOL    HW216923   0.493   2.706  14.639 -4.1401 -2.4900  0.2807
 1822SOL     OW16924   0.093   0.307   5.118 -0.1851  0.0360  0.2920
 1822SOL    HW116925   0.169   0.339   5.068  0.9616 -1.0676  1.3306
 1822SOL    HW216926   0.024   0.369   5.093 -1.3603 -1.9389 -1.3747
 1823SOL     OW16927   3.462   3.977   6.888  0.1083  0.0309 -0.0575
 1823SOL    HW116928   3.521   3.999   6.960  0.1194 -1.1790  0.3116
 1823SOL    HW216929   3.401   4.051   6.886  0.6758  0.4918 -0.2156
 1824SOL     OW16930   2.391   0.491   7.572  0.7130 -0.0738 -0.2490
 1824SOL    HW116931   2.455   0.422   7.588  1.1480  0.2921 -0.4321
 1824SOL    HW216932   2.446   0.558   7.610  0.7566  0.8021 -1.8529
 1825SOL     OW16933   3.862   2.397   0.465  0.0376 -0.8239 -0.1025
 1825SOL    HW116934   3.921   2.358   0.530  1.6802  0.6042 -0.7367
 1825SOL    HW216935   3.781   2.413   0.515  0.1923 -2.2553  0.5979
 1826SOL     OW16936   4.500   1.358   4.637 -0.1809  0.1494  0.3925
 1826SOL    HW116937   4.493   1.398   4.724 -0.5140 -0.4684  0.6525
 1826SOL    HW216938   4.456   1.273   4.646  0.0919 -0.0961 -0.7125
 1827SOL     OW16939   4.105   4.025   6.394  0.1014 -0.5355 -0.1948
 1827SOL    HW116940   4.141   4.042   6.307  0.6145  0.3260  0.1887
 1827SOL    HW216941   4.151   4.088   6.449  0.7720 -2.2603  1.2127
 1828SOL     OW16942   2.299   2.667   9.285 -0.1741  0.4491 -0.1535
 1828SOL    HW116943   2.343   2.731   9.230 -1.5954  1.3457 -0.2374
 1828SOL    HW216944   2.319   2.698   9.374  0.2706  0.7096 -0.3475
 1829SOL     OW16945   2.204   1.320   3.307 -0.3414  0.1182 -0.1704
 1829SOL    HW116946   2.261   1.253   3.268  0.6084 -0.1853  1.7289
 1829SOL    HW216947   2.137   1.257   3.335  0.9833 -1.1775  0.1286
 1830SOL     OW16948   4.441   2.269   6.388  0.1708 -0.2165 -0.0203
 1830SOL    HW116949   4.351   2.236   6.391 -0.7406  2.1958 -1.6507
 1830SOL    HW216950   4.474   2.274   6.478 -2.7285  2.1019  0.8919
 1831SOL     OW16951   3.637   1.159   9.566 -0.1548 -0.2247 -0.0116
 1831SOL    HW116952   3.549   1.141   9.533  1.5571 -2.5170 -3.3780
 1831SOL    HW216953   3.636   1.245   9.607 -0.1193 -1.7270  3.1400
 1832SOL     OW16954   0.668   4.383   6.454  0.1582  0.2100  0.0701
 1832SOL    HW116955   0.603   4.367   6.522 -0.7079 -0.9828 -1.0296
 1832SOL    HW216956   0.663   4.478   6.464  2.4062  0.1839  1.4679
 1833SOL     OW16957   0.006   4.660   8.283 -0.5543  0.2773  0.1908
 1833SOL    HW116958   4.712   0.018   8.230 -2.8758 -1.1468 -1.2716
 1833SOL    HW216959   0.074   4.615   8.232  0.4748  0.9299  0.9840
 1834SOL     OW16960   1.940   2.632   6.770 -0.5298  0.2758  0.4615
 1834SOL    HW116961   2.001   2.558   6.765 -1.1550 -0.2822  1.1061
 1834SOL    HW216962   1.867   2.603   6.824 -1.7479  0.1887 -1.2462
 1835SOL     OW16963   0.924   2.274   6.843 -0.5933  0.2299  0.0951
 1835SOL    HW116964   0.861   2.346   6.844 -1.4570 -0.5437  0.8116
 1835SOL    HW216965   0.996   2.317   6.795  0.0099  0.5480  1.2683
 1836SOL     OW16966   1.714   4.496   8.917 -0.0574 -0.0639 -0.2348
 1836SOL    HW116967   1.636   4.550   8.929  1.7042  2.3938  0.1137
 1836SOL    HW216968   1.770   4.552   8.863  0.7130  2.1020  2.7767
 1837SOL     OW16969   0.191   2.588   4.978  0.6473  0.2510  0.2485
 1837SOL    HW116970   0.239   2.522   5.027 -1.7985 -0.6213  1.4949
 1837SOL    HW216971   0.103   2.574   5.012 -0.2346  2.9178 -0.9025
 1838SOL     OW16972   4.232   2.263  14.018 -0.6721 -0.1744  0.6591
 1838SOL    HW116973   4.190   2.228  14.096 -2.3396  2.0430  0.7605
 1838SOL    HW216974   4.166   2.313  13.969 -0.7194  1.2598  2.1917
 1839SOL     OW16975   3.048   2.377   5.545  0.3624  0.0154 -0.2730
 1839SOL    HW116976   3.043   2.287   5.513 -1.2227  0.2862 -0.8198
 1839SOL    HW216977   2.967   2.418   5.514  0.5341  0.5036 -0.0716
 1840SOL     OW16978   3.022   0.969   6.224  0.3093 -0.0508  0.0547
 1840SOL    HW116979   2.995   1.058   6.248  1.1997  0.0633  0.6412
 1840SOL    HW216980   2.980   0.962   6.139 -0.0703  1.8424  0.0840
 1841SOL     OW16981   4.477   0.367   3.321 -0.2598  0.4575 -0.7223
 1841SOL    HW116982   4.533   0.444   3.313 -1.8319  1.2594 -4.1183
 1841SOL    HW216983   4.538   0.300   3.287  1.0963 -0.2621  3.1921
 1842SOL     OW16984   1.963   2.082   7.637 -0.2481  0.0588  0.2649
 1842SOL    HW116985   1.953   1.994   7.600 -3.3899 -0.4497  2.3734
 1842SOL    HW216986   1.877   2.091   7.678 -0.3901 -0.5028  0.1003
 1843SOL     OW16987   4.586   0.709   9.058  0.0395 -0.3526 -0.3920
 1843SOL    HW116988   4.538   0.630   9.033 -0.8264  0.3983 -1.1016
 1843SOL    HW216989   4.525   0.781   9.045  2.1284  1.3185 -0.9883
 1844SOL     OW16990   1.057   2.145   5.483 -0.0456  0.2471 -0.3124
 1844SOL    HW116991   1.070   2.059   5.522 -1.8816 -0.0641 -0.3617
 1844SOL    HW216992   1.133   2.157   5.427  0.7904 -1.1017  0.5300
 1845SOL     OW16993   3.641   4.634   1.442  0.1939  0.0131 -0.3602
 1845SOL    HW116994   3.601   4.592   1.366  2.3597  1.2028 -2.1772
 1845SOL    HW216995   3.589   4.712   1.463 -0.4572 -0.4041 -0.4339
 1846SOL     OW16996   0.338   0.095   8.390  0.5431 -0.2918  0.6092
 1846SOL    HW116997   0.433   0.092   8.385  0.4694  1.9425 -1.8134
 1846SOL    HW216998   0.312   0.180   8.355  0.6519 -0.8466 -0.7955
 1847SOL     OW16999   3.978   1.740   0.743 -0.5880  0.0362 -0.1729
 1847SOL    HW117000   4.010   1.797   0.813 -0.3032  1.0458 -1.1280
 1847SOL    HW217001   3.945   1.799   0.675  1.3290  2.0476  0.6570
 1848SOL     OW17002   2.064   1.180   2.298  0.0770 -0.2105  0.4206
 1848SOL    HW117003   2.017   1.108   2.256  0.4840 -0.0808 -0.2416
 1848SOL    HW217004   1.992   1.233   2.332 -0.1888 -1.9994  2.7369
 1849SOL     OW17005   2.966   2.186  13.530  0.5588 -0.4669 -0.2627
 1849SOL    HW117006   2.979   2.196  13.436 -1.8396  1.2728 -0.4089
 1849SOL    HW217007   2.872   2.172  13.518  0.0941  2.0563  0.5279
 1850SOL     OW17008   3.501   2.694   6.860 -0.1279 -0.1216  0.2147
 1850SOL    HW117009   3.508   2.605   6.826  2.6195  0.5372 -0.9679
 1850SOL    HW217010   3.425   2.725   6.811  0.0048 -0.3967 -0.1685
 1851SOL     OW17011   1.810   3.318  17.168 -0.0039 -0.2480  0.1357
 1851SOL    HW117012   1.783   3.229  17.148 -2.2235 -0.7245  5.1764
 1851SOL    HW217013   1.731   3.343  17.217 -0.4891 -3.7279  1.1222
 1852SOL     OW17014   2.740   1.441   1.238 -0.0921 -0.0908 -0.5495
 1852SOL    HW117015   2.799   1.384   1.288  0.9471  1.3973 -0.1021
 1852SOL    HW217016   2.663   1.441   1.295  0.1983  0.9085 -0.1756
 1853SOL     OW17017   2.787   2.585   2.490  0.1905  0.3798  0.2385
 1853SOL    HW117018   2.765   2.678   2.502 -1.3109 -0.1552  1.6568
 1853SOL    HW217019   2.826   2.594   2.404  1.6623 -3.2168  0.5269
 1854SOL     OW17020   3.874   2.998  16.621 -0.6798 -0.7316  0.3602
 1854SOL    HW117021   3.936   2.967  16.686 -0.7382 -0.0123  0.7577
 1854SOL    HW217022   3.798   2.977  16.675 -0.6717 -1.2009  0.1878
 1855SOL     OW17023   1.033   1.154   3.104 -0.1045 -0.4150 -0.1396
 1855SOL    HW117024   0.943   1.135   3.128  0.5242 -0.4245  2.2358
 1855SOL    HW217025   1.040   1.107   3.021  0.9110  0.9258 -0.8222
 1856SOL     OW17026   3.108   2.433   6.770  0.1438  0.1764 -0.4618
 1856SOL    HW117027   3.025   2.476   6.747  0.1699  0.2213 -0.4721
 1856SOL    HW217028   3.130   2.458   6.860 -2.7090  0.1043  0.2504
 1857SOL     OW17029   0.344   2.299  15.908  0.1556 -0.3478 -0.2267
 1857SOL    HW117030   0.313   2.301  15.817 -0.2098  0.5009 -0.0877
 1857SOL    HW217031   0.302   2.220  15.943 -2.4807  0.2171 -2.0659
 1858SOL     OW17032   1.205   2.115  13.455 -0.1656 -0.0773  0.0740
 1858SOL    HW117033   1.136   2.059  13.492  0.8075 -1.5196 -0.3239
 1858SOL    HW217034   1.280   2.066  13.488 -0.0718  2.8186  4.2170
 1859SOL     OW17035   0.887   1.542   2.625  0.5156  0.3547  0.2744
 1859SOL    HW117036   0.811   1.508   2.578 -0.1649  2.5838 -0.1999
 1859SOL    HW217037   0.845   1.628   2.629  1.0151  0.5362  1.4367
 1860SOL     OW17038   1.125   2.436   1.989  0.3134  0.1399 -0.0257
 1860SOL    HW117039   1.041   2.393   1.972  0.5334 -0.0394 -0.6693
 1860SOL    HW217040   1.098   2.516   2.034  1.6107 -0.2717  1.4773
 1861SOL     OW17041   2.915   2.216   2.993 -0.1513 -0.4734  0.0416
 1861SOL    HW117042   2.889   2.197   2.903 -0.0226 -3.0791  0.5551
 1861SOL    HW217043   2.855   2.165   3.048 -0.5830  1.2593  1.1601
 1862SOL     OW17044   1.440   1.861   3.237 -0.0185  0.4088  0.0623
 1862SOL    HW117045   1.491   1.825   3.165 -0.2766 -0.2548  0.2029
 1862SOL    HW217046   1.488   1.930   3.282  1.1610 -0.1541 -0.3436
 1863SOL     OW17047   2.198   0.276   7.917  0.1796  0.4016 -0.0378
 1863SOL    HW117048   2.146   0.299   7.994 -1.9006  2.0054 -1.8983
 1863SOL    HW217049   2.179   0.182   7.922  0.5053  0.2647 -1.3632
 1864SOL     OW17050   2.655   1.973   3.979  0.0076  0.8450 -0.3858
 1864SOL    HW117051   2.623   2.038   3.917 -0.9262  0.1690 -0.6152
 1864SOL    HW217052   2.611   1.891   3.955  2.4779 -0.6074  0.0479
 1865SOL     OW17053   1.113   0.485   3.516  0.4721  0.1364 -0.3658
 1865SOL    HW117054   1.138   0.515   3.603 -1.1136 -1.4563  0.6451
 1865SOL    HW217055   1.106   0.574   3.482 -0.8992  0.0170 -0.3722
 1866SOL     OW17056   1.973   4.601  11.052  0.1027  0.1808  0.4183
 1866SOL    HW117057   1.969   4.538  11.123 -1.0458  1.0370  1.1077
 1866SOL    HW217058   2.055   4.583  11.006  0.6717  0.3106  1.3780
 1867SOL     OW17059   1.915   3.503   7.073  0.6145  0.7109 -0.5705
 1867SOL    HW117060   1.926   3.510   6.979  0.4860  3.5019 -0.3882
 1867SOL    HW217061   1.940   3.411   7.085 -3.5959 -0.2982  0.3382
 1868SOL     OW17062   2.220   1.546   8.949 -0.3423 -0.2448  0.1543
 1868SOL    HW117063   2.280   1.535   8.876  0.7653 -2.9084  1.4286
 1868SOL    HW217064   2.176   1.461   8.953  0.4268 -0.7261 -2.2332
 1869SOL     OW17065   3.860   0.720   7.752  0.0567  0.5977  0.4828
 1869SOL    HW117066   3.896   0.809   7.754  0.0236  0.6506 -0.8336
 1869SOL    HW217067   3.938   0.667   7.733 -1.3981 -1.2382 -0.3592
 1870SOL     OW17068   1.041   0.924   5.149  0.5389 -0.2896  0.1982
 1870SOL    HW117069   1.114   0.941   5.208  2.0427 -0.3831 -1.6435
 1870SOL    HW217070   1.021   1.012   5.116 -1.1347 -2.3071 -4.1191
 1871SOL     OW17071   4.153   1.009  14.762  0.6303 -0.1821 -0.0816
 1871SOL    HW117072   4.140   1.059  14.681  0.1452 -0.0558  0.0761
 1871SOL    HW217073   4.063   0.980  14.777 -0.2301  3.0327  0.9153
 1872SOL     OW17074   2.735   3.527   5.668 -0.3423  0.2105  0.1784
 1872SOL    HW117075   2.666   3.471   5.701  0.1370 -1.7527 -2.1786
 1872SOL    HW217076   2.769   3.481   5.592 -0.2341 -1.3056  1.1516
 1873SOL     OW17077   1.891   4.590  14.584  0.0122  0.6889  0.0520
 1873SOL    HW117078   1.975   4.551  14.606 -1.1425 -1.6749  0.3106
 1873SOL    HW217079   1.836   4.512  14.587 -0.0516  0.6872 -0.9973
 1874SOL     OW17080   0.050   1.163   2.024  0.1306 -0.1012  0.0508
 1874SOL    HW117081   4.679   1.159   2.049 -0.3744  0.3162 -1.6934
 1874SOL    HW217082   0.098   1.090   2.061  3.0153  1.7481  0.0045
 1875SOL     OW17083   4.141   2.356   3.002  0.7237 -0.5140  0.1522
 1875SOL    HW117084   4.109   2.446   2.999  2.5220  0.0502 -1.6258
 1875SOL    HW217085   4.088   2.314   3.070  0.3304 -2.0388 -1.0954
 1876SOL     OW17086   2.380   1.657   6.033  0.0814 -0.3054 -0.3073
 1876SOL    HW117087   2.323   1.734   6.033  0.0843 -0.2986  1.2891
 1876SOL    HW217088   2.365   1.634   6.125 -1.5411  1.3867 -0.1440
 1877SOL     OW17089   4.521   4.113   5.471  0.0584  0.1754  0.3740
 1877SOL    HW117090   4.435   4.083   5.499 -0.5247  2.1285  0.6770
 1877SOL    HW217091   4.560   4.034   5.434 -0.3857  0.3011 -0.3688
 1878SOL     OW17092   1.440   3.777   6.128 -0.2566  0.7317  0.1117
 1878SOL    HW117093   1.504   3.811   6.065 -1.2519  3.6670  0.6858
 1878SOL    HW217094   1.389   3.722   6.069  1.6196 -1.2842  0.3595
 1879SOL     OW17095   1.303   1.590   2.267 -0.1330  0.5926  0.3324
 1879SOL    HW117096   1.392   1.590   2.232 -0.2442 -1.1714  0.0447
 1879SOL    HW217097   1.270   1.642   2.194 -0.2815 -0.0282 -0.0461
 1880SOL     OW17098   0.525   0.104   7.954 -0.0389 -0.4378  0.1590
 1880SOL    HW117099   0.582   0.071   8.023  0.8369 -1.6570 -1.1588
 1880SOL    HW217100   0.566   0.078   7.872 -0.6124 -2.0093  0.3815
 1881SOL     OW17101   4.390   4.146   7.220  0.2471  0.6346  0.4158
 1881SOL    HW117102   4.467   4.170   7.168  0.5323  2.4236  1.6474
 1881SOL    HW217103   4.328   4.148   7.147 -1.4015 -0.2065  1.8085
 1882SOL     OW17104   2.689   1.403   6.289 -0.2926 -0.2203  0.3737
 1882SOL    HW117105   2.714   1.489   6.254  0.0025  0.1346  1.4514
 1882SOL    HW217106   2.748   1.410   6.365  0.8358 -1.0275 -0.4347
 1883SOL     OW17107   2.403   2.386   0.247  0.4726  0.2361  0.1825
 1883SOL    HW117108   2.336   2.384   0.179  2.6293 -1.3848 -1.8718
 1883SOL    HW217109   2.373   2.320   0.309 -1.5607 -1.3274 -2.5140
 1884SOL     OW17110   2.908   3.580   8.613 -0.1400 -0.2324  0.1995
 1884SOL    HW117111   2.850   3.543   8.547 -0.8032  0.6760  0.2887
 1884SOL    HW217112   2.855   3.653   8.645  1.3639  1.6968 -1.6873
 1885SOL     OW17113   1.590   4.452  12.388 -0.0503  0.3436  0.4453
 1885SOL    HW117114   1.622   4.504  12.462 -1.0488  1.5513  0.0417
 1885SOL    HW217115   1.589   4.361  12.418  0.9610 -0.6254 -2.4987
 1886SOL     OW17116   2.180   2.301   3.967  0.4665 -0.1580  0.0028
 1886SOL    HW117117   2.208   2.275   4.055 -1.3780 -1.2717  0.2560
 1886SOL    HW217118   2.196   2.395   3.964 -1.3602  0.1046 -1.2970
 1887SOL     OW17119   3.864   2.087   3.477 -0.1331 -0.7687  0.4319
 1887SOL    HW117120   3.959   2.092   3.463  0.0321 -2.0286  1.1545
 1887SOL    HW217121   3.853   1.999   3.512  0.1299 -1.7142 -1.8259
 1888SOL     OW17122   0.101   2.842   6.470 -0.1752  0.4283 -0.4040
 1888SOL    HW117123   0.041   2.819   6.400 -3.1833  0.7855  2.0488
 1888SOL    HW217124   0.117   2.935   6.456 -2.3070  0.6872 -1.0145
 1889SOL     OW17125   3.104   1.913   4.356  0.2468 -0.2894 -0.2380
 1889SOL    HW117126   3.142   1.877   4.436 -2.1913 -1.2149  0.4928
 1889SOL    HW217127   3.112   2.008   4.368 -1.4706 -0.6700  3.9068
 1890SOL     OW17128   4.525   3.852   2.293 -0.2340  0.2520 -0.0949
 1890SOL    HW117129   4.463   3.845   2.366 -0.9082 -0.7333 -0.7534
 1890SOL    HW217130   4.469   3.852   2.215 -1.1573 -1.0263  0.5619
 1891SOL     OW17131   0.577   2.189   3.517  0.1830  0.0919 -0.4960
 1891SOL    HW117132   0.551   2.134   3.442 -0.3660 -1.0017  0.4855
 1891SOL    HW217133   0.552   2.130   3.588  0.2183  1.5530  0.7149
 1892SOL     OW17134   4.678   1.810   2.243 -0.8216 -0.1475 -0.2353
 1892SOL    HW117135   4.587   1.831   2.265 -1.2004 -3.2966  1.1844
 1892SOL    HW217136   4.704   1.744   2.307 -1.6673  0.7430  1.0526
 1893SOL     OW17137   0.408   4.111   5.485 -0.1869  0.0940 -0.4000
 1893SOL    HW117138   0.347   4.091   5.557  0.5230  0.5582  0.3368
 1893SOL    HW217139   0.396   4.202   5.459 -1.5507 -0.1503 -0.6006
 1894SOL     OW17140   2.672   3.443  14.887 -0.2558 -0.7308 -0.4452
 1894SOL    HW117141   2.591   3.461  14.934 -0.2929 -2.1324  0.0289
 1894SOL    HW217142   2.720   3.387  14.948  0.2977  1.4962  1.1980
 1895SOL     OW17143   1.829   1.303   9.005 -0.1365 -0.2073 -0.5166
 1895SOL    HW117144   1.738   1.333   8.997 -0.5138 -1.5443 -1.2267
 1895SOL    HW217145   1.883   1.357   8.948 -1.3502  2.0329  0.4414
 1896SOL     OW17146   1.268   0.323   2.939  0.0771  0.4512  0.1670
 1896SOL    HW117147   1.316   0.248   2.973  0.4454  1.5694  2.1311
 1896SOL    HW217148   1.281   0.375   3.019 -0.2725 -0.5382  0.8672
 1897SOL     OW17149   4.392   0.525   3.585  0.2943  0.3611  0.3781
 1897SOL    HW117150   4.459   0.471   3.542  0.1727 -0.1299  0.8045
 1897SOL    HW217151   4.430   0.563   3.664  2.5578 -0.2111 -0.4205
 1898SOL     OW17152   3.042   3.887   7.809  0.1730  0.5698 -0.3927
 1898SOL    HW117153   2.993   3.809   7.782  0.0169  1.8635 -3.8691
 1898SOL    HW217154   2.971   3.951   7.798  0.5277  1.0797  0.2857
 1899SOL     OW17155   3.237   3.875   4.796  0.9949  0.1819  0.4928
 1899SOL    HW117156   3.309   3.939   4.792  1.2878 -0.1592  0.3282
 1899SOL    HW217157   3.233   3.850   4.888  1.2628 -0.2006  0.4016
 1900SOL     OW17158   3.215   1.903  11.724  0.4675 -0.5791 -0.0684
 1900SOL    HW117159   3.206   1.835  11.657 -1.5945  2.1758 -2.5583
 1900SOL    HW217160   3.143   1.884  11.784 -0.1369  1.3793 -0.2036
 1901SOL     OW17161   1.190   4.312   4.864 -0.3912 -0.1692 -0.0777
 1901SOL    HW117162   1.114   4.329   4.920 -1.6698  0.7948 -2.0714
 1901SOL    HW217163   1.254   4.372   4.903 -1.4576  1.2061 -0.4379
 1902SOL     OW17164   0.876   1.334   6.193 -0.1809  0.3933  0.1711
 1902SOL    HW117165   0.930   1.259   6.216 -0.5267  0.0143 -0.2580
 1902SOL    HW217166   0.796   1.289   6.166 -2.0220  2.6734  1.8314
 1903SOL     OW17167   2.361   1.317   4.604 -0.6649 -0.0840  0.3501
 1903SOL    HW117168   2.405   1.284   4.526  0.6850 -1.9627  1.9190
 1903SOL    HW217169   2.312   1.389   4.564  1.2897  0.4941 -1.0146
 1904SOL     OW17170   3.879   3.316  15.644  0.1409  0.2108 -0.4197
 1904SOL    HW117171   3.932   3.253  15.692  0.0695 -0.1190 -0.7671
 1904SOL    HW217172   3.819   3.344  15.712 -1.3744 -1.2662 -1.1440
 1905SOL     OW17173   4.025   0.197   2.849  0.1902 -0.8901 -0.0124
 1905SOL    HW117174   3.975   0.200   2.767 -0.6342 -0.4887  0.5141
 1905SOL    HW217175   4.090   0.127   2.840 -0.8216 -1.7133 -0.9855
 1906SOL     OW17176   0.171   3.265  12.107 -0.3606  0.9099 -0.6038
 1906SOL    HW117177   0.245   3.304  12.153  1.3559  0.7363 -3.2530
 1906SOL    HW217178   0.191   3.302  12.021  1.9134  0.3306 -0.3073
 1907SOL     OW17179   1.312   0.304  14.156 -0.3161  0.1969 -0.1608
 1907SOL    HW117180   1.225   0.278  14.185  0.5563  0.5045  2.7085
 1907SOL    HW217181   1.329   0.382  14.209 -0.1902  0.0497  0.0147
 1908SOL     OW17182   0.142   1.283  17.204 -0.3791  0.7237 -0.2068
 1908SOL    HW117183   0.175   1.194  17.187  0.2115  0.8838  0.0881
 1908SOL    HW217184   0.053   1.275  17.236 -1.6164  1.5079 -3.3919
 1909SOL     OW17185   4.355   1.623   8.044  0.7505 -0.3122 -0.3786
 1909SOL    HW117186   4.367   1.530   8.025 -0.3837 -1.2110  3.2580
 1909SOL    HW217187   4.295   1.662   7.980  0.6642 -1.1745 -0.8177
 1910SOL     OW17188   0.520   4.538  14.495  0.2291  0.3846 -0.0935
 1910SOL    HW117189   0.501   4.472  14.428  0.9878 -1.7648  1.7961
 1910SOL    HW217190   0.459   4.514  14.565 -1.2834 -2.4106 -2.4013
 1911SOL     OW17191   1.808   1.920   3.743  0.1202  0.2786 -0.3400
 1911SOL    HW117192   1.817   1.991   3.680  1.2271  0.0198 -0.4699
 1911SOL    HW217193   1.738   1.949   3.802 -1.3584 -2.9373 -0.4921
 1912SOL     OW17194   3.127   4.695  13.897  0.3904  0.0443 -0.1257
 1912SOL    HW117195   3.114   4.631  13.967 -0.6422  0.0673 -0.3029
 1912SOL    HW217196   3.128   0.051  13.954 -0.8338 -0.6125  0.7671
 1913SOL     OW17197   3.036   3.397  17.533 -0.0243 -0.1232 -0.0587
 1913SOL    HW117198   3.071   3.350  17.608  1.2356  2.1904  0.7816
 1913SOL    HW217199   3.071   3.483  17.556  1.6970 -0.8803  0.1514
 1914SOL     OW17200   3.724   2.818   3.376  0.1096 -0.0209  0.2031
 1914SOL    HW117201   3.786   2.877   3.333 -1.4824  0.4955 -1.3887
 1914SOL    HW217202   3.645   2.835   3.324  1.5091  1.6296 -1.4194
 1915SOL     OW17203   2.961   2.041  12.201  0.0815 -0.2502  0.1279
 1915SOL    HW117204   2.954   2.027  12.107 -0.1848 -0.4673  0.1795
 1915SOL    HW217205   2.927   2.129  12.213 -1.1783 -0.7614  0.3372
 1916SOL     OW17206   1.401   3.528  13.851  0.2427  0.0234  0.7485
 1916SOL    HW117207   1.433   3.513  13.940  1.2319 -2.1727  0.0225
 1916SOL    HW217208   1.360   3.442  13.837  1.4692 -0.7980  2.3178
 1917SOL     OW17209   0.799   4.359   0.295 -0.0601  0.2406 -0.0448
 1917SOL    HW117210   0.794   4.323   0.384 -0.0340  1.6130  0.5043
 1917SOL    HW217211   0.746   4.438   0.301 -0.1931  0.1819 -0.4418
 1918SOL     OW17212   2.285   2.854  15.677  0.1260  0.4200  0.3020
 1918SOL    HW117213   2.260   2.770  15.716 -0.4365  0.0993 -0.7352
 1918SOL    HW217214   2.303   2.824  15.587 -0.8090  0.1041  0.2265
 1919SOL     OW17215   3.376   3.191   2.787 -0.5981  0.5284  0.0152
 1919SOL    HW117216   3.415   3.278   2.782  3.0584 -1.0383  1.2745
 1919SOL    HW217217   3.303   3.189   2.725 -2.9717 -0.8606  2.8626
 1920SOL     OW17218   4.505   0.507   6.828 -0.0582  0.0146  0.4103
 1920SOL    HW117219   4.569   0.506   6.756  0.6701 -2.3930  1.1059
 1920SOL    HW217220   4.437   0.449   6.794 -1.2071 -0.2457  3.1884
 1921SOL     OW17221   1.669   3.722   5.071 -0.1081 -0.3301 -0.2476
 1921SOL    HW117222   1.691   3.643   5.022  0.8518 -0.5200  0.4747
 1921SOL    HW217223   1.731   3.724   5.145  1.9205 -0.3664 -1.9474
 1922SOL     OW17224   1.190   4.140   0.565 -0.2766  0.3404 -1.0679
 1922SOL    HW117225   1.168   4.056   0.524 -1.6556  0.5815 -0.8245
 1922SOL    HW217226   1.164   4.207   0.502  0.2865  1.3415 -0.2422
 1923SOL     OW17227   2.784   1.110   5.234 -0.4101 -0.3537  0.0217
 1923SOL    HW117228   2.701   1.150   5.208 -1.2461 -0.9195  1.8165
 1923SOL    HW217229   2.847   1.109   5.162 -0.2667  0.8789  0.1247
 1924SOL     OW17230   4.451   1.614   7.700  0.1739  0.0616  0.0763
 1924SOL    HW117231   4.363   1.584   7.720 -0.1315  2.7646  2.8072
 1924SOL    HW217232   4.474   1.650   7.785 -1.2614 -0.3899  0.6545
 1925SOL     OW17233   4.276   0.109   1.014 -0.1056  0.5982  0.4236
 1925SOL    HW117234   4.251   0.168   1.085 -1.9170 -0.8425  0.9747
 1925SOL    HW217235   4.199   0.112   0.958  0.1508 -1.0259 -0.0060
 1926SOL     OW17236   4.698   2.080   6.955 -0.0546 -0.0094  0.3159
 1926SOL    HW117237   4.680   2.031   7.035  3.5887  0.5986  1.5165
 1926SOL    HW217238   4.653   2.029   6.887 -0.2864 -1.9093  1.8934
 1927SOL     OW17239   2.785   4.086   6.465  0.1197  0.0285 -0.3982
 1927SOL    HW117240   2.702   4.134   6.476  1.2736  1.8934  0.0594
 1927SOL    HW217241   2.798   4.114   6.374  2.0540 -1.3598 -0.5531
 1928SOL     OW17242   4.604   3.688   0.740  0.2296 -0.4040  0.4286
 1928SOL    HW117243   4.693   3.657   0.727 -0.3813 -1.4294 -1.2883
 1928SOL    HW217244   4.598   3.766   0.684  0.8674 -0.5853  0.1132
 1929SOL     OW17245   0.668   1.183   7.130 -0.1474 -0.0927  0.2513
 1929SOL    HW117246   0.601   1.142   7.184  1.5326 -3.5849 -0.3691
 1929SOL    HW217247   0.642   1.274   7.149 -2.8847 -0.6558 -0.7725
 1930SOL     OW17248   2.323   0.642  16.586 -0.3413 -0.3150  0.0849
 1930SOL    HW117249   2.232   0.625  16.563 -0.2820 -1.4105  0.6642
 1930SOL    HW217250   2.331   0.733  16.558 -1.7765 -0.4482 -0.7262
 1931SOL     OW17251   3.130   2.632   3.905  0.2151  0.7493  0.4031
 1931SOL    HW117252   3.080   2.642   3.986 -1.5067  0.6623 -0.6450
 1931SOL    HW217253   3.158   2.720   3.880  0.3631  0.8124  0.8010
 1932SOL     OW17254   4.592   0.529   7.420 -0.1536  0.1872  0.2323
 1932SOL    HW117255   4.530   0.552   7.490 -1.7721  1.7010 -1.6951
 1932SOL    HW217256   4.667   0.490   7.464 -0.7148 -0.0892  0.9622
 1933SOL     OW17257   1.807   2.868  14.652  0.2707 -0.0328  0.5725
 1933SOL    HW117258   1.888   2.866  14.602  1.4336 -1.8361  2.5288
 1933SOL    HW217259   1.816   2.807  14.726 -1.4705  0.2719  1.0443
 1934SOL     OW17260   2.540   3.024   6.311 -0.0491  0.0097  0.0997
 1934SOL    HW117261   2.546   2.966   6.387 -0.3576 -1.7881 -1.2462
 1934SOL    HW217262   2.468   2.976   6.270  0.9739 -2.1006  0.7685
 1935SOL     OW17263   1.307   2.319   5.746 -0.2310  0.0482 -0.6934
 1935SOL    HW117264   1.341   2.306   5.658 -0.6956 -0.5720 -0.7786
 1935SOL    HW217265   1.358   2.256   5.798  0.0197  1.6882  1.0453
 1936SOL     OW17266   3.460   0.109   9.425 -0.3927  0.5128 -0.5699
 1936SOL    HW117267   3.509   0.072   9.498 -1.8962  1.0652  0.7121
 1936SOL    HW217268   3.381   0.057   9.436  0.3845 -0.9269 -1.6979
 1937SOL     OW17269   3.024   2.095   5.474 -0.6984 -0.6876 -0.0986
 1937SOL    HW117270   3.019   2.000   5.470  1.0377 -0.7437 -0.9003
 1937SOL    HW217271   2.967   2.118   5.401 -0.5630 -1.7067 -0.5270
 1938SOL     OW17272   0.002   1.609   2.068 -0.3313  0.2715  0.0676
 1938SOL    HW117273   4.703   1.700   2.090  2.6586  0.5731  1.5362
 1938SOL    HW217274   4.716   1.624   1.973  0.6536  1.8657  0.2480
 1939SOL     OW17275   2.856   1.692   1.336  0.7462  0.0788 -0.6368
 1939SOL    HW117276   2.830   1.667   1.425 -0.8968 -1.5611 -1.5794
 1939SOL    HW217277   2.799   1.633   1.288  0.2755 -0.2031  0.2631
 1940SOL     OW17278   0.382   0.122  11.397 -0.0020  0.4682 -0.1228
 1940SOL    HW117279   0.436   0.095  11.471 -2.4296 -2.4449  0.6092
 1940SOL    HW217280   0.322   0.047  11.391 -0.8966  1.1598  0.1601
 1941SOL     OW17281   3.843   4.408  14.850 -0.1625 -0.2388 -0.1511
 1941SOL    HW117282   3.904   4.339  14.878  0.0956  0.1872  0.3218
 1941SOL    HW217283   3.897   4.473  14.806  0.8800  0.0511  1.5828
 1942SOL     OW17284   0.464   3.362   8.634 -0.2520  0.1916  0.4278
 1942SOL    HW117285   0.467   3.267   8.622  1.1228  0.2934 -0.0317
 1942SOL    HW217286   0.437   3.385   8.545  2.3471 -0.4329 -0.5206
 1943SOL     OW17287   1.379   2.351   4.110 -0.2003 -0.0094  0.6265
 1943SOL    HW117288   1.417   2.408   4.044 -0.1028  0.6882  1.2747
 1943SOL    HW217289   1.359   2.278   4.052 -1.8357  0.8337  0.1293
 1944SOL     OW17290   4.147   0.801   4.090  0.1585  0.3664 -0.4066
 1944SOL    HW117291   4.108   0.885   4.066  0.2933  0.7885  0.8134
 1944SOL    HW217292   4.146   0.765   4.002 -0.5039 -0.9324  0.1275
 1945SOL     OW17293   0.712   4.622   4.115  0.0484 -0.4147  0.6962
 1945SOL    HW117294   0.794   4.576   4.132 -0.7114 -1.5170  1.4212
 1945SOL    HW217295   0.691   4.585   4.029 -1.6663 -1.2094  1.4417
 1946SOL     OW17296   1.652   2.330   2.884  0.2827  0.4404  0.3127
 1946SOL    HW117297   1.698   2.321   2.800 -1.5812 -0.4621 -0.6047
 1946SOL    HW217298   1.704   2.295   2.956 -2.7627 -1.6245  1.5095
 1947SOL     OW17299   3.435   4.269   3.733 -0.2959 -0.1274  0.6560
 1947SOL    HW117300   3.443   4.297   3.824  1.1840  0.7481  0.2528
 1947SOL    HW217301   3.407   4.350   3.689 -5.1536 -1.7096  0.8894
 1948SOL     OW17302   0.861   1.665  10.965  0.2496 -0.2514  0.2356
 1948SOL    HW117303   0.946   1.706  10.981  1.8786 -2.3485 -3.0146
 1948SOL    HW217304   0.805   1.699  11.034  1.2546 -1.0673  1.4496
 1949SOL     OW17305   0.042   1.684   3.876 -0.6609  0.4861 -0.2228
 1949SOL    HW117306   0.099   1.628   3.928  1.1781  1.4551 -1.1957
 1949SOL    HW217307   4.689   1.626   3.860  0.6363 -1.5222  1.1397
 1950SOL     OW17308   3.302   4.349  13.015  0.9247  0.0676  0.4529
 1950SOL    HW117309   3.363   4.284  12.981 -1.5334 -1.9512 -0.0964
 1950SOL    HW217310   3.235   4.297  13.058  2.6227 -1.9800  0.6080
 1951SOL     OW17311   3.666   3.489   9.421  0.1270  0.1856  0.1974
 1951SOL    HW117312   3.571   3.483   9.410  0.4486 -1.6853 -1.5820
 1951SOL    HW217313   3.687   3.419   9.483  2.3444 -0.5704 -1.4059
 1952SOL     OW17314   4.056   2.244   4.996  0.0548 -0.4531 -0.4696
 1952SOL    HW117315   4.043   2.168   5.052 -1.5589  1.0241  1.1601
 1952SOL    HW217316   3.982   2.299   5.021  1.5415  1.1563  0.4304
 1953SOL     OW17317   1.055   3.748   3.905 -0.4485 -0.0705  0.7173
 1953SOL    HW117318   1.140   3.704   3.906  0.3983  1.5155 -0.6256
 1953SOL    HW217319   1.077   3.822   3.848  0.3878 -1.1417 -0.3734
 1954SOL     OW17320   0.712   0.755   8.688  0.5429  0.0531  0.6236
 1954SOL    HW117321   0.796   0.796   8.668  0.8256 -0.1724  1.3564
 1954SOL    HW217322   0.706   0.783   8.779 -0.3723  0.7886  0.3376
 1955SOL     OW17323   4.696   0.381   7.630 -0.1272 -0.2096  0.2919
 1955SOL    HW117324   4.632   0.318   7.662 -1.0696  0.4540 -0.3053
 1955SOL    HW217325   4.685   0.452   7.692 -0.7600  0.8684 -1.0471
 1956SOL     OW17326   1.151   4.015   3.777  0.4302 -0.1702  0.3101
 1956SOL    HW117327   1.117   4.073   3.845 -1.1128 -2.9044  1.8716
 1956SOL    HW217328   1.143   4.079   3.706 -1.9490 -1.6646 -0.7577
 1957SOL     OW17329   0.553   1.996   0.126  0.3495 -0.0962  0.0200
 1957SOL    HW117330   0.604   1.936   0.180 -2.0906 -1.3559  0.9298
 1957SOL    HW217331   0.466   1.958   0.113  0.3627 -0.2622  0.4328
 1958SOL     OW17332   0.684   3.097   1.966  0.1305  0.4716 -0.2451
 1958SOL    HW117333   0.686   3.050   2.050  1.0683 -1.0049 -1.0894
 1958SOL    HW217334   0.613   3.045   1.929  1.1823  1.7767 -4.0272
 1959SOL     OW17335   2.175   2.714   7.240  0.1921 -0.8971 -0.3079
 1959SOL    HW117336   2.231   2.791   7.233  0.6221 -0.9594  2.1606
 1959SOL    HW217337   2.139   2.703   7.152 -1.2466 -0.8995  0.2762
 1960SOL     OW17338   0.048   2.729   7.940 -0.3430 -0.2166 -0.1619
 1960SOL    HW117339   4.681   2.706   7.972  0.4980 -1.2545  1.4407
 1960SOL    HW217340   0.038   2.748   7.847  1.0341 -1.8595 -0.6506
 1961SOL     OW17341   0.592   2.264   7.957  0.1629 -0.3241 -0.1657
 1961SOL    HW117342   0.603   2.270   7.862 -0.9861 -1.7231 -0.3944
 1961SOL    HW217343   0.529   2.331   7.984 -0.0489 -0.8358  0.6123
 1962SOL     OW17344   2.130   2.866  11.163 -0.3943 -0.3485  0.3766
 1962SOL    HW117345   2.138   2.953  11.203  4.6114 -0.4810 -0.4080
 1962SOL    HW217346   2.039   2.845  11.184 -0.5195 -2.3998 -2.2372
 1963SOL     OW17347   3.910   3.795   1.635  0.6258 -0.0341  0.4193
 1963SOL    HW117348   3.882   3.729   1.698  0.6632  0.6962  1.1922
 1963SOL    HW217349   3.832   3.809   1.581  0.7857 -0.5197  0.0582
 1964SOL     OW17350   2.904   1.652   7.990  0.2228 -0.1331 -0.2424
 1964SOL    HW117351   2.949   1.737   7.994 -1.8691  1.0498 -2.0847
 1964SOL    HW217352   2.852   1.654   8.071 -0.0210 -1.2821 -0.3804
 1965SOL     OW17353   4.576   1.535  16.292 -0.1153 -0.1500 -0.2136
 1965SOL    HW117354   4.626   1.488  16.358 -3.1191 -0.0911  2.1049
 1965SOL    HW217355   4.518   1.463  16.266 -0.0752 -0.5087  0.7094
 1966SOL     OW17356   2.936   1.699   9.406 -0.6749  0.2421 -0.6687
 1966SOL    HW117357   2.890   1.763   9.460  1.0421  1.0066 -0.1147
 1966SOL    HW217358   2.867   1.643   9.371 -0.6107 -0.8610  1.0026
 1967SOL     OW17359   3.009   4.438   7.321 -0.4219  0.0506  0.0410
 1967SOL    HW117360   2.964   4.358   7.349  1.0123 -1.2655 -1.4277
 1967SOL    HW217361   3.030   4.414   7.231 -0.5180  2.0120 -0.5032
 1968SOL     OW17362   0.604   3.062   5.980  0.2230 -0.4028 -0.5559
 1968SOL    HW117363   0.681   3.039   5.928  0.1609  0.0200 -0.8318
 1968SOL    HW217364   0.585   2.973   6.012 -6.2405  0.7558 -1.0133
 1969SOL     OW17365   1.775   2.442   9.082  0.3272 -0.1302  0.0954
 1969SOL    HW117366   1.728   2.365   9.116 -3.0791  0.3350 -3.5248
 1969SOL    HW217367   1.810   2.482   9.162 -2.1957 -1.1963  1.7766
 1970SOL     OW17368   4.435   0.317   2.032 -0.0887 -0.0228 -0.2563
 1970SOL    HW117369   4.395   0.229   2.028  0.3698 -0.2001 -0.8686
 1970SOL    HW217370   4.485   0.312   2.114 -1.9660 -1.2490  0.8284
 1971SOL     OW17371   4.410   3.998  14.223  0.4034 -0.4019  0.5216
 1971SOL    HW117372   4.495   4.019  14.260  1.7440  0.0139 -2.8327
 1971SOL    HW217373   4.389   3.920  14.274 -2.2882 -0.2231 -0.2781
 1972SOL     OW17374   1.600   0.719   4.575  0.8197 -0.6216 -0.1253
 1972SOL    HW117375   1.620   0.668   4.497 -1.2579 -0.2207 -0.9296
 1972SOL    HW217376   1.509   0.743   4.560  0.7141 -1.2571 -0.5134
 1973SOL     OW17377   3.880   0.264  16.068 -0.1474  0.0431 -0.2549
 1973SOL    HW117378   3.876   0.338  16.129  1.1469 -1.2262  1.3650
 1973SOL    HW217379   3.825   0.300  15.998 -1.7004 -2.9155 -0.5610
 1974SOL     OW17380   3.525   4.162   4.970  0.2165 -0.4206  0.2083
 1974SOL    HW117381   3.470   4.229   5.010 -0.3154 -0.7099 -0.0468
 1974SOL    HW217382   3.562   4.116   5.045  1.7521 -2.4420 -1.7921
 1975SOL     OW17383   2.349   4.004  10.057  0.4894  0.1178 -0.2083
 1975SOL    HW117384   2.329   4.011  10.150 -1.7068 -0.3591 -0.6682
 1975SOL    HW217385   2.261   4.010  10.020  0.4190 -0.6329 -0.1604
 1976SOL     OW17386   1.384   0.848   8.941  0.3150  0.5946 -0.2184
 1976SOL    HW117387   1.463   0.795   8.943 -0.0178  0.0929 -0.2580
 1976SOL    HW217388   1.392   0.912   9.012 -1.1188  0.2016  0.2940
 1977SOL     OW17389   4.053   3.895   2.121 -0.0377 -0.0810 -0.0429
 1977SOL    HW117390   4.023   3.829   2.184 -2.8677  1.2398 -0.0267
 1977SOL    HW217391   3.967   3.933   2.099  0.5576  0.1671 -1.9631
 1978SOL     OW17392   4.395   3.711   4.797 -0.5027  0.2902 -0.3654
 1978SOL    HW117393   4.368   3.655   4.724 -1.1055 -0.8266  0.7016
 1978SOL    HW217394   4.349   3.671   4.871 -0.6905 -0.3576 -0.8304
 1979SOL     OW17395   4.261   4.543  10.752 -0.6549  0.2746  0.8572
 1979SOL    HW117396   4.295   4.524  10.840  0.7854  1.7572  0.6375
 1979SOL    HW217397   4.221   4.627  10.775 -1.5112  0.8972 -2.9236
 1980SOL     OW17398   0.415   1.545   2.637 -0.2728  0.0348  0.2575
 1980SOL    HW117399   0.369   1.629   2.634  1.6072  1.0222 -0.8506
 1980SOL    HW217400   0.505   1.565   2.611 -0.2444 -0.4441 -0.0159
 1981SOL     OW17401   2.823   3.094  12.714  0.1299  0.0581 -0.3197
 1981SOL    HW117402   2.833   3.117  12.621  0.2888  0.7509 -0.1283
 1981SOL    HW217403   2.831   3.183  12.749 -0.5455  0.4951 -1.2577
 1982SOL     OW17404   1.053   1.953  13.087 -0.2003 -0.4627  0.2375
 1982SOL    HW117405   1.093   1.927  13.170  0.6918  0.9104  0.2336
 1982SOL    HW217406   1.127   1.930  13.031 -1.1483 -0.9605 -0.8143
 1983SOL     OW17407   0.259   0.634  15.718  0.1254 -0.4013  0.2155
 1983SOL    HW117408   0.286   0.720  15.686  1.6423 -1.2537 -0.7781
 1983SOL    HW217409   0.341   0.588  15.731  0.6242  0.5250  0.3335
 1984SOL     OW17410   4.350   1.784   3.002 -0.3835 -0.0766 -0.2000
 1984SOL    HW117411   4.407   1.763   3.075  1.4448 -0.4018 -1.7224
 1984SOL    HW217412   4.329   1.875   3.022  0.8453  0.6158 -2.0300
 1985SOL     OW17413   4.395   3.709   1.143 -0.9643 -0.1375 -0.4567
 1985SOL    HW117414   4.487   3.726   1.163 -0.6774 -2.1221 -0.0556
 1985SOL    HW217415   4.404   3.732   1.050 -1.9153 -0.0183 -0.5256
 1986SOL     OW17416   3.658   4.110   2.724 -0.3149 -0.8293 -0.2533
 1986SOL    HW117417   3.718   4.040   2.697 -0.2166 -0.3615 -1.2148
 1986SOL    HW217418   3.589   4.054   2.759 -1.3047  0.2587 -0.4950
 1987SOL     OW17419   4.135   3.327   8.428 -0.3846 -0.9407 -0.0010
 1987SOL    HW117420   4.156   3.256   8.367 -0.7246 -0.7802 -0.3022
 1987SOL    HW217421   4.043   3.306   8.443 -0.1004 -2.7368 -0.6973
 1988SOL     OW17422   3.203   4.205   5.266 -0.0361  0.2563  0.7136
 1988SOL    HW117423   3.121   4.213   5.218  0.0918 -0.3263  0.3912
 1988SOL    HW217424   3.250   4.247   5.194 -2.6150 -2.0489 -2.2830
 1989SOL     OW17425   3.174   1.560  14.088  0.1161 -0.0913 -0.1758
 1989SOL    HW117426   3.094   1.605  14.114 -0.0319 -0.8161  0.6352
 1989SOL    HW217427   3.224   1.640  14.079  0.6572 -0.3692  0.3826
 1990SOL     OW17428   3.989   0.375   7.732 -0.2184 -0.5319 -0.1383
 1990SOL    HW117429   3.978   0.403   7.823  0.1087  1.6028 -0.7561
 1990SOL    HW217430   3.920   0.310   7.727  1.9585 -2.9842  1.7916
 1991SOL     OW17431   1.423   2.751   5.703  0.2060  0.5311 -0.0219
 1991SOL    HW117432   1.445   2.663   5.735 -0.9887  1.4067  3.1000
 1991SOL    HW217433   1.502   2.773   5.653  0.9842 -1.1156  0.4845
 1992SOL     OW17434   4.561   4.151   7.022  0.0049  0.2320 -0.3171
 1992SOL    HW117435   4.476   4.139   6.981  1.2160  0.9925 -3.0021
 1992SOL    HW217436   4.612   4.080   6.984 -1.2429 -1.0909  0.4873
 1993SOL     OW17437   4.021   3.300   8.092 -0.0507 -0.5346  0.0999
 1993SOL    HW117438   4.096   3.294   8.033 -0.8093 -0.7402 -0.8593
 1993SOL    HW217439   4.033   3.217   8.139 -1.3782  0.1804  1.6798
 1994SOL     OW17440   3.607   3.788  13.025 -0.1337 -0.8049 -0.6078
 1994SOL    HW117441   3.691   3.825  12.999  0.8048 -1.8802  0.9236
 1994SOL    HW217442   3.562   3.860  13.069  0.5405 -0.7566 -0.0049
 1995SOL     OW17443   2.708   4.044   1.434 -0.3643  0.7448 -0.5526
 1995SOL    HW117444   2.737   4.100   1.506 -0.1145  0.9314 -0.7967
 1995SOL    HW217445   2.678   3.968   1.483  1.3969  0.7730  0.5727
 1996SOL     OW17446   1.722   1.500  17.209  0.4339 -0.4718  0.0947
 1996SOL    HW117447   1.710   1.447  17.129 -1.4939 -0.7940  0.6019
 1996SOL    HW217448   1.776   1.573  17.179  0.0763 -0.4383 -0.4794
 1997SOL     OW17449   1.481   1.230   6.427  0.1465 -0.0098 -0.0819
 1997SOL    HW117450   1.516   1.274   6.349 -3.4506 -0.1921 -1.7967
 1997SOL    HW217451   1.542   1.157   6.434  2.6039  1.9453 -1.0086
 1998SOL     OW17452   3.809   0.303   0.541  0.2214 -0.1636 -0.3004
 1998SOL    HW117453   3.848   0.387   0.516 -1.6411  0.7653 -0.0609
 1998SOL    HW217454   3.885   0.248   0.520 -1.1819 -1.6369 -1.5096
 1999SOL     OW17455   4.337   3.610   3.051  0.3113 -0.3909  0.3276
 1999SOL    HW117456   4.419   3.564   3.072  2.1384  1.8923 -1.7864
 1999SOL    HW217457   4.309   3.641   3.137 -1.6817  1.9354 -1.1465
 2000SOL     OW17458   4.005   1.280   5.155  0.4664  0.3119 -0.0834
 2000SOL    HW117459   3.943   1.336   5.202  0.3729  0.6886 -0.6559
 2000SOL    HW217460   4.016   1.212   5.222  0.8200 -0.1604 -0.6237
 2001SOL     OW17461   2.038   4.002   3.913 -0.0196  0.1295 -0.3590
 2001SOL    HW117462   2.006   3.971   3.828 -1.2615 -0.6542  0.3857
 2001SOL    HW217463   1.959   3.993   3.966  1.0959 -0.1939  1.2642
 2002SOL     OW17464   0.841   4.658   3.173 -0.2597  0.0864  0.1931
 2002SOL    HW117465   0.812   0.018   3.132  2.5430 -0.0604 -2.1190
 2002SOL    HW217466   0.852   4.686   3.264 -1.9670  1.1770  0.0489
 2003SOL     OW17467   1.394   3.297   5.466  0.3264 -0.2493  0.1037
 2003SOL    HW117468   1.367   3.290   5.375  0.3848  3.2437 -0.1726
 2003SOL    HW217469   1.482   3.334   5.468  0.1882  0.1385 -1.3469
 2004SOL     OW17470   2.898   3.749  12.330 -0.5352  0.2531 -0.3362
 2004SOL    HW117471   2.896   3.845  12.332  2.2150  0.2777  0.4777
 2004SOL    HW217472   2.978   3.728  12.379 -0.6453  0.9641  0.1575
 2005SOL     OW17473   0.012   1.590   4.924 -0.0318  0.8990  0.2774
 2005SOL    HW117474   0.064   1.652   4.872  1.0325  1.1625  1.6759
 2005SOL    HW217475   0.063   1.513   4.900  0.8640  2.3997 -2.6316
 2006SOL     OW17476   1.653   2.841   1.286 -0.1961 -0.1274 -0.0801
 2006SOL    HW117477   1.657   2.936   1.288 -1.4986 -0.0423 -1.7848
 2006SOL    HW217478   1.584   2.822   1.222 -0.5501  1.5242 -0.1712
 2007SOL     OW17479   3.324   4.033  15.262  0.2537 -0.2563 -0.2314
 2007SOL    HW117480   3.363   4.017  15.348 -1.1760 -1.2812  0.2074
 2007SOL    HW217481   3.354   4.122  15.242 -1.8035  0.7405  1.0634
 2008SOL     OW17482   1.189   1.948   2.812 -0.4013 -0.2385  0.4045
 2008SOL    HW117483   1.181   1.914   2.723  2.5032 -2.9708  1.1503
 2008SOL    HW217484   1.100   1.980   2.823 -1.2198 -2.4481  0.3109
 2009SOL     OW17485   3.938   0.690  14.657 -0.5259  0.3797 -0.1339
 2009SOL    HW117486   3.898   0.656  14.737  0.7040  0.4945  0.5375
 2009SOL    HW217487   4.029   0.667  14.676  0.6966  2.7373 -3.2058
 2010SOL     OW17488   4.484   2.148   3.533 -0.8133  0.3979 -0.2332
 2010SOL    HW117489   4.519   2.217   3.477  1.4059  0.7693  1.6252
 2010SOL    HW217490   4.501   2.069   3.482  1.6123 -0.0655  1.2662
 2011SOL     OW17491   0.397   1.362  17.370  0.2638  0.3135 -0.1775
 2011SOL    HW117492   0.344   1.404  17.438 -1.8321 -1.7077 -0.5685
 2011SOL    HW217493   0.345   1.287  17.343  1.1532 -1.1171  2.1334
 2012SOL     OW17494   2.817   2.984  17.430 -0.5624 -0.0822  0.3110
 2012SOL    HW117495   2.906   3.019  17.433 -0.6082  0.1130 -0.5299
 2012SOL    HW217496   2.797   3.012  17.340  1.4162  1.1300  0.2471
 2013SOL     OW17497   0.766   2.270  16.244  0.1949  0.5838  0.2521
 2013SOL    HW117498   0.831   2.200  16.242 -1.7060 -1.2072  0.9987
 2013SOL    HW217499   0.694   2.237  16.190 -1.3344 -0.5599  2.9970
 2014SOL     OW17500   4.085   0.775   4.495 -0.0956 -0.3416 -0.5432
 2014SOL    HW117501   4.062   0.690   4.532 -1.4257  0.6637  0.9340
 2014SOL    HW217502   4.021   0.772   4.423 -0.3560 -1.6690 -0.2559
 2015SOL     OW17503   4.362   1.903   6.577  0.2580  0.2046  0.1114
 2015SOL    HW117504   4.443   1.942   6.545  1.0602 -2.2130 -0.8342
 2015SOL    HW217505   4.359   1.937   6.666  2.8418 -0.7392  0.5452
 2016SOL     OW17506   3.294   2.282   7.659 -0.4641 -0.6295  0.1016
 2016SOL    HW117507   3.249   2.350   7.709  0.3883  0.1038 -0.1215
 2016SOL    HW217508   3.326   2.233   7.735 -1.3958  0.1231  0.9892
 2017SOL     OW17509   2.212   2.652   6.456  0.1616 -0.0447 -0.3175
 2017SOL    HW117510   2.177   2.571   6.420 -1.0932 -0.0912  0.9739
 2017SOL    HW217511   2.133   2.706   6.469 -0.3866 -0.3868 -2.1787
 2018SOL     OW17512   2.647   3.192  10.810 -0.1751  0.5662  0.7692
 2018SOL    HW117513   2.734   3.220  10.837  0.3723 -0.7851  0.3944
 2018SOL    HW217514   2.595   3.257  10.857 -0.7077 -0.7126  1.9620
 2019SOL     OW17515   2.430   4.339   2.059 -0.3159 -0.5904  0.8613
 2019SOL    HW117516   2.359   4.343   1.995  1.2710  0.7189 -0.7963
 2019SOL    HW217517   2.509   4.372   2.017 -0.3455  0.0144  1.2748
 2020SOL     OW17518   4.437   0.668   1.187 -0.1001  0.1970  0.0414
 2020SOL    HW117519   4.429   0.587   1.237  1.1624  0.1118  0.1139
 2020SOL    HW217520   4.484   0.716   1.255 -1.6138  1.5930  0.1059
 2021SOL     OW17521   3.859   0.126   7.743 -0.3436  0.0304 -0.3714
 2021SOL    HW117522   3.861   0.076   7.662  1.5965 -0.3318 -0.1022
 2021SOL    HW217523   3.946   0.107   7.779 -0.6805 -0.1660  0.3592
 2022SOL     OW17524   1.177   2.319  11.014 -0.9305 -0.1753 -0.5167
 2022SOL    HW117525   1.102   2.259  11.010 -0.3901 -0.8946  0.2247
 2022SOL    HW217526   1.218   2.282  11.092 -0.6137  0.2037 -0.5054
 2023SOL     OW17527   1.870   4.359   9.088 -0.8585 -0.0378  0.7931
 2023SOL    HW117528   1.798   4.406   9.046  1.2352  1.4136 -1.1515
 2023SOL    HW217529   1.948   4.400   9.052 -0.6885  0.3117  1.5743
 2024SOL     OW17530   2.506   1.379   4.870  0.1049 -0.4774  0.1282
 2024SOL    HW117531   2.489   1.453   4.811  2.0154 -1.3648 -1.5414
 2024SOL    HW217532   2.446   1.311   4.840  2.1988 -2.0487 -0.5208
 2025SOL     OW17533   2.667   0.323   2.646 -0.3566  0.6323 -0.1619
 2025SOL    HW117534   2.590   0.273   2.671 -0.7701  2.4438  2.1718
 2025SOL    HW217535   2.661   0.313   2.551 -0.1969 -1.7847  0.0835
 2026SOL     OW17536   4.684   0.510  16.262 -0.1319  0.3152  0.5907
 2026SOL    HW117537   4.588   0.508  16.257 -0.1109  0.9664  0.0768
 2026SOL    HW217538   4.705   0.417  16.270  2.1889  0.8673  0.7863
 2027SOL     OW17539   3.105   3.678   4.665  0.2314  0.3829 -0.5125
 2027SOL    HW117540   3.185   3.724   4.690  0.1514 -0.4059  1.2390
 2027SOL    HW217541   3.143   3.596   4.634  1.9070  0.6538  0.8301
 2028SOL     OW17542   2.873   2.391   6.080 -0.5660 -0.0485 -0.2602
 2028SOL    HW117543   2.841   2.325   6.142 -0.7461  0.3399  0.0588
 2028SOL    HW217544   2.801   2.454   6.068 -0.3580  0.6268  2.1207
 2029SOL     OW17545   4.705   2.377   7.792 -0.2069 -0.4246 -0.3631
 2029SOL    HW117546   4.660   2.368   7.876  1.7858 -1.2590  0.6308
 2029SOL    HW217547   4.642   2.437   7.752  0.3058  0.6770  0.4925
 2030SOL     OW17548   1.926   4.295   8.747 -0.2123 -0.2178 -0.0143
 2030SOL    HW117549   1.970   4.212   8.732  1.1313  0.1769  1.8231
 2030SOL    HW217550   1.836   4.271   8.724  0.5086 -1.8262 -1.1444
 2031SOL     OW17551   2.601   0.746   9.383  0.1536 -0.2068 -0.8308
 2031SOL    HW117552   2.581   0.776   9.472  2.2659  0.7692 -0.6856
 2031SOL    HW217553   2.556   0.662   9.384 -1.9646  0.9302 -0.6548
 2032SOL     OW17554   2.462   3.980   2.921  0.4148 -0.0631  0.2126
 2032SOL    HW117555   2.371   4.010   2.920  0.6464  0.7085  2.2885
 2032SOL    HW217556   2.448   3.930   3.002  1.4940 -0.6272  0.0390
 2033SOL     OW17557   2.321   3.878   6.123 -0.5486 -0.3644  0.1048
 2033SOL    HW117558   2.277   3.794   6.136 -0.9158 -0.4300 -1.6557
 2033SOL    HW217559   2.344   3.873   6.030 -0.4268  0.3936  0.0971
 2034SOL     OW17560   3.765   0.291   7.443 -0.0512  0.5250  0.9609
 2034SOL    HW117561   3.677   0.283   7.405  0.7905  0.3057 -0.9495
 2034SOL    HW217562   3.783   0.197   7.447  0.6302  0.5803 -1.1515
 2035SOL     OW17563   3.274   3.108   7.424  0.0874  0.0834 -0.0490
 2035SOL    HW117564   3.242   3.145   7.506 -0.2028 -0.3940  0.0540
 2035SOL    HW217565   3.335   3.173   7.390  0.3334 -0.5213 -0.7772
 2036SOL     OW17566   2.770   3.847   2.087 -0.2165  0.3688 -0.2756
 2036SOL    HW117567   2.697   3.852   2.025  0.3279  3.1673 -0.7076
 2036SOL    HW217568   2.715   3.801   2.151 -0.8826  1.6208  0.0556
 2037SOL     OW17569   1.868   0.222  16.233 -0.5227 -0.8039  0.1051
 2037SOL    HW117570   1.859   0.305  16.186  1.3771 -1.8379 -2.0812
 2037SOL    HW217571   1.781   0.212  16.273  0.4092 -1.2345  1.9988
 2038SOL     OW17572   4.001   2.707   1.956 -0.0512 -0.3683  0.6375
 2038SOL    HW117573   3.963   2.793   1.975  0.3106 -0.2422  0.7912
 2038SOL    HW217574   3.925   2.656   1.928  0.4147  0.3293 -1.8714
 2039SOL     OW17575   2.638   3.991  10.158 -0.1160 -0.5598  0.4061
 2039SOL    HW117576   2.543   3.978  10.149 -0.0044 -2.0394  1.2182
 2039SOL    HW217577   2.670   3.923  10.099  0.0906  1.4422 -1.7864
 2040SOL     OW17578   4.581   2.317   8.016  0.1318 -0.2303 -0.0465
 2040SOL    HW117579   4.506   2.338   8.072 -0.6362 -3.1081  0.0094
 2040SOL    HW217580   4.562   2.225   7.997 -0.5108  0.0048 -0.5443
 2041SOL     OW17581   2.452   4.346   1.461  0.2897 -0.5917 -0.5437
 2041SOL    HW117582   2.475   4.418   1.401  0.3754  0.6624  1.0002
 2041SOL    HW217583   2.458   4.272   1.401 -0.6662 -0.9231 -0.2359
 2042SOL     OW17584   3.651   1.206   1.464 -0.1553  0.2176  0.7231
 2042SOL    HW117585   3.733   1.175   1.426 -0.4640 -1.0575  1.0978
 2042SOL    HW217586   3.671   1.199   1.557 -2.9798 -0.7373  1.2656
 2043SOL     OW17587   2.907   1.573  10.128 -0.2214 -0.0448  0.3216
 2043SOL    HW117588   2.887   1.479  10.120  2.1328 -0.5147 -0.1605
 2043SOL    HW217589   2.978   1.572  10.192  0.1272 -2.3635 -0.0783
 2044SOL     OW17590   2.747   0.842  11.811 -0.2330 -0.3710  0.4101
 2044SOL    HW117591   2.740   0.922  11.864  0.5705 -0.2228  0.2910
 2044SOL    HW217592   2.821   0.792  11.847  0.2989 -0.9622 -1.5300
 2045SOL     OW17593   0.351   1.645   4.657 -0.0870 -0.1918 -0.4295
 2045SOL    HW117594   0.270   1.686   4.688  0.6691  0.7709  0.2833
 2045SOL    HW217595   0.404   1.724   4.648 -1.2272  0.1149 -4.4401
 2046SOL     OW17596   2.580   4.209   9.032  0.0623  0.0291  0.1556
 2046SOL    HW117597   2.654   4.177   9.083  0.8180  0.1171 -0.9031
 2046SOL    HW217598   2.524   4.232   9.107  0.3166 -0.5025  0.5088
 2047SOL     OW17599   1.298   0.953   8.685  0.0473  0.5208  0.7503
 2047SOL    HW117600   1.336   0.900   8.755 -1.1307  0.9671  1.7335
 2047SOL    HW217601   1.336   1.038   8.710 -0.3481  1.1939 -0.9623
 2048SOL     OW17602   2.567   3.307  14.312 -0.0303 -0.2031 -0.2311
 2048SOL    HW117603   2.588   3.325  14.221  0.0249 -1.0088 -0.3788
 2048SOL    HW217604   2.577   3.212  14.308 -1.7983 -0.3685 -0.9472
 2049SOL     OW17605   3.477   2.212   7.477  0.0326 -0.0108  0.3962
 2049SOL    HW117606   3.413   2.186   7.411  0.1156 -0.2259  0.4003
 2049SOL    HW217607   3.414   2.252   7.536 -0.0703 -0.4549  0.5846
 2050SOL     OW17608   1.678   3.882   3.611 -0.1373  0.2787 -0.6677
 2050SOL    HW117609   1.684   3.935   3.691  2.2137 -0.8737 -0.0650
 2050SOL    HW217610   1.684   3.948   3.542  1.1558  0.7200 -0.1449
 2051SOL     OW17611   0.799   4.659  16.095  0.5196 -0.3250 -0.0893
 2051SOL    HW117612   0.712   4.633  16.065  0.2846 -0.2045  0.4780
 2051SOL    HW217613   0.808   0.011  16.034  0.2270 -0.2396 -0.0307
 2052SOL     OW17614   0.590   3.830  14.499  0.5479  0.7403 -0.0978
 2052SOL    HW117615   0.576   3.785  14.417  1.2379  2.0318 -0.9294
 2052SOL    HW217616   0.669   3.788  14.534 -0.3798 -0.2836  0.7504
 2053SOL     OW17617   2.709   1.483  16.129 -0.5289 -0.2568 -0.2906
 2053SOL    HW117618   2.678   1.554  16.185 -0.5323  0.4946 -1.2345
 2053SOL    HW217619   2.780   1.532  16.087  0.8179 -0.4979  1.7304
 2054SOL     OW17620   0.250   3.871   7.990  0.2119  0.0430 -0.6769
 2054SOL    HW117621   0.173   3.913   7.953 -0.6028 -2.0917 -1.4313
 2054SOL    HW217622   0.296   3.949   8.021  0.5579  0.1979 -1.5769
 2055SOL     OW17623   0.988   1.054  13.617  0.4072  0.5315 -0.4931
 2055SOL    HW117624   1.020   0.998  13.688 -0.3720  0.0779 -0.5032
 2055SOL    HW217625   0.924   1.104  13.666 -1.0837 -2.5105  0.6786
 2056SOL     OW17626   4.583   0.870   1.270  0.3232 -0.5193  0.7181
 2056SOL    HW117627   4.612   0.841   1.184  0.3957  2.1843 -0.1521
 2056SOL    HW217628   4.624   0.956   1.272 -2.9176  0.9593  3.2181
 2057SOL     OW17629   0.626   3.793   7.780 -0.8677 -0.5201 -0.9023
 2057SOL    HW117630   0.624   3.881   7.743 -3.4667 -0.6119 -0.9746
 2057SOL    HW217631   0.689   3.754   7.719  1.3992 -1.2264  1.8376
 2058SOL     OW17632   1.855   3.829   3.270  0.1302 -0.0150  0.2322
 2058SOL    HW117633   1.761   3.816   3.277 -0.1742  2.3883  0.4613
 2058SOL    HW217634   1.866   3.806   3.178 -1.1779  1.4194 -0.2761
 2059SOL     OW17635   3.446   3.090   4.894 -0.3480 -0.3574 -0.3090
 2059SOL    HW117636   3.515   3.046   4.943 -0.3850 -0.3853 -0.2818
 2059SOL    HW217637   3.459   3.050   4.808 -0.2491  1.3210 -1.0715
 2060SOL     OW17638   1.627   1.618   8.397 -0.0969  0.0974  0.3282
 2060SOL    HW117639   1.589   1.659   8.319  0.7137  1.2800  0.5535
 2060SOL    HW217640   1.706   1.669   8.413  0.7893 -0.8638 -1.0356
 2061SOL     OW17641   2.714   2.372   4.794 -0.8631  0.8320  0.8470
 2061SOL    HW117642   2.754   2.367   4.707 -0.9776  1.1798  0.7733
 2061SOL    HW217643   2.624   2.339   4.781 -0.8067  1.1735 -0.4176
 2062SOL     OW17644   1.676   1.437   6.868 -0.4272 -0.2183  0.4391
 2062SOL    HW117645   1.616   1.396   6.805 -0.5646  1.2101 -0.3601
 2062SOL    HW217646   1.629   1.521   6.869  1.1188  0.6386  0.5065
 2063SOL     OW17647   1.773   0.809  16.970 -0.1481 -0.1362  0.5721
 2063SOL    HW117648   1.769   0.764  16.886  3.0473 -1.6402  1.2245
 2063SOL    HW217649   1.836   0.750  17.011  1.7841 -0.0605 -2.2443
 2064SOL     OW17650   4.040   2.669  15.431  0.3099  0.3824  0.6251
 2064SOL    HW117651   3.958   2.708  15.461  0.3080  0.6713  0.2568
 2064SOL    HW217652   4.089   2.673  15.513 -1.3396 -1.8904  1.6950
 2065SOL     OW17653   0.656   0.293   6.606 -0.0485 -0.2354 -0.1173
 2065SOL    HW117654   0.640   0.211   6.652  1.1646 -0.6403 -0.4025
 2065SOL    HW217655   0.729   0.265   6.550 -0.2502 -0.7493 -0.1203
 2066SOL     OW17656   3.877   1.289   6.606  0.3509 -0.1246  0.1231
 2066SOL    HW117657   3.931   1.362   6.577 -4.1820  2.0693 -2.7365
 2066SOL    HW217658   3.884   1.293   6.701 -2.2466  0.1170  0.3020
 2067SOL     OW17659   3.884   1.531  13.891  0.1875  0.0032 -0.2506
 2067SOL    HW117660   3.789   1.539  13.894  0.1640 -0.0787 -0.7213
 2067SOL    HW217661   3.904   1.570  13.806  0.4242 -1.2637 -0.7902
 2068SOL     OW17662   4.167   0.675   9.640  0.2871 -0.1293  0.1204
 2068SOL    HW117663   4.229   0.633   9.700 -1.4797 -0.5911  1.6289
 2068SOL    HW217664   4.140   0.744   9.702 -3.2982 -2.1383  0.7654
 2069SOL     OW17665   2.660   4.359   0.732  0.3374 -0.1909 -0.2943
 2069SOL    HW117666   2.676   4.323   0.644 -0.8216 -0.2205 -0.4856
 2069SOL    HW217667   2.579   4.314   0.757  1.3667 -2.2269 -0.5590
 2070SOL     OW17668   4.621   1.157   8.469 -0.4397 -0.3814 -0.6011
 2070SOL    HW117669   4.531   1.185   8.450 -0.3195 -0.5727 -1.4371
 2070SOL    HW217670   4.639   1.096   8.398 -0.4788 -2.4342  1.1581
 2071SOL     OW17671   0.774   2.470   4.875  0.6593  0.1222 -0.3841
 2071SOL    HW117672   0.697   2.452   4.929 -0.7232  1.1556 -2.0286
 2071SOL    HW217673   0.738   2.504   4.794  0.9503  1.5276  0.0705
 2072SOL     OW17674   0.605   1.293   1.408 -0.6699 -0.3068  1.1326
 2072SOL    HW117675   0.580   1.384   1.390 -0.0341 -0.6057 -1.2327
 2072SOL    HW217676   0.616   1.290   1.503  1.2266 -0.2277  0.9155
 2073SOL     OW17677   1.010   4.533  12.926 -0.1815  0.3004  0.4171
 2073SOL    HW117678   0.994   4.442  12.951 -1.7923  0.3516 -0.4124
 2073SOL    HW217679   0.978   4.538  12.836  1.0373 -1.2296 -0.1016
 2074SOL     OW17680   1.617   3.111   5.041  0.2393 -0.1691  0.4809
 2074SOL    HW117681   1.610   3.054   4.964  0.8756  0.0635  0.2498
 2074SOL    HW217682   1.609   3.046   5.111 -0.5581  0.7949  1.2770
 2075SOL     OW17683   3.937   0.533   9.561 -0.0903 -0.3951  0.1400
 2075SOL    HW117684   3.858   0.587   9.562  1.3008  1.6279  0.6376
 2075SOL    HW217685   4.000   0.600   9.588  0.4613  0.1997 -2.6436
 2076SOL     OW17686   1.610   3.684  15.623 -0.3876 -0.6697 -0.6772
 2076SOL    HW117687   1.704   3.702  15.629 -1.0628  3.0034 -0.8722
 2076SOL    HW217688   1.608   3.593  15.651 -1.0979 -0.2603  0.5971
 2077SOL     OW17689   3.543   4.262  11.685  0.5482  0.0435 -0.3998
 2077SOL    HW117690   3.529   4.203  11.758 -0.2265  2.2567  1.2503
 2077SOL    HW217691   3.635   4.283  11.698  0.5211 -2.2186  3.3774
 2078SOL     OW17692   1.289   3.272  13.877  0.4732  0.1919  0.2732
 2078SOL    HW117693   1.250   3.257  13.963  0.3195  1.4326  0.4169
 2078SOL    HW217694   1.367   3.217  13.883  0.3104 -0.1134 -0.4080
 2079SOL     OW17695   0.424   0.841  12.353  0.0281 -0.0577 -0.1765
 2079SOL    HW117696   0.423   0.915  12.412  0.4478 -0.4554  0.3347
 2079SOL    HW217697   0.464   0.775  12.409 -0.5235  0.6664  1.0611
 2080SOL     OW17698   3.823   3.174  11.131  0.4520  0.4342  0.1176
 2080SOL    HW117699   3.875   3.235  11.184 -0.9748  1.8230 -0.1258
 2080SOL    HW217700   3.738   3.177  11.175  0.3187  0.6212 -0.1563
 2081SOL     OW17701   2.439   0.120  15.817  0.0440 -0.2286  0.5646
 2081SOL    HW117702   2.474   0.169  15.891  0.2591  2.3273 -1.2296
 2081SOL    HW217703   2.388   0.190  15.775  0.0813 -1.3176 -1.2782
 2082SOL     OW17704   4.050   1.201   7.013  0.2569 -0.4595  0.5429
 2082SOL    HW117705   4.103   1.136   6.967  0.1127  0.2962 -0.7220
 2082SOL    HW217706   3.962   1.191   6.975  1.9998 -1.3345 -3.2851
 2083SOL     OW17707   0.599   2.914   5.645  0.7125  0.3258 -0.3202
 2083SOL    HW117708   0.559   2.893   5.561  2.6871 -0.5486 -1.0357
 2083SOL    HW217709   0.663   2.844   5.638  1.1165  0.8891 -2.1678
 2084SOL     OW17710   3.736   1.584   9.505  0.4944  0.2983 -0.6059
 2084SOL    HW117711   3.710   1.662   9.457  2.8487  0.1720 -2.0787
 2084SOL    HW217712   3.663   1.529   9.478  0.7634 -0.5011  0.2641
 2085SOL     OW17713   4.514   2.947   4.856  0.1415 -0.0632  0.5130
 2085SOL    HW117714   4.531   2.981   4.768  1.9367 -0.0245  0.8745
 2085SOL    HW217715   4.439   3.004   4.878 -1.6128 -1.3641 -2.0812
 2086SOL     OW17716   0.980   4.554   0.089  0.1878 -0.2251 -0.5117
 2086SOL    HW117717   1.051   4.616   0.106 -0.7183  1.2850 -2.2205
 2086SOL    HW217718   0.964   4.581  17.685 -1.9703 -1.3224 -0.4440
 2087SOL     OW17719   1.134   0.912   6.366 -0.3860  0.8511 -0.0869
 2087SOL    HW117720   1.221   0.939   6.334 -0.7026  1.4932 -0.4142
 2087SOL    HW217721   1.136   0.818   6.352 -2.8758  0.8009 -0.0758
 2088SOL     OW17722   4.555   2.697   4.452 -0.3730 -0.2026  0.1986
 2088SOL    HW117723   4.492   2.665   4.516 -1.3365  1.8546  0.2612
 2088SOL    HW217724   4.515   2.670   4.369 -2.0365  0.9937  0.6307
 2089SOL     OW17725   0.457   4.425  14.803  0.1352  0.1435  0.0722
 2089SOL    HW117726   0.475   4.519  14.801 -2.2646  0.6068  0.4553
 2089SOL    HW217727   0.492   4.405  14.889 -0.5344  0.5639  0.4415
 2090SOL     OW17728   4.293   0.193   5.584 -0.1437  0.1453  0.8987
 2090SOL    HW117729   4.266   0.266   5.640 -1.7099  1.2426 -1.2564
 2090SOL    HW217730   4.228   0.129   5.614  0.7850 -1.1215  0.2085
 2091SOL     OW17731   2.605   1.438  10.254 -0.2400 -0.4842 -0.1618
 2091SOL    HW117732   2.635   1.399  10.336 -0.9701 -1.5850 -0.4140
 2091SOL    HW217733   2.677   1.494  10.226 -1.9429  1.7609 -0.0089
 2092SOL     OW17734   2.992   2.429   3.526  0.5579  0.0170 -0.6441
 2092SOL    HW117735   3.084   2.403   3.527  0.4587 -0.3390 -0.9669
 2092SOL    HW217736   2.986   2.422   3.622 -4.5461 -0.3759 -0.9828
 2093SOL     OW17737   1.373   4.693   9.450 -1.0204  0.0043  0.0058
 2093SOL    HW117738   1.362   0.054   9.401  3.8966  0.6895  0.0429
 2093SOL    HW217739   1.365   4.721   9.541 -0.2768 -2.3344  0.7786
 2094SOL     OW17740   0.427   3.796   5.482 -0.3275 -0.1207  0.0971
 2094SOL    HW117741   0.384   3.846   5.413 -0.6279  0.6339  0.8391
 2094SOL    HW217742   0.389   3.709   5.468  0.8462 -0.6387  0.1320
 2095SOL     OW17743   2.517   2.075   0.497  0.2245  0.0511  0.1935
 2095SOL    HW117744   2.450   2.125   0.449  0.5736 -0.0988 -0.4583
 2095SOL    HW217745   2.593   2.084   0.439 -0.6769 -0.8771 -1.1359
 2096SOL     OW17746   1.699   0.448   6.728 -0.3094 -0.6771 -0.1656
 2096SOL    HW117747   1.734   0.502   6.799 -1.1708  0.6405 -0.7448
 2096SOL    HW217748   1.722   0.502   6.653 -0.7644  1.8117  1.4801
 2097SOL     OW17749   4.371   3.218   3.393 -0.7604  0.0913 -0.7304
 2097SOL    HW117750   4.282   3.210   3.357 -0.3923  1.4211 -1.9515
 2097SOL    HW217751   4.361   3.169   3.475 -1.6238  1.3988 -0.0366
 2098SOL     OW17752   1.673   1.928   3.044 -0.1649 -0.0612  0.6482
 2098SOL    HW117753   1.622   1.849   3.027 -0.7169  0.5121 -0.3369
 2098SOL    HW217754   1.763   1.899   3.029  0.6892  1.3197  3.0796
 2099SOL     OW17755   0.491   0.343   1.391 -0.8736  0.2114  0.7545
 2099SOL    HW117756   0.522   0.360   1.480 -1.8723  0.2729  1.0824
 2099SOL    HW217757   0.555   0.389   1.337  0.0161 -1.6173  0.2478
 2100SOL     OW17758   4.575   0.558  12.127 -0.2067 -0.1474  0.7716
 2100SOL    HW117759   4.657   0.582  12.083  0.1444 -2.4629  0.1568
 2100SOL    HW217760   4.542   0.478  12.086 -0.3665  1.8370 -2.9580
 2101SOL     OW17761   2.773   0.997   1.823  0.3617 -0.0758  0.3069
 2101SOL    HW117762   2.725   1.039   1.894 -0.8116 -0.5512 -0.2075
 2101SOL    HW217763   2.841   0.954   1.875  1.1487  2.4424  1.3266
 2102SOL     OW17764   1.401   4.577   8.992 -0.2360 -0.1364  0.2480
 2102SOL    HW117765   1.335   4.604   9.056 -1.5580 -1.9982 -0.3178
 2102SOL    HW217766   1.402   4.482   9.006 -0.9180 -0.4684 -2.0311
 2103SOL     OW17767   3.456   4.008   9.480  0.0432  0.9213 -0.1684
 2103SOL    HW117768   3.365   4.034   9.497 -0.7375  0.2414 -3.1917
 2103SOL    HW217769   3.445   3.920   9.444 -1.9478  1.1903 -0.2448
 2104SOL     OW17770   2.585   1.958  16.977  0.7507  0.1146  0.4147
 2104SOL    HW117771   2.601   1.878  17.028 -1.7558 -0.4098  0.3941
 2104SOL    HW217772   2.542   2.021  17.035 -2.7491 -2.3752  0.5982
 2105SOL     OW17773   3.862   0.219   2.627  0.7349 -0.6419  0.0957
 2105SOL    HW117774   3.817   0.136   2.607 -0.4465 -0.4100  1.8256
 2105SOL    HW217775   3.781   0.264   2.652  2.0639  1.4812  0.4682
 2106SOL     OW17776   2.524   4.331  14.540 -0.1634  0.2127  0.4577
 2106SOL    HW117777   2.612   4.318  14.574 -0.5507 -0.6873  1.0946
 2106SOL    HW217778   2.500   4.246  14.505  0.0072  1.1139 -1.8341
 2107SOL     OW17779   1.479   2.488   2.472  0.0293 -0.2927  0.5142
 2107SOL    HW117780   1.392   2.465   2.440  0.6663 -1.8289 -0.1113
 2107SOL    HW217781   1.535   2.478   2.395  0.4334 -0.6768  0.8610
 2108SOL     OW17782   3.719   4.627  10.851  0.1069 -0.1440  0.3057
 2108SOL    HW117783   3.804   4.633  10.808  0.4239 -0.8456  0.8464
 2108SOL    HW217784   3.719   4.715  10.889 -0.6610  0.0612 -0.1606
 2109SOL     OW17785   1.130   3.744   2.629  0.1650 -0.3393 -0.1662
 2109SOL    HW117786   1.217   3.752   2.670  0.7432  1.1512 -1.7363
 2109SOL    HW217787   1.106   3.836   2.637 -2.2866 -0.9371 -0.7541
 2110SOL     OW17788   2.713   1.050   7.022  0.2688  0.0386  0.0379
 2110SOL    HW117789   2.663   1.129   7.004 -0.6033 -0.3405  0.7984
 2110SOL    HW217790   2.753   1.086   7.101  1.1464  0.8411 -0.7796
 2111SOL     OW17791   0.889   4.095   6.307  0.0707  0.1053 -0.0056
 2111SOL    HW117792   0.890   4.132   6.395  2.1378  1.1932 -0.4937
 2111SOL    HW217793   0.878   4.168   6.246  0.5795  0.2642  0.0952
 2112SOL     OW17794   1.504   4.427   1.095 -0.6095 -0.7198 -0.6425
 2112SOL    HW117795   1.438   4.406   1.161 -1.6970  0.1598 -1.4607
 2112SOL    HW217796   1.461   4.407   1.012  0.3408  0.1646 -1.3486
 2113SOL     OW17797   1.575   2.965   4.813  0.2586  0.0145  0.6081
 2113SOL    HW117798   1.616   2.901   4.871 -1.9950 -1.0288  1.0248
 2113SOL    HW217799   1.496   2.919   4.784  0.6892 -0.4240  0.1099
 2114SOL     OW17800   2.654   4.044   4.744  0.2013 -0.1989 -0.2921
 2114SOL    HW117801   2.664   4.055   4.649  4.5393  0.8508  0.2792
 2114SOL    HW217802   2.575   4.096   4.758  0.3915 -0.3686  1.4027
 2115SOL     OW17803   0.277   3.122   5.240  0.0859  0.0939  0.0124
 2115SOL    HW117804   0.296   3.082   5.325  1.9231  0.9304  0.0017
 2115SOL    HW217805   0.192   3.165   5.249 -0.1360 -0.1323 -1.0704
 2116SOL     OW17806   2.833   4.284  10.244  0.5207 -0.4882  0.0694
 2116SOL    HW117807   2.924   4.308  10.225  0.0973  0.0896 -1.2432
 2116SOL    HW217808   2.811   4.335  10.322 -1.8128 -0.9249 -0.2957
 2117SOL     OW17809   4.338   3.402   6.953  0.1417  0.0937 -0.3659
 2117SOL    HW117810   4.280   3.345   6.903 -0.0375  0.0810 -0.1453
 2117SOL    HW217811   4.298   3.480   6.916  1.6514  0.3599 -1.4506
 2118SOL     OW17812   3.837   2.532   8.401  0.2469 -0.2786  0.9272
 2118SOL    HW117813   3.747   2.560   8.416  0.1321  0.1111 -0.5355
 2118SOL    HW217814   3.845   2.516   8.307 -1.1118  1.3367  0.5391
 2119SOL     OW17815   3.581   3.023   5.347 -0.1940 -0.0805 -1.0683
 2119SOL    HW117816   3.498   3.020   5.301  0.6726 -2.4614 -2.4892
 2119SOL    HW217817   3.556   3.060   5.432 -1.1013  0.1754 -1.4476
 2120SOL     OW17818   4.131   2.522   8.718 -0.7505 -0.4874  0.2741
 2120SOL    HW117819   4.097   2.478   8.640  0.2547  0.7157 -0.8425
 2120SOL    HW217820   4.121   2.612   8.687 -1.5055 -0.2729  1.1393
 2121SOL     OW17821   0.435   4.463   4.949  0.2214  0.2609  0.1643
 2121SOL    HW117822   0.347   4.487   4.918  0.4443 -1.1072 -1.5208
 2121SOL    HW217823   0.454   4.394   4.886  0.3770  2.0494 -1.7316
 2122SOL     OW17824   1.412   3.236   9.033 -0.3736 -0.3966  0.1656
 2122SOL    HW117825   1.342   3.228   9.098 -1.3416  0.3519 -0.7741
 2122SOL    HW217826   1.444   3.325   9.043 -0.5054 -0.4579  1.1766
 2123SOL     OW17827   3.755   2.533   4.265 -0.2892 -0.1772  0.6623
 2123SOL    HW117828   3.798   2.566   4.186 -1.2388  1.4807  0.8475
 2123SOL    HW217829   3.809   2.454   4.272  1.0611  0.6720 -0.0891
 2124SOL     OW17830   0.957   1.917   9.427 -0.0990  0.3394 -0.2128
 2124SOL    HW117831   0.932   1.826   9.443  0.0585  0.8428  3.0127
 2124SOL    HW217832   0.975   1.945   9.517 -0.6746  0.0498 -0.0104
 2125SOL     OW17833   3.990   3.902   5.541  0.0665 -0.7193 -0.3556
 2125SOL    HW117834   4.018   3.817   5.508 -1.2168 -0.4300 -2.1853
 2125SOL    HW217835   3.984   3.946   5.456  0.3047 -0.5016 -0.2603
 2126SOL     OW17836   2.313   0.212   8.197  0.2624  0.7495 -0.1152
 2126SOL    HW117837   2.294   0.121   8.219  0.6626  0.3341 -1.5188
 2126SOL    HW217838   2.226   0.252   8.189  0.5252  0.2298 -5.2181
 2127SOL     OW17839   2.469   4.166   2.263 -0.3756 -0.7071  0.3195
 2127SOL    HW117840   2.439   4.231   2.326 -1.7320 -1.0046 -0.0206
 2127SOL    HW217841   2.479   4.221   2.186 -0.0644 -0.0786  0.8055
 2128SOL     OW17842   1.943   4.356   1.352 -1.1276  0.0336  0.2179
 2128SOL    HW117843   1.918   4.284   1.411 -0.6098  1.7424  2.4992
 2128SOL    HW217844   1.851   4.375   1.331 -1.4003  1.0416  2.2350
 2129SOL     OW17845   2.601   1.709  10.073  0.6737 -0.0037  0.2790
 2129SOL    HW117846   2.632   1.721  10.163  0.7535 -3.3150  0.7086
 2129SOL    HW217847   2.513   1.673  10.085  0.1094  2.0335  2.2712
 2130SOL     OW17848   2.987   3.834   5.953  0.1301  0.1406  0.0920
 2130SOL    HW117849   2.966   3.741   5.944 -0.2105  0.1601  0.6497
 2130SOL    HW217850   2.967   3.863   5.864  3.2431  0.2249 -0.5782
 2131SOL     OW17851   4.174   1.935  15.520  0.0626  0.0489  0.5208
 2131SOL    HW117852   4.225   2.012  15.544  1.0550 -0.6416  0.6284
 2131SOL    HW217853   4.082   1.959  15.507  0.5036  0.4120 -1.8829
 2132SOL     OW17854   0.253   2.848   3.869  0.2543 -0.4102 -0.4502
 2132SOL    HW117855   0.196   2.911   3.824 -0.7027 -0.0415  1.2690
 2132SOL    HW217856   0.291   2.797   3.798 -0.2581  1.2761 -1.9492
 2133SOL     OW17857   2.934   3.954  11.677  0.0712  0.2533 -0.5389
 2133SOL    HW117858   2.895   3.962  11.590 -1.3157  0.2149  0.0682
 2133SOL    HW217859   3.024   3.926  11.660 -0.3989 -1.8503  0.4790
 2134SOL     OW17860   1.053   1.390   0.479 -0.3676 -0.3120 -0.4623
 2134SOL    HW117861   1.120   1.407   0.413  0.5805 -0.4163  0.4637
 2134SOL    HW217862   1.016   1.305   0.455  0.2140 -0.7065  0.0354
 2135SOL     OW17863   4.396   0.134   3.984  0.2328  0.0132 -0.6646
 2135SOL    HW117864   4.354   0.173   4.060  0.8814  1.8788 -1.2445
 2135SOL    HW217865   4.471   0.090   4.024 -0.7928 -1.0602  0.0486
 2136SOL     OW17866   2.179   4.437   4.357  0.3689 -0.2447  0.0797
 2136SOL    HW117867   2.113   4.496   4.394  0.1212  0.3535 -1.3147
 2136SOL    HW217868   2.217   4.477   4.279 -2.0903  2.8735  0.4891
 2137SOL     OW17869   4.264   2.069   2.205  0.2334  0.0078 -0.1836
 2137SOL    HW117870   4.320   2.093   2.279  0.0974 -0.7788  0.1708
 2137SOL    HW217871   4.248   2.147   2.152 -0.7915  1.4136  2.2111
 2138SOL     OW17872   1.939   4.712  16.104 -0.4453  0.5617 -0.1940
 2138SOL    HW117873   1.858   4.676  16.140 -0.8953  0.6816 -1.0849
 2138SOL    HW217874   1.931   0.082  16.135 -3.7597 -0.3427  1.6474
 2139SOL     OW17875   3.856   4.209   8.706 -0.1368  0.5835 -0.4644
 2139SOL    HW117876   3.937   4.259   8.699 -0.3629  0.9130 -0.7087
 2139SOL    HW217877   3.809   4.244   8.631  0.1073  1.1612 -0.3512
 2140SOL     OW17878   2.540   4.039   1.988  0.1068  0.4861  0.2038
 2140SOL    HW117879   2.623   4.086   1.985  2.5013 -3.6014  2.1060
 2140SOL    HW217880   2.497   4.085   2.060  1.1337  2.6496 -0.5652
 2141SOL     OW17881   2.700   0.960   4.301 -0.0723 -0.4189 -0.4718
 2141SOL    HW117882   2.689   1.031   4.237  0.3082 -0.3476 -0.4596
 2141SOL    HW217883   2.769   0.906   4.263  0.9388 -0.5554  1.5525
 2142SOL     OW17884   3.843   0.283   5.103  0.2128  0.2057 -0.2790
 2142SOL    HW117885   3.771   0.234   5.063 -0.6741 -1.4395  3.3359
 2142SOL    HW217886   3.811   0.299   5.192 -0.4444  0.3755 -0.5456
 2143SOL     OW17887   1.679   3.033   4.203  0.0519 -0.0518  0.4711
 2143SOL    HW117888   1.741   3.098   4.170 -1.5769  1.7818  1.0229
 2143SOL    HW217889   1.728   2.975   4.262 -0.1261 -1.0285 -0.3363
 2144SOL     OW17890   0.577   2.795   4.331  0.2651  0.5529  0.5492
 2144SOL    HW117891   0.587   2.750   4.247 -3.8601  1.4889 -0.4162
 2144SOL    HW217892   0.585   2.886   4.303  1.8241 -0.1905 -1.4242
 2145SOL     OW17893   2.776   3.740   8.824 -0.5579 -0.4261 -0.5262
 2145SOL    HW117894   2.822   3.785   8.894 -1.8933  2.2093 -1.3274
 2145SOL    HW217895   2.726   3.813   8.786  0.2007  0.9205  1.0796
 2146SOL     OW17896   1.146   2.078  11.175 -0.2084 -0.2687  0.7054
 2146SOL    HW117897   1.083   2.012  11.144  1.0832 -0.6864 -1.0269
 2146SOL    HW217898   1.111   2.092  11.263 -1.4473  0.4585  0.0999
 2147SOL     OW17899   0.392   3.159   2.167 -0.4284 -0.0388  0.1010
 2147SOL    HW117900   0.347   3.101   2.230  2.7595 -0.1210  2.2897
 2147SOL    HW217901   0.476   3.118   2.148 -1.4654 -2.4194  0.6501
 2148SOL     OW17902   1.306   2.897  11.851  0.0359 -0.8451 -0.1981
 2148SOL    HW117903   1.378   2.907  11.914 -1.1242  1.3088  0.7864
 2148SOL    HW217904   1.352   2.884  11.768  1.8616  0.8458  0.5325
 2149SOL     OW17905   4.669   2.192  13.192 -0.2326 -0.5127 -0.5649
 2149SOL    HW117906   4.610   2.153  13.126 -1.9689 -0.5957  1.0471
 2149SOL    HW217907   4.651   2.139  13.270  0.0256 -0.4902 -0.4915
 2150SOL     OW17908   3.808   0.974  11.416  0.1491 -0.1109 -0.0888
 2150SOL    HW117909   3.763   1.017  11.489 -0.6254  0.7382 -1.0632
 2150SOL    HW217910   3.837   1.051  11.366  0.2788 -1.3851 -1.9620
 2151SOL     OW17911   1.625   3.494   2.759 -0.4250 -0.5869 -0.5061
 2151SOL    HW117912   1.610   3.548   2.681  0.5597 -0.3211 -0.5067
 2151SOL    HW217913   1.583   3.417   2.721  1.0802 -0.9470 -1.4322
 2152SOL     OW17914   0.307   4.592  15.395 -0.6550 -0.5925 -0.2025
 2152SOL    HW117915   0.249   4.620  15.325 -1.2411 -1.6316 -0.1352
 2152SOL    HW217916   0.348   4.678  15.404 -0.1525 -0.9702  1.1368
 2153SOL     OW17917   3.679   4.347   7.118  0.3988  0.1812 -0.3673
 2153SOL    HW117918   3.746   4.355   7.186 -0.0637 -0.0238  0.1105
 2153SOL    HW217919   3.716   4.378   7.035  2.5627 -2.9978 -0.5730
 2154SOL     OW17920   3.530   3.765   4.640 -0.1040 -0.2556  0.5040
 2154SOL    HW117921   3.596   3.834   4.647  1.2848 -1.4929 -0.8972
 2154SOL    HW217922   3.515   3.762   4.735 -0.6171 -0.4728  0.4195
 2155SOL     OW17923   0.485   4.546   4.247  0.1658  0.3166 -0.4367
 2155SOL    HW117924   0.530   4.523   4.329  0.4960  0.6026 -0.5386
 2155SOL    HW217925   0.554   4.600   4.211  0.9821  0.7015  1.6885
 2156SOL     OW17926   2.394   2.540   3.276  0.3784  0.2780 -0.5799
 2156SOL    HW117927   2.364   2.565   3.188  1.8111  0.4763 -1.0106
 2156SOL    HW217928   2.406   2.625   3.319 -1.1656 -0.6029  1.5664
 2157SOL     OW17929   1.689   1.962  13.492 -0.2929 -0.1578 -0.2501
 2157SOL    HW117930   1.753   2.033  13.501  0.7595 -1.2860  1.3764
 2157SOL    HW217931   1.624   1.988  13.558 -1.2191  1.1196 -1.6792
 2158SOL     OW17932   2.479   4.227   7.059 -0.1137 -0.0221 -0.3097
 2158SOL    HW117933   2.465   4.141   7.019 -0.0723  0.9172 -2.3135
 2158SOL    HW217934   2.547   4.269   7.007  2.2483  1.3294  3.8302
 2159SOL     OW17935   3.234   1.163   6.484 -0.1748 -0.1709  0.4491
 2159SOL    HW117936   3.236   1.174   6.389 -1.6733  0.1023  0.4579
 2159SOL    HW217937   3.318   1.203   6.506 -0.0776 -0.4712  0.6315
 2160SOL     OW17938   1.766   4.713   0.466  0.4098 -0.0368  0.4820
 2160SOL    HW117939   1.692   0.013   0.522 -0.5001  1.9900 -1.4818
 2160SOL    HW217940   1.834   4.719   0.533 -0.6957 -0.8473  1.6592
 2161SOL     OW17941   2.058   1.656   3.500 -0.0376 -0.6927  0.0865
 2161SOL    HW117942   2.121   1.718   3.537 -0.9318  0.2925 -0.0418
 2161SOL    HW217943   1.980   1.710   3.510 -0.0950 -0.4959 -1.4129
 2162SOL     OW17944   0.792   0.307  16.991  0.0323 -0.5439 -0.7304
 2162SOL    HW117945   0.815   0.318  16.899 -1.0999 -0.3284 -0.9786
 2162SOL    HW217946   0.875   0.334  17.031  0.3878 -1.7109 -0.6699
 2163SOL     OW17947   2.531   3.951   5.055 -0.2537  0.4117  0.7361
 2163SOL    HW117948   2.613   3.955   5.104 -0.1922 -2.0214  0.8254
 2163SOL    HW217949   2.553   4.014   4.987  1.4096  0.7453  1.5647
 2164SOL     OW17950   3.996   1.311   8.539 -0.1836 -1.2739 -0.1410
 2164SOL    HW117951   4.033   1.328   8.452 -0.9674 -2.4065 -0.7004
 2164SOL    HW217952   3.902   1.326   8.534 -0.0004  0.5967  1.9393
 2165SOL     OW17953   3.692   0.713   6.955 -0.5083 -0.0819 -0.1729
 2165SOL    HW117954   3.728   0.660   7.025 -2.7395  1.4561  2.1705
 2165SOL    HW217955   3.643   0.780   7.003  1.7137  1.4928 -0.1233
 2166SOL     OW17956   4.576   0.848  14.842  0.4456 -0.0916  0.6880
 2166SOL    HW117957   4.645   0.862  14.777 -0.0899 -0.1499  0.1047
 2166SOL    HW217958   4.635   0.821  14.913  2.1990  1.8576 -0.0392
 2167SOL     OW17959   3.999   0.294   4.714  0.2439  0.2898 -0.2062
 2167SOL    HW117960   4.017   0.200   4.714  1.0538  0.4466 -0.2864
 2167SOL    HW217961   4.009   0.322   4.805 -1.1167 -2.3709  0.7917
 2168SOL     OW17962   1.984   0.006  16.463  0.3245  0.0608  0.4390
 2168SOL    HW117963   1.989   4.704  16.371  1.3096  0.6977  0.3416
 2168SOL    HW217964   1.903   4.682  16.491 -1.4471  1.5444 -2.3799
 2169SOL     OW17965   1.412   4.628   4.153  0.5656 -0.5639 -0.5215
 2169SOL    HW117966   1.476   4.671   4.096 -1.7818  2.7396 -0.7176
 2169SOL    HW217967   1.428   4.534   4.143 -1.5710 -1.0063  0.1923
 2170SOL     OW17968   3.590   0.937  10.857  0.0393  0.2760 -0.2300
 2170SOL    HW117969   3.497   0.926  10.875 -0.1540  3.0200  0.4977
 2170SOL    HW217970   3.613   1.010  10.914 -2.1917  1.4745 -0.8710
 2171SOL     OW17971   1.678   0.339  14.127 -1.0070 -0.2215  0.5750
 2171SOL    HW117972   1.603   0.346  14.186 -0.9191  0.2400  0.6277
 2171SOL    HW217973   1.658   0.413  14.070  1.3328  0.2378  0.3799
 2172SOL     OW17974   2.285   3.915   5.514 -0.4111  0.3162 -0.2957
 2172SOL    HW117975   2.234   3.849   5.561 -1.2355  0.3688 -1.1069
 2172SOL    HW217976   2.221   3.952   5.454  0.3058  1.1180 -0.5615
 2173SOL     OW17977   1.615   0.912   8.745  0.2130  0.0363  0.6011
 2173SOL    HW117978   1.618   0.872   8.832 -1.4676 -1.2437  0.0606
 2173SOL    HW217979   1.709   0.929   8.735 -0.4658  3.5337  0.1483
 2174SOL     OW17980   3.214   2.829  15.538 -0.1623 -0.1227  0.8190
 2174SOL    HW117981   3.221   2.775  15.616  1.9928 -0.4684  0.3793
 2174SOL    HW217982   3.171   2.768  15.478 -1.1405  0.1943  1.1917
 2175SOL     OW17983   2.558   0.245  16.975  0.0969 -0.5462 -0.2228
 2175SOL    HW117984   2.605   0.325  16.950 -0.0739 -0.3196  0.1783
 2175SOL    HW217985   2.576   0.235  17.069  0.6900 -0.4253 -0.3195
 2176SOL     OW17986   4.607   3.805   7.235  0.5451 -0.2136  0.4225
 2176SOL    HW117987   4.525   3.851   7.217  0.8749  0.6000  0.9681
 2176SOL    HW217988   4.653   3.821   7.153  0.0200 -1.9438 -0.2152
 2177SOL     OW17989   4.559   2.795  14.051  1.0528  0.8232  0.0412
 2177SOL    HW117990   4.646   2.789  14.010  1.0058  0.5874 -0.0217
 2177SOL    HW217991   4.503   2.831  13.981  0.6399  0.1856  0.0491
 2178SOL     OW17992   4.477   0.266  16.615  0.3652  0.3428 -0.3058
 2178SOL    HW117993   4.468   0.340  16.675 -1.1058 -0.0304 -0.0598
 2178SOL    HW217994   4.413   0.272  16.544 -1.9012 -0.2066  1.6841
 2179SOL     OW17995   2.963   2.552   4.120 -0.0295  0.5076  0.5034
 2179SOL    HW117996   2.984   2.555   4.214  0.6360  3.2951  0.2726
 2179SOL    HW217997   2.880   2.601   4.126 -0.7207 -0.6940  0.7716
 2180SOL     OW17998   2.293   2.220   6.928  0.1703 -0.1522 -0.0277
 2180SOL    HW117999   2.289   2.144   6.987 -2.9187  0.4117  0.4720
 2180SOL    HW218000   2.253   2.180   6.851 -2.9432  1.0031  1.0283
 2181SOL     OW18001   3.034   2.568   9.164  0.3620 -0.5153 -0.0955
 2181SOL    HW118002   3.037   2.474   9.181  2.7591 -0.1938  1.2242
 2181SOL    HW218003   2.953   2.587   9.212 -0.2346 -1.1488 -0.8555
 2182SOL     OW18004   2.542   2.172   6.038 -0.1320  0.5375 -0.7114
 2182SOL    HW118005   2.462   2.224   6.036  1.0113  2.2847 -1.1482
 2182SOL    HW218006   2.524   2.115   5.963  2.3986 -1.0971 -0.0696
 2183SOL     OW18007   1.623   3.000   6.150  0.4849  0.3603 -0.5431
 2183SOL    HW118008   1.616   2.907   6.168  0.4094  0.7183  1.2250
 2183SOL    HW218009   1.710   3.017   6.113 -0.3301  2.8532 -1.3252
 2184SOL     OW18010   1.648   1.844   2.475  0.1282 -0.7038  1.3610
 2184SOL    HW118011   1.614   1.922   2.431  1.1254 -1.7038 -1.1995
 2184SOL    HW218012   1.742   1.852   2.456  0.0023 -1.2005  0.5442
 2185SOL     OW18013   1.351   3.768   7.374  0.1308  0.4075  0.4581
 2185SOL    HW118014   1.385   3.702   7.313 -1.2724  0.1553 -0.0481
 2185SOL    HW218015   1.276   3.772   7.314 -0.9991  1.0106  1.9154
 2186SOL     OW18016   4.254   3.656  14.616 -0.0067  0.3816  0.1239
 2186SOL    HW118017   4.298   3.612  14.689  0.4690 -0.2091 -0.5321
 2186SOL    HW218018   4.161   3.654  14.641  0.0290  0.6152  0.2837
 2187SOL     OW18019   4.715   3.818   9.631  0.5365  0.2255 -0.2468
 2187SOL    HW118020   4.637   3.856   9.671 -1.1836 -1.5258 -1.9374
 2187SOL    HW218021   0.026   3.763   9.702  0.6133 -1.0073 -1.2434
 2188SOL     OW18022   2.907   2.739   5.932 -0.1508 -0.3384  0.4066
 2188SOL    HW118023   2.898   2.794   6.010 -1.7035  0.3869 -0.2871
 2188SOL    HW218024   2.814   2.738   5.912 -0.0372  0.4167 -0.1724
 2189SOL     OW18025   3.396   1.394  14.118  0.6405 -0.3100  0.2814
 2189SOL    HW118026   3.318   1.441  14.088 -0.2329 -0.5360  2.2002
 2189SOL    HW218027   3.385   1.302  14.092 -0.9364  0.1962 -0.8447
 2190SOL     OW18028   0.566   4.000  11.323  0.3878  0.0549  0.0149
 2190SOL    HW118029   0.540   3.954  11.243  3.2891  0.0356 -0.9109
 2190SOL    HW218030   0.597   4.082  11.287 -0.4974  0.4370  0.1089
 2191SOL     OW18031   4.312   3.957  15.295  0.6742 -0.3924 -0.1515
 2191SOL    HW118032   4.407   3.958  15.305  0.5555  1.4758  0.7857
 2191SOL    HW218033   4.295   4.033  15.350  0.6638 -2.0242  2.1141
 2192SOL     OW18034   3.244   0.515   3.977 -0.2658  0.4191 -0.2621
 2192SOL    HW118035   3.213   0.512   3.886 -2.1957 -1.6838  0.4743
 2192SOL    HW218036   3.211   0.604   3.991 -1.1246 -0.1664  1.4171
 2193SOL     OW18037   1.596   2.580  13.350 -0.2443  0.0936 -0.2990
 2193SOL    HW118038   1.633   2.647  13.407  3.9717 -1.7511 -0.8924
 2193SOL    HW218039   1.615   2.625  13.267  2.2519  1.6048  1.1027
 2194SOL     OW18040   1.265   0.195  14.919  0.1552 -0.1226 -0.4544
 2194SOL    HW118041   1.234   0.139  14.990  1.3260 -0.2089 -0.0146
 2194SOL    HW218042   1.260   0.130  14.849 -0.9174  0.9731 -1.3936
 2195SOL     OW18043   2.561   2.100  11.811  0.0586 -0.4413 -0.2422
 2195SOL    HW118044   2.491   2.150  11.853 -1.3435 -1.1550 -1.7219
 2195SOL    HW218045   2.530   2.089  11.720 -1.0811 -1.6822  0.2972
 2196SOL     OW18046   2.132   4.134   7.013  0.5016 -0.6124 -0.7676
 2196SOL    HW118047   2.146   4.209   7.070  2.4476 -1.9879  0.5860
 2196SOL    HW218048   2.216   4.129   6.967  1.4048 -0.1173  0.8453
 2197SOL     OW18049   2.191   1.711   7.216  0.4204 -0.3453  0.4265
 2197SOL    HW118050   2.210   1.716   7.310  0.1386 -0.5857  0.4958
 2197SOL    HW218051   2.274   1.670   7.190 -0.6884  0.3655 -4.2853
 2198SOL     OW18052   3.477   0.258  10.851  0.3383 -0.4575 -0.4424
 2198SOL    HW118053   3.517   0.219  10.929 -0.8436 -1.1579 -0.1855
 2198SOL    HW218054   3.397   0.295  10.888 -0.6384 -1.2219 -1.7924
 2199SOL     OW18055   4.644   1.360   5.466  0.1083  0.7120 -0.3211
 2199SOL    HW118056   4.562   1.369   5.417 -0.9739 -1.2939  1.1596
 2199SOL    HW218057   4.652   1.442   5.515 -1.4354  1.8734 -2.0019
 2200SOL     OW18058   0.953   1.929   8.993 -0.2186 -0.9930  0.3800
 2200SOL    HW118059   0.888   1.969   9.051 -0.5252  0.0355 -0.6541
 2200SOL    HW218060   0.906   1.869   8.935 -1.3271  2.3662 -2.2141
 2201SOL     OW18061   1.245   0.402   6.284 -0.8694 -0.0933  0.1329
 2201SOL    HW118062   1.242   0.327   6.343  1.0396 -0.7919 -0.6541
 2201SOL    HW218063   1.331   0.391   6.244  0.7944 -0.5910  3.8381
 2202SOL     OW18064   3.512   1.747   7.737  0.4186  0.3264 -0.2796
 2202SOL    HW118065   3.558   1.696   7.803  0.0242  0.8102  0.3624
 2202SOL    HW218066   3.529   1.831   7.779 -3.7489  0.6606  0.7175
 2203SOL     OW18067   4.356   0.418   0.666 -0.1470 -0.5032  0.2774
 2203SOL    HW118068   4.375   0.492   0.724 -1.6270  1.1625 -1.3430
 2203SOL    HW218069   4.354   0.467   0.584 -4.3536  2.1079  1.9399
 2204SOL     OW18070   4.292   2.426   8.930 -0.0024  0.2052 -0.3879
 2204SOL    HW118071   4.248   2.475   8.999 -0.3883 -1.8476  0.8021
 2204SOL    HW218072   4.236   2.451   8.856  0.5042  2.9127  0.1354
 2205SOL     OW18073   2.321   4.407  10.253 -0.2302  0.9623 -0.1864
 2205SOL    HW118074   2.342   4.490  10.211  0.2866  0.7558 -0.3319
 2205SOL    HW218075   2.284   4.441  10.334  2.5016  1.2366  0.9368
 2206SOL     OW18076   0.480   1.810   5.442 -0.1951  0.1627 -0.1982
 2206SOL    HW118077   0.517   1.864   5.511 -2.0586  0.3367  0.6512
 2206SOL    HW218078   0.388   1.835   5.437 -0.4267 -0.6427  0.0313
 2207SOL     OW18079   1.804   0.457  17.320  0.0898  0.5020  0.2162
 2207SOL    HW118080   1.741   0.414  17.378 -1.2898  0.3243 -1.4049
 2207SOL    HW218081   1.868   0.488  17.384 -0.5628 -0.3911  1.3024
 2208SOL     OW18082   2.533   2.698  14.479  0.0408 -0.3341  0.1458
 2208SOL    HW118083   2.601   2.724  14.541  0.5533 -1.6441  0.1336
 2208SOL    HW218084   2.523   2.608  14.510 -2.0111 -0.4591 -0.9009
 2209SOL     OW18085   0.772   1.333   9.256  0.3972  0.8660  0.2316
 2209SOL    HW118086   0.689   1.299   9.290  1.1633  0.5497  1.8008
 2209SOL    HW218087   0.832   1.292   9.318  0.0880  1.3185  0.8312
 2210SOL     OW18088   0.379   2.477   5.591  0.3085  0.2632 -0.0850
 2210SOL    HW118089   0.337   2.527   5.662 -0.9259 -1.7314  0.5956
 2210SOL    HW218090   0.471   2.473   5.614  0.1077 -0.2281  0.6337
 2211SOL     OW18091   1.697   1.473  16.119  0.1358 -0.5274 -0.1186
 2211SOL    HW118092   1.742   1.414  16.179 -0.9226 -0.2991  0.9035
 2211SOL    HW218093   1.632   1.411  16.085 -1.1733  0.6938  0.1298
 2212SOL     OW18094   1.453   1.233   4.782 -0.3761  0.4933  0.4983
 2212SOL    HW118095   1.436   1.303   4.718  1.4870  0.9517  0.5064
 2212SOL    HW218096   1.363   1.209   4.804 -0.0911  0.4062  1.5715
 2213SOL     OW18097   3.584   2.696   2.189  0.1387  0.0030  0.3743
 2213SOL    HW118098   3.550   2.654   2.111  0.9108  1.3712 -0.6987
 2213SOL    HW218099   3.651   2.637   2.224  0.3492  0.9064  1.4992
 2214SOL     OW18100   1.758   0.797  11.833  0.7173  0.2720 -0.3685
 2214SOL    HW118101   1.809   0.723  11.801 -0.7106 -1.2568  0.9260
 2214SOL    HW218102   1.698   0.751  11.891 -0.9917  0.5917 -1.8996
 2215SOL     OW18103   0.721   4.685   8.077 -0.1427  0.2207  0.1202
 2215SOL    HW118104   0.785   4.669   8.007 -2.3310 -0.6332 -1.6899
 2215SOL    HW218105   0.781   4.686   8.151 -0.6225  1.2838  0.4916
 2216SOL     OW18106   3.934   0.452   9.930  0.4728  0.3289 -0.4768
 2216SOL    HW118107   3.866   0.511   9.963 -0.5324 -0.6983 -0.7274
 2216SOL    HW218108   3.937   0.381   9.994  1.3174 -0.5407 -1.4724
 2217SOL     OW18109   0.491   2.334  10.734  0.2257  0.1694 -0.2829
 2217SOL    HW118110   0.449   2.339  10.820 -1.4237  1.1920 -1.1532
 2217SOL    HW218111   0.577   2.371  10.757 -0.1358  0.2365  0.9831
 2218SOL     OW18112   2.497   3.800   2.677 -0.0568  0.4528  0.5043
 2218SOL    HW118113   2.491   3.870   2.742  0.9253  0.4637  0.5886
 2218SOL    HW218114   2.439   3.833   2.609  1.4275  1.0110 -0.4818
 2219SOL     OW18115   2.721   1.035   6.409  1.0476  0.9806 -0.1372
 2219SOL    HW118116   2.761   0.964   6.458 -3.0151 -0.4013  1.1424
 2219SOL    HW218117   2.682   0.994   6.332 -0.8245  0.4723  1.0896
 2220SOL     OW18118   0.255   2.021   1.734 -0.1686 -0.5059 -0.1426
 2220SOL    HW118119   0.249   2.105   1.689 -1.4680 -0.5476 -0.0483
 2220SOL    HW218120   0.170   2.011   1.776 -0.2585  1.1065  0.0423
 2221SOL     OW18121   4.433   3.415   2.280  0.1046  0.0466  0.0873
 2221SOL    HW118122   4.441   3.464   2.198 -0.3905 -0.8708 -0.5060
 2221SOL    HW218123   4.406   3.483   2.343 -2.1161 -0.4500 -0.3543
 2222SOL     OW18124   2.315   2.001   0.714 -0.4976 -0.0451 -0.1650
 2222SOL    HW118125   2.378   2.010   0.642  0.0366 -3.1585 -0.1016
 2222SOL    HW218126   2.301   2.089   0.749  0.5092 -0.7041  1.9100
 2223SOL     OW18127   1.611   2.018   6.950  0.3407 -0.5359 -0.0629
 2223SOL    HW118128   1.558   2.012   6.870  2.3781 -0.8092 -1.3971
 2223SOL    HW218129   1.547   1.987   7.014 -1.6707 -0.1522 -1.8726
 2224SOL     OW18130   2.618   2.795   7.447 -0.3639  0.2636  0.1072
 2224SOL    HW118131   2.658   2.833   7.369  0.7524  0.3821  0.7448
 2224SOL    HW218132   2.637   2.852   7.522 -0.6492  0.4189  0.0628
 2225SOL     OW18133   2.697   4.431   8.899  0.5994  0.0842  0.0111
 2225SOL    HW118134   2.650   4.361   8.945 -0.3682 -0.3375 -1.5926
 2225SOL    HW218135   2.749   4.480   8.962  0.8469 -2.1482  1.5639
 2226SOL     OW18136   2.114   2.959  15.369 -0.1226  0.0949 -0.4455
 2226SOL    HW118137   2.046   2.895  15.348  0.2452 -0.4332 -0.0527
 2226SOL    HW218138   2.107   3.011  15.290  0.2566  0.0200 -0.5309
 2227SOL     OW18139   3.252   3.325   6.556 -0.0342  0.4811 -0.1772
 2227SOL    HW118140   3.251   3.412   6.596  1.6333 -0.9707  3.0429
 2227SOL    HW218141   3.231   3.274   6.634 -0.1877 -0.9071 -1.1146
 2228SOL     OW18142   2.629   0.196   8.858 -0.1671  0.4996 -0.0840
 2228SOL    HW118143   2.681   0.215   8.780 -1.5619  4.2529 -0.0887
 2228SOL    HW218144   2.646   0.277   8.906  0.6148  0.6233 -0.5781
 2229SOL     OW18145   3.192   4.011   3.158 -0.0164  0.2311  0.4436
 2229SOL    HW118146   3.216   4.071   3.228  1.2021  0.0659  0.1606
 2229SOL    HW218147   3.194   4.073   3.085 -0.5369  1.5381  1.5578
 2230SOL     OW18148   2.640   3.145   3.088 -0.2235 -0.3115 -0.9350
 2230SOL    HW118149   2.614   3.078   3.151  0.0203 -0.4069 -0.9320
 2230SOL    HW218150   2.736   3.152   3.096 -0.2337 -0.8164 -0.3643
 2231SOL     OW18151   3.570   2.378   9.158  0.0032  0.3883  0.6997
 2231SOL    HW118152   3.553   2.471   9.144 -1.1079  0.1282  0.3421
 2231SOL    HW218153   3.654   2.392   9.202 -0.4748 -1.0165  2.0443
 2232SOL     OW18154   1.776   2.664   4.279 -0.5270 -0.3865 -0.1723
 2232SOL    HW118155   1.703   2.691   4.334  1.1129 -0.6273  2.1034
 2232SOL    HW218156   1.847   2.633   4.334  0.5020 -0.6729 -1.6514
 2233SOL     OW18157   4.684   3.030   7.321  0.0389  0.0755 -0.2530
 2233SOL    HW118158   0.050   3.003   7.351  1.1422  0.7619 -2.7968
 2233SOL    HW218159   4.680   3.122   7.345  1.2168 -0.5438  2.3294
 2234SOL     OW18160   2.778   1.893   7.562  0.1543 -0.2815 -0.4990
 2234SOL    HW118161   2.814   1.979   7.540 -1.8396  1.1270  1.7032
 2234SOL    HW218162   2.850   1.831   7.553 -1.1523 -1.9159  0.3421
 2235SOL     OW18163   0.710   1.847  11.371  0.3754  0.3424 -1.1225
 2235SOL    HW118164   0.665   1.799  11.440  2.3309 -1.6731 -1.2355
 2235SOL    HW218165   0.653   1.922  11.356 -0.9941 -0.2050  1.2801
 2236SOL     OW18166   3.003   3.211   3.392  0.1519  0.4428  0.4687
 2236SOL    HW118167   3.091   3.176   3.376 -0.4193  0.5748 -2.8849
 2236SOL    HW218168   3.004   3.295   3.439  0.5610 -0.1078  1.4554
 2237SOL     OW18169   1.766   0.370   4.866 -0.0438 -0.1254  0.1856
 2237SOL    HW118170   1.714   0.328   4.797  1.6272 -1.4558 -0.2722
 2237SOL    HW218171   1.734   0.459   4.850 -0.9680 -0.0999  2.2114
 2238SOL     OW18172   3.190   0.919   5.158 -0.5776  0.3922  0.1164
 2238SOL    HW118173   3.203   1.012   5.138 -0.8004  0.3097 -0.4178
 2238SOL    HW218174   3.272   0.892   5.200  1.1184  1.1474 -2.6642
 2239SOL     OW18175   2.442   1.461   9.462 -0.1749  0.3024 -0.0943
 2239SOL    HW118176   2.447   1.456   9.366  0.6640  0.4457 -0.0571
 2239SOL    HW218177   2.409   1.551   9.465 -0.6476  0.1898 -1.5460
 2240SOL     OW18178   2.561   1.710   4.446  0.6975 -0.1145 -0.3914
 2240SOL    HW118179   2.604   1.680   4.526 -0.8311  0.4264  0.6369
 2240SOL    HW218180   2.597   1.654   4.378  2.0556 -0.4961  0.6417
 2241SOL     OW18181   0.808   4.313   6.782 -0.2382 -0.1061 -0.0789
 2241SOL    HW118182   0.854   4.271   6.710 -0.3495  0.5695 -0.5450
 2241SOL    HW218183   0.717   4.331   6.758 -0.1591  1.7733  0.9791
 2242SOL     OW18184   2.760   3.707  13.493  0.1344 -0.9426 -0.2063
 2242SOL    HW118185   2.738   3.679  13.404  1.9143 -3.6009  0.1720
 2242SOL    HW218186   2.855   3.696  13.490  0.0766 -1.2740 -0.8605
 2243SOL     OW18187   3.394   1.538   9.168  0.1671  0.2746  0.3651
 2243SOL    HW118188   3.465   1.566   9.109 -0.4641  3.3532  1.0680
 2243SOL    HW218189   3.348   1.476   9.112 -2.2637  1.0738  1.4660
 2244SOL     OW18190   2.814   1.160   9.348  0.3201 -1.1365  0.4179
 2244SOL    HW118191   2.737   1.135   9.298 -0.0193  2.2435 -0.7580
 2244SOL    HW218192   2.789   1.248   9.378  1.0073 -0.0332 -2.2478
 2245SOL     OW18193   3.862   1.309   2.359 -0.4527  0.1802  0.2985
 2245SOL    HW118194   3.834   1.291   2.270  1.6593  0.3367 -0.3904
 2245SOL    HW218195   3.938   1.366   2.347  0.9112 -2.0966 -1.9201
 2246SOL     OW18196   0.402   1.602   1.759 -0.5478  0.4084  0.3499
 2246SOL    HW118197   0.361   1.558   1.685 -0.6765  0.4868  0.3748
 2246SOL    HW218198   0.327   1.646   1.798  0.7026  3.3185 -0.5725
 2247SOL     OW18199   2.051   2.281   8.497  0.1305 -0.1726  0.1523
 2247SOL    HW118200   2.077   2.341   8.427 -5.0967  1.9376  0.0228
 2247SOL    HW218201   2.140   2.255   8.521  0.6972  1.2403 -0.4302
 2248SOL     OW18202   0.628   4.546  16.520  0.4265  0.0911  0.1883
 2248SOL    HW118203   0.621   4.458  16.557  0.7653 -0.6573 -1.5107
 2248SOL    HW218204   0.574   4.547  16.441 -1.2965  0.1157  1.3733
 2249SOL     OW18205   1.446   4.380   5.696 -0.0329 -0.4354  0.7391
 2249SOL    HW118206   1.451   4.403   5.789 -0.9029 -0.0505  0.6875
 2249SOL    HW218207   1.439   4.465   5.653 -2.3109  0.3973  2.7728
 2250SOL     OW18208   1.758   2.262   2.355  0.0367 -0.1963  0.2612
 2250SOL    HW118209   1.836   2.227   2.312  0.5820  1.0737  0.2119
 2250SOL    HW218210   1.726   2.320   2.286 -0.5568 -0.9169 -0.0703
 2251SOL     OW18211   1.950   1.024   7.827 -0.1049 -0.2630 -0.6359
 2251SOL    HW118212   2.031   1.007   7.779  0.1685  0.9736 -0.6047
 2251SOL    HW218213   1.981   0.994   7.912  0.2565  1.7396 -0.0514
 2252SOL     OW18214   1.452   2.496  15.298 -0.4995  0.1499  0.6732
 2252SOL    HW118215   1.418   2.522  15.212  0.0020  0.2694  0.5120
 2252SOL    HW218216   1.376   2.443  15.321  0.5794 -0.7838  2.0460
 2253SOL     OW18217   0.093   1.106  10.876 -0.5615 -0.3160  0.0769
 2253SOL    HW118218   0.095   1.092  10.970  0.1688 -0.7507 -0.0041
 2253SOL    HW218219   0.123   1.023  10.839 -2.1469 -0.0365 -1.8799
 2254SOL     OW18220   2.468   1.096  13.375 -0.3248 -0.6487  0.1251
 2254SOL    HW118221   2.454   1.190  13.384  0.3310 -0.6583  1.3037
 2254SOL    HW218222   2.412   1.059  13.444  1.2035 -1.1040  1.1336
 2255SOL     OW18223   2.533   3.413  10.975 -0.1720  0.4178  0.2938
 2255SOL    HW118224   2.612   3.435  11.025  0.3739 -0.9292  0.0274
 2255SOL    HW218225   2.483   3.472  11.031 -0.8795 -0.7887  0.9331
 2256SOL     OW18226   3.093   3.019  10.059  0.3025 -0.0100  0.2767
 2256SOL    HW118227   3.185   3.025  10.033  0.9372 -1.7429  2.0970
 2256SOL    HW218228   3.097   3.035  10.153  4.3325  0.0383  0.1078
 2257SOL     OW18229   4.663   2.225   2.793  0.8066 -0.1011 -0.4324
 2257SOL    HW118230   0.020   2.170   2.787  0.9768  0.3613 -2.3786
 2257SOL    HW218231   4.600   2.153   2.799  1.8774 -1.0009  0.0145
 2258SOL     OW18232   2.228   1.671   0.052  0.9653  0.3912 -0.4749
 2258SOL    HW118233   2.139   1.640   0.069  1.5393 -0.5220  0.8807
 2258SOL    HW218234   2.221   1.642  17.647  0.5190  1.3306 -0.7376
 2259SOL     OW18235   1.756   2.834  10.106 -0.7300  0.4750  0.0782
 2259SOL    HW118236   1.697   2.758  10.111  0.4898 -0.5301 -0.6505
 2259SOL    HW218237   1.830   2.792  10.062  1.6017  1.3080  3.1411
 2260SOL     OW18238   0.051   1.289   2.294 -0.0574 -0.0335 -0.0098
 2260SOL    HW118239   0.038   1.202   2.332  2.2686 -0.5414 -0.4250
 2260SOL    HW218240   4.690   1.308   2.248 -0.2126  0.1965  0.3543
 2261SOL     OW18241   3.304   1.411   9.471 -0.0845 -0.4209 -0.1025
 2261SOL    HW118242   3.237   1.405   9.403 -0.9103 -0.3987  0.7116
 2261SOL    HW218243   3.268   1.479   9.528 -0.9977 -1.6285  0.7615
 2262SOL     OW18244   2.257   2.729   8.215 -0.2637  0.0791 -0.7671
 2262SOL    HW118245   2.284   2.795   8.278  0.2521 -0.2624 -0.6313
 2262SOL    HW218246   2.239   2.657   8.275 -0.0815  1.0147  0.4143
 2263SOL     OW18247   2.382   1.463   6.799 -0.6763 -1.1047 -0.2224
 2263SOL    HW118248   2.380   1.554   6.827  2.9295 -1.0368 -0.1222
 2263SOL    HW218249   2.328   1.427   6.869  0.5238 -0.5070  1.0136
 2264SOL     OW18250   1.653   1.142  15.750 -0.1457 -0.3414 -0.1868
 2264SOL    HW118251   1.580   1.200  15.770 -1.0469 -0.6646 -2.5705
 2264SOL    HW218252   1.716   1.212  15.734  1.9815 -2.0353  0.7082
 2265SOL     OW18253   1.101   2.945   3.124  0.5287 -0.4222  0.6588
 2265SOL    HW118254   1.021   2.899   3.101  0.6649 -0.5907  0.5260
 2265SOL    HW218255   1.124   2.996   3.047 -1.2147 -1.2895 -0.4177
 2266SOL     OW18256   2.624   1.868   7.792 -0.5186  0.4960  0.1704
 2266SOL    HW118257   2.658   1.857   7.704 -2.4501  0.9194 -0.6460
 2266SOL    HW218258   2.548   1.810   7.790  0.7358 -1.1298  0.0978
 2267SOL     OW18259   3.923   1.411   1.720 -0.0926 -0.9725  0.1693
 2267SOL    HW118260   3.986   1.409   1.792 -0.9890  2.9011  1.0785
 2267SOL    HW218261   3.977   1.365   1.656  1.3312  0.3794  0.4052
 2268SOL     OW18262   0.710   0.668   0.812  0.0535 -0.0747 -0.4827
 2268SOL    HW118263   0.684   0.582   0.844 -2.0759  0.5531 -0.5109
 2268SOL    HW218264   0.655   0.694   0.738 -0.3491  2.6996  0.7548
 2269SOL     OW18265   1.502   3.687  13.662  0.0568  0.4504 -0.2389
 2269SOL    HW118266   1.486   3.623  13.731 -0.2476  0.3209 -0.4274
 2269SOL    HW218267   1.452   3.766  13.684 -1.1243 -0.3831  0.1077
 2270SOL     OW18268   2.916   3.031  11.204  0.6923 -0.3168  0.6377
 2270SOL    HW118269   2.990   3.091  11.199  1.3007 -1.2619 -1.7352
 2270SOL    HW218270   2.890   3.055  11.293  0.2608  0.6134  0.2615
 2271SOL     OW18271   0.244   4.001   5.958 -0.5586 -0.0260 -0.5228
 2271SOL    HW118272   0.318   3.975   5.902 -2.9943 -1.0650 -3.2345
 2271SOL    HW218273   0.296   4.065   6.007  1.7824 -1.3806 -1.2204
 2272SOL     OW18274   1.332   4.499   7.477 -0.3269 -0.2364  0.2176
 2272SOL    HW118275   1.248   4.510   7.433  0.1387  3.5824  0.2445
 2272SOL    HW218276   1.386   4.490   7.398 -1.6839  0.6289 -0.8114
 2273SOL     OW18277   0.320   4.239   5.226 -0.3642  0.3916 -0.5239
 2273SOL    HW118278   0.227   4.235   5.249  0.1499 -0.1371  1.4844
 2273SOL    HW218279   0.332   4.334   5.224 -0.1208  0.3796  0.7273
 2274SOL     OW18280   1.845   2.141   7.094 -0.0938 -0.1310 -0.0635
 2274SOL    HW118281   1.765   2.089   7.082 -0.9558  1.1034  0.2306
 2274SOL    HW218282   1.894   2.099   7.165 -1.8325 -0.1059  1.1568
 2275SOL     OW18283   3.026   4.651   2.485  0.2707 -0.2884  0.4900
 2275SOL    HW118284   3.100   4.606   2.525  0.4236 -1.3889 -1.0145
 2275SOL    HW218285   3.060   0.019   2.479  0.6893 -0.3749  1.8036
 2276SOL     OW18286   3.452   4.713   1.168 -0.0404 -0.1798 -0.2365
 2276SOL    HW118287   3.445   0.052   1.242 -2.8617  0.7013 -1.2178
 2276SOL    HW218288   3.442   0.051   1.094  1.0698 -0.5533 -0.6721
 2277SOL     OW18289   0.021   1.615   7.373 -0.3870  0.6893 -0.0637
 2277SOL    HW118290   0.003   1.688   7.314 -0.1378 -2.7537 -4.4266
 2277SOL    HW218291   4.659   1.571   7.357 -0.1401 -0.0192  0.6566
 2278SOL     OW18292   0.715   3.267   8.471 -0.4435  0.2957  0.1314
 2278SOL    HW118293   0.794   3.228   8.509 -2.1837 -1.8910  1.5208
 2278SOL    HW218294   0.650   3.201   8.496  1.0711 -1.0824  0.4766
 2279SOL     OW18295   1.256   3.860   6.548 -0.0290  0.1836  0.0466
 2279SOL    HW118296   1.178   3.915   6.550  0.6103  1.0883 -0.0062
 2279SOL    HW218297   1.243   3.835   6.639 -1.4884  0.6942 -0.0163
 2280SOL     OW18298   4.047   0.157   4.053 -0.0912  0.5250 -0.2001
 2280SOL    HW118299   4.132   0.119   4.072 -0.2765 -0.1556 -0.7565
 2280SOL    HW218300   4.058   0.251   4.067  0.5442  0.7563 -2.2236
 2281SOL     OW18301   1.661   4.006  11.918  0.1093 -0.2247 -0.3744
 2281SOL    HW118302   1.670   3.952  11.839 -2.3354 -1.3428  0.1228
 2281SOL    HW218303   1.689   3.953  11.991 -0.0347 -1.4493 -1.2082
 2282SOL     OW18304   1.548   3.566   4.128  0.4172  0.1238  0.1815
 2282SOL    HW118305   1.501   3.644   4.160  1.3441  0.7442  0.0298
 2282SOL    HW218306   1.626   3.603   4.087 -0.2834  0.4786 -0.8148
 2283SOL     OW18307   4.064   4.065   6.101 -0.0438 -0.1057  0.4417
 2283SOL    HW118308   4.014   3.984   6.089  1.5826 -1.4341  2.6027
 2283SOL    HW218309   4.149   4.028   6.126 -0.6713 -1.2874  0.8405
 2284SOL     OW18310   2.401   0.049  16.159  0.3015 -0.0861  0.0046
 2284SOL    HW118311   2.391   0.136  16.121  1.8809 -0.5920 -1.5527
 2284SOL    HW218312   2.343   4.719  16.103  0.0238 -0.0966  0.2982
 2285SOL     OW18313   0.580   0.668  12.500 -0.2170 -0.2267 -0.1655
 2285SOL    HW118314   0.565   0.628  12.585 -2.2116  0.2460 -0.2851
 2285SOL    HW218315   0.646   0.731  12.527 -0.3139  0.0795 -0.6406
 2286SOL     OW18316   3.419   1.652   3.314 -0.2040 -0.4738 -0.7023
 2286SOL    HW118317   3.398   1.706   3.237  1.2640  2.0442  0.6496
 2286SOL    HW218318   3.513   1.661   3.305 -0.3868  0.9714 -1.1968
 2287SOL     OW18319   1.759   2.067   3.528 -0.0443  0.2286 -0.0042
 2287SOL    HW118320   1.828   2.132   3.511  0.4009  0.1801  1.5704
 2287SOL    HW218321   1.772   2.013   3.450  1.0458  1.0101 -0.3673
 2288SOL     OW18322   0.594   3.359  13.079  0.7042  0.1268 -0.3502
 2288SOL    HW118323   0.608   3.288  13.016  0.3597  0.5603 -0.9050
 2288SOL    HW218324   0.515   3.398  13.043  0.2469 -1.1093 -0.7001
 2289SOL     OW18325   2.713   0.030   7.769 -0.1001 -0.4742  0.5442
 2289SOL    HW118326   2.734   0.040   7.862 -0.2736  0.8656  0.4379
 2289SOL    HW218327   2.785   0.069   7.720  0.8429 -0.7262  1.7487
 2290SOL     OW18328   2.554   2.870   4.384  0.4229  0.2245  0.0302
 2290SOL    HW118329   2.546   2.911   4.298 -2.9215 -1.5165 -0.5131
 2290SOL    HW218330   2.481   2.909   4.432  0.1025 -0.4263  0.0761
 2291SOL     OW18331   4.334   1.422  15.457 -0.5858 -0.3839  0.5430
 2291SOL    HW118332   4.320   1.515  15.476 -1.7706 -0.0714 -1.8488
 2291SOL    HW218333   4.363   1.435  15.367 -0.5663  0.8927  0.7308
 2292SOL     OW18334   0.804   0.569   3.025  0.1270 -0.1041  0.3513
 2292SOL    HW118335   0.874   0.634   3.018  0.1857 -0.2159 -0.0835
 2292SOL    HW218336   0.816   0.518   2.945  1.0249 -1.2263  1.2100
 2293SOL     OW18337   3.289   1.538   8.411  0.1968  0.1804  0.1756
 2293SOL    HW118338   3.225   1.564   8.344 -0.0428  0.5448  0.5407
 2293SOL    HW218339   3.268   1.599   8.482 -1.1048  1.5324 -1.3760
 2294SOL     OW18340   0.704   3.389   3.728  0.2904 -0.2349 -0.7208
 2294SOL    HW118341   0.749   3.473   3.722  0.6521 -0.4374 -0.8653
 2294SOL    HW218342   0.776   3.329   3.710  0.0343 -0.9060  0.5358
 2295SOL     OW18343   1.641   3.186  10.428  0.3877 -0.1058 -0.9687
 2295SOL    HW118344   1.553   3.224  10.434  0.5229  0.3338 -1.7981
 2295SOL    HW218345   1.670   3.218  10.342  3.2000 -0.9383 -0.3311
 2296SOL     OW18346   0.674   2.002   5.282  0.0681  0.6322  0.0245
 2296SOL    HW118347   0.736   1.993   5.210 -0.0366 -0.8758  0.1262
 2296SOL    HW218348   0.724   2.048   5.350  0.8049  1.6256 -1.1954
 2297SOL     OW18349   2.588   2.655  11.726 -0.3792  0.3832 -0.3189
 2297SOL    HW118350   2.546   2.723  11.673 -2.3263  2.2537  3.5825
 2297SOL    HW218351   2.580   2.569  11.684  0.7572 -0.5402  1.3701
 2298SOL     OW18352   3.299   4.402   9.504  0.5312  0.0602 -0.6409
 2298SOL    HW118353   3.332   4.492   9.494 -1.3549  0.7820 -0.1930
 2298SOL    HW218354   3.296   4.412   9.599 -0.1817 -1.9922 -0.4575
 2299SOL     OW18355   0.127   0.894   7.619 -0.4313  0.1963  0.1551
 2299SOL    HW118356   0.204   0.869   7.567 -0.6560 -1.3505  0.5618
 2299SOL    HW218357   0.055   0.867   7.562 -0.1782  1.4060 -0.7415
 2300SOL     OW18358   3.304   0.253  14.555  0.5357  0.0699 -0.1945
 2300SOL    HW118359   3.320   0.324  14.493  1.0670 -0.4064 -0.6136
 2300SOL    HW218360   3.232   0.222  14.501  0.8473  0.4929 -0.8538
 2301SOL     OW18361   3.228   0.710   4.831 -0.0790 -0.3988  0.2906
 2301SOL    HW118362   3.141   0.739   4.860 -0.0780 -0.2406  0.1365
 2301SOL    HW218363   3.259   0.658   4.905  2.9273  2.0671  0.7719
 2302SOL     OW18364   1.273   2.792   3.584 -0.0716 -0.5295 -0.0885
 2302SOL    HW118365   1.221   2.712   3.585  0.0645 -0.6460 -2.3447
 2302SOL    HW218366   1.339   2.772   3.650 -1.4351 -2.7919  0.5730
 2303SOL     OW18367   2.318   2.131   9.412 -0.6242  0.6288 -0.0749
 2303SOL    HW118368   2.363   2.064   9.463  1.2943  0.2621 -2.2599
 2303SOL    HW218369   2.346   2.209   9.460  0.2683  0.7305 -0.7643
 2304SOL     OW18370   0.322   4.517   5.202 -0.0432 -0.5480  0.1874
 2304SOL    HW118371   0.350   4.505   5.111 -1.2087  0.0344 -0.2433
 2304SOL    HW218372   0.313   4.612   5.196 -0.8816 -0.6589 -0.1813
 2305SOL     OW18373   2.388   0.614   2.425  0.0787 -0.6600  0.4312
 2305SOL    HW118374   2.416   0.527   2.398  0.9312 -0.2887  0.1138
 2305SOL    HW218375   2.444   0.633   2.501  1.8412 -0.9338 -0.8102
 2306SOL     OW18376   3.108   1.486   4.259 -0.0769 -0.5449 -0.0014
 2306SOL    HW118377   3.069   1.547   4.196 -1.1119  1.2220  2.3224
 2306SOL    HW218378   3.141   1.541   4.330 -1.2371 -1.4921  1.2631
 2307SOL     OW18379   0.783   2.350   9.225  0.4610  0.5026 -0.5333
 2307SOL    HW118380   0.733   2.427   9.253  1.3287  0.7356  0.3723
 2307SOL    HW218381   0.828   2.323   9.305 -0.1095  1.9669  0.2723
 2308SOL     OW18382   3.744   1.968   2.645 -0.3739 -0.0582  0.4863
 2308SOL    HW118383   3.828   1.975   2.599 -0.4102  0.0052  0.4297
 2308SOL    HW218384   3.764   2.019   2.723  0.3550 -1.1768  1.0327
 2309SOL     OW18385   3.559   1.402  11.693  0.0360  0.4385  0.1540
 2309SOL    HW118386   3.501   1.376  11.765  1.6278 -1.1934  0.8419
 2309SOL    HW218387   3.640   1.416  11.743 -0.5871  3.2222  0.4200
 2310SOL     OW18388   0.972   2.094   2.745  0.8439  0.2419  0.6051
 2310SOL    HW118389   1.023   2.066   2.669 -1.1940  2.0699 -1.4139
 2310SOL    HW218390   0.950   2.184   2.721 -0.2157  0.3288  1.8599
 2311SOL     OW18391   0.566   2.180   4.403 -0.5056  0.1128  0.1379
 2311SOL    HW118392   0.564   2.272   4.428 -1.1155  0.5085 -1.3494
 2311SOL    HW218393   0.655   2.166   4.369 -0.2564  2.2060 -0.0701
 2312SOL     OW18394   2.896   2.090   3.949 -0.4757  0.0902  0.3732
 2312SOL    HW118395   2.805   2.062   3.956  0.1354 -2.0033 -0.1418
 2312SOL    HW218396   2.918   2.040   3.870  1.8987 -0.9258  1.6967
 2313SOL     OW18397   1.570   3.050  10.112  0.1106  0.1565 -0.0798
 2313SOL    HW118398   1.642   2.991  10.089  0.0202  1.2506 -3.2097
 2313SOL    HW218399   1.505   2.981  10.097  0.3065 -0.2678  0.9816
 2314SOL     OW18400   3.938   3.746  11.130  0.1060  0.5041  0.3604
 2314SOL    HW118401   3.941   3.673  11.069  1.0655  1.9995 -1.3826
 2314SOL    HW218402   3.912   3.696  11.207 -1.3963  0.4914 -0.1631
 2315SOL     OW18403   2.497   2.269   4.059 -0.3073  0.2467 -0.0993
 2315SOL    HW118404   2.534   2.356   4.040  0.0559  0.3728  1.1223
 2315SOL    HW218405   2.495   2.225   3.975 -0.6564 -0.3730  0.2382
 2316SOL     OW18406   0.009   3.911   8.204  0.2877 -0.0554 -0.3277
 2316SOL    HW118407   4.650   3.880   8.245  1.2743 -2.0070  0.1175
 2316SOL    HW218408   0.075   3.886   8.268 -0.8235  1.0256  1.2230
 2317SOL     OW18409   3.362   1.752   5.839 -0.1519  0.1470 -0.1681
 2317SOL    HW118410   3.335   1.670   5.880 -0.1108 -0.4174 -1.2870
 2317SOL    HW218411   3.300   1.816   5.874 -0.1056  0.1619 -0.1134
 2318SOL     OW18412   2.747   2.720   3.713  0.0775  0.2444 -0.0806
 2318SOL    HW118413   2.820   2.728   3.651 -0.3481 -0.1054 -0.6189
 2318SOL    HW218414   2.757   2.801   3.764  0.3066 -1.1460  2.0789
 2319SOL     OW18415   1.443   1.554   7.246 -0.2058 -0.4138  0.2696
 2319SOL    HW118416   1.537   1.538   7.247 -0.5154 -2.2495  0.7829
 2319SOL    HW218417   1.435   1.643   7.280 -0.2752  1.0072 -3.4771
 2320SOL     OW18418   3.512   3.959   1.871 -0.0097 -0.2075  0.1738
 2320SOL    HW118419   3.574   3.886   1.867 -1.7307 -1.6295 -0.8198
 2320SOL    HW218420   3.428   3.914   1.879  0.3742 -1.5917 -3.5992
 2321SOL     OW18421   2.571   2.890  12.044  0.1965  0.5024 -0.0459
 2321SOL    HW118422   2.524   2.849  12.117  0.8717  0.1902  0.2123
 2321SOL    HW218423   2.497   2.925  11.994 -0.3612  0.8215  0.9990
 2322SOL     OW18424   3.013   1.738  11.794  0.0239  0.0448 -0.8022
 2322SOL    HW118425   2.986   1.724  11.703 -1.9154  0.2296 -0.2333
 2322SOL    HW218426   3.077   1.669  11.815 -0.4884  0.3607  1.7092
 2323SOL     OW18427   0.977   4.351   4.677  0.5246  0.7585 -0.2266
 2323SOL    HW118428   1.051   4.337   4.736  1.1460  0.5114 -1.0737
 2323SOL    HW218429   1.025   4.398   4.609  0.8621 -1.5895 -1.5952
 2324SOL     OW18430   4.634   3.115  10.792 -0.1461 -0.5914 -0.0529
 2324SOL    HW118431   4.674   3.088  10.875 -1.2416 -0.4758  0.5171
 2324SOL    HW218432   4.641   3.210  10.801 -4.0920 -0.1690 -1.3986
 2325SOL     OW18433   4.097   0.860  16.947 -0.1805 -0.2212 -0.3924
 2325SOL    HW118434   4.054   0.919  16.886  0.4791  1.9402  1.2082
 2325SOL    HW218435   4.025   0.799  16.961  0.1650 -1.0174 -2.0568
 2326SOL     OW18436   4.219   4.556   0.231 -0.6006  0.0496  0.2659
 2326SOL    HW118437   4.148   4.576   0.292  1.5896  1.5150  2.3088
 2326SOL    HW218438   4.282   4.506   0.282  0.5650  0.1371 -1.0790
 2327SOL     OW18439   0.701   0.053   5.007  0.4498 -0.5114 -0.0134
 2327SOL    HW118440   0.709   4.690   5.051 -0.0624  0.1133  1.2531
 2327SOL    HW218441   0.768   0.049   4.938  2.3943 -0.7032  1.8994
 2328SOL     OW18442   1.745   0.298   4.412 -0.4959 -0.2268 -0.2148
 2328SOL    HW118443   1.810   0.233   4.440  1.1347  0.3219 -2.6552
 2328SOL    HW218444   1.720   0.235   4.345  2.2508  0.3642 -1.8017
 2329SOL     OW18445   0.334   3.946   3.121  0.1240 -0.1070 -0.3672
 2329SOL    HW118446   0.370   4.034   3.133  0.7894 -0.1629 -1.8968
 2329SOL    HW218447   0.406   3.906   3.072  1.6348  3.1646 -0.7812
 2330SOL     OW18448   4.252   2.585   3.450 -1.0617  0.6320  0.0225
 2330SOL    HW118449   4.221   2.610   3.363 -0.3740  1.7561  0.1018
 2330SOL    HW218450   4.285   2.666   3.488 -2.0780  0.6662  0.8184
 2331SOL     OW18451   3.228   0.499   7.648  0.3333 -0.0327 -0.3591
 2331SOL    HW118452   3.215   0.556   7.724  0.3714  0.1093 -0.4581
 2331SOL    HW218453   3.304   0.445   7.670  0.3605 -0.2585 -1.0029
 2332SOL     OW18454   4.678   2.667  15.108  0.0262 -0.3723 -0.2925
 2332SOL    HW118455   0.036   2.707  15.072 -0.1508 -1.1007 -1.4709
 2332SOL    HW218456   4.637   2.749  15.134  3.0973  1.4169 -1.0672
 2333SOL     OW18457   3.777   1.254   6.895  0.3089 -0.4131  0.2730
 2333SOL    HW118458   3.754   1.346   6.909  0.4306 -0.4326  0.6038
 2333SOL    HW218459   3.751   1.208   6.975  1.5794 -0.8171  0.4446
 2334SOL     OW18460   3.030   0.407   6.395 -0.3364 -0.4095  0.0505
 2334SOL    HW118461   3.102   0.455   6.354  0.0774  0.3730  1.7112
 2334SOL    HW218462   3.046   0.433   6.486  0.7757 -2.1778  0.3555
 2335SOL     OW18463   3.920   0.836   4.249 -0.2645 -0.1282  0.2737
 2335SOL    HW118464   3.937   0.930   4.261  1.4028 -0.3034 -0.8669
 2335SOL    HW218465   3.993   0.802   4.199 -1.0240 -0.3117 -0.6938
 2336SOL     OW18466   2.713   1.952  16.408 -0.2630  0.7521 -0.0353
 2336SOL    HW118467   2.800   1.972  16.441 -0.5837  2.3487 -0.1588
 2336SOL    HW218468   2.663   1.929  16.486 -0.2676  0.0219 -0.2531
 2337SOL     OW18469   4.045   4.071   8.012  0.1402  0.4527  0.6200
 2337SOL    HW118470   3.970   4.044   7.960  0.6934 -1.3948  0.7972
 2337SOL    HW218471   4.032   4.030   8.097  0.9474  0.3086  0.6739
 2338SOL     OW18472   2.937   3.790  13.795  0.1767 -0.2337 -0.5935
 2338SOL    HW118473   2.971   3.875  13.769  0.9403  0.2835  2.0838
 2338SOL    HW218474   2.941   3.747  13.710 -0.1156 -2.9715  0.7865
 2339SOL     OW18475   3.646   3.974   5.486  0.1148  0.0232 -0.3113
 2339SOL    HW118476   3.664   3.930   5.569 -1.9772  0.6724  0.4961
 2339SOL    HW218477   3.622   4.061   5.518  0.6553  0.9060 -2.2721
 2340SOL     OW18478   1.415   4.278   8.666 -0.1363 -0.2990 -1.0911
 2340SOL    HW118479   1.357   4.210   8.699  0.2705 -0.0722  0.0997
 2340SOL    HW218480   1.488   4.276   8.728 -0.5814 -0.6419 -0.5845
 2341SOL     OW18481   3.693   2.168   7.299 -0.3763  0.3208 -0.6680
 2341SOL    HW118482   3.664   2.220   7.225 -0.5758  0.6627 -0.3492
 2341SOL    HW218483   3.618   2.166   7.359 -0.3859 -1.7031 -0.7483
 2342SOL     OW18484   3.280   0.098   8.985  0.2677 -0.3187 -0.3339
 2342SOL    HW118485   3.243   0.024   9.033 -0.3178 -0.1686 -0.5485
 2342SOL    HW218486   3.242   0.091   8.898  0.5264  2.4312 -0.6519
 2343SOL     OW18487   2.681   0.468  16.920  0.2038 -0.4788 -0.8374
 2343SOL    HW118488   2.613   0.526  16.886  1.7621  1.0675 -1.3389
 2343SOL    HW218489   2.737   0.538  16.955  2.1981 -3.7363  2.4394
 2344SOL     OW18490   4.520   3.418   4.566  0.4110 -0.0602  0.3706
 2344SOL    HW118491   4.564   3.344   4.609 -0.4316 -1.1085 -0.5599
 2344SOL    HW218492   4.559   3.435   4.480 -2.0634  1.2388 -0.5060
 2345SOL     OW18493   4.096   4.281   8.570  0.6115 -0.2304  0.1453
 2345SOL    HW118494   4.113   4.361   8.521  1.5825  0.3268  1.3846
 2345SOL    HW218495   4.136   4.214   8.515 -0.0781  0.1245 -0.7908
 2346SOL     OW18496   3.721   2.247  11.765 -0.1029  0.2494  0.2899
 2346SOL    HW118497   3.728   2.284  11.854 -0.8349  0.4065  0.2784
 2346SOL    HW218498   3.631   2.214  11.764  0.4551 -1.2566 -0.3994
 2347SOL     OW18499   4.135   3.516   7.564  0.9486 -0.8070  0.0270
 2347SOL    HW118500   4.216   3.563   7.547  0.0787 -0.0142 -1.9544
 2347SOL    HW218501   4.120   3.454   7.492 -1.3481  1.8983 -1.8328
 2348SOL     OW18502   4.403   1.624  16.461 -0.2293 -0.5527 -0.2030
 2348SOL    HW118503   4.422   1.716  16.441  0.1209 -0.9587 -1.7440
 2348SOL    HW218504   4.464   1.593  16.394 -1.7159 -2.0121 -0.8875
 2349SOL     OW18505   3.596   1.378   9.719  0.3290 -0.9649 -0.1405
 2349SOL    HW118506   3.594   1.473   9.711  2.2621 -0.8307  1.0014
 2349SOL    HW218507   3.557   1.360   9.805  1.0652  0.7323  0.5450
 2350SOL     OW18508   0.333   2.256  10.532  0.2774  0.1883  0.2054
 2350SOL    HW118509   0.399   2.268  10.601  1.2559 -0.7459 -0.5597
 2350SOL    HW218510   0.259   2.216  10.577 -1.6712  5.3289  1.5818
 2351SOL     OW18511   3.442   0.391   8.751 -0.3376  1.2609 -0.0560
 2351SOL    HW118512   3.427   0.328   8.680 -3.3977  1.7306  0.2049
 2351SOL    HW218513   3.463   0.323   8.816 -0.1694  2.2750  0.9344
 2352SOL     OW18514   0.913   3.067   8.578  0.3567 -0.3120 -0.0917
 2352SOL    HW118515   0.892   3.115   8.658  2.6377 -2.7059  1.9324
 2352SOL    HW218516   0.878   2.978   8.589  0.7103 -0.2971  1.1470
 2353SOL     OW18517   4.237   0.537   8.487 -0.3141  0.0607  0.0600
 2353SOL    HW118518   4.209   0.582   8.407 -0.3157 -1.3603 -0.7532
 2353SOL    HW218519   4.331   0.556   8.488 -0.1943 -0.6242  1.6654
 2354SOL     OW18520   3.075   2.393   3.791  0.1622 -0.0322  0.3126
 2354SOL    HW118521   2.982   2.376   3.809 -0.1665 -1.0050 -2.3498
 2354SOL    HW218522   3.089   2.471   3.844  1.2577 -0.9743  1.3941
 2355SOL     OW18523   1.703   2.076   6.360  0.4728 -0.2348  0.1755
 2355SOL    HW118524   1.669   2.009   6.300 -1.9785 -1.3468  2.7810
 2355SOL    HW218525   1.627   2.098   6.413  0.9955 -1.8561  1.5985
 2356SOL     OW18526   0.530   3.463   1.171  0.2132 -0.0409 -0.0786
 2356SOL    HW118527   0.620   3.485   1.192 -0.0410  0.9396 -0.0243
 2356SOL    HW218528   0.533   3.462   1.075  1.3674  2.5604 -0.0623
 2357SOL     OW18529   3.903   3.826   3.250  0.4537 -0.1268  0.4244
 2357SOL    HW118530   3.855   3.903   3.220  1.0433 -0.9622 -2.6894
 2357SOL    HW218531   3.959   3.865   3.317  0.2181  4.0280 -1.8300
 2358SOL     OW18532   2.667   1.672   3.401 -0.3417  0.0963 -0.6854
 2358SOL    HW118533   2.611   1.599   3.428  0.1049  0.8032  2.2175
 2358SOL    HW218534   2.757   1.647   3.420 -1.0405 -1.6132  0.3431
 2359SOL     OW18535   3.197   0.628   2.483  0.0480 -0.1417 -0.1418
 2359SOL    HW118536   3.170   0.675   2.404  0.3214 -0.1391 -0.2296
 2359SOL    HW218537   3.262   0.687   2.522 -0.9785  0.2683  0.9848
 2360SOL     OW18538   4.670   1.341   3.968  0.5738 -0.0211  0.4452
 2360SOL    HW118539   4.606   1.325   4.037  2.3124 -2.9451  1.3953
 2360SOL    HW218540   0.015   1.386   4.022 -1.0616  2.5223  0.3087
 2361SOL     OW18541   3.121   0.217   5.748  0.1925 -0.5823  0.2563
 2361SOL    HW118542   3.202   0.193   5.705 -1.4566 -1.6671 -2.2452
 2361SOL    HW218543   3.072   0.261   5.678  0.2909 -1.9438 -0.6473
 2362SOL     OW18544   3.229   3.505   7.021  0.1002 -0.0779  0.5454
 2362SOL    HW118545   3.217   3.496   7.116  2.3025  0.9640  0.9286
 2362SOL    HW218546   3.251   3.598   7.013  0.5216 -0.3232 -1.0786
 2363SOL     OW18547   3.821   3.025   8.833 -0.0703 -0.0290 -0.9216
 2363SOL    HW118548   3.756   3.089   8.862 -1.0821 -1.1387 -0.7715
 2363SOL    HW218549   3.891   3.081   8.799  0.1665 -0.5800 -1.3372
 2364SOL     OW18550   4.586   4.582   1.050 -0.6820  0.0076  0.0359
 2364SOL    HW118551   4.606   4.642   1.123  3.3001 -0.1919 -0.8765
 2364SOL    HW218552   4.502   4.546   1.077  0.5129 -2.1058  0.9800
 2365SOL     OW18553   1.356   0.813  12.997 -0.0387  0.1203 -0.1413
 2365SOL    HW118554   1.289   0.881  13.002  0.8996  0.9659  1.1180
 2365SOL    HW218555   1.355   0.794  13.091 -2.2999 -0.3726 -0.2766
 2366SOL     OW18556   2.689   1.423   8.472 -0.3532  0.0946 -0.7846
 2366SOL    HW118557   2.659   1.351   8.528  2.2724  0.1405  0.7357
 2366SOL    HW218558   2.780   1.395   8.460  0.2737  1.9949 -0.4499
 2367SOL     OW18559   0.798   4.652  15.686  0.8875 -0.0671 -0.3053
 2367SOL    HW118560   0.872   4.706  15.659  0.2952  0.1415 -1.5163
 2367SOL    HW218561   0.788   4.691  15.773 -0.1454 -1.4553  0.2114
 2368SOL     OW18562   0.910   0.855   8.483  0.0064 -0.0758 -0.0505
 2368SOL    HW118563   0.879   0.900   8.405  1.7331  1.5814  0.2241
 2368SOL    HW218564   0.904   0.763   8.456  0.7168  0.8218 -3.2446
 2369SOL     OW18565   2.963   2.314  10.472  0.5385  0.0620  0.1759
 2369SOL    HW118566   3.053   2.293  10.448 -0.2528 -0.8715 -2.0513
 2369SOL    HW218567   2.954   2.405  10.442 -1.9825 -0.2559 -0.0464
 2370SOL     OW18568   2.670   4.204   3.868 -0.0978  0.3683 -0.2175
 2370SOL    HW118569   2.755   4.196   3.824 -0.1888 -2.7445  0.1189
 2370SOL    HW218570   2.680   4.134   3.933 -0.4112  0.2390 -0.3113
 2371SOL     OW18571   3.267   4.692   5.801  0.2872 -0.1347 -0.4400
 2371SOL    HW118572   3.232   0.006   5.883  0.8791 -2.4724  0.8301
 2371SOL    HW218573   3.220   4.609   5.789 -0.2468  0.2365 -0.9113
 2372SOL     OW18574   0.911   1.512   1.751  0.6457  0.1825 -0.6533
 2372SOL    HW118575   0.913   1.420   1.724 -2.4137 -0.1410  0.2460
 2372SOL    HW218576   0.819   1.513   1.775  0.5545 -0.7484 -0.9535
 2373SOL     OW18577   1.382   0.809   5.750  0.5679 -0.2618 -0.3887
 2373SOL    HW118578   1.438   0.882   5.775  0.4474 -0.0674 -0.6936
 2373SOL    HW218579   1.309   0.855   5.709 -1.4245 -2.0917  1.0831
 2374SOL     OW18580   2.757   0.478   6.302  0.1105  0.4044  0.2158
 2374SOL    HW118581   2.717   0.535   6.369 -1.1922  1.6080 -1.5915
 2374SOL    HW218582   2.839   0.443   6.337 -0.2726  0.9858  1.7183
 2375SOL     OW18583   2.505   2.480   5.394 -0.3399  0.0832 -0.1529
 2375SOL    HW118584   2.448   2.497   5.318  0.2258  0.7090 -0.4400
 2375SOL    HW218585   2.477   2.554   5.448 -1.2362  0.6596 -1.3943
 2376SOL     OW18586   4.469   3.848   2.912 -0.3736 -0.2488  0.3761
 2376SOL    HW118587   4.395   3.794   2.886 -0.6407  0.4699 -0.3504
 2376SOL    HW218588   4.542   3.821   2.855 -0.5814  0.2112 -0.1105
 2377SOL     OW18589   1.368   0.185   7.605 -0.2282  0.3745 -0.0421
 2377SOL    HW118590   1.398   0.188   7.514  0.0555 -2.2037 -0.0213
 2377SOL    HW218591   1.415   0.260   7.641  1.7138 -1.4792  1.2762
 2378SOL     OW18592   0.354   3.064  12.512 -0.2627 -0.2549 -0.3961
 2378SOL    HW118593   0.259   3.074  12.522 -0.1817 -1.4087  1.4921
 2378SOL    HW218594   0.380   3.125  12.443 -1.1509 -0.1220 -0.6067
 2379SOL     OW18595   1.649   1.684   5.249 -0.4351  0.2145 -0.0401
 2379SOL    HW118596   1.588   1.756   5.263 -1.1027 -0.9813  3.1797
 2379SOL    HW218597   1.726   1.728   5.212  1.7082 -2.5437  1.1525
 2380SOL     OW18598   4.361   2.867   6.437  0.3628 -0.1931 -0.1484
 2380SOL    HW118599   4.409   2.924   6.377 -1.0185  2.0626  0.8739
 2380SOL    HW218600   4.394   2.780   6.416  2.6134  0.2305  1.7159
 2381SOL     OW18601   2.804   0.542   8.174 -0.4879 -0.3063 -0.3610
 2381SOL    HW118602   2.891   0.565   8.143 -0.2697 -0.9117 -0.1970
 2381SOL    HW218603   2.816   0.566   8.266 -0.9570 -1.9356  0.1267
 2382SOL     OW18604   3.480   0.481   3.260 -0.0833 -0.0523  0.0252
 2382SOL    HW118605   3.387   0.459   3.250  0.0225 -0.9933  1.2113
 2382SOL    HW218606   3.500   0.534   3.183 -2.0703 -1.6861 -1.6236
 2383SOL     OW18607   3.155   1.994  10.434  0.5253 -0.3714  0.2462
 2383SOL    HW118608   3.206   1.944  10.370  0.4427  1.3701 -1.2002
 2383SOL    HW218609   3.207   2.074  10.444  0.3384 -0.3280  0.8805
 2384SOL     OW18610   1.214   1.615   7.862 -0.4998 -0.7616  0.3975
 2384SOL    HW118611   1.228   1.625   7.956 -0.6845  0.9163  0.2516
 2384SOL    HW218612   1.171   1.697   7.837 -0.1428 -0.1773  1.6864
 2385SOL     OW18613   3.214   3.799   1.125 -0.1470  0.0651  0.1983
 2385SOL    HW118614   3.224   3.783   1.032  2.7151  1.2918  0.2824
 2385SOL    HW218615   3.265   3.879   1.141 -0.0248  0.2410 -1.1276
 2386SOL     OW18616   3.111   1.730   1.291  0.1141  0.1804 -0.3910
 2386SOL    HW118617   3.104   1.662   1.224 -1.0170  0.0841 -0.1807
 2386SOL    HW218618   3.026   1.719   1.333  0.2865  0.1273 -0.0548
 2387SOL     OW18619   3.656   0.397   2.046 -0.3074  0.1140 -0.3870
 2387SOL    HW118620   3.583   0.348   2.083 -0.4644  0.4911 -0.1940
 2387SOL    HW218621   3.706   0.329   2.000  2.7343  0.4288  2.4563
 2388SOL     OW18622   4.517   1.771  13.211 -0.1696 -0.0019 -0.0447
 2388SOL    HW118623   4.563   1.694  13.243 -2.9429 -0.9756  1.5660
 2388SOL    HW218624   4.548   1.773  13.120 -2.8846  1.1329 -0.9458
 2389SOL     OW18625   2.381   2.219   0.916  0.3407  0.3079 -0.0184
 2389SOL    HW118626   2.382   2.284   0.987  2.4189  0.3412 -0.0796
 2389SOL    HW218627   2.468   2.184   0.936 -0.8075 -1.0819  2.4639
 2390SOL     OW18628   3.752   3.174   4.050 -0.5486 -0.1731  0.6981
 2390SOL    HW118629   3.791   3.148   4.133  1.0256 -2.0740 -0.6212
 2390SOL    HW218630   3.668   3.208   4.079 -0.6480 -1.6831  2.1486
 2391SOL     OW18631   2.074   4.160   5.553 -0.0244 -0.0535 -0.2674
 2391SOL    HW118632   2.096   4.204   5.472 -1.3719 -1.1014 -1.2078
 2391SOL    HW218633   2.161   4.145   5.591 -0.7201 -2.6389  0.3236
 2392SOL     OW18634   3.794   4.483   7.933 -0.2515  0.0865 -0.0927
 2392SOL    HW118635   3.771   4.393   7.908 -0.9893 -0.1805  1.5444
 2392SOL    HW218636   3.800   4.524   7.847  0.6751  0.6416  0.2352
 2393SOL     OW18637   3.381   4.708   6.728  0.0068  0.1093 -1.0286
 2393SOL    HW118638   3.453   4.671   6.779 -2.1279 -1.2299  1.0257
 2393SOL    HW218639   3.414   0.075   6.709 -0.5821  0.2404 -1.4567
 2394SOL     OW18640   2.261   4.001   4.678  0.2739  0.2509  0.2527
 2394SOL    HW118641   2.343   4.051   4.682  0.1752  0.3937  0.4489
 2394SOL    HW218642   2.238   3.997   4.585 -3.6924  1.5155  1.1864
 2395SOL     OW18643   3.436   1.435   4.134  0.1776  0.3441 -0.2381
 2395SOL    HW118644   3.443   1.462   4.042  0.6651  0.8226 -0.0658
 2395SOL    HW218645   3.422   1.518   4.180  3.9059  0.5894  0.4447
 2396SOL     OW18646   3.102   2.369   2.568 -0.2394 -0.1714  0.0669
 2396SOL    HW118647   3.036   2.366   2.499  0.0362  2.0701 -0.3067
 2396SOL    HW218648   3.179   2.319   2.539 -1.3139 -1.9668  0.3420
 2397SOL     OW18649   2.275   4.541   7.413  0.2761 -0.1218  0.3110
 2397SOL    HW118650   2.196   4.582   7.449  1.4250  0.6329  1.9948
 2397SOL    HW218651   2.251   4.450   7.429 -0.1962 -0.1548 -0.5832
 2398SOL     OW18652   2.885   1.151   5.755  0.3589 -0.0653 -0.4791
 2398SOL    HW118653   2.809   1.150   5.814  1.1520  1.4521  0.5774
 2398SOL    HW218654   2.938   1.229   5.770 -0.4605 -0.2297  3.3072
 2399SOL     OW18655   3.339   1.651  11.216 -0.4697 -0.7234 -0.0244
 2399SOL    HW118656   3.301   1.576  11.261 -1.2841  1.0501  2.2551
 2399SOL    HW218657   3.259   1.686  11.176 -0.0415 -0.2063 -0.4335
 2400SOL     OW18658   4.628   3.614  13.833 -0.2035  0.2126  0.3909
 2400SOL    HW118659   4.612   3.563  13.754 -1.3139  1.4888 -0.2026
 2400SOL    HW218660   4.539   3.650  13.842 -0.1761  0.6580 -1.1344
 2401SOL     OW18661   2.921   0.176   6.236 -0.0876 -0.2263  0.0031
 2401SOL    HW118662   2.964   0.247   6.285  0.6033 -0.5689 -0.1098
 2401SOL    HW218663   2.854   0.145   6.297 -0.6256 -1.3379 -1.1605
 2402SOL     OW18664   0.101   4.473   2.861 -0.0090 -0.4542 -0.1038
 2402SOL    HW118665   0.164   4.411   2.825  0.4996 -0.7197  1.2332
 2402SOL    HW218666   0.073   4.417   2.933 -1.8304  0.2823 -0.2500
 2403SOL     OW18667   1.991   3.270   7.861 -0.5472 -0.6340 -0.2854
 2403SOL    HW118668   1.951   3.278   7.947  0.2366  0.8105 -0.0675
 2403SOL    HW218669   1.937   3.333   7.813 -3.4265 -2.2570  0.8371
 2404SOL     OW18670   3.969   4.067   3.378 -0.1479  0.5086  0.1569
 2404SOL    HW118671   4.044   4.108   3.421 -0.1654 -1.1433  1.7739
 2404SOL    HW218672   3.960   4.121   3.300 -2.3942  0.2354  0.2345
 2405SOL     OW18673   1.611   0.954  12.696  0.2099  0.0852 -0.1733
 2405SOL    HW118674   1.587   0.995  12.778 -1.6947 -0.8108 -0.2858
 2405SOL    HW218675   1.616   0.861  12.717 -2.5297 -0.0780 -0.3187
 2406SOL     OW18676   2.701   1.443   2.486 -0.8541  0.1415 -0.2696
 2406SOL    HW118677   2.734   1.403   2.405 -0.4083 -1.9239  0.9186
 2406SOL    HW218678   2.766   1.513   2.493  1.3730 -2.0694  1.1937
 2407SOL     OW18679   2.287   4.036   3.768  0.3526  0.4487  0.2315
 2407SOL    HW118680   2.255   4.115   3.811 -0.3702  0.1872  0.1788
 2407SOL    HW218681   2.216   3.980   3.801  2.0512 -1.7921  0.1200
 2408SOL     OW18682   3.921   4.622   0.334  0.2071 -0.0590  0.3533
 2408SOL    HW118683   3.857   4.645   0.401  0.4845  2.2681 -0.2011
 2408SOL    HW218684   3.901   4.531   0.312  0.3824 -0.2672  1.0628
 2409SOL     OW18685   2.808   3.333   0.885 -0.2096 -0.0154  0.5566
 2409SOL    HW118686   2.728   3.320   0.833  0.8259 -1.0573 -0.7904
 2409SOL    HW218687   2.871   3.270   0.850 -0.4662  0.8819 -1.5273
 2410SOL     OW18688   2.453   4.240   7.315 -0.1828 -0.2340 -0.4596
 2410SOL    HW118689   2.479   4.223   7.225  1.5141  1.3953 -0.2657
 2410SOL    HW218690   2.408   4.159   7.341 -0.9915 -0.0937 -1.4243
 2411SOL     OW18691   3.374   3.113   5.568  0.3614  0.6260  0.4147
 2411SOL    HW118692   3.307   3.155   5.621 -0.5876 -0.4281  0.0482
 2411SOL    HW218693   3.408   3.047   5.629 -0.7162 -0.0044  0.3222
 2412SOL     OW18694   2.444   0.692   5.277  0.2488  0.0612  0.4827
 2412SOL    HW118695   2.371   0.639   5.245 -1.0505  1.4570  1.1491
 2412SOL    HW218696   2.506   0.687   5.204  3.3427  1.5793  3.0010
 2413SOL     OW18697   4.238   2.858   5.317  0.7075  0.0704 -0.0108
 2413SOL    HW118698   4.240   2.904   5.402 -0.6959 -1.3913  0.8149
 2413SOL    HW218699   4.331   2.842   5.301  0.5177 -1.8236  0.7807
 2414SOL     OW18700   2.566   1.061  11.923  0.2307 -0.4834 -0.4628
 2414SOL    HW118701   2.538   0.984  11.872 -0.0218  1.1366 -2.7632
 2414SOL    HW218702   2.577   1.135  11.863  0.1365  0.1071  0.2505
 2415SOL     OW18703   1.813   4.107   9.084  0.1997 -0.2358  0.6452
 2415SOL    HW118704   1.819   4.202   9.073 -0.1335 -0.2833  0.0169
 2415SOL    HW218705   1.823   4.106   9.179 -1.2483  1.9499  0.8286
 2416SOL     OW18706   2.432   4.238   9.265  0.3266  0.6511  0.0704
 2416SOL    HW118707   2.443   4.333   9.259 -0.0159  0.6282 -0.8819
 2416SOL    HW218708   2.460   4.225   9.356  0.8287 -0.9378 -0.3239
 2417SOL     OW18709   3.351   2.125   6.312 -0.2035 -1.5056 -0.2354
 2417SOL    HW118710   3.350   2.123   6.217 -1.7240  2.8998 -0.3410
 2417SOL    HW218711   3.332   2.219   6.320  3.1828 -0.5769 -3.0814
 2418SOL     OW18712   2.811   2.486   3.028 -0.3579  0.5766 -0.1510
 2418SOL    HW118713   2.865   2.563   3.009 -0.8625  0.9384 -0.1279
 2418SOL    HW218714   2.869   2.413   3.007 -0.8458  0.2007 -0.2010
 2419SOL     OW18715   4.536   3.093   4.611  0.4998  0.1692  0.1877
 2419SOL    HW118716   4.591   3.050   4.546  0.9240  0.4206  0.3839
 2419SOL    HW218717   4.452   3.103   4.566  0.1124 -0.9491  0.6511
 2420SOL     OW18718   1.020   4.395  15.360 -0.4178  0.4106 -0.0334
 2420SOL    HW118719   0.950   4.451  15.328 -1.6986 -1.7183 -0.9072
 2420SOL    HW218720   1.046   4.439  15.441 -1.8709  0.5702  0.3459
 2421SOL     OW18721   1.657   2.360   3.614 -0.0051  0.1218  0.4150
 2421SOL    HW118722   1.711   2.388   3.541 -1.8215  0.8846 -0.6382
 2421SOL    HW218723   1.578   2.338   3.564 -1.3409  1.6150  1.8895
 2422SOL     OW18724   2.426   1.802   9.776  0.1772  0.0679 -0.1385
 2422SOL    HW118725   2.360   1.822   9.843 -0.6390  0.8634 -1.1932
 2422SOL    HW218726   2.463   1.888   9.755 -1.3631  1.2310  1.8634
 2423SOL     OW18727   2.042   0.983   7.022  0.6542  0.1034 -0.2954
 2423SOL    HW118728   2.004   0.941   6.945  1.9135  1.0815 -1.4479
 2423SOL    HW218729   1.998   0.922   7.081 -2.1506  2.8568  0.4851
 2424SOL     OW18730   1.642   4.322   9.389 -0.0436  0.4610  0.0283
 2424SOL    HW118731   1.646   4.403   9.439 -2.1459  1.5970 -1.6555
 2424SOL    HW218732   1.731   4.294   9.368 -0.0705  0.8727 -0.6168
 2425SOL     OW18733   3.906   2.287   3.152 -0.2805 -0.2198  0.1991
 2425SOL    HW118734   3.829   2.267   3.100  0.9505  0.0012 -1.7115
 2425SOL    HW218735   3.904   2.383   3.156  2.2022 -0.2035  1.1882
 2426SOL     OW18736   0.324   3.406   6.187 -0.1697 -0.1508 -0.2493
 2426SOL    HW118737   0.379   3.429   6.262 -0.7179  1.5191 -0.3596
 2426SOL    HW218738   0.402   3.390   6.133 -0.0009 -2.3627  0.6069
 2427SOL     OW18739   1.648   1.826   6.198 -0.1720 -0.0948  0.0916
 2427SOL    HW118740   1.614   1.820   6.109  0.1087  2.6640 -0.1984
 2427SOL    HW218741   1.609   1.752   6.245  1.6553 -0.7907  0.5195
 2428SOL     OW18742   0.962   4.207   4.374 -0.5793  0.5079  0.5736
 2428SOL    HW118743   0.979   4.164   4.458  0.6622  1.4924  0.8454
 2428SOL    HW218744   1.052   4.216   4.343 -0.9912  0.1150 -0.7169
 2429SOL     OW18745   2.561   1.244   5.542  0.2102 -0.6981  0.1332
 2429SOL    HW118746   2.499   1.237   5.614 -0.3333  0.8216 -0.1799
 2429SOL    HW218747   2.504   1.249   5.465  0.2651  1.7870  0.2495
 2430SOL     OW18748   1.202   3.522  17.164  0.1324  0.2271  0.2075
 2430SOL    HW118749   1.129   3.579  17.186 -0.1145  0.1012 -0.2795
 2430SOL    HW218750   1.171   3.436  17.192 -1.8826  0.8851 -0.0555
 2431SOL     OW18751   0.260   0.258  13.828  0.8677  0.0573  0.1233
 2431SOL    HW118752   0.218   0.219  13.751  2.7191  0.8651 -1.2793
 2431SOL    HW218753   0.286   0.340  13.786  0.4562  0.2345  0.2123
 2432SOL     OW18754   4.633   3.456  12.808  0.0169  0.4154 -0.3579
 2432SOL    HW118755   4.613   3.408  12.727  1.4918 -3.3431  1.5233
 2432SOL    HW218756   4.554   3.432  12.857  0.5010 -0.7134 -0.1278
 2433SOL     OW18757   2.726   1.964   1.318  0.2769 -0.4652  0.0644
 2433SOL    HW118758   2.789   1.892   1.319  0.4047 -0.3456  2.3535
 2433SOL    HW218759   2.645   1.927   1.283 -1.5223  2.4597  1.1141
 2434SOL     OW18760   1.201   3.596   4.644  0.2986 -0.2025  0.1985
 2434SOL    HW118761   1.243   3.655   4.706 -0.4713  1.3793 -0.8057
 2434SOL    HW218762   1.144   3.657   4.597  2.9653  0.1069 -2.5678
 2435SOL     OW18763   1.633   3.026   5.509  0.0844 -0.7325 -0.4507
 2435SOL    HW118764   1.630   3.068   5.595  2.2688  0.1368 -0.8113
 2435SOL    HW218765   1.650   2.935   5.534  0.7103 -0.2216  0.9203
 2436SOL     OW18766   1.205   3.278   7.016 -0.0867  0.3353  0.1440
 2436SOL    HW118767   1.228   3.231   7.097 -0.6969  0.8658  0.6333
 2436SOL    HW218768   1.190   3.364   7.057 -1.6162  1.2301 -2.3193
 2437SOL     OW18769   2.468   2.752   2.088 -0.5352 -0.0185  0.6354
 2437SOL    HW118770   2.550   2.749   2.037 -1.5617 -1.0787 -0.9841
 2437SOL    HW218771   2.503   2.780   2.172  1.6538 -0.1821 -0.2182
 2438SOL     OW18772   4.471   2.689   5.885 -0.0655 -0.0635 -0.1873
 2438SOL    HW118773   4.554   2.685   5.933  0.2061  1.1808 -0.5531
 2438SOL    HW218774   4.423   2.643   5.953 -2.6787  0.7887 -1.4498
 2439SOL     OW18775   3.696   0.255  16.676 -0.0532 -0.3235 -0.1910
 2439SOL    HW118776   3.681   0.328  16.735 -2.0456  1.2113 -2.5853
 2439SOL    HW218777   3.669   0.298  16.595  1.2304 -0.3006 -0.6078
 2440SOL     OW18778   0.331   1.701   6.717  0.3092  0.3523  0.3656
 2440SOL    HW118779   0.423   1.679   6.706  0.7032  2.9067 -1.3671
 2440SOL    HW218780   0.342   1.785   6.673 -0.6444 -0.3322 -1.1857
 2441SOL     OW18781   3.593   1.253  10.921 -0.4852  0.3696 -0.8032
 2441SOL    HW118782   3.602   1.299  11.004 -0.4045 -0.0752 -0.5686
 2441SOL    HW218783   3.629   1.315  10.857 -2.4791  0.1525 -2.1425
 2442SOL     OW18784   4.264   2.603   4.560 -0.0547 -0.6935 -0.7324
 2442SOL    HW118785   4.308   2.589   4.644  0.3778 -3.2351 -1.3962
 2442SOL    HW218786   4.188   2.655   4.587  1.3269  0.2758  1.2802
 2443SOL     OW18787   4.405   0.933   9.042 -0.1362 -0.1093  0.3751
 2443SOL    HW118788   4.441   1.016   9.012 -0.2410  0.2656  1.3118
 2443SOL    HW218789   4.311   0.952   9.050  0.0030  1.0423 -0.8220
 2444SOL     OW18790   2.640   1.210   3.829  0.0369  0.3431 -0.1295
 2444SOL    HW118791   2.676   1.125   3.857  1.8870  1.0687 -0.3262
 2444SOL    HW218792   2.685   1.265   3.893 -0.8222  1.0692 -0.1401
 2445SOL     OW18793   1.109   2.966   2.211  0.2736  0.5097 -0.1638
 2445SOL    HW118794   1.050   2.934   2.279 -0.3001 -0.4770 -1.1264
 2445SOL    HW218795   1.063   3.045   2.182 -1.1515 -0.0902  0.4803
 2446SOL     OW18796   1.668   1.458   1.791  0.4746  0.0417  0.2006
 2446SOL    HW118797   1.588   1.504   1.816  0.5102  0.8950 -1.2658
 2446SOL    HW218798   1.673   1.508   1.709  1.4763 -2.1376 -1.0601
 2447SOL     OW18799   4.538   0.125  14.260 -0.7197 -0.5893  0.7938
 2447SOL    HW118800   4.585   0.203  14.287 -1.9453  0.1435  0.7895
 2447SOL    HW218801   4.471   0.160  14.202 -1.2398 -2.1336  0.4466
 2448SOL     OW18802   1.877   2.272   0.993 -0.6433  0.0432  0.6105
 2448SOL    HW118803   1.950   2.333   0.985  0.5288 -1.8192 -3.0916
 2448SOL    HW218804   1.913   2.238   1.075 -1.1807  2.8368  1.9820
 2449SOL     OW18805   4.637   2.596   5.066 -0.3248 -0.4584  0.3830
 2449SOL    HW118806   4.614   2.515   5.112 -3.6671  0.9464  1.1706
 2449SOL    HW218807   4.554   2.613   5.023  0.8842  1.2574 -1.2926
 2450SOL     OW18808   0.437   4.382   8.723  0.1297 -0.4271  0.2021
 2450SOL    HW118809   0.458   4.454   8.782  2.9654 -1.5487  0.5577
 2450SOL    HW218810   0.374   4.421   8.662 -1.1874  0.6780  2.2752
 2451SOL     OW18811   3.023   2.133  14.198  0.1315 -0.3985  0.0007
 2451SOL    HW118812   3.021   2.228  14.210 -0.5032 -0.1591 -2.0530
 2451SOL    HW218813   2.962   2.105  14.266  1.6339  0.6215  1.7734
 2452SOL     OW18814   4.152   3.208   2.030  0.3223  0.6587  0.4331
 2452SOL    HW118815   4.064   3.233   2.057 -1.1326 -2.2773 -1.5591
 2452SOL    HW218816   4.128   3.135   1.973  0.0251  0.8585  0.3048
 2453SOL     OW18817   2.762   4.107   8.351 -0.1540 -0.4338  0.4059
 2453SOL    HW118818   2.684   4.133   8.301  0.7708 -0.5807 -1.1146
 2453SOL    HW218819   2.827   4.093   8.282 -0.5714  0.4054 -0.1628
 2454SOL     OW18820   1.715   3.729   1.062  0.4987 -0.2442 -0.2152
 2454SOL    HW118821   1.782   3.730   1.131 -0.3689  1.3942  0.6135
 2454SOL    HW218822   1.702   3.823   1.049  0.6166 -0.2666 -0.4984
 2455SOL     OW18823   0.066   3.002   9.195 -0.4475  0.3165 -0.0913
 2455SOL    HW118824   0.044   2.926   9.142 -3.2623  0.1843  1.3005
 2455SOL    HW218825   4.710   3.059   9.187 -0.4975  0.8504  3.7047
 2456SOL     OW18826   0.051   1.989   2.477  0.2255 -0.0442 -0.0940
 2456SOL    HW118827   4.691   2.030   2.448 -0.0719 -0.1663  0.5575
 2456SOL    HW218828   0.018   1.904   2.506  0.9202  0.0588  1.0203
 2457SOL     OW18829   1.118   1.792   3.895  0.2208 -0.5145 -0.7047
 2457SOL    HW118830   1.098   1.849   3.820  0.8241  2.5880  1.4861
 2457SOL    HW218831   1.187   1.738   3.858  1.7470  1.1303 -0.2542
 2458SOL     OW18832   2.433   3.141   8.268 -0.3741  0.6460 -0.1373
 2458SOL    HW118833   2.492   3.195   8.321  0.5783  1.4751 -2.0626
 2458SOL    HW218834   2.451   3.055   8.307 -1.7409  0.7275  0.6634
 2459SOL     OW18835   1.306   3.274   2.966  0.7824  0.6338  0.3375
 2459SOL    HW118836   1.336   3.215   3.035  1.7276  2.2347  1.2994
 2459SOL    HW218837   1.223   3.234   2.943  0.3037  0.8294  1.7337
 2460SOL     OW18838   2.940   4.509   2.933  0.1260 -0.2458  0.1678
 2460SOL    HW118839   2.894   4.534   2.853  0.5248 -0.7910 -0.2299
 2460SOL    HW218840   3.015   4.569   2.928 -1.3682  1.7694  1.6330
 2461SOL     OW18841   3.589   2.371  11.044  0.6699  0.1495 -0.1974
 2461SOL    HW118842   3.607   2.455  11.002 -1.8679  0.5940 -0.3664
 2461SOL    HW218843   3.561   2.401  11.131  0.0889  0.9006 -0.6376
 2462SOL     OW18844   2.361   2.781  11.242 -0.1967  0.4337  0.3765
 2462SOL    HW118845   2.420   2.855  11.248 -1.4671  1.4697  0.1540
 2462SOL    HW218846   2.275   2.821  11.231  0.7129  2.7925  1.8763
 2463SOL     OW18847   3.866   1.211   9.299  0.3771 -0.1961  0.3267
 2463SOL    HW118848   3.919   1.180   9.226 -1.2004 -0.1828 -0.8357
 2463SOL    HW218849   3.816   1.130   9.299  0.3726 -0.1900  0.9515
 2464SOL     OW18850   1.491   2.928   3.995 -0.1451  0.3642 -0.0394
 2464SOL    HW118851   1.567   2.934   4.053  0.1677 -0.2474 -0.3857
 2464SOL    HW218852   1.495   3.016   3.958  0.7253  0.0341 -0.7436
 2465SOL     OW18853   0.658   0.780  10.859  0.0901  0.5848 -0.4983
 2465SOL    HW118854   0.743   0.743  10.879 -0.6507  0.4889  2.5064
 2465SOL    HW218855   0.667   0.866  10.900 -1.1472  0.0976  0.7940
 2466SOL     OW18856   2.154   1.941  12.347  0.1529 -0.2281 -0.4525
 2466SOL    HW118857   2.223   1.875  12.341  1.8594  1.3588  1.7796
 2466SOL    HW218858   2.210   2.016  12.367  1.1579 -1.3822  1.0855
 2467SOL     OW18859   4.680   1.356  15.508 -0.5166 -0.1191  0.1087
 2467SOL    HW118860   4.635   1.403  15.438  0.1784 -0.0137 -0.2719
 2467SOL    HW218861   4.670   1.417  15.581  0.6019 -0.2910  0.4179
 2468SOL     OW18862   1.698   3.999   1.041  0.7497  0.2738  0.0109
 2468SOL    HW118863   1.627   4.040   0.992 -2.2006 -2.4735  1.9267
 2468SOL    HW218864   1.731   4.074   1.090 -0.4736  0.3870  0.6852
 2469SOL     OW18865   1.969   1.021   5.554 -0.3821  0.2928  0.0317
 2469SOL    HW118866   1.885   1.057   5.527 -0.2636  1.4368  1.1866
 2469SOL    HW218867   2.021   1.034   5.475 -0.9903  0.7278 -0.3008
 2470SOL     OW18868   1.229   0.800   2.504  0.2512  0.0746 -0.5104
 2470SOL    HW118869   1.145   0.821   2.461 -0.9764 -1.4330  1.1338
 2470SOL    HW218870   1.228   0.857   2.581  1.6350  1.1197 -1.2714
 2471SOL     OW18871   4.656   0.244  16.362 -0.2639 -0.1837 -0.0121
 2471SOL    HW118872   4.613   0.283  16.438 -0.6587  2.2089 -1.4966
 2471SOL    HW218873   0.020   0.219  16.399 -0.3564 -1.9687 -0.9997
 2472SOL     OW18874   1.160   3.079   1.064  0.0543  0.4106 -0.2675
 2472SOL    HW118875   1.078   3.097   1.018 -1.2973 -0.4001  1.8618
 2472SOL    HW218876   1.177   3.160   1.112 -0.2057  0.1932  0.1859
 2473SOL     OW18877   4.196   0.207  13.634 -0.2323 -0.0891  0.0501
 2473SOL    HW118878   4.105   0.235  13.646  0.0689  0.4502  1.0927
 2473SOL    HW218879   4.182   0.116  13.660  0.7714  0.0844  1.1963
 2474SOL     OW18880   0.150   0.285  15.555 -0.0670 -0.2511  0.0443
 2474SOL    HW118881   0.240   0.278  15.585  0.9486  1.3110 -2.6569
 2474SOL    HW218882   0.169   0.353  15.490  1.1086  0.2910  0.9703
 2475SOL     OW18883   4.000   4.286   0.737 -0.3512 -0.4456  0.4145
 2475SOL    HW118884   3.905   4.291   0.748 -0.2051  2.2217  0.5204
 2475SOL    HW218885   4.032   4.341   0.666  2.1269 -0.5618  1.4463
 2476SOL     OW18886   1.320   2.695  15.517 -0.0660 -0.5281  0.0318
 2476SOL    HW118887   1.335   2.649  15.435 -0.2341  1.3864 -1.0722
 2476SOL    HW218888   1.367   2.778  15.508 -2.0177  0.7230  1.5417
 2477SOL     OW18889   3.842   1.876   7.737 -0.1002  0.0241 -0.8209
 2477SOL    HW118890   3.852   1.783   7.757  0.2106  0.4382  0.8735
 2477SOL    HW218891   3.772   1.905   7.795  1.1022 -1.7044  1.4954
 2478SOL     OW18892   3.969   1.530   6.520  0.1459  0.3393 -0.2691
 2478SOL    HW118893   4.011   1.573   6.446 -1.1809  1.7125 -0.2271
 2478SOL    HW218894   4.026   1.557   6.592 -0.6934  1.7044 -0.1267
 2479SOL     OW18895   3.573   0.586   0.642 -0.4210  0.1214  0.1301
 2479SOL    HW118896   3.547   0.507   0.594  2.1443 -0.3590 -0.5101
 2479SOL    HW218897   3.541   0.555   0.726  0.2333 -0.5167  0.1513
 2480SOL     OW18898   2.653   2.437  13.335  0.5529  0.2417 -0.3985
 2480SOL    HW118899   2.676   2.527  13.312 -0.4050 -0.0651 -2.5448
 2480SOL    HW218900   2.570   2.464  13.374  1.4106  1.4029  0.6070
 2481SOL     OW18901   1.457   0.995   4.240  0.1081  0.0511 -1.2817
 2481SOL    HW118902   1.526   1.027   4.298 -1.3336  0.8276  0.0090
 2481SOL    HW218903   1.492   1.001   4.151  0.1244 -0.1218 -1.2867
 2482SOL     OW18904   0.117   2.759   4.292 -0.1747  0.3674  0.8322
 2482SOL    HW118905   0.094   2.819   4.221 -1.2276 -0.3690  0.5554
 2482SOL    HW218906   0.195   2.717   4.255 -2.4046 -1.3838 -1.8321
 2483SOL     OW18907   1.152   4.401  13.234  0.1138 -0.0336  1.2727
 2483SOL    HW118908   1.245   4.384  13.216 -0.4294 -0.8515 -0.7659
 2483SOL    HW218909   1.130   4.332  13.297 -1.0450  1.5850  2.6568
 2484SOL     OW18910   2.936   4.188   2.591 -0.5026 -0.4220  0.3904
 2484SOL    HW118911   2.943   4.255   2.523  0.8682  0.4388  1.3592
 2484SOL    HW218912   2.854   4.149   2.563  0.2334 -2.9918  1.7717
 2485SOL     OW18913   1.168   2.054   8.905  0.1511 -0.6533  0.5306
 2485SOL    HW118914   1.081   2.026   8.932 -0.2561  0.6137  0.5276
 2485SOL    HW218915   1.178   2.021   8.816  2.7243 -1.7113  1.2128
 2486SOL     OW18916   4.658   1.348   6.358  0.4434  0.0357 -0.2237
 2486SOL    HW118917   4.644   1.302   6.275 -0.4014 -1.1697  0.5852
 2486SOL    HW218918   4.625   1.285   6.422 -0.5352  0.9848  0.1904
 2487SOL     OW18919   2.258   3.450   1.959  0.6064 -0.0841 -0.0197
 2487SOL    HW118920   2.253   3.361   1.924  1.1085 -0.5008  0.9719
 2487SOL    HW218921   2.209   3.436   2.040  1.5362  0.8751  0.7093
 2488SOL     OW18922   1.579   3.115   5.770 -0.2012  0.5090 -0.5915
 2488SOL    HW118923   1.485   3.111   5.753  0.2693 -0.5002 -2.8394
 2488SOL    HW218924   1.577   3.141   5.862  0.0966 -0.7056 -0.2507
 2489SOL     OW18925   0.840   0.763   7.217  0.3613 -0.1896  0.4551
 2489SOL    HW118926   0.856   0.675   7.251 -1.3996 -1.4167 -1.8788
 2489SOL    HW218927   0.769   0.742   7.155  1.4952 -1.2374 -0.5131
 2490SOL     OW18928   1.749   3.531   6.771  0.0597 -0.0460 -0.0699
 2490SOL    HW118929   1.661   3.508   6.740  0.7269 -0.7810 -1.4463
 2490SOL    HW218930   1.725   3.615   6.809 -1.6629 -0.1847 -0.8227
 2491SOL     OW18931   2.496   1.874   7.234 -0.3429  0.2218 -0.1011
 2491SOL    HW118932   2.427   1.939   7.223 -0.7931 -0.0959  0.8805
 2491SOL    HW218933   2.461   1.791   7.200 -0.3144  0.3191 -0.3646
 2492SOL     OW18934   3.672   1.577   6.609  0.0416  0.3320 -0.1118
 2492SOL    HW118935   3.747   1.561   6.666  1.2613  0.2904 -1.7518
 2492SOL    HW218936   3.715   1.591   6.525  0.9241 -0.3092  0.2393
 2493SOL     OW18937   0.168   2.727   9.041  0.2972  0.6925 -0.4547
 2493SOL    HW118938   0.202   2.689   9.123  0.1877  1.2156 -0.1684
 2493SOL    HW218939   0.115   2.652   9.013 -2.6727  1.6494  2.5600
 2494SOL     OW18940   0.338   3.030   6.919  0.4935  0.4391  0.0506
 2494SOL    HW118941   0.418   2.999   6.961  0.6263 -2.0644 -2.0365
 2494SOL    HW218942   0.314   2.951   6.870  1.7079 -0.2330  0.5425
 2495SOL     OW18943   0.574   4.428  13.899 -0.3000 -0.1595  0.0988
 2495SOL    HW118944   0.530   4.351  13.863 -0.1502  0.5152 -1.5214
 2495SOL    HW218945   0.563   4.498  13.835  1.6724 -1.4273 -1.6362
 2496SOL     OW18946   0.702   1.440   5.137  0.6609 -0.3838 -0.0941
 2496SOL    HW118947   0.695   1.524   5.182  1.0289 -1.2535  1.5778
 2496SOL    HW218948   0.640   1.393   5.193 -0.8751  0.9984 -0.6438
 2497SOL     OW18949   2.675   2.666   2.746  0.1333  0.2281 -0.2331
 2497SOL    HW118950   2.690   2.599   2.680 -1.3011  0.7123 -1.0492
 2497SOL    HW218951   2.708   2.736   2.690  0.5617  0.1452 -0.0858
 2498SOL     OW18952   1.044   2.154   7.637  0.5071 -0.1018  0.0532
 2498SOL    HW118953   1.066   2.122   7.550  1.4946 -1.1784  0.6850
 2498SOL    HW218954   1.081   2.080   7.686 -1.3975  1.9877  4.6827
 2499SOL     OW18955   4.059   2.220   9.711  0.6092  0.4334  0.3023
 2499SOL    HW118956   4.154   2.224   9.699  0.3186  0.6287 -1.9536
 2499SOL    HW218957   4.040   2.128   9.727 -0.0083  0.4396 -0.3711
 2500SOL     OW18958   3.452   2.791   3.243 -0.3295  0.3202 -0.7396
 2500SOL    HW118959   3.398   2.847   3.188  1.9111  2.0787 -1.1307
 2500SOL    HW218960   3.384   2.752   3.299 -1.0465  1.9682 -0.4755
 2501SOL     OW18961   0.472   3.544   3.997  0.2335 -0.1289 -0.2933
 2501SOL    HW118962   0.399   3.489   3.969 -0.7462 -0.3757  2.7474
 2501SOL    HW218963   0.430   3.606   4.055  0.7351 -1.1000  1.1137
 2502SOL     OW18964   4.037   0.957  11.735 -0.4405  0.1910  0.2720
 2502SOL    HW118965   3.959   0.983  11.685 -1.3872 -1.4949  0.8590
 2502SOL    HW218966   3.998   0.919  11.814 -0.3964  0.4747  0.4281
 2503SOL     OW18967   4.198   0.401   6.172 -0.0662 -0.0959 -0.5638
 2503SOL    HW118968   4.157   0.356   6.245  2.0436  0.6313  1.0881
 2503SOL    HW218969   4.127   0.390   6.109  0.4240  0.3269 -1.1930
 2504SOL     OW18970   0.046   0.730   1.421 -0.4644  0.0427  0.1216
 2504SOL    HW118971   4.712   0.666   1.466 -0.8761 -0.7434 -1.4902
 2504SOL    HW218972   4.709   0.771   1.357 -0.8093  0.2686  0.5755
 2505SOL     OW18973   3.330   0.863  10.906  0.4361 -0.3863  0.2318
 2505SOL    HW118974   3.284   0.909  10.835  2.2140 -1.6669 -1.7338
 2505SOL    HW218975   3.258   0.805  10.929 -0.6146  1.4435  1.6277
 2506SOL     OW18976   0.625   4.163   3.208 -0.2195 -0.4755  0.6244
 2506SOL    HW118977   0.530   4.168   3.192  0.3844 -0.7075 -2.9764
 2506SOL    HW218978   0.658   4.248   3.181 -2.2999  0.8229  2.1147
 2507SOL     OW18979   4.511   0.768   9.346 -0.1058 -0.3660  0.1217
 2507SOL    HW118980   4.581   0.746   9.285 -1.1374 -2.1111 -0.4331
 2507SOL    HW218981   4.468   0.684   9.359  0.2601 -0.3356  1.4871
 2508SOL     OW18982   2.629   2.221   5.643 -0.0950  0.2977  0.5715
 2508SOL    HW118983   2.537   2.202   5.662  0.0008 -1.7390 -1.0371
 2508SOL    HW218984   2.654   2.149   5.587  0.1673  0.1693  0.8535
 2509SOL     OW18985   3.976   2.945   4.061 -0.2321 -0.4898  0.0107
 2509SOL    HW118986   3.891   2.906   4.038  0.6596 -2.1477 -0.4682
 2509SOL    HW218987   4.015   2.864   4.095 -1.1426 -0.9543 -0.0440
 2510SOL     OW18988   2.436   3.388  13.220 -0.3695  0.4271  0.2263
 2510SOL    HW118989   2.355   3.430  13.248 -0.8234 -1.3721  1.6288
 2510SOL    HW218990   2.446   3.429  13.134 -2.2319 -0.4558 -0.4023
 2511SOL     OW18991   0.102   2.403  14.789 -0.1044  0.0022  0.2775
 2511SOL    HW118992   0.037   2.455  14.835  0.6823  0.4738  0.8661
 2511SOL    HW218993   0.050   2.374  14.714  1.0620 -1.4300  0.0103
 2512SOL     OW18994   1.981   2.855   4.105 -0.0993  0.2060  0.1794
 2512SOL    HW118995   1.903   2.852   4.159  0.5916  1.9177  1.2642
 2512SOL    HW218996   2.047   2.851   4.174  0.1233  1.1012  0.0123
 2513SOL     OW18997   0.097   1.188   3.223  0.5271 -0.1916  0.2563
 2513SOL    HW118998   0.118   1.256   3.159  1.1006  1.6408  2.3728
 2513SOL    HW218999   0.005   1.170   3.205  1.0528 -0.4430 -2.0984
 2514SOL     OW19000   3.966   1.943   9.729 -0.1021  0.0702 -0.2005
 2514SOL    HW119001   4.009   1.875   9.781 -1.4864  0.1046  0.9838
 2514SOL    HW219002   3.965   1.906   9.641  0.3502  2.0232 -1.0155
 2515SOL     OW19003   2.376   3.957   2.497  0.7299 -0.2419 -0.7813
 2515SOL    HW119004   2.297   3.941   2.549  3.3506 -2.7413  2.4586
 2515SOL    HW219005   2.405   4.040   2.534  2.1609 -0.5682 -1.1721
 2516SOL     OW19006   1.957   3.548   4.734  0.8598 -0.6912 -0.2795
 2516SOL    HW119007   2.027   3.608   4.763  0.3029 -0.1834  0.0083
 2516SOL    HW219008   2.004   3.505   4.662  2.3755  2.1990 -1.0146
 2517SOL     OW19009   4.600   0.867   7.464  0.6459 -0.7484  0.0823
 2517SOL    HW119010   4.585   0.800   7.397 -0.8768 -0.4556  0.1241
 2517SOL    HW219011   4.524   0.845   7.517 -1.4779  3.5661 -1.1992
 2518SOL     OW19012   3.413   3.889  14.505  0.0060  0.9398  0.1495
 2518SOL    HW119013   3.437   3.824  14.439  0.4642  0.6266  0.6262
 2518SOL    HW219014   3.476   3.863  14.572  0.1838  0.5641 -0.1580
 2519SOL     OW19015   3.327   2.063   5.444 -0.1504 -0.1227 -0.1433
 2519SOL    HW119016   3.310   1.969   5.437  3.2148 -0.6985 -0.3121
 2519SOL    HW219017   3.242   2.102   5.422 -0.0515 -0.7581 -1.6370
 2520SOL     OW19018   4.128   1.450  14.578 -0.1589 -0.7373 -0.1656
 2520SOL    HW119019   4.183   1.374  14.560 -0.6667 -1.4294  1.2193
 2520SOL    HW219020   4.043   1.406  14.577  0.3005 -1.6146 -1.1200
 2521SOL     OW19021   4.510   4.525   3.624  0.1640  0.8220 -0.6316
 2521SOL    HW119022   4.440   4.477   3.669 -1.4975  1.2624 -2.7331
 2521SOL    HW219023   4.449   4.575   3.570 -2.6042 -2.5894 -0.6656
 2522SOL     OW19024   0.573   0.646   4.742  0.3782 -0.3018 -0.3521
 2522SOL    HW119025   0.505   0.663   4.807 -0.5097 -1.6540 -0.9257
 2522SOL    HW219026   0.557   0.697   4.663  0.4044 -0.8145 -0.6833
 2523SOL     OW19027   3.995   0.636   6.738 -0.5175  0.5628  0.4431
 2523SOL    HW119028   3.948   0.555   6.758 -1.0357  0.5657 -0.7517
 2523SOL    HW219029   4.015   0.626   6.645 -0.7554 -1.0433  0.5710
 2524SOL     OW19030   2.690   3.240   2.497  0.5133  0.2364  0.1514
 2524SOL    HW119031   2.633   3.164   2.509 -0.5005  0.9057 -0.4739
 2524SOL    HW219032   2.767   3.184   2.492 -0.0417 -0.5653  0.5692
 2525SOL     OW19033   2.333   1.765   1.833  0.0697 -0.0416  0.2563
 2525SOL    HW119034   2.374   1.719   1.906 -0.0751  0.0296  0.3813
 2525SOL    HW219035   2.280   1.828   1.881 -3.8574 -1.0142 -2.8218
 2526SOL     OW19036   2.388   3.137   5.985 -0.0752 -0.1188 -0.9982
 2526SOL    HW119037   2.425   3.062   5.939  0.8307  0.2115 -0.7955
 2526SOL    HW219038   2.293   3.123   5.988 -0.3319  1.9500  1.1564
 2527SOL     OW19039   3.160   1.624   6.740 -0.8069  0.2470  0.2179
 2527SOL    HW119040   3.202   1.684   6.802  0.4677  0.3012 -0.6994
 2527SOL    HW219041   3.232   1.624   6.677 -1.7902  0.9346 -0.9008
 2528SOL     OW19042   3.305   2.228   3.808  0.3159  0.1845  0.1103
 2528SOL    HW119043   3.241   2.298   3.790 -0.6712  0.2397  3.9781
 2528SOL    HW219044   3.262   2.146   3.784  1.8842 -0.2316 -1.2526
 2529SOL     OW19045   0.041   1.142  15.365 -0.6182  0.1241 -0.0725
 2529SOL    HW119046   0.063   1.204  15.296  1.8829 -2.6638 -1.7906
 2529SOL    HW219047   0.034   1.205  15.436  0.8461 -1.7232  1.7197
 2530SOL     OW19048   0.430   4.046  11.573 -0.2897  0.0359 -0.5173
 2530SOL    HW119049   0.481   3.980  11.621  0.8595  2.1372  1.1171
 2530SOL    HW219050   0.488   4.047  11.497  1.2061 -1.9297  0.6133
 2531SOL     OW19051   4.682   2.028   3.710 -0.0570  0.3449 -0.3116
 2531SOL    HW119052   4.646   2.058   3.626  0.0781 -0.7385 -0.7640
 2531SOL    HW219053   4.651   2.105   3.758 -1.7414 -0.4877 -0.0548
 2532SOL     OW19054   1.668   1.349   7.383  0.3335  0.3135 -0.2576
 2532SOL    HW119055   1.657   1.278   7.320 -0.4430  1.2576 -1.1963
 2532SOL    HW219056   1.611   1.310   7.449  2.0600 -0.5174  0.7266
 2533SOL     OW19057   1.157   0.633   5.644 -0.8451 -0.5463 -0.3283
 2533SOL    HW119058   1.097   0.704   5.669  0.3273  0.3261  0.0139
 2533SOL    HW219059   1.189   0.673   5.564 -0.3414 -1.8388 -0.7673
 2534SOL     OW19060   3.124   0.591  15.927  0.0240 -0.0761 -0.1389
 2534SOL    HW119061   3.030   0.612  15.930  0.2264  0.8360 -0.0719
 2534SOL    HW219062   3.137   0.590  15.832 -1.9237 -0.5508 -0.4129
 2535SOL     OW19063   0.669   0.903   7.865 -0.1630  0.1442 -0.1711
 2535SOL    HW119064   0.598   0.875   7.806 -1.8148  0.4370  1.6702
 2535SOL    HW219065   0.748   0.888   7.813 -0.1656 -0.9084  0.1154
 2536SOL     OW19066   1.439   2.484   3.857 -0.0266 -0.1488  0.0840
 2536SOL    HW119067   1.513   2.443   3.811 -0.4620 -1.8599  0.8876
 2536SOL    HW219068   1.445   2.571   3.819 -0.5166  0.0433  0.4479
 2537SOL     OW19069   4.638   3.538   1.261  0.4773 -0.5081  0.5770
 2537SOL    HW119070   4.635   3.571   1.172 -0.6862  2.1051  1.5872
 2537SOL    HW219071   4.608   3.613   1.313  0.7420 -0.4136  0.5936
 2538SOL     OW19072   4.065   1.826   3.579  0.1671  0.0658 -0.1772
 2538SOL    HW119073   4.028   1.796   3.662 -1.8379  1.0064 -0.7203
 2538SOL    HW219074   4.061   1.745   3.528  4.1376 -2.0084  2.7202
 2539SOL     OW19075   1.445   0.933   6.768  0.4157 -0.0416 -0.0402
 2539SOL    HW119076   1.418   0.855   6.720 -1.1685  1.2062 -1.1637
 2539SOL    HW219077   1.363   0.973   6.797  1.9643  3.1942 -0.0476
 2540SOL     OW19078   3.698   4.380   5.402 -0.6077 -0.1598 -1.1912
 2540SOL    HW119079   3.738   4.465   5.420  0.2552 -0.1938 -2.9522
 2540SOL    HW219080   3.728   4.374   5.311  0.7911  0.4326 -0.7584
 2541SOL     OW19081   2.324   2.664   9.701  0.2787 -0.2978  0.1146
 2541SOL    HW119082   2.272   2.716   9.640 -0.6304 -0.8793  0.3834
 2541SOL    HW219083   2.310   2.709   9.784  0.1529 -1.4822  0.7407
 2542SOL     OW19084   0.528   1.761   7.589 -0.3107 -0.3202 -0.1288
 2542SOL    HW119085   0.608   1.730   7.632 -0.9004 -3.7309 -1.5160
 2542SOL    HW219086   0.496   1.804   7.669 -2.3895 -0.8025 -0.7060
 2543SOL     OW19087   1.424   0.265   7.347 -0.4320  0.4921  0.0845
 2543SOL    HW119088   1.471   0.347   7.336 -1.7935  1.0878 -1.2956
 2543SOL    HW219089   1.472   0.214   7.282  0.9738  1.3290  0.4843
 2544SOL     OW19090   3.168   0.395   6.864 -0.3584 -0.7110 -0.3695
 2544SOL    HW119091   3.259   0.370   6.882 -1.1417 -1.3806  2.6296
 2544SOL    HW219092   3.148   0.426   6.952 -0.0869  1.0959 -0.9500
 2545SOL     OW19093   1.104   0.182   8.461  0.0711  0.2568  0.2603
 2545SOL    HW119094   1.198   0.166   8.472 -0.5240 -2.2512  1.6384
 2545SOL    HW219095   1.082   0.243   8.532 -0.8596 -0.9616  1.0187
 2546SOL     OW19096   4.471   2.014  15.949 -0.2259 -0.2753  0.5286
 2546SOL    HW119097   4.421   2.017  16.030  2.0231  0.1195  1.9106
 2546SOL    HW219098   4.411   1.962  15.895 -1.6724  0.7933  1.1115
 2547SOL     OW19099   0.525   2.828   9.347 -0.3532  0.5204 -0.1256
 2547SOL    HW119100   0.516   2.795   9.436  0.4842  1.9220  0.4900
 2547SOL    HW219101   0.468   2.904   9.358 -0.2549  0.5479  0.2138
 2548SOL     OW19102   2.720   2.213  10.476 -0.4210 -0.1833  0.2932
 2548SOL    HW119103   2.811   2.227  10.449 -0.1845  2.0748  2.2539
 2548SOL    HW219104   2.679   2.291  10.514 -1.0945 -0.4884  0.1956
 2549SOL     OW19105   1.219   1.203   6.502 -0.1692 -0.3746  0.2794
 2549SOL    HW119106   1.207   1.113   6.534 -1.2803 -0.2719  0.1539
 2549SOL    HW219107   1.314   1.208   6.513 -0.0238  1.1747 -1.8261
 2550SOL     OW19108   4.159   0.933   9.400  0.1625  0.5185 -0.2418
 2550SOL    HW119109   4.247   0.907   9.427 -0.4135 -1.3225 -0.0956
 2550SOL    HW219110   4.122   0.981   9.474 -1.3764 -0.1735 -0.5561
 2551SOL     OW19111   0.385   1.417   2.873 -0.1670 -0.5206 -0.2986
 2551SOL    HW119112   0.385   1.444   2.781  0.3697  2.2036  0.4864
 2551SOL    HW219113   0.434   1.493   2.905  0.1284 -1.1178  0.6584
 2552SOL     OW19114   4.581   2.987  16.011  0.5112  0.1979  0.1238
 2552SOL    HW119115   4.644   2.943  15.955  1.1283  0.0372  0.9428
 2552SOL    HW219116   4.576   2.924  16.083 -0.0887  0.6976  0.5220
 2553SOL     OW19117   3.276   4.691   3.295  0.2437 -0.1340  0.2627
 2553SOL    HW119118   3.355   0.025   3.291 -0.5078  1.0175  1.0923
 2553SOL    HW219119   3.277   4.668   3.388  0.3490 -2.0851 -0.2304
 2554SOL     OW19120   2.909   2.908  13.114  0.3592 -0.5876  0.2442
 2554SOL    HW119121   3.004   2.898  13.112  0.4597  0.7229 -1.7039
 2554SOL    HW219122   2.905   3.003  13.113 -1.1516 -0.6568  0.4243
 2555SOL     OW19123   1.558   1.536  17.414  0.1972  0.5269 -0.5819
 2555SOL    HW119124   1.609   1.529  17.333 -1.4972  1.3362 -1.7432
 2555SOL    HW219125   1.502   1.604  17.376  2.0940  3.0861  1.2181
 2556SOL     OW19126   3.789   2.334   9.733  0.6655 -0.3558  0.0928
 2556SOL    HW119127   3.727   2.277   9.688 -0.0042  1.3775 -1.1839
 2556SOL    HW219128   3.868   2.282   9.717  1.0681  1.0785 -2.5910
 2557SOL     OW19129   2.908   2.509   4.448 -0.0745  0.3846 -0.3999
 2557SOL    HW119130   2.875   2.547   4.529  2.4054  3.4387 -0.8099
 2557SOL    HW219131   2.828   2.487   4.401  1.1035 -2.0656 -1.2690
 2558SOL     OW19132   0.692   4.416   3.533 -0.2759  0.0393 -0.1068
 2558SOL    HW119133   0.677   4.493   3.478 -0.7825  0.7059  0.9705
 2558SOL    HW219134   0.786   4.399   3.529 -0.2830 -0.3661  1.5569
 2559SOL     OW19135   3.640   4.360   2.579  0.5142  0.4259  0.2962
 2559SOL    HW119136   3.710   4.403   2.629  1.5230 -1.9440  0.9141
 2559SOL    HW219137   3.629   4.284   2.636 -0.1790  0.3048 -0.0030
 2560SOL     OW19138   3.462   0.951   9.193  0.3566  0.3930 -0.5567
 2560SOL    HW119139   3.432   0.892   9.262 -0.3210  3.2285  1.5571
 2560SOL    HW219140   3.510   1.014   9.247  0.9917 -2.3922  2.1357
 2561SOL     OW19141   2.593   4.555   6.257  0.7316  0.1839 -0.0172
 2561SOL    HW119142   2.599   4.623   6.191 -1.6414  0.4975  0.1077
 2561SOL    HW219143   2.501   4.566   6.282  1.1437  0.5352  1.3523
 2562SOL     OW19144   2.008   3.097   1.519  0.1926 -0.0399 -0.0462
 2562SOL    HW119145   1.964   3.142   1.591 -0.7452  0.8846 -1.1978
 2562SOL    HW219146   1.938   3.068   1.460 -0.5912 -0.7710  1.2616
 2563SOL     OW19147   2.307   3.984  10.348  0.2197 -0.3137  0.1065
 2563SOL    HW119148   2.328   3.919  10.416  1.3067  0.2693  0.3158
 2563SOL    HW219149   2.249   4.037  10.403  1.3035  1.5199 -0.5219
 2564SOL     OW19150   2.661   1.649   6.620 -0.0619  0.0306  0.4488
 2564SOL    HW119151   2.645   1.698   6.539  0.6556 -1.0819 -0.3700
 2564SOL    HW219152   2.712   1.709   6.675  0.7172 -0.7384  0.5768
 2565SOL     OW19153   2.506   0.430   7.285 -0.3260 -0.1110  0.0829
 2565SOL    HW119154   2.490   0.402   7.195  0.0697 -1.0531  0.3097
 2565SOL    HW219155   2.422   0.446   7.329 -0.4462 -2.1113  0.5786
 2566SOL     OW19156   2.787   0.516   3.873  0.1089 -0.2389  0.2791
 2566SOL    HW119157   2.851   0.504   3.943 -0.5224  1.2267  1.1004
 2566SOL    HW219158   2.752   0.428   3.860 -0.3291 -0.1114  0.5955
 2567SOL     OW19159   2.611   0.308   7.019  0.2166  0.1979 -0.6677
 2567SOL    HW119160   2.682   0.280   6.962  1.2456 -0.8903  1.1533
 2567SOL    HW219161   2.606   0.397   6.985 -1.7175  0.2357 -0.3010
 2568SOL     OW19162   4.621   0.107   6.119 -0.0507 -0.1270  0.2437
 2568SOL    HW119163   4.566   0.052   6.063 -0.1514  1.1384 -0.8828
 2568SOL    HW219164   4.611   0.191   6.075  0.6231 -0.1651  0.0186
 2569SOL     OW19165   3.131   3.865  15.603 -0.0362  0.1443  0.0719
 2569SOL    HW119166   3.147   3.786  15.550 -0.9967 -0.5623  0.8211
 2569SOL    HW219167   3.106   3.927  15.534 -2.3927 -0.2650  0.5437
 2570SOL     OW19168   4.593   3.814   5.935  0.0192 -0.0349 -0.2774
 2570SOL    HW119169   4.609   3.845   5.846  2.1284  0.7386  0.3713
 2570SOL    HW219170   4.682   3.799   5.969  0.1350 -0.2463 -0.6686
 2571SOL     OW19171   3.488   1.359   7.028 -0.6052  0.1259 -0.1498
 2571SOL    HW119172   3.399   1.391   7.017 -0.2536  0.9085 -0.7216
 2571SOL    HW219173   3.505   1.355   6.934  1.3910  0.8907  0.1730
 2572SOL     OW19174   2.945   3.195   5.523  0.2875 -0.1860 -0.6729
 2572SOL    HW119175   2.852   3.191   5.498  0.2535  1.0641 -0.7144
 2572SOL    HW219176   2.974   3.281   5.551  1.0015 -0.8282  0.5650
 2573SOL     OW19177   0.935   1.696   7.417  0.0058 -0.1753  0.2014
 2573SOL    HW119178   0.971   1.727   7.500  1.0987 -0.2458 -0.2487
 2573SOL    HW219179   0.997   1.629   7.389  0.2039 -0.5183  1.4796
 2574SOL     OW19180   3.059   2.885   8.000  0.1204  0.2092 -0.1444
 2574SOL    HW119181   2.980   2.852   7.957 -0.8088  1.5183  0.5453
 2574SOL    HW219182   3.120   2.875   7.928 -0.1371 -1.1493 -0.1711
 2575SOL     OW19183   4.134   0.312   4.393 -0.4120 -0.1742  0.0259
 2575SOL    HW119184   4.092   0.392   4.360  0.8610  1.4260  2.2900
 2575SOL    HW219185   4.057   0.269   4.431  0.9781 -1.4519  1.4311
 2576SOL     OW19186   4.125   2.551   5.370  0.4728  0.4050  0.3183
 2576SOL    HW119187   4.138   2.645   5.377 -0.3437  0.5493 -0.0905
 2576SOL    HW219188   4.029   2.550   5.370  0.4577 -0.2179 -3.0370
 2577SOL     OW19189   1.920   0.075   8.249  0.1464 -0.1344 -0.1385
 2577SOL    HW119190   1.904   0.058   8.341 -2.4872  0.9482 -0.4251
 2577SOL    HW219191   1.986   0.007   8.228 -0.5973 -0.5306 -1.2104
 2578SOL     OW19192   4.509   0.970   8.262 -0.4463 -0.2948  0.1651
 2578SOL    HW119193   4.456   0.946   8.339  0.0346 -0.8713  0.3178
 2578SOL    HW219194   4.478   1.056   8.234 -0.1152 -0.3199 -0.2737
 2579SOL     OW19195   0.060   1.280  10.651  0.2937 -0.8175  0.0795
 2579SOL    HW119196   0.143   1.291  10.606  0.1341 -2.3008 -0.5902
 2579SOL    HW219197   0.074   1.216  10.721 -1.9696  0.5547  1.7752
 2580SOL     OW19198   3.418   0.502   5.302 -0.0419 -0.1615 -0.0121
 2580SOL    HW119199   3.418   0.420   5.351  1.7176 -0.4660 -0.5484
 2580SOL    HW219200   3.391   0.558   5.375  3.3143 -0.2783  1.3281
 2581SOL     OW19201   0.418   1.825  13.349 -0.5432 -0.0276  0.7619
 2581SOL    HW119202   0.343   1.787  13.395  0.3220  0.4466  2.5603
 2581SOL    HW219203   0.410   1.778  13.266 -0.6568 -1.1272  1.3958
 2582SOL     OW19204   3.747   4.287   4.050 -0.3463  0.4229 -0.5729
 2582SOL    HW119205   3.790   4.368   4.023  1.1421 -0.1160  0.2212
 2582SOL    HW219206   3.790   4.226   3.991 -1.0517  1.1527 -1.8305
 2583SOL     OW19207   3.247   0.463  10.588 -0.1417 -0.5195  0.5349
 2583SOL    HW119208   3.289   0.420  10.663 -0.8927  1.2064  1.9500
 2583SOL    HW219209   3.236   0.555  10.611 -0.2793 -0.4833  0.3180
 2584SOL     OW19210   0.398   2.051   5.246  0.0734 -0.2186 -0.3152
 2584SOL    HW119211   0.440   2.136   5.259 -0.1242 -0.1960  0.2087
 2584SOL    HW219212   0.481   2.004   5.257 -0.0202 -0.9655 -2.9741
 2585SOL     OW19213   1.887   1.166  11.691 -0.4526 -0.1624 -0.3432
 2585SOL    HW119214   1.825   1.236  11.674 -0.9780 -0.4064  0.5337
 2585SOL    HW219215   1.875   1.151  11.785  2.6095 -0.8759 -0.0436
 2586SOL     OW19216   1.068   4.098   1.978 -0.2498  0.3513 -0.4392
 2586SOL    HW119217   1.004   4.027   1.969  0.4866 -0.3048 -0.5387
 2586SOL    HW219218   1.146   4.047   2.000 -0.8379  0.0100  0.8492
 2587SOL     OW19219   0.175   2.267   6.823  0.6319 -1.0350 -0.7082
 2587SOL    HW119220   0.104   2.203   6.829 -0.0671 -0.0454  1.3543
 2587SOL    HW219221   0.206   2.271   6.913 -0.1868 -0.1437 -0.4713
 2588SOL     OW19222   0.531   0.223   3.563  0.3934  0.4546 -0.3171
 2588SOL    HW119223   0.519   0.265   3.477 -1.2471  2.6087  0.9594
 2588SOL    HW219224   0.560   0.298   3.615  1.7897 -0.9641  0.9493
 2589SOL     OW19225   0.119   3.649  12.153 -0.3944  0.0210  0.1562
 2589SOL    HW119226   0.181   3.587  12.190  1.1571  1.2210 -0.4505
 2589SOL    HW219227   0.101   3.700  12.232 -1.0533 -1.4280  0.9420
 2590SOL     OW19228   2.126   1.266   5.913  0.8356  0.5045 -0.2231
 2590SOL    HW119229   2.136   1.200   5.981 -1.6187 -0.4013 -0.7532
 2590SOL    HW219230   2.170   1.218   5.843  1.6026 -0.8507  1.2000
 2591SOL     OW19231   0.420   4.409  16.956  0.3870 -0.3579 -0.1765
 2591SOL    HW119232   0.370   4.491  16.955  1.0375  0.0220 -0.9435
 2591SOL    HW219233   0.409   4.384  16.865 -2.0345  0.7821 -0.1930
 2592SOL     OW19234   2.621   1.061   9.200  0.7028  0.4126  0.1787
 2592SOL    HW119235   2.576   0.979   9.179  0.1834  0.2907  1.7835
 2592SOL    HW219236   2.550   1.119   9.224 -0.3526 -1.5683  1.7954
 2593SOL     OW19237   0.388   2.518   8.806  0.1552 -0.7609  0.0184
 2593SOL    HW119238   0.349   2.463   8.874 -1.4686 -0.8217 -0.9573
 2593SOL    HW219239   0.444   2.574   8.860 -1.6029  0.3238  0.6991
 2594SOL     OW19240   2.157   3.919  10.716  0.1520  0.0174 -0.1132
 2594SOL    HW119241   2.111   3.903  10.634 -0.2445  0.5970 -0.0106
 2594SOL    HW219242   2.194   4.005  10.698  1.1283 -0.8488 -2.2201
 2595SOL     OW19243   1.330   2.493   3.580  0.3789  0.5013 -0.4802
 2595SOL    HW119244   1.283   2.521   3.659 -0.7746 -1.9945 -0.2568
 2595SOL    HW219245   1.253   2.497   3.524 -0.1083  0.3808  0.1723
 2596SOL     OW19246   2.646   4.303   6.176 -0.2448 -0.0818 -0.2882
 2596SOL    HW119247   2.608   4.256   6.249 -2.0690  0.0638 -1.1475
 2596SOL    HW219248   2.656   4.391   6.212 -2.6722  0.2344 -0.3734
 2597SOL     OW19249   3.987   3.371   0.107  0.2381  0.1514 -0.3753
 2597SOL    HW119250   3.940   3.440   0.153  0.3774  1.1426 -1.7226
 2597SOL    HW219251   3.927   3.349   0.035 -0.2568  1.7190 -0.4318
 2598SOL     OW19252   3.660   3.803   5.718  0.3059 -0.0207  0.4236
 2598SOL    HW119253   3.567   3.825   5.725 -0.0152 -1.2295 -0.1804
 2598SOL    HW219254   3.671   3.764   5.805  2.3929  0.2840  0.2903
 2599SOL     OW19255   2.753   0.589   9.710  0.9656 -0.3342  0.4267
 2599SOL    HW119256   2.760   0.494   9.719  2.1398 -0.2137  0.7502
 2599SOL    HW219257   2.709   0.622   9.788 -1.8939 -0.0609 -1.2998
 2600SOL     OW19258   4.565   0.467  12.411  0.0737 -0.0945 -0.4312
 2600SOL    HW119259   4.580   0.372  12.404 -0.3178 -0.1867 -0.0474
 2600SOL    HW219260   4.593   0.491  12.323 -0.8625  2.5220  0.0049
 2601SOL     OW19261   0.615   3.326  16.195  0.0131 -0.0378 -0.4329
 2601SOL    HW119262   0.556   3.359  16.262 -0.1069 -1.7718  0.2984
 2601SOL    HW219263   0.655   3.409  16.167 -0.1717 -1.1326 -3.9101
 2602SOL     OW19264   0.339   4.074   8.466  0.5814 -0.2878  0.0615
 2602SOL    HW119265   0.277   4.125   8.414  1.1616 -0.8790 -1.1995
 2602SOL    HW219266   0.300   4.075   8.553 -1.1124 -0.6642 -0.6863
 2603SOL     OW19267   4.651   3.300   7.363  0.1922 -0.1304  0.4141
 2603SOL    HW119268   4.702   3.382   7.361 -0.5851  0.3777  1.0721
 2603SOL    HW219269   4.562   3.324   7.337  0.4009  1.9547  1.5516
 2604SOL     OW19270   2.601   2.808  15.416 -0.1462  0.3125  0.2343
 2604SOL    HW119271   2.513   2.775  15.433 -1.3296  2.4985 -1.6200
 2604SOL    HW219272   2.586   2.890  15.368 -2.4526 -0.3006 -0.1191
 2605SOL     OW19273   0.032   2.134   7.636 -0.5540 -0.5074 -0.6715
 2605SOL    HW119274   0.053   2.172   7.550 -0.1179  0.4285 -0.1527
 2605SOL    HW219275   0.026   2.207   7.697 -0.0895  0.6206 -1.9630
 2606SOL     OW19276   1.531   4.482   5.969  0.4295  0.2065  0.6786
 2606SOL    HW119277   1.439   4.486   5.992 -0.2035 -1.8558 -1.5515
 2606SOL    HW219278   1.553   4.572   5.945 -1.2578  0.9648  2.0354
 2607SOL     OW19279   1.522   4.381   8.043 -0.4814 -0.0622  0.0673
 2607SOL    HW119280   1.536   4.332   7.962 -0.0862 -0.3213  0.2929
 2607SOL    HW219281   1.557   4.317   8.105  1.0862  1.6185  0.9446
 2608SOL     OW19282   4.385   4.713  10.960  0.1426  0.2121 -0.4387
 2608SOL    HW119283   4.297   0.028  10.965  0.2907  0.6563 -0.9840
 2608SOL    HW219284   4.381   4.625  10.996  0.2217  1.7997  3.4190
 2609SOL     OW19285   1.229   3.086   1.446  0.0373  0.5993 -0.0537
 2609SOL    HW119286   1.144   3.129   1.457 -1.1596 -2.8630  4.2361
 2609SOL    HW219287   1.201   2.995   1.441  1.7527  0.0367  0.7527
 2610SOL     OW19288   1.542   1.457   2.870 -0.8703  0.0688  0.0363
 2610SOL    HW119289   1.523   1.499   2.786  0.3198  0.2255 -0.1543
 2610SOL    HW219290   1.469   1.397   2.885 -0.9235 -0.1161 -0.9565
 2611SOL     OW19291   2.377   0.567   9.261  0.0656  0.7377 -0.0407
 2611SOL    HW119292   2.332   0.583   9.179  0.7857  2.2082 -0.1575
 2611SOL    HW219293   2.305   0.583   9.322 -0.0455 -0.1659  0.0658
 2612SOL     OW19294   1.828   4.160   1.469  0.1708 -0.0423 -0.1070
 2612SOL    HW119295   1.778   4.091   1.425  0.8386 -2.1035  2.3099
 2612SOL    HW219296   1.805   4.152   1.562 -2.4644 -0.2477 -0.7922
 2613SOL     OW19297   1.775   0.620   5.112  0.1380 -0.2482 -0.3258
 2613SOL    HW119298   1.835   0.676   5.063  1.7818 -1.4776  0.2830
 2613SOL    HW219299   1.691   0.630   5.068  0.2269  0.6710 -0.2842
 2614SOL     OW19300   1.485   0.656  13.430  0.1897 -0.6588 -0.4655
 2614SOL    HW119301   1.507   0.597  13.358  1.2163  0.8367 -1.3732
 2614SOL    HW219302   1.473   0.741  13.387  0.4731 -1.0644 -1.3484
 2615SOL     OW19303   1.101   3.378   7.815 -0.2878 -0.2051 -0.3441
 2615SOL    HW119304   1.194   3.371   7.790  0.1649  0.0734  1.2851
 2615SOL    HW219305   1.100   3.465   7.853 -1.4877 -0.2448 -0.2938
 2616SOL     OW19306   1.500   1.931  10.651  0.6531 -0.7843  0.3056
 2616SOL    HW119307   1.557   1.877  10.596 -0.7455 -0.9054 -1.0227
 2616SOL    HW219308   1.461   1.877  10.719 -0.1269 -1.0535 -0.3509
 2617SOL     OW19309   3.510   2.036  17.615  0.1418  0.0324  0.9759
 2617SOL    HW119310   3.543   1.956  17.654 -0.4445  0.3966  2.1974
 2617SOL    HW219311   3.450   1.999  17.550 -1.4244  1.4211  1.6241
 2618SOL     OW19312   0.761   1.613  14.521 -0.5011  0.5441  0.4302
 2618SOL    HW119313   0.801   1.550  14.581 -2.0470 -0.2887  0.5694
 2618SOL    HW219314   0.749   1.558  14.443  0.4855  1.2756 -0.2379
 2619SOL     OW19315   3.097   4.610   7.860  0.1862 -0.3654 -0.1777
 2619SOL    HW119316   3.157   4.544   7.895 -1.9222 -0.7777  2.5829
 2619SOL    HW219317   3.102   4.684   7.920 -0.2573 -0.1977 -0.3539
 2620SOL     OW19318   3.866   0.397   6.798  0.6377 -0.4303  0.3076
 2620SOL    HW119319   3.780   0.436   6.789  1.2631  0.5108 -1.5074
 2620SOL    HW219320   3.853   0.344   6.877 -0.6729  0.3088  0.5791
 2621SOL     OW19321   2.173   1.772   8.421  0.2458 -0.1874  0.3833
 2621SOL    HW119322   2.163   1.731   8.336 -2.9165 -0.5719  0.9565
 2621SOL    HW219323   2.201   1.859   8.392  0.9175 -0.5474 -0.0505
 2622SOL     OW19324   0.536   2.409   6.920 -0.0423 -0.3506  0.1386
 2622SOL    HW119325   0.596   2.370   6.984 -0.3580 -0.6698  0.2399
 2622SOL    HW219326   0.456   2.383   6.964 -0.6079 -0.2001 -0.7950
 2623SOL     OW19327   1.021   1.133   7.907  0.6560 -0.1647 -0.2328
 2623SOL    HW119328   1.085   1.063   7.913  0.6572 -0.0113  1.6838
 2623SOL    HW219329   1.060   1.177   7.832  0.7504  1.3178  0.6862
 2624SOL     OW19330   3.753   0.215   6.123  0.3037  0.3188  0.0923
 2624SOL    HW119331   3.800   0.160   6.186 -0.6589 -0.0813  0.4576
 2624SOL    HW219332   3.728   0.293   6.173 -1.0870  0.0731 -0.2366
 2625SOL     OW19333   3.178   4.664   2.999 -0.0769 -0.1189 -0.0654
 2625SOL    HW119334   3.242   4.645   2.930 -0.1691  2.2672 -0.7912
 2625SOL    HW219335   3.236   4.672   3.076 -1.5848 -0.8657  1.1527
 2626SOL     OW19336   2.273   4.217   1.153  0.2567 -0.2028 -0.1843
 2626SOL    HW119337   2.219   4.195   1.228 -1.0021  0.1501 -1.0001
 2626SOL    HW219338   2.358   4.201   1.194  0.3700  1.7292  0.3548
 2627SOL     OW19339   3.770   2.543  12.696 -0.4402  0.0280 -0.1810
 2627SOL    HW119340   3.744   2.604  12.627  0.8749  0.8059  0.0187
 2627SOL    HW219341   3.838   2.590  12.743 -0.7756  0.2492  0.0835
 2628SOL     OW19342   1.161   0.375  12.362 -0.4983 -0.0352 -0.4783
 2628SOL    HW119343   1.156   0.461  12.321 -0.9068  0.5934  0.8934
 2628SOL    HW219344   1.079   0.339  12.330 -0.9398 -0.5926  1.3225
 2629SOL     OW19345   4.057   2.079   3.219 -0.3090  0.2668  0.6140
 2629SOL    HW119346   3.992   2.134   3.176 -2.3367 -2.1654  0.5587
 2629SOL    HW219347   4.036   2.092   3.312  1.2190  2.3492  0.6619
 2630SOL     OW19348   1.303   0.287   2.499 -0.2729  0.5969 -0.2056
 2630SOL    HW119349   1.282   0.376   2.527 -1.0535 -0.1709  1.6149
 2630SOL    HW219350   1.292   0.297   2.404 -0.9337  2.2820  0.0524
 2631SOL     OW19351   3.395   3.474   9.431  0.2643  0.2434  0.1156
 2631SOL    HW119352   3.362   3.465   9.341 -0.4728 -0.6995  0.4796
 2631SOL    HW219353   3.314   3.446   9.475  1.0862 -0.4320  1.1892
 2632SOL     OW19354   3.829   2.062  17.204 -0.4973  0.3061  0.1563
 2632SOL    HW119355   3.809   2.129  17.138 -1.6245 -0.0419  0.1423
 2632SOL    HW219356   3.891   2.110  17.260  0.2764 -1.3315  0.6863
 2633SOL     OW19357   3.333   2.089  16.858 -0.3606  0.0166  0.0006
 2633SOL    HW119358   3.416   2.087  16.905  0.6665  1.4170 -1.7867
 2633SOL    HW219359   3.272   2.119  16.926  0.6816 -1.8320  1.7505
 2634SOL     OW19360   4.260   4.087  17.204 -0.6723 -0.0165  0.6721
 2634SOL    HW119361   4.318   4.012  17.200 -3.2512 -1.8998 -1.6384
 2634SOL    HW219362   4.307   4.147  17.146  0.6840 -0.9292  0.8443
 2635SOL     OW19363   1.566   3.922   2.103  0.2580 -0.7440  0.8687
 2635SOL    HW119364   1.533   3.975   2.176  1.2647  0.5065  0.4162
 2635SOL    HW219365   1.576   3.832   2.134 -3.1788 -1.3509  0.1879
 2636SOL     OW19366   2.154   0.074  15.937  0.1312  0.3914 -0.0422
 2636SOL    HW119367   2.163   0.169  15.935 -2.0039  0.5618 -1.4833
 2636SOL    HW219368   2.072   0.063  15.985  0.3274 -0.0757  0.1935
 2637SOL     OW19369   4.166   0.104   8.527  0.0752  0.5225 -0.3494
 2637SOL    HW119370   4.082   0.145   8.504 -1.8285 -3.1248  0.1286
 2637SOL    HW219371   4.138   0.043   8.595  1.7184 -0.1425 -0.2831
 2638SOL     OW19372   0.851   0.532   8.526 -0.1188  0.3011 -0.0612
 2638SOL    HW119373   0.762   0.531   8.491  0.2361 -2.7075 -0.8452
 2638SOL    HW219374   0.827   0.509   8.616 -1.6770 -0.6473 -0.7217
 2639SOL     OW19375   2.393   2.620   5.821 -0.1298 -0.4477  0.4758
 2639SOL    HW119376   2.329   2.658   5.882 -2.1014 -1.2349 -1.0838
 2639SOL    HW219377   2.329   2.564   5.776 -0.7282  0.3768  0.3017
 2640SOL     OW19378   2.910   2.353   7.013 -0.7597  0.2615 -0.2023
 2640SOL    HW119379   2.893   2.391   6.927 -1.9671 -0.9328 -0.4883
 2640SOL    HW219380   2.833   2.299   7.027 -1.2995  0.9332 -0.5517
 2641SOL     OW19381   4.291   1.974   1.474  0.2316 -0.1108 -0.1746
 2641SOL    HW119382   4.261   1.889   1.445  0.5395 -0.3628  0.2417
 2641SOL    HW219383   4.206   2.018   1.474 -0.6769 -1.8820  1.1831
 2642SOL     OW19384   0.254   0.771  17.405  0.2953 -1.0642 -0.5971
 2642SOL    HW119385   0.260   0.723  17.488 -0.2914 -0.8428 -0.4283
 2642SOL    HW219386   0.161   0.757  17.391 -0.0753 -1.2417  2.0011
 2643SOL     OW19387   1.546   3.528   6.294 -0.3152  0.2662 -0.2458
 2643SOL    HW119388   1.509   3.478   6.367  1.5854  0.7784  1.0918
 2643SOL    HW219389   1.476   3.590   6.273 -0.2733  0.0989 -0.8766
 2644SOL     OW19390   3.163   3.122  14.120  0.0770  0.3587  0.4160
 2644SOL    HW119391   3.112   3.074  14.186  2.5428 -2.4323  0.3052
 2644SOL    HW219392   3.103   3.192  14.095 -0.2440  0.1032  0.4636
 2645SOL     OW19393   3.763   3.342   8.117  0.1214  0.5727 -0.0925
 2645SOL    HW119394   3.852   3.360   8.085 -0.0069 -2.6315 -2.2384
 2645SOL    HW219395   3.702   3.395   8.066 -1.3283  0.1944  1.2695
 2646SOL     OW19396   0.490   4.304  17.190 -0.2389  0.6821  0.6675
 2646SOL    HW119397   0.463   4.342  17.106  0.0171  2.6358  1.4578
 2646SOL    HW219398   0.572   4.353  17.200 -0.6704  1.8688 -1.5788
 2647SOL     OW19399   2.013   2.278   4.863  0.0680 -0.1941 -0.3148
 2647SOL    HW119400   2.049   2.352   4.814 -0.7509  0.0514 -0.5371
 2647SOL    HW219401   2.091   2.226   4.882 -1.0366 -1.4415  0.8252
 2648SOL     OW19402   3.088   2.980   8.998  0.3336 -0.8055 -0.6608
 2648SOL    HW119403   3.061   3.067   9.027 -0.6326 -0.8532 -1.3972
 2648SOL    HW219404   3.125   2.942   9.077 -0.1580  0.7293  0.3059
 2649SOL     OW19405   0.343   2.009  11.508  0.0463  0.0352 -0.5531
 2649SOL    HW119406   0.298   1.925  11.512  1.7408 -0.9208 -1.5158
 2649SOL    HW219407   0.314   2.047  11.591  0.7056 -1.3231  0.3036
 2650SOL     OW19408   2.403   4.387   4.534 -0.3188 -0.6680 -0.3708
 2650SOL    HW119409   2.351   4.459   4.570  2.5778  0.5485  1.2856
 2650SOL    HW219410   2.379   4.395   4.441  2.8901 -1.3772 -1.2461
 2651SOL     OW19411   0.083   3.238  13.025  0.2989 -0.2321 -0.1578
 2651SOL    HW119412   0.057   3.204  12.940  0.7118  0.0447 -0.3910
 2651SOL    HW219413   0.176   3.243  13.007  0.0214  1.6019 -1.1185
 2652SOL     OW19414   4.102   4.417  16.985  0.0775 -0.9344 -0.3363
 2652SOL    HW119415   4.056   4.496  17.012  2.3816  0.2949 -0.0996
 2652SOL    HW219416   4.052   4.351  17.033 -0.7919 -0.4751 -0.6061
 2653SOL     OW19417   4.157   2.084   5.776  0.4229  0.4320 -0.2350
 2653SOL    HW119418   4.179   2.161   5.829 -1.0610  0.1691  0.7346
 2653SOL    HW219419   4.191   2.117   5.692  0.0885  2.0167  0.2504
 2654SOL     OW19420   1.851   3.358   3.742  0.0939  0.0945 -0.0272
 2654SOL    HW119421   1.816   3.444   3.720 -0.7881 -0.1895  0.2608
 2654SOL    HW219422   1.833   3.307   3.663 -1.1029 -1.1044  1.0183
 2655SOL     OW19423   3.056   1.957   3.757  0.1863 -0.0649  0.3662
 2655SOL    HW119424   3.060   2.001   3.673 -0.1864 -2.0194 -0.6867
 2655SOL    HW219425   3.126   1.893   3.747  0.9813  0.5936  1.7690
 2656SOL     OW19426   0.613   3.242   3.491 -0.4632 -0.0896 -0.5118
 2656SOL    HW119427   0.694   3.243   3.440 -0.3628  1.3590 -0.3393
 2656SOL    HW219428   0.639   3.313   3.550  1.1674 -0.4537 -0.7956
 2657SOL     OW19429   3.791   2.611  11.290 -0.2301  0.0650 -0.4933
 2657SOL    HW119430   3.702   2.580  11.310  0.0626 -1.2960 -1.2827
 2657SOL    HW219431   3.845   2.534  11.307 -0.0431  0.3415  0.1430
 2658SOL     OW19432   3.111   1.511   1.099  0.3282  0.3314 -0.2008
 2658SOL    HW119433   3.150   1.430   1.065  1.0048  0.7192 -0.3451
 2658SOL    HW219434   3.025   1.522   1.058 -0.2515 -2.9479  0.1202
 2659SOL     OW19435   3.003   2.703   8.909  0.7267 -0.1121  0.6511
 2659SOL    HW119436   3.033   2.794   8.909 -0.6566  0.3514 -0.2801
 2659SOL    HW219437   3.012   2.677   9.000 -3.7972  0.2711  1.2004
 2660SOL     OW19438   2.201   1.930   4.659  0.3874 -0.1244  0.4079
 2660SOL    HW119439   2.117   1.932   4.612  0.2853  3.0016  0.7527
 2660SOL    HW219440   2.256   1.889   4.592  0.9307 -0.3080  0.9700
 2661SOL     OW19441   2.164   3.182   1.794  0.4272 -0.1383 -0.2402
 2661SOL    HW119442   2.198   3.187   1.704  1.2649  0.6600  0.1132
 2661SOL    HW219443   2.085   3.129   1.785  1.6678 -2.2075  1.1719
 2662SOL     OW19444   2.366   3.232   6.249  0.3285  0.0782  0.4282
 2662SOL    HW119445   2.353   3.206   6.158  1.5944 -1.7667  0.7640
 2662SOL    HW219446   2.449   3.187   6.269  0.4242 -0.4676 -1.1467
 2663SOL     OW19447   3.309   2.929   3.065 -0.4256 -0.2686 -0.0389
 2663SOL    HW119448   3.312   2.885   2.981  1.8370 -1.1775  0.5263
 2663SOL    HW219449   3.269   3.015   3.048 -0.1985 -0.2325 -0.3798
 2664SOL     OW19450   0.224   4.192   1.995  0.2332 -0.0199  0.4808
 2664SOL    HW119451   0.218   4.150   2.081  3.1906 -0.0181  0.6812
 2664SOL    HW219452   0.290   4.135   1.955 -0.2045 -1.2961  1.5716
 2665SOL     OW19453   4.253   1.596  13.566  0.5486 -0.0603  0.1631
 2665SOL    HW119454   4.296   1.563  13.646 -0.1417 -1.4625 -0.0377
 2665SOL    HW219455   4.161   1.570  13.578  0.4241 -0.4171 -1.6765
 2666SOL     OW19456   3.643   2.827   2.417  0.0594  0.1639 -0.9275
 2666SOL    HW119457   3.600   2.797   2.336 -3.2779  0.6671  0.6449
 2666SOL    HW219458   3.584   2.895   2.450 -0.3404 -1.0631  0.8810
 2667SOL     OW19459   1.310   0.219   6.695  0.0983  0.0252  0.5110
 2667SOL    HW119460   1.295   0.156   6.766 -3.2917  2.0970  1.6020
 2667SOL    HW219461   1.331   0.297   6.745 -1.1046  0.9996 -0.4956
 2668SOL     OW19462   0.613   4.030   9.677 -0.6101 -0.5434 -0.0629
 2668SOL    HW119463   0.584   3.940   9.666  1.2373 -0.9771 -1.4068
 2668SOL    HW219464   0.681   4.035   9.611  0.1482 -1.5829  0.6498
 2669SOL     OW19465   0.501   1.651  16.167 -0.3884  0.3276  0.5098
 2669SOL    HW119466   0.526   1.616  16.252 -2.1186  0.7315  1.1992
 2669SOL    HW219467   0.570   1.714  16.147  0.5132 -0.5036  1.0659
 2670SOL     OW19468   3.913   4.356   1.137  0.6445 -0.1754  0.6511
 2670SOL    HW119469   3.940   4.445   1.162 -0.6589  1.0629 -2.3309
 2670SOL    HW219470   3.985   4.325   1.081 -0.9684 -1.4682 -0.6838
 2671SOL     OW19471   1.116   1.277   5.259 -0.0387  0.5728 -0.7008
 2671SOL    HW119472   1.157   1.342   5.202 -1.1920  1.2578 -0.7375
 2671SOL    HW219473   1.036   1.262   5.209 -0.2944  0.6425 -0.3100
 2672SOL     OW19474   4.083   4.700   5.070  0.3554 -0.4786  0.5005
 2672SOL    HW119475   4.083   0.068   5.104 -2.7922 -1.9632  4.4248
 2672SOL    HW219476   4.142   4.661   5.134 -0.8670  1.4262  2.7932
 2673SOL     OW19477   2.162   3.184   1.191 -0.1260  0.6242  0.4817
 2673SOL    HW119478   2.212   3.265   1.208 -0.9475  0.7392  2.3255
 2673SOL    HW219479   2.229   3.116   1.182  0.4228  0.7028  3.9086
 2674SOL     OW19480   1.815   3.476   2.457  0.3275  0.0490  0.1948
 2674SOL    HW119481   1.857   3.413   2.398 -0.5124  1.6965 -2.1688
 2674SOL    HW219482   1.772   3.541   2.401  1.6886  0.2846 -0.5933
 2675SOL     OW19483   3.021   0.771   4.995  0.4535 -0.1411 -0.0296
 2675SOL    HW119484   3.019   0.701   5.060 -1.3838  0.3829  0.4646
 2675SOL    HW219485   3.055   0.845   5.046 -1.6442  1.7539 -1.3989
 2676SOL     OW19486   3.135   2.903   7.336  0.4315 -0.2423 -0.3530
 2676SOL    HW119487   3.209   2.960   7.357 -0.9594  1.3730  0.2297
 2676SOL    HW219488   3.074   2.958   7.287  0.4689 -0.4451 -0.6265
 2677SOL     OW19489   3.024   0.356   5.486 -0.0977  0.3005  0.4510
 2677SOL    HW119490   3.071   0.428   5.444  1.0238  0.6145  2.2378
 2677SOL    HW219491   2.936   0.395   5.485 -1.4706 -2.8668 -2.3058
 2678SOL     OW19492   1.785   2.450   3.393  0.3117  0.7391 -0.2071
 2678SOL    HW119493   1.709   2.487   3.347  0.6974  2.8864  0.8603
 2678SOL    HW219494   1.850   2.516   3.369  1.9272 -0.4710  0.8861
 2679SOL     OW19495   2.192   2.791  16.205  0.0231  0.1765 -0.7925
 2679SOL    HW119496   2.206   2.885  16.211  0.7225  0.0379 -0.2785
 2679SOL    HW219497   2.200   2.783  16.110  1.2297  2.1342 -0.8454
 2680SOL     OW19498   1.700   2.786   4.967 -0.2228  0.7559 -0.1667
 2680SOL    HW119499   1.766   2.724   4.935 -0.6120  1.7364 -2.8486
 2680SOL    HW219500   1.628   2.724   4.956 -0.1772  0.6154  0.3251
 2681SOL     OW19501   3.236   3.429   4.609 -0.0511 -0.0747  0.4978
 2681SOL    HW119502   3.280   3.405   4.690 -0.4586 -1.1890  0.3846
 2681SOL    HW219503   3.153   3.385   4.624 -0.0496 -0.8146 -1.5812
 2682SOL     OW19504   0.376   1.948   2.364  0.2546 -0.2698  0.4010
 2682SOL    HW119505   0.462   1.964   2.326 -0.4154 -1.6149 -1.6484
 2682SOL    HW219506   0.398   1.890   2.436  0.8407 -0.8563 -0.2532
 2683SOL     OW19507   0.173   0.948   2.556  0.0985  0.4639 -0.5345
 2683SOL    HW119508   0.210   0.880   2.500  0.1099  0.6139 -0.7083
 2683SOL    HW219509   0.107   0.900   2.607 -0.3208  1.6915  0.0723
 2684SOL     OW19510   3.837   2.039  16.836  0.2629 -0.2974  0.5528
 2684SOL    HW119511   3.767   1.975  16.820 -0.4966  0.1643  2.0743
 2684SOL    HW219512   3.806   2.077  16.918 -1.2865 -0.9773  0.2848
 2685SOL     OW19513   3.312   0.414   4.739 -0.5818 -0.0435  0.1117
 2685SOL    HW119514   3.292   0.337   4.792 -0.4583  0.9204  1.5807
 2685SOL    HW219515   3.344   0.469   4.811 -0.6397  1.3667 -0.9498
 2686SOL     OW19516   2.031   1.157   1.255  0.5914  0.0506 -0.2869
 2686SOL    HW119517   2.076   1.225   1.205  0.3955  0.3165 -0.1031
 2686SOL    HW219518   2.078   1.086   1.211  1.8653 -1.2941  3.2493
 2687SOL     OW19519   3.299   0.726  10.653  0.0798  0.1176  0.9551
 2687SOL    HW119520   3.255   0.804  10.687 -0.2717  0.8354 -1.1527
 2687SOL    HW219521   3.318   0.753  10.563  0.4838  0.6563  1.2051
 2688SOL     OW19522   1.203   4.275   2.220 -0.0388  0.2036 -0.0272
 2688SOL    HW119523   1.188   4.323   2.301 -3.5788  2.0974 -1.8173
 2688SOL    HW219524   1.173   4.336   2.152 -1.2486 -2.0951 -1.5648
 2689SOL     OW19525   2.879   2.094   0.964  0.4096 -0.0193  0.1971
 2689SOL    HW119526   2.887   2.183   0.931 -1.5539 -0.0040 -0.2463
 2689SOL    HW219527   2.879   2.111   1.059  0.4665  0.0908  0.1766
 2690SOL     OW19528   2.993   2.928  12.332 -0.2599  0.1348 -0.3885
 2690SOL    HW119529   2.938   3.003  12.355 -1.2958 -1.6321  2.8365
 2690SOL    HW219530   2.941   2.857  12.370 -0.5613 -0.1210 -1.2566
 2691SOL     OW19531   3.163   4.162   7.964 -0.6199 -0.2116 -0.1227
 2691SOL    HW119532   3.099   4.139   7.897 -0.3784  0.6064 -0.6273
 2691SOL    HW219533   3.247   4.139   7.924  0.3511  1.9857  0.6732
 2692SOL     OW19534   3.151   1.632   9.607  0.6805 -0.4261 -0.2344
 2692SOL    HW119535   3.165   1.714   9.655 -2.9862 -1.1488  2.0968
 2692SOL    HW219536   3.100   1.669   9.534 -1.2803 -0.4851  1.1045
 2693SOL     OW19537   0.124   3.756   6.318  0.4508  0.0378 -0.1730
 2693SOL    HW119538   0.191   3.795   6.374  0.9649 -0.7630 -0.2285
 2693SOL    HW219539   0.044   3.798   6.349  0.5828 -2.6026  3.6971
 2694SOL     OW19540   2.542   2.051   9.712  0.1196 -0.2161  0.2276
 2694SOL    HW119541   2.476   2.120   9.715 -0.7996 -1.0450 -1.0404
 2694SOL    HW219542   2.621   2.086   9.672 -0.6666  2.3365  0.9443
 2695SOL     OW19543   0.052   0.595   5.855  0.0698 -0.2495 -0.0794
 2695SOL    HW119544   0.039   0.586   5.761  3.8695  0.1165 -0.6155
 2695SOL    HW219545   4.688   0.632   5.880 -0.4549 -0.7047 -1.1852
 2696SOL     OW19546   3.115   4.102   8.330  0.2280  0.5159 -0.3279
 2696SOL    HW119547   3.076   4.021   8.297 -0.2596  0.5495  0.1669
 2696SOL    HW219548   3.203   4.086   8.295  0.2740 -0.0478  0.0630
 2697SOL     OW19549   2.127   1.556   4.246 -0.4043 -0.0048 -0.1325
 2697SOL    HW119550   2.219   1.560   4.220  0.0619 -1.0693  1.3724
 2697SOL    HW219551   2.108   1.465   4.224  2.1430 -0.6199  0.2569
 2698SOL     OW19552   2.598   4.154   5.374  0.4588  0.0825  0.0101
 2698SOL    HW119553   2.527   4.158   5.309 -0.6093  0.0900  1.1863
 2698SOL    HW219554   2.628   4.243   5.359  0.5690  0.3855  2.0558
 2699SOL     OW19555   4.608   2.615   7.013 -0.2781 -0.3230 -0.5970
 2699SOL    HW119556   4.612   2.709   7.033 -0.0500 -0.6682  1.0000
 2699SOL    HW219557   4.550   2.589   7.084 -1.9054  3.5308 -0.5182
 2700SOL     OW19558   2.364   2.294  11.863 -0.1497  0.0656  0.3613
 2700SOL    HW119559   2.391   2.386  11.867  0.2659 -0.0137 -0.5617
 2700SOL    HW219560   2.407   2.259  11.940  0.1473 -2.4446 -0.9536
 2701SOL     OW19561   1.673   1.082   4.643  0.2519 -0.3845  0.7516
 2701SOL    HW119562   1.644   1.167   4.677  0.3149 -0.4015  0.8486
 2701SOL    HW219563   1.585   1.046   4.634  0.4764 -1.3488  2.3977
 2702SOL     OW19564   0.858   1.379  15.287  0.4101  0.2741  0.5234
 2702SOL    HW119565   0.896   1.467  15.279 -0.9091  0.9386  1.5462
 2702SOL    HW219566   0.782   1.412  15.239  1.1748  0.1879 -0.7621
 2703SOL     OW19567   0.636   2.527   9.382  0.1320 -0.0446  0.1350
 2703SOL    HW119568   0.553   2.514   9.429 -0.1046 -0.5509 -0.4310
 2703SOL    HW219569   0.681   2.591   9.438  0.9456  0.6993 -1.3477
 2704SOL     OW19570   1.200   4.625   2.638 -0.9233  0.1016  0.1008
 2704SOL    HW119571   1.173   4.701   2.690 -0.4897 -0.4068  1.0656
 2704SOL    HW219572   1.263   4.676   2.586  2.3481 -3.6067  0.3952
 2705SOL     OW19573   0.292   3.367   8.112 -0.5884 -0.1261 -0.4433
 2705SOL    HW119574   0.381   3.357   8.078 -0.1270  3.0351 -0.1686
 2705SOL    HW219575   0.304   3.439   8.174 -1.2671 -0.1744 -0.2518
 2706SOL     OW19576   3.740   2.909   0.247  0.3507 -0.8454 -0.2963
 2706SOL    HW119577   3.719   2.993   0.205  2.3418 -0.1676  0.0938
 2706SOL    HW219578   3.774   2.938   0.331 -1.9041  1.0035 -0.0063
 2707SOL     OW19579   2.945   0.937   5.956  0.2179  0.1814 -0.0969
 2707SOL    HW119580   2.890   0.876   5.907  0.3872 -0.1058  0.0653
 2707SOL    HW219581   2.889   1.015   5.957  0.0206  0.0584 -1.9499
 2708SOL     OW19582   1.642   0.970   2.862 -0.2675  0.3214  0.3997
 2708SOL    HW119583   1.633   0.893   2.918  0.8897  1.6171  2.3381
 2708SOL    HW219584   1.604   0.934   2.782 -1.3436  2.1909  0.0636
 2709SOL     OW19585   2.658   0.636   3.420 -0.7935 -0.5520 -0.4325
 2709SOL    HW119586   2.622   0.607   3.504 -0.7276  1.4124  0.2606
 2709SOL    HW219587   2.574   0.671   3.392 -0.3673  0.8486  0.0656
 2710SOL     OW19588   4.231   2.465   6.771  0.4922 -0.5092  0.8265
 2710SOL    HW119589   4.140   2.446   6.792  0.5716 -0.4049  1.2667
 2710SOL    HW219590   4.244   2.546   6.820 -1.3900  0.0551  0.3971
 2711SOL     OW19591   1.016   1.952  13.521 -0.1991 -0.1212  0.0934
 2711SOL    HW119592   1.002   1.887  13.590 -0.8473 -2.9570 -2.6936
 2711SOL    HW219593   0.923   1.973  13.515 -1.0329 -3.6283  0.4007
 2712SOL     OW19594   4.302   2.725   6.955 -0.5399  0.3899  0.3408
 2712SOL    HW119595   4.345   2.797   6.910  0.3242 -0.7984 -0.7341
 2712SOL    HW219596   4.211   2.751   6.969 -0.1361  1.5085  0.8811
 2713SOL     OW19597   3.538   1.920   7.451 -0.4333 -0.0951  0.0279
 2713SOL    HW119598   3.524   1.972   7.530 -3.1617 -0.2526 -0.3330
 2713SOL    HW219599   3.451   1.882   7.461  1.5049 -5.3436 -2.8890
 2714SOL     OW19600   3.194   3.482   7.301 -0.5621  0.1097  0.0790
 2714SOL    HW119601   3.117   3.427   7.286 -2.0615  2.4670 -0.8359
 2714SOL    HW219602   3.192   3.495   7.396 -1.2433  2.5458 -0.2740
 2715SOL     OW19603   2.707   1.515   4.644 -0.5177  0.1748  0.3822
 2715SOL    HW119604   2.630   1.534   4.697 -0.8828  0.2544 -0.1876
 2715SOL    HW219605   2.728   1.425   4.667  0.0852  0.2477  0.1106
 2716SOL     OW19606   3.162   2.455  15.436 -0.1744 -0.0040  1.0570
 2716SOL    HW119607   3.243   2.478  15.390 -1.3879  1.6954 -0.2030
 2716SOL    HW219608   3.117   2.533  15.406 -0.2559 -0.2200  0.6275
 2717SOL     OW19609   0.135   3.788   8.652  0.0005  0.2173 -0.1324
 2717SOL    HW119610   0.053   3.822   8.687  0.9563  2.0348  0.3440
 2717SOL    HW219611   0.197   3.807   8.722 -0.8028  0.5878  0.4772
 2718SOL     OW19612   4.297   1.773   1.871  0.3056  0.0939  0.2606
 2718SOL    HW119613   4.314   1.864   1.846 -0.9145 -0.3686 -2.2252
 2718SOL    HW219614   4.250   1.783   1.953  0.9635  1.2402  0.5023
 2719SOL     OW19615   3.791   1.929   6.951 -0.2754  0.1940 -0.3145
 2719SOL    HW119616   3.719   1.872   6.976 -0.4292 -0.6473 -2.7100
 2719SOL    HW219617   3.799   1.987   7.027 -0.0908 -2.2725  1.5375
 2720SOL     OW19618   4.134   3.652  16.498  0.0390  0.8863  0.0881
 2720SOL    HW119619   4.078   3.651  16.421 -2.1194  2.1820  1.6530
 2720SOL    HW219620   4.073   3.663  16.571 -0.4285 -1.6260  0.0435
 2721SOL     OW19621   1.872   0.026   7.278  0.0381  0.0568 -0.1313
 2721SOL    HW119622   1.830   4.683   7.336 -1.2967  0.2381 -0.9017
 2721SOL    HW219623   1.831   0.110   7.299  0.7625  0.0740  1.2137
 2722SOL     OW19624   1.740   2.375   4.097  0.0575 -0.2076 -0.0665
 2722SOL    HW119625   1.730   2.322   4.018  0.7560 -1.6142  0.7947
 2722SOL    HW219626   1.817   2.335   4.136  0.4826  2.0086  1.4106
 2723SOL     OW19627   4.428   1.394   0.462 -0.0077 -0.2412 -0.1644
 2723SOL    HW119628   4.358   1.335   0.488  0.8584 -0.5533  1.4341
 2723SOL    HW219629   4.469   1.340   0.395 -0.8964  1.4110 -2.0451
 2724SOL     OW19630   0.662   2.979   3.233  0.1769  0.3804 -0.1037
 2724SOL    HW119631   0.655   3.031   3.153 -0.7266 -0.0211 -0.2763
 2724SOL    HW219632   0.576   3.001   3.269  1.0500  2.9028  0.4741
 2725SOL     OW19633   3.368   1.381   7.623 -0.1476  0.7991 -0.3087
 2725SOL    HW119634   3.304   1.321   7.584  0.4631 -0.1802  0.1732
 2725SOL    HW219635   3.320   1.423   7.694 -1.0050  0.8205 -0.9002
 2726SOL     OW19636   4.107   0.019   5.671  0.1542  0.0442 -0.4995
 2726SOL    HW119637   4.020   0.049   5.697  0.1221  1.2159 -1.9465
 2726SOL    HW219638   4.130   4.703   5.756  0.2711  0.4758 -0.3433
 2727SOL     OW19639   0.463   3.466   9.246  0.2718 -0.6019  0.3284
 2727SOL    HW119640   0.395   3.399   9.255  1.4198 -1.2660  3.9055
 2727SOL    HW219641   0.453   3.497   9.156  1.3895 -1.2888 -0.0242
 2728SOL     OW19642   1.675   2.544  16.316 -0.3562 -0.8608 -0.3321
 2728SOL    HW119643   1.605   2.588  16.364  2.2635  2.0012  0.8618
 2728SOL    HW219644   1.727   2.611  16.274  1.2741 -1.8350  0.1287
 2729SOL     OW19645   3.848   4.187  10.891 -0.0320  0.1056 -0.1842
 2729SOL    HW119646   3.809   4.180  10.978  0.2719 -1.1486 -0.1570
 2729SOL    HW219647   3.784   4.237  10.841 -0.2131 -0.7682 -0.8061
 2730SOL     OW19648   0.527   3.663   5.833 -0.2007 -0.8393  0.3891
 2730SOL    HW119649   0.604   3.614   5.803  1.2141  3.2779 -2.6505
 2730SOL    HW219650   0.558   3.706   5.913  1.5281 -2.4095  0.5781
 2731SOL     OW19651   4.703   4.161  16.934  0.1605  0.0678 -0.1068
 2731SOL    HW119652   4.667   4.097  16.995  1.8103 -1.3178 -0.6105
 2731SOL    HW219653   4.646   4.147  16.858  0.6231  1.8384 -0.7855
 2732SOL     OW19654   3.979   4.300   5.173 -0.2101  0.5871  0.5729
 2732SOL    HW119655   3.970   4.225   5.231 -0.3292 -0.8985 -1.3391
 2732SOL    HW219656   4.005   4.248   5.097 -2.0166  1.3938 -0.6213
 2733SOL     OW19657   3.647   0.975   6.154  0.6065  0.2548  0.6670
 2733SOL    HW119658   3.733   0.954   6.116 -0.0962  0.7752 -1.2410
 2733SOL    HW219659   3.636   1.070   6.152 -4.2749 -0.2840  1.1485
 2734SOL     OW19660   4.204   1.052   8.370 -0.0007  0.1617 -0.3157
 2734SOL    HW119661   4.111   1.042   8.390 -0.0800  2.6649  0.5794
 2734SOL    HW219662   4.205   1.077   8.277  0.2822  1.6030  0.0701
 2735SOL     OW19663   0.863   0.388   7.663  0.1021  0.0144  0.0607
 2735SOL    HW119664   0.780   0.421   7.697 -0.8727 -3.9998  1.5606
 2735SOL    HW219665   0.899   0.336   7.735 -1.3585  0.6004  1.2072
 2736SOL     OW19666   1.550   0.198  15.516 -0.0740 -0.0177 -0.1091
 2736SOL    HW119667   1.513   0.267  15.571 -0.8909  0.1876 -0.9041
 2736SOL    HW219668   1.577   0.147  15.593  0.5735 -0.7242 -0.8077
 2737SOL     OW19669   4.506   3.115   4.146 -0.0952  0.0840 -0.1481
 2737SOL    HW119670   4.545   3.202   4.153 -1.1563  0.5981 -0.5675
 2737SOL    HW219671   4.561   3.064   4.205  0.6700  0.0313 -0.9007
 2738SOL     OW19672   3.860   4.046   4.343  0.2171  0.7178 -0.4114
 2738SOL    HW119673   3.907   4.048   4.260 -1.1183  1.1371 -1.1495
 2738SOL    HW219674   3.932   4.033   4.404 -0.3090 -0.7668 -0.0904
 2739SOL     OW19675   0.631   1.319   5.365 -0.1897 -0.2711 -0.2042
 2739SOL    HW119676   0.550   1.348   5.407 -0.6077 -1.5328 -0.1112
 2739SOL    HW219677   0.606   1.233   5.329  2.4052 -1.3761  0.6592
 2740SOL     OW19678   4.195   0.341   5.211 -0.1037  0.2028 -0.5575
 2740SOL    HW119679   4.263   0.345   5.279  0.8036  0.0288 -1.4534
 2740SOL    HW219680   4.131   0.298   5.267  0.0090  1.1164  0.2689
 2741SOL     OW19681   2.573   2.947  13.073  0.0425 -0.0156  0.1978
 2741SOL    HW119682   2.598   2.917  12.986 -3.7029  1.7988 -1.5070
 2741SOL    HW219683   2.597   3.039  13.057 -1.8951  0.3844 -0.4554
 2742SOL     OW19684   4.456   3.013   6.216 -0.1371 -0.1785  0.0821
 2742SOL    HW119685   4.519   3.016   6.144  0.5428 -2.1774  0.6016
 2742SOL    HW219686   4.389   3.072   6.182  0.6858 -0.2333 -1.6456
 2743SOL     OW19687   0.295   4.205   4.194  0.2693 -0.2629 -0.4030
 2743SOL    HW119688   0.380   4.246   4.175  0.5474 -0.7302 -0.1484
 2743SOL    HW219689   0.318   4.131   4.250 -0.9455  0.3982  0.9605
 2744SOL     OW19690   3.509   4.086   4.709  0.2798  0.0434 -0.1629
 2744SOL    HW119691   3.589   4.049   4.673  0.1060  0.8846 -1.3997
 2744SOL    HW219692   3.518   4.107   4.803 -0.2120  2.5503 -0.6703
 2745SOL     OW19693   2.823   0.991   3.210 -0.2482 -0.2564  0.8124
 2745SOL    HW119694   2.829   0.900   3.182  1.5108  1.5280 -4.4860
 2745SOL    HW219695   2.906   0.988   3.258 -0.3744  2.2973  1.1829
 2746SOL     OW19696   4.369   3.488  16.767  0.1071  0.0294 -0.3337
 2746SOL    HW119697   4.337   3.398  16.758 -1.5953  0.4755  1.3843
 2746SOL    HW219698   4.371   3.518  16.676  0.4600 -0.4301 -0.4796
 2747SOL     OW19699   3.268   1.331   9.020  0.0619  0.4100 -0.7154
 2747SOL    HW119700   3.324   1.255   9.000 -0.9509 -0.1130 -1.5404
 2747SOL    HW219701   3.285   1.384   8.942 -0.9399 -0.4112 -1.4804
 2748SOL     OW19702   0.754   3.393  17.547  0.2717  0.0572  0.0634
 2748SOL    HW119703   0.763   3.442  17.466  0.3236  2.4051  1.4948
 2748SOL    HW219704   0.700   3.319  17.519  0.2120  0.7070 -1.5191
 2749SOL     OW19705   0.974   3.652  13.815  0.3654  0.0654  0.2417
 2749SOL    HW119706   1.002   3.564  13.839 -0.1021  0.1346  1.0201
 2749SOL    HW219707   1.055   3.702  13.806  0.0924  0.1484 -1.7608
 2750SOL     OW19708   4.527   0.172   0.972  0.1057 -0.7084 -0.1832
 2750SOL    HW119709   4.569   0.146   1.054 -1.8603 -2.5269  0.2623
 2750SOL    HW219710   4.439   0.136   0.978  0.3605 -1.2573  0.3357
 2751SOL     OW19711   0.522   0.509  14.887 -0.2100 -0.6028  0.8788
 2751SOL    HW119712   0.613   0.516  14.918 -0.3685  0.6869  1.0716
 2751SOL    HW219713   0.532   0.545  14.799 -1.2584  0.0205  1.0113
 2752SOL     OW19714   2.500   2.255   4.703 -0.3288 -0.3723  0.0501
 2752SOL    HW119715   2.408   2.272   4.682 -0.2122  2.5888  1.9328
 2752SOL    HW219716   2.528   2.195   4.634  0.7776 -0.2549  0.3966
 2753SOL     OW19717   0.388   0.083   3.976 -0.0259  0.2109  0.4722
 2753SOL    HW119718   0.468   0.077   3.924 -0.3419  1.5651 -0.1642
 2753SOL    HW219719   0.321   0.098   3.909  1.2783  1.9019 -0.4513
 2754SOL     OW19720   0.343   0.440   4.023  0.5022 -0.2332  0.0548
 2754SOL    HW119721   0.371   0.491   3.948 -0.0195 -2.6841 -1.8226
 2754SOL    HW219722   0.276   0.501   4.053 -1.8629 -1.4951 -2.5968
 2755SOL     OW19723   2.599   1.960  12.362  0.4263 -0.4745  0.2763
 2755SOL    HW119724   2.686   1.985  12.331  1.0567 -1.3130  1.3445
 2755SOL    HW219725   2.593   1.871  12.327  0.8552 -0.9104  1.2870
 2756SOL     OW19726   1.761   1.888   6.652 -0.7318  0.6395 -0.2885
 2756SOL    HW119727   1.672   1.907   6.622 -1.1227  0.8345  1.0046
 2756SOL    HW219728   1.776   1.808   6.600 -0.6851  1.4835 -1.5773
 2757SOL     OW19729   1.305   0.983  12.139 -0.3817  0.2694  0.2992
 2757SOL    HW119730   1.223   0.985  12.090  0.4079 -1.8525 -1.1306
 2757SOL    HW219731   1.321   0.895  12.174  0.5387 -0.8642 -2.8978
 2758SOL     OW19732   0.115   3.016   3.114 -0.2419  0.9872  0.1277
 2758SOL    HW119733   0.059   3.048   3.044 -1.0889  2.6411  1.5601
 2758SOL    HW219734   0.147   3.100   3.149  1.4747  0.1071  0.6465
 2759SOL     OW19735   2.574   3.366   5.930  0.2906 -0.6406 -0.3528
 2759SOL    HW119736   2.655   3.374   5.980 -0.0413 -2.8143  0.5033
 2759SOL    HW219737   2.549   3.276   5.950  0.0492 -0.3556  0.6328
 2760SOL     OW19738   3.319   4.439   6.199  0.3406 -0.0918 -0.5486
 2760SOL    HW119739   3.242   4.402   6.241  1.4349 -1.6956  0.0778
 2760SOL    HW219740   3.382   4.372   6.224 -0.8469 -0.4315  1.4644
 2761SOL     OW19741   1.709   3.639  13.854  0.1996  0.3191 -0.1112
 2761SOL    HW119742   1.652   3.638  13.777 -2.1010 -0.8664  1.6108
 2761SOL    HW219743   1.753   3.722  13.835 -0.1054  0.4307 -0.3406
 2762SOL     OW19744   1.993   2.681  16.920  0.2644  0.3769 -0.0934
 2762SOL    HW119745   2.058   2.622  16.959 -0.0123  0.2596  0.1847
 2762SOL    HW219746   1.933   2.620  16.877  0.7523 -1.3450  1.6518
 2763SOL     OW19747   0.236   3.477   3.733 -0.1163  0.1705  0.0279
 2763SOL    HW119748   0.157   3.491   3.681  0.7632 -1.5674 -1.7542
 2763SOL    HW219749   0.302   3.473   3.665 -1.0628  1.4450 -0.9807
 2764SOL     OW19750   1.340   3.594   6.486  0.3441 -0.3627  0.2255
 2764SOL    HW119751   1.304   3.682   6.494 -1.2855 -0.7701 -2.2823
 2764SOL    HW219752   1.262   3.538   6.485  0.0017  0.1075  0.4375
 2765SOL     OW19753   1.174   2.636  15.266  1.2671 -0.3215  0.0545
 2765SOL    HW119754   1.153   2.726  15.241 -0.0996 -1.0715 -1.5259
 2765SOL    HW219755   1.216   2.603  15.187  1.2411  0.3964 -0.2627
 2766SOL     OW19756   2.370   2.579  12.928 -0.5516  0.0184  0.0950
 2766SOL    HW119757   2.453   2.534  12.912 -2.0368 -2.6369 -0.1822
 2766SOL    HW219758   2.314   2.542  12.859 -0.5208  0.3123 -0.0869
 2767SOL     OW19759   3.036   3.898   3.362  0.0852  0.3434 -0.0558
 2767SOL    HW119760   2.982   3.834   3.315  1.5820  0.2141 -1.5557
 2767SOL    HW219761   3.072   3.940   3.284 -0.6896  1.0348 -0.0479
 2768SOL     OW19762   3.237   1.765   2.966 -0.2911 -0.4264  0.3019
 2768SOL    HW119763   3.315   1.750   2.913  0.4688  1.0627  0.9871
 2768SOL    HW219764   3.195   1.681   2.950 -3.3882  1.6306 -2.6010
 2769SOL     OW19765   4.686   0.212   5.476 -0.7200 -0.1849  1.2288
 2769SOL    HW119766   0.009   0.129   5.456  0.4480  0.3041  1.7322
 2769SOL    HW219767   4.653   0.231   5.388 -1.2746  0.3744  1.5593
 2770SOL     OW19768   4.040   4.384  10.689 -0.0772  0.0830 -0.5080
 2770SOL    HW119769   4.116   4.441  10.685 -0.8585  1.0984 -1.1809
 2770SOL    HW219770   3.974   4.446  10.657 -0.8517  0.2630  1.4439
 2771SOL     OW19771   3.328   2.294   6.053 -0.4043 -0.2278  0.4841
 2771SOL    HW119772   3.289   2.379   6.033  0.0095 -0.2365 -0.3509
 2771SOL    HW219773   3.421   2.307   6.034 -1.0802  0.9931 -1.9753
 2772SOL     OW19774   3.977   2.351  13.862  0.4522  0.1520  0.6023
 2772SOL    HW119775   3.948   2.433  13.824 -0.4485 -0.8394 -0.8290
 2772SOL    HW219776   3.916   2.347  13.936 -2.7542  2.3937 -1.9558
 2773SOL     OW19777   3.919   2.366   6.383  0.3436  0.1979 -0.4186
 2773SOL    HW119778   3.903   2.294   6.443  1.0083  0.3626 -0.0389
 2773SOL    HW219779   3.934   2.320   6.300  0.9223 -0.0384 -0.1846
 2774SOL     OW19780   0.165   2.599   6.262  0.1289 -0.5660  0.1172
 2774SOL    HW119781   0.129   2.517   6.228 -0.3735  0.1128 -0.9760
 2774SOL    HW219782   0.082   2.642   6.285  1.6663  1.0220  2.7976
 2775SOL     OW19783   3.800   2.807   8.187 -0.4584 -0.0384 -0.1502
 2775SOL    HW119784   3.766   2.840   8.270 -1.4636 -0.4977 -0.3816
 2775SOL    HW219785   3.723   2.766   8.148 -0.8361  2.6063 -2.1738
 2776SOL     OW19786   1.550   2.530  15.541 -1.2499  0.1942  0.6032
 2776SOL    HW119787   1.533   2.503  15.451  1.1876  1.4212 -0.2252
 2776SOL    HW219788   1.470   2.569  15.577 -3.4194 -2.8777 -0.9512
 2777SOL     OW19789   4.394   0.077   5.074 -0.4838 -0.6315 -0.1594
 2777SOL    HW119790   4.358   0.075   5.163 -2.9634 -1.4180 -1.2010
 2777SOL    HW219791   4.394   4.702   5.068 -1.2824 -0.6468  0.0817
 2778SOL     OW19792   2.086   0.556   8.679  0.3026 -0.4433  0.2643
 2778SOL    HW119793   2.080   0.614   8.754  3.0671  0.3007 -0.0918
 2778SOL    HW219794   2.080   0.470   8.721  1.0846  0.2494  1.8054
 2779SOL     OW19795   3.538   2.906   8.062  0.6631 -0.2050  0.1048
 2779SOL    HW119796   3.481   2.962   8.010  0.6860  0.8277  1.1639
 2779SOL    HW219797   3.622   2.934   8.024  0.2115  0.1959 -0.5928
 2780SOL     OW19798   1.742   4.105   8.628  0.1832  0.0205  0.0077
 2780SOL    HW119799   1.651   4.075   8.619 -0.2081  1.1568  0.1949
 2780SOL    HW219800   1.785   4.023   8.602  1.3622  1.0002 -1.1378
 2781SOL     OW19801   1.059   0.518   1.483  0.2161 -0.2225  0.0739
 2781SOL    HW119802   0.988   0.577   1.509  1.6060  1.8292 -0.8284
 2781SOL    HW219803   1.009   0.442   1.452  0.3398 -0.0717 -0.5020
 2782SOL     OW19804   0.672   3.359   2.024 -0.2968  0.1918 -0.4120
 2782SOL    HW119805   0.681   3.270   1.989  2.4372  0.0615  0.6963
 2782SOL    HW219806   0.717   3.418   1.965  1.9780 -0.6209  0.5228
 2783SOL     OW19807   2.636   2.629  10.672 -0.5043  0.3355 -0.3372
 2783SOL    HW119808   2.698   2.646  10.743  1.1775 -1.3688 -1.3855
 2783SOL    HW219809   2.696   2.644  10.599  0.1596 -0.5573  0.0246
 2784SOL     OW19810   1.779   1.295   0.366 -0.2098  0.4123  0.1608
 2784SOL    HW119811   1.868   1.322   0.346  0.8824 -3.3413 -0.0418
 2784SOL    HW219812   1.753   1.379   0.405 -0.8989  1.1588 -1.8890
 2785SOL     OW19813   1.266   1.361   7.161 -0.2821 -0.4760  0.0250
 2785SOL    HW119814   1.326   1.411   7.218  0.7141  1.5441 -2.7757
 2785SOL    HW219815   1.319   1.342   7.084 -2.3456  1.1991 -1.8165
 2786SOL     OW19816   2.469   0.511   8.837  0.0259 -0.5797 -0.2726
 2786SOL    HW119817   2.455   0.465   8.754  0.1644 -1.9414  0.4486
 2786SOL    HW219818   2.563   0.498   8.855 -0.0515 -1.2687 -0.3726
 2787SOL     OW19819   1.604   1.811   0.824 -0.2308 -0.2211  0.3916
 2787SOL    HW119820   1.542   1.873   0.862 -1.5519 -1.9400  1.0378
 2787SOL    HW219821   1.680   1.852   0.864 -0.7062 -0.5701  1.6351
 2788SOL     OW19822   3.610   1.504   4.524  0.4794 -0.2719 -0.2817
 2788SOL    HW119823   3.564   1.463   4.597 -0.7205  0.7217 -0.4906
 2788SOL    HW219824   3.700   1.481   4.549  0.3568 -0.7599 -0.2991
 2789SOL     OW19825   1.634   4.227   7.111  0.1053 -0.5146 -0.0708
 2789SOL    HW119826   1.655   4.264   7.197 -3.3378 -0.3523  0.7093
 2789SOL    HW219827   1.671   4.139   7.118  1.8573 -0.2783 -6.5682
 2790SOL     OW19828   0.879   3.464   6.913 -0.1791  0.4358  0.0200
 2790SOL    HW119829   0.794   3.432   6.942  0.0524 -1.5496 -1.4118
 2790SOL    HW219830   0.883   3.423   6.826 -1.2847 -0.3819  0.3662
 2791SOL     OW19831   3.462   4.418   7.258  0.0774 -0.0124  0.0389
 2791SOL    HW119832   3.535   4.397   7.200 -0.2865  0.7444 -0.6882
 2791SOL    HW219833   3.398   4.446   7.193 -1.6347  1.3370  2.3113
 2792SOL     OW19834   2.059   0.320   7.319 -0.2768 -0.0898 -0.0715
 2792SOL    HW119835   1.968   0.329   7.346 -0.7345 -0.9362 -1.3537
 2792SOL    HW219836   2.105   0.398   7.350 -1.6916  0.8816 -0.4282
 2793SOL     OW19837   1.586   2.659   7.240  0.0674 -0.3250  0.0061
 2793SOL    HW119838   1.636   2.582   7.216 -0.9142 -1.1895  0.7584
 2793SOL    HW219839   1.655   2.720   7.270 -1.1093  1.6714 -1.3730
 2794SOL     OW19840   2.448   4.513   5.408  0.2382  0.5231 -0.6236
 2794SOL    HW119841   2.361   4.527   5.371 -0.3351 -2.3296 -0.3439
 2794SOL    HW219842   2.430   4.472   5.492  2.8260 -1.6803 -1.1593
 2795SOL     OW19843   1.812   1.180  14.947  0.3691  0.1066  0.5753
 2795SOL    HW119844   1.892   1.162  14.995  3.2977  3.4850 -3.0216
 2795SOL    HW219845   1.783   1.105  14.895 -1.6491  2.0659 -1.1302
 2796SOL     OW19846   4.185   3.333  16.241 -0.3185 -0.5198 -0.1326
 2796SOL    HW119847   4.185   3.388  16.163 -2.4781 -0.0276  0.2138
 2796SOL    HW219848   4.215   3.254  16.196 -1.4647 -0.7610 -0.4662
 2797SOL     OW19849   2.092   3.661   1.884  0.7113  0.2339  0.0789
 2797SOL    HW119850   2.163   3.605   1.914  0.0440 -1.5001 -1.5707
 2797SOL    HW219851   2.129   3.737   1.929 -0.3599  1.0815 -0.4773
 2798SOL     OW19852   1.936   2.031   8.655 -0.3004 -0.2572  0.3085
 2798SOL    HW119853   1.921   1.999   8.744  0.1565  0.3262  0.6004
 2798SOL    HW219854   2.031   2.020   8.649 -0.4437 -0.8777 -0.6195
 2799SOL     OW19855   4.066   3.256   1.359 -0.1750 -0.5703  0.2031
 2799SOL    HW119856   3.998   3.315   1.327  0.3196 -0.1988 -0.1888
 2799SOL    HW219857   4.059   3.185   1.295  2.6848  0.9649 -1.8448
 2800SOL     OW19858   3.522   3.101   3.569 -0.0795  0.0663 -0.2680
 2800SOL    HW119859   3.614   3.083   3.551  0.7709  3.5230  0.6200
 2800SOL    HW219860   3.487   3.097   3.480  0.0515  0.5878 -0.3473
 2801SOL     OW19861   1.452   1.631   3.448  0.9591 -0.4192 -0.9388
 2801SOL    HW119862   1.508   1.673   3.514 -0.8001  1.4727 -0.6718
 2801SOL    HW219863   1.459   1.701   3.384  2.8735  0.6180  0.3712
 2802SOL     OW19864   2.553   4.189   1.263  0.8816  0.1268  0.0335
 2802SOL    HW119865   2.600   4.115   1.302 -2.1257 -0.6862  2.1517
 2802SOL    HW219866   2.600   4.197   1.180 -1.3306 -1.1611 -1.3404
 2803SOL     OW19867   4.586   1.372   0.836 -0.6745 -0.2861  0.6004
 2803SOL    HW119868   4.599   1.292   0.886  0.5423 -1.2188 -1.1950
 2803SOL    HW219869   4.517   1.347   0.774 -0.6821  0.8523  0.1519
 2804SOL     OW19870   1.524   1.021  12.976 -0.2645  0.0879  0.2211
 2804SOL    HW119871   1.484   0.935  12.986 -1.4707  0.6620  0.2832
 2804SOL    HW219872   1.563   1.049  13.059  1.8544  1.0643 -1.0760
 2805SOL     OW19873   2.862   2.521   6.738  0.0376 -0.2957 -0.3265
 2805SOL    HW119874   2.806   2.579   6.789 -0.5868 -0.8532 -0.3683
 2805SOL    HW219875   2.811   2.501   6.659 -1.1431 -0.3881  0.4680
 2806SOL     OW19876   0.942   2.111   2.168  0.1251 -0.0410 -0.1252
 2806SOL    HW119877   0.937   2.193   2.119  0.6978  1.1005  1.7075
 2806SOL    HW219878   1.000   2.051   2.121  0.7531 -0.7276  1.5070
 2807SOL     OW19879   3.503   0.266   8.241 -0.2547 -0.6250  0.0319
 2807SOL    HW119880   3.430   0.281   8.181 -0.2585 -0.1864  0.1437
 2807SOL    HW219881   3.551   0.349   8.244 -1.9756  0.3452  0.9609
 2808SOL     OW19882   2.104   3.545   5.882  0.3218 -0.9978  0.3016
 2808SOL    HW119883   2.156   3.596   5.944  0.2630 -1.1688  0.4928
 2808SOL    HW219884   2.165   3.557   5.808  0.6177 -2.9756  0.2112
 2809SOL     OW19885   1.278   3.961  13.310  0.2752 -0.6880  0.2688
 2809SOL    HW119886   1.183   3.951  13.311  0.1976 -0.0003 -0.7924
 2809SOL    HW219887   1.302   3.878  13.268 -3.4084 -1.4812 -0.2623
 2810SOL     OW19888   3.738   3.189   6.420  0.2749  0.3101 -0.1324
 2810SOL    HW119889   3.721   3.095   6.419  0.5302  0.2358  1.4837
 2810SOL    HW219890   3.673   3.212   6.487  0.3308  0.3483 -0.0913
 2811SOL     OW19891   2.321   1.913   2.420 -0.0002  0.2847 -0.4787
 2811SOL    HW119892   2.340   1.990   2.366  0.3517  0.0415 -0.7040
 2811SOL    HW219893   2.295   1.945   2.506  1.4402 -2.1920  0.8492
 2812SOL     OW19894   3.744   1.031   7.671  0.9273  0.0516  0.0308
 2812SOL    HW119895   3.704   1.109   7.711  0.1239 -0.3443 -0.0088
 2812SOL    HW219896   3.692   1.025   7.591  1.4174 -0.8926 -0.2047
 2813SOL     OW19897   0.525   1.649   3.489 -0.2892 -0.0047  0.0163
 2813SOL    HW119898   0.618   1.644   3.467 -0.3129 -2.0373  0.3756
 2813SOL    HW219899   0.507   1.559   3.514  1.1153 -0.4946 -0.7338
 2814SOL     OW19900   0.268   2.673   7.029 -0.3448 -0.8583  0.1758
 2814SOL    HW119901   0.360   2.681   7.003  0.5527 -0.2781  3.5076
 2814SOL    HW219902   0.238   2.617   6.957 -0.3634 -0.5939 -0.0237
 2815SOL     OW19903   0.451   3.504  11.529 -0.0850  0.5743 -0.5899
 2815SOL    HW119904   0.414   3.418  11.506 -1.0388  0.3843  1.6213
 2815SOL    HW219905   0.408   3.518  11.614  0.9614  0.7747 -0.1023
 2816SOL     OW19906   2.214   0.723  14.096  0.0863 -0.1376  0.3062
 2816SOL    HW119907   2.250   0.783  14.161  0.4691  0.0079 -0.0376
 2816SOL    HW219908   2.294   0.681  14.063  0.2767  0.9869 -0.6984
 2817SOL     OW19909   4.310   3.857   2.037  0.2115  0.3001 -0.0994
 2817SOL    HW119910   4.333   3.947   2.013 -1.8587 -0.0005 -3.0757
 2817SOL    HW219911   4.226   3.870   2.080  0.4025 -1.1561  0.7224
 2818SOL     OW19912   1.511   0.580   5.253  0.0944 -0.0942 -0.2839
 2818SOL    HW119913   1.495   0.598   5.345 -1.4019 -3.0234  0.0052
 2818SOL    HW219914   1.424   0.584   5.215 -0.3083 -2.1148  0.4361
 2819SOL     OW19915   1.295   1.278   4.178 -0.1385  0.3471 -0.2211
 2819SOL    HW119916   1.274   1.189   4.205  0.5596  0.1924 -0.1730
 2819SOL    HW219917   1.215   1.301   4.132 -0.2808 -0.0091 -0.1493
 2820SOL     OW19918   3.589   1.217   2.439 -0.3066  0.0072  0.1641
 2820SOL    HW119919   3.655   1.263   2.492 -0.6089  0.2739  0.3089
 2820SOL    HW219920   3.603   1.230   2.346  1.3609 -3.3457 -0.0518
 2821SOL     OW19921   1.983   1.140   6.299 -0.0526  0.0466 -0.2146
 2821SOL    HW119922   1.898   1.172   6.329  0.1059 -0.5785  0.8730
 2821SOL    HW219923   1.997   1.085   6.375 -0.9831 -1.5242 -1.1922
 2822SOL     OW19924   0.925   0.380   3.252 -0.1479 -0.1824  0.0645
 2822SOL    HW119925   0.897   0.471   3.257  0.9302  0.0477  1.8815
 2822SOL    HW219926   1.020   0.396   3.252 -0.2010  0.1293  0.2337
 2823SOL     OW19927   2.924   4.280   6.138 -0.6263  0.2265  0.2646
 2823SOL    HW119928   2.977   4.203   6.115 -2.7100 -0.8497 -0.8765
 2823SOL    HW219929   2.837   4.241   6.146 -0.6859  0.2599 -0.2489
 2824SOL     OW19930   0.497   3.521   6.362  0.5560  0.0446 -0.0788
 2824SOL    HW119931   0.592   3.519   6.373  0.5063  1.5032  0.6320
 2824SOL    HW219932   0.474   3.461   6.433 -3.1152  0.6124 -0.8201
 2825SOL     OW19933   3.837   0.734  13.060 -0.4697  0.6086 -0.3395
 2825SOL    HW119934   3.766   0.671  13.068  0.6542 -0.7378 -0.9905
 2825SOL    HW219935   3.846   0.750  12.966  1.5882 -2.8130 -0.7127
 2826SOL     OW19936   2.841   0.806   8.787 -0.1399  0.0701 -0.0804
 2826SOL    HW119937   2.849   0.879   8.848 -2.1998 -0.4221  0.7863
 2826SOL    HW219938   2.759   0.770   8.820 -1.6256  1.9764 -1.6855
 2827SOL     OW19939   4.634   3.097   8.638  0.0275  0.3402 -0.1369
 2827SOL    HW119940   4.636   3.053   8.723  1.4298 -0.5273 -0.6123
 2827SOL    HW219941   4.552   3.060   8.606  0.1956 -1.5585  1.6392
 2828SOL     OW19942   3.026   1.334   3.335  0.2891 -0.0481  0.4806
 2828SOL    HW119943   3.096   1.367   3.391  0.6275 -1.6457  0.9897
 2828SOL    HW219944   3.048   1.362   3.246 -0.1012  1.2178  0.7786
 2829SOL     OW19945   2.913   0.512   3.383 -0.2543 -0.0418  0.6644
 2829SOL    HW119946   2.870   0.440   3.336  1.3755 -0.7936  0.3278
 2829SOL    HW219947   2.837   0.561   3.415  0.8467  1.0439  1.6155
 2830SOL     OW19948   1.895   1.770   3.003  0.2281  0.5064  0.2446
 2830SOL    HW119949   1.987   1.771   3.029  0.5903  4.6730 -1.2244
 2830SOL    HW219950   1.888   1.677   2.980  1.2421  0.4696  0.0767
 2831SOL     OW19951   2.306   2.850   8.491 -0.0159  0.8781  0.2086
 2831SOL    HW119952   2.399   2.829   8.500 -0.1644  0.0867 -0.0957
 2831SOL    HW219953   2.271   2.798   8.563 -1.5859  1.2558 -0.2691
 2832SOL     OW19954   2.921   3.676   2.866 -0.3058  0.2673 -0.3612
 2832SOL    HW119955   2.975   3.621   2.810 -0.1178  0.1064 -0.0201
 2832SOL    HW219956   2.851   3.707   2.808  0.8075 -0.5197 -2.1280
 2833SOL     OW19957   3.579   1.962   5.995  0.5056  0.7781 -0.8448
 2833SOL    HW119958   3.554   1.876   5.961 -1.2759  1.7749 -2.0458
 2833SOL    HW219959   3.489   1.993   5.982  0.9204  2.7073  0.9097
 2834SOL     OW19960   4.123   2.981  13.769  0.0511  0.3935 -0.7732
 2834SOL    HW119961   4.111   2.903  13.714  0.3527  0.5312 -1.0337
 2834SOL    HW219962   4.217   3.000  13.765  0.4088 -1.2521 -0.4365
 2835SOL     OW19963   3.869   0.695   9.173 -0.3771 -0.0421  0.1693
 2835SOL    HW119964   3.942   0.697   9.235 -0.2247 -1.8313  0.0419
 2835SOL    HW219965   3.920   0.658   9.101 -0.2526  2.0756 -0.8576
 2836SOL     OW19966   3.344   3.731   9.565  0.0257  0.0908  0.0422
 2836SOL    HW119967   3.376   3.749   9.477 -1.6944 -2.2009 -1.0570
 2836SOL    HW219968   3.306   3.644   9.553  1.6413 -0.4632 -1.0634
 2837SOL     OW19969   0.311   3.506  11.777 -0.1813 -0.3754  0.0998
 2837SOL    HW119970   0.280   3.596  11.791  3.3628  0.9454 -0.6999
 2837SOL    HW219971   0.384   3.492  11.837 -0.2604  0.0163  0.2887
 2838SOL     OW19972   3.452   2.741   6.426 -0.0111  0.1963  0.1708
 2838SOL    HW119973   3.402   2.698   6.357 -1.0022  2.0273 -0.2489
 2838SOL    HW219974   3.457   2.825   6.381 -3.5700 -0.8816 -2.2131
 2839SOL     OW19975   0.227   2.185   8.186  0.7140  0.1699  0.3275
 2839SOL    HW119976   0.255   2.257   8.242 -2.7881  2.2959 -0.6529
 2839SOL    HW219977   0.236   2.236   8.105  2.4099 -2.7516 -1.3105
 2840SOL     OW19978   2.441   2.083   6.349  0.2426  0.4824  0.0858
 2840SOL    HW119979   2.530   2.080   6.315 -0.6531  1.2194 -2.2814
 2840SOL    HW219980   2.471   2.042   6.431 -1.5190  0.6290  0.8274
 2841SOL     OW19981   1.271   0.274  16.750 -0.4274  0.6574  0.4514
 2841SOL    HW119982   1.336   0.281  16.819  0.2340  0.8060 -0.1827
 2841SOL    HW219983   1.209   0.339  16.782  0.1424  1.2040  0.4526
 2842SOL     OW19984   0.518   0.974   3.488  0.3096  0.2306 -0.1291
 2842SOL    HW119985   0.520   1.021   3.405 -1.2980 -1.2282 -0.9957
 2842SOL    HW219986   0.465   1.027   3.547  1.7191  0.1902  1.1871
 2843SOL     OW19987   3.144   2.508   7.745  0.1785 -0.9132  0.3606
 2843SOL    HW119988   3.074   2.554   7.697  2.1031  0.8965 -0.7020
 2843SOL    HW219989   3.131   2.540   7.834  1.1008 -0.0273  0.1741
 2844SOL     OW19990   2.417   0.080   0.224 -0.0144 -0.0381 -0.0676
 2844SOL    HW119991   2.455   4.714   0.213  0.7719  0.1819  0.8713
 2844SOL    HW219992   2.400   0.102   0.133  0.7957 -1.4577 -0.5484
 2845SOL     OW19993   3.091   1.444   1.611 -0.4805  0.3026 -0.4082
 2845SOL    HW119994   3.155   1.456   1.540 -1.3318  0.2854 -1.1885
 2845SOL    HW219995   3.003   1.455   1.574 -0.7502  1.5065  0.6167
 2846SOL     OW19996   4.547   4.701   7.977 -0.4486 -0.6004  0.2005
 2846SOL    HW119997   4.590   4.702   7.891  1.4347  0.1672  1.1439
 2846SOL    HW219998   4.595   4.632   8.022  0.0906  0.1540  0.7912
 2847SOL     OW19999   3.008   0.923  14.450  0.1918  0.1799  0.1034
 2847SOL    HW120000   3.061   0.846  14.471 -0.3258  0.0421  0.9001
 2847SOL    HW220001   3.008   0.911  14.355  0.8121  1.7251 -0.0800
 2848SOL     OW20002   1.609   4.151   4.190 -0.1800  0.1970 -0.2281
 2848SOL    HW120003   1.672   4.204   4.238 -0.3310  0.8056 -0.7025
 2848SOL    HW220004   1.576   4.093   4.258 -1.0414  0.7500 -0.1788
 2849SOL     OW20005   3.534   4.663   5.851  0.6397 -0.8569 -0.1860
 2849SOL    HW120006   3.441   4.678   5.833  0.1163 -2.7755  0.8626
 2849SOL    HW220007   3.515   4.580   5.896  0.6430 -1.0198 -0.4867
 2850SOL     OW20008   1.538   2.348   5.533  0.6740  0.0807  0.7157
 2850SOL    HW120009   1.530   2.277   5.470 -0.6460  1.0862 -0.2277
 2850SOL    HW220010   1.631   2.339   5.554  0.7300  2.0662  1.2926
 2851SOL     OW20011   0.606   0.529   7.772  0.3610 -0.9532 -0.0545
 2851SOL    HW120012   0.595   0.514   7.866 -2.7792  0.2448 -0.2661
 2851SOL    HW220013   0.520   0.507   7.736  0.1890 -1.5205  0.7145
 2852SOL     OW20014   3.696   2.070  11.527 -0.3944  0.4048 -0.2367
 2852SOL    HW120015   3.624   2.009  11.544 -0.5606  1.3298  2.3375
 2852SOL    HW220016   3.654   2.141  11.480 -0.4682  1.2963  1.1961
 2853SOL     OW20017   3.451   4.111   1.566 -0.4842  0.7403  0.2195
 2853SOL    HW120018   3.527   4.149   1.612  1.7399  0.0426 -2.8991
 2853SOL    HW220019   3.415   4.056   1.636 -0.4979  2.3913  1.5300
 2854SOL     OW20020   0.900   3.359   8.078 -0.3215  0.1037  0.2416
 2854SOL    HW120021   0.814   3.368   8.117  0.1253  0.2379  1.2062
 2854SOL    HW220022   0.947   3.441   8.094  2.0117 -1.2153  0.2880
 2855SOL     OW20023   1.090   4.666   4.873 -0.3103  0.2991 -0.3048
 2855SOL    HW120024   1.070   4.602   4.941  1.1276 -1.6753 -1.7105
 2855SOL    HW220025   1.149   4.620   4.813  0.5062  1.1637 -0.1700
 2856SOL     OW20026   2.138   1.824   5.516  0.0538 -0.7780 -0.4660
 2856SOL    HW120027   2.138   1.808   5.611 -1.5055 -0.4433 -0.3963
 2856SOL    HW220028   2.139   1.919   5.504  1.1861 -0.5910  1.0345
 2857SOL     OW20029   2.691   3.053   9.051  0.3915  0.0119  0.3017
 2857SOL    HW120030   2.714   2.991   9.121 -1.6557 -0.9272  0.1431
 2857SOL    HW220031   2.728   3.008   8.976  1.7103  0.1164  0.8911
 2858SOL     OW20032   1.485   3.370   6.049  0.3708 -0.3663  0.4185
 2858SOL    HW120033   1.424   3.438   6.020 -0.7623 -0.5518  2.3643
 2858SOL    HW220034   1.515   3.427   6.120  2.0634  0.8556 -1.2645
 2859SOL     OW20035   1.619   0.743   8.484  0.0178  0.2889  0.2323
 2859SOL    HW120036   1.631   0.779   8.572 -1.3095 -0.3909  0.6918
 2859SOL    HW220037   1.524   0.745   8.473  0.1034 -0.2218 -0.5498
 2860SOL     OW20038   2.848   2.379   7.942  0.1634 -0.4193 -0.1812
 2860SOL    HW120039   2.824   2.323   8.017  2.1524 -1.1525 -0.0950
 2860SOL    HW220040   2.858   2.462   7.988 -0.8929 -0.3248 -0.1063
 2861SOL     OW20041   2.193   4.404   1.554 -0.2512  0.0268 -0.3248
 2861SOL    HW120042   2.179   4.484   1.503 -2.9527 -1.3080 -1.7080
 2861SOL    HW220043   2.280   4.375   1.524  0.4247  1.0752  0.6532
 2862SOL     OW20044   3.543   1.604  13.942  0.0693  0.2159 -0.4186
 2862SOL    HW120045   3.483   1.671  13.973  0.4956  0.7892 -0.8156
 2862SOL    HW220046   3.505   1.528  13.986 -1.2961 -0.0163 -1.9769
 2863SOL     OW20047   3.171   1.358  16.542 -0.5219 -0.1018  0.3718
 2863SOL    HW120048   3.106   1.358  16.612 -0.7756 -0.3022  0.1379
 2863SOL    HW220049   3.244   1.308  16.578 -1.2116 -0.4962  1.2321
 2864SOL     OW20050   4.196   1.001   2.654  0.0909  0.2236  0.0657
 2864SOL    HW120051   4.116   1.039   2.617 -0.8638 -0.8861  1.0061
 2864SOL    HW220052   4.165   0.911   2.655 -1.6646  0.7763 -2.9208
 2865SOL     OW20053   3.062   1.090   4.346  0.1391 -0.5518  0.5013
 2865SOL    HW120054   3.021   1.043   4.418 -1.4324  0.1594  0.0813
 2865SOL    HW220055   3.149   1.050   4.347  0.2344 -0.4697 -2.2970
 2866SOL     OW20056   0.180   0.413   7.965 -0.0209  0.2192 -0.0958
 2866SOL    HW120057   0.259   0.455   8.002  0.4477  0.3529 -1.2506
 2866SOL    HW220058   0.112   0.460   8.013 -1.4573 -0.7688 -1.1997
 2867SOL     OW20059   3.535   3.472   6.315  0.1123 -0.4187  0.2605
 2867SOL    HW120060   3.631   3.470   6.317  0.0877 -0.8865  0.9486
 2867SOL    HW220061   3.518   3.527   6.392 -0.0373  0.8311 -0.6576
 2868SOL     OW20062   0.911   2.950   5.015 -0.1870  0.6364 -0.7622
 2868SOL    HW120063   0.878   3.038   4.998 -1.2791  0.4546  0.4734
 2868SOL    HW220064   0.861   2.929   5.093  0.8436  0.5029 -0.1325
 2869SOL     OW20065   3.830   3.204   1.613  0.2302 -0.1648 -0.2362
 2869SOL    HW120066   3.849   3.295   1.635  0.4065 -0.3535  0.3727
 2869SOL    HW220067   3.734   3.200   1.613  0.2380 -0.1609  1.3565
 2870SOL     OW20068   0.508   1.868  17.146 -0.1861 -0.3005  0.0016
 2870SOL    HW120069   0.481   1.945  17.095  0.0044 -1.6519 -2.1402
 2870SOL    HW220070   0.587   1.901  17.188 -0.8235 -1.1367  1.8507
 2871SOL     OW20071   4.100   4.169   8.311  0.7736 -0.1559 -0.2207
 2871SOL    HW120072   4.044   4.240   8.280  0.0421 -0.2165  0.9678
 2871SOL    HW220073   4.037   4.099   8.326 -1.9071  2.4389  0.6496
 2872SOL     OW20074   3.458   3.377   7.009  0.1242  0.0361  0.2265
 2872SOL    HW120075   3.367   3.406   7.000  0.7098  2.2952  1.7479
 2872SOL    HW220076   3.482   3.394   6.918 -0.9988 -0.4560 -0.1623
 2873SOL     OW20077   3.982   3.285   4.635  0.5457 -0.1863  0.4462
 2873SOL    HW120078   3.956   3.291   4.543 -1.4315 -1.3831  0.9146
 2873SOL    HW220079   4.071   3.250   4.633  0.5072 -0.1163 -2.3165
 2874SOL     OW20080   4.596   3.285   0.281  0.1000  0.0173 -0.9692
 2874SOL    HW120081   4.545   3.364   0.262 -1.4546 -0.9230 -0.7325
 2874SOL    HW220082   4.548   3.213   0.239 -0.4314 -0.4811  0.5141
 2875SOL     OW20083   0.288   0.996   6.179 -0.1180 -0.6136  0.0389
 2875SOL    HW120084   0.195   0.991   6.156 -0.7562 -1.4865  2.8928
 2875SOL    HW220085   0.285   1.066   6.244  0.1629  0.2121 -0.8265
 2876SOL     OW20086   2.590   3.043   5.457 -0.0830  0.2191  0.3265
 2876SOL    HW120087   2.636   3.124   5.436 -2.4301  1.6040  0.5396
 2876SOL    HW220088   2.648   3.010   5.526  1.8547  1.7917 -0.5908
 2877SOL     OW20089   0.237   2.139   2.092 -0.0489 -0.1750 -0.0999
 2877SOL    HW120090   0.259   2.046   2.086 -0.2850 -0.2264 -0.1795
 2877SOL    HW220091   0.142   2.132   2.106 -0.2778 -0.4345 -1.7626
 2878SOL     OW20092   3.822   4.453   2.772 -0.7424  0.0008 -0.1057
 2878SOL    HW120093   3.913   4.481   2.782 -0.6772  0.1644 -1.2114
 2878SOL    HW220094   3.781   4.530   2.811  0.6162  0.9391 -0.5514
 2879SOL     OW20095   2.584   2.108   2.391 -0.8086  0.3510 -0.5604
 2879SOL    HW120096   2.596   2.154   2.308 -1.6025 -0.1962 -0.9789
 2879SOL    HW220097   2.555   2.183   2.442  2.0229 -0.9614  2.9949
 2880SOL     OW20098   3.306   1.290   6.093 -0.5948  0.7335 -0.4330
 2880SOL    HW120099   3.310   1.311   6.186  0.5123  0.3866 -0.4088
 2880SOL    HW220100   3.305   1.195   6.105  1.2271  0.7150 -0.4269
 2881SOL     OW20101   4.194   3.874   5.947  0.2244 -0.0398  0.2705
 2881SOL    HW120102   4.228   3.864   5.858 -0.8689  0.8362 -0.2396
 2881SOL    HW220103   4.105   3.842   5.931  0.4723 -1.2744  1.3545
 2882SOL     OW20104   1.895   4.536   0.191  0.4274  0.2795 -0.1377
 2882SOL    HW120105   1.834   4.466   0.213  1.2275  0.0218  1.2194
 2882SOL    HW220106   1.836   4.611   0.181  1.1738  0.5643 -2.3379
 2883SOL     OW20107   2.643   1.950   5.832  0.1809 -0.5641  0.1634
 2883SOL    HW120108   2.700   1.933   5.757 -1.4764  1.2090 -1.4719
 2883SOL    HW220109   2.559   1.934   5.788  1.1183 -2.6809 -0.8483
 2884SOL     OW20110   4.034   2.038   1.480 -0.1406 -0.0941  0.1707
 2884SOL    HW120111   3.959   2.007   1.430  0.2530  0.8237 -0.9931
 2884SOL    HW220112   4.000   2.045   1.569 -1.1673  0.3411 -0.2585
 2885SOL     OW20113   0.112   0.789   3.862  0.6105 -0.0611  0.1916
 2885SOL    HW120114   0.179   0.740   3.814 -0.1089  0.0589 -0.9350
 2885SOL    HW220115   0.097   0.866   3.807  0.7341  0.1650  0.4730
 2886SOL     OW20116   2.978   3.580   9.254 -0.1594  0.0957 -0.2411
 2886SOL    HW120117   2.900   3.567   9.200 -0.2223 -0.0923 -0.1038
 2886SOL    HW220118   2.969   3.521   9.329 -1.0623  2.1810  1.3219
 2887SOL     OW20119   0.198   2.722   8.167 -0.7624  0.2245 -0.6025
 2887SOL    HW120120   0.142   2.720   8.090  0.8154  2.9827 -1.8413
 2887SOL    HW220121   0.155   2.671   8.235  1.2533 -2.0130 -1.0060
 2888SOL     OW20122   0.285   0.132   9.326 -0.4586  0.0481 -0.4985
 2888SOL    HW120123   0.222   0.084   9.379 -1.8489  0.8991 -1.3955
 2888SOL    HW220124   0.367   0.091   9.356 -0.8070  0.9659  1.7399
 2889SOL     OW20125   3.578   1.899   9.269 -0.0279  0.5250 -0.9152
 2889SOL    HW120126   3.489   1.866   9.254  0.4979 -1.0842 -0.5174
 2889SOL    HW220127   3.590   1.868   9.359 -3.5785 -2.1737 -1.3340
 2890SOL     OW20128   0.382   1.216   7.834 -0.3031 -0.0143  0.7608
 2890SOL    HW120129   0.397   1.300   7.791 -0.4463  0.7574  2.2413
 2890SOL    HW220130   0.316   1.179   7.775  1.0314  1.0884 -1.3911
 2891SOL     OW20131   0.231   4.562   7.245 -0.3689 -0.7862 -0.2171
 2891SOL    HW120132   0.243   4.647   7.202  1.6792 -0.0526  1.8121
 2891SOL    HW220133   0.137   4.554   7.229  0.1335  1.8740 -4.7407
 2892SOL     OW20134   0.690   3.600   3.237 -0.0006 -0.9083 -0.2642
 2892SOL    HW120135   0.781   3.589   3.211  0.3902 -1.3879  1.2949
 2892SOL    HW220136   0.709   3.661   3.308  3.3391 -1.4574 -0.7257
 2893SOL     OW20137   2.969   0.576  11.673  0.3971 -0.2143  0.2924
 2893SOL    HW120138   2.969   0.609  11.762  4.3766 -0.4740  0.3938
 2893SOL    HW220139   3.014   0.493  11.692  1.0680 -0.0170 -0.4598
 2894SOL     OW20140   4.403   1.463   3.053 -0.3342  0.0412 -0.2139
 2894SOL    HW120141   4.339   1.452   3.123  1.6931 -0.2029  1.6213
 2894SOL    HW220142   4.350   1.510   2.990  0.4028  1.0069 -0.1222
 2895SOL     OW20143   4.352   2.588  13.482 -0.3689 -0.1249 -0.4253
 2895SOL    HW120144   4.381   2.589  13.573  1.9222 -0.6689 -1.1442
 2895SOL    HW220145   4.387   2.507  13.445  1.1502  0.5011 -0.3710
 2896SOL     OW20146   3.806   0.702  10.109  0.2696  0.0259 -0.1386
 2896SOL    HW120147   3.865   0.690  10.184 -1.8191  0.7000  1.6353
 2896SOL    HW220148   3.837   0.786  10.074 -1.1573 -0.0501 -1.5849
 2897SOL     OW20149   0.011   3.248  15.963  0.0854  0.1384  0.2920
 2897SOL    HW120150   0.065   3.285  16.032  0.6292  1.0109 -0.6101
 2897SOL    HW220151   4.667   3.197  16.012 -0.1060  1.0558  0.9781
 2898SOL     OW20152   0.222   1.954   5.992 -0.0152 -0.1914  0.1027
 2898SOL    HW120153   0.265   1.992   5.915 -0.7159 -1.1824 -0.7823
 2898SOL    HW220154   0.128   1.965   5.980 -0.1171  2.1334  2.9203
 2899SOL     OW20155   0.293   2.993   2.365 -0.0195  0.5194  0.3198
 2899SOL    HW120156   0.247   3.058   2.418  1.1366  0.2843  1.6189
 2899SOL    HW220157   0.214   2.943   2.346 -0.0596  0.6611  0.1194
 2900SOL     OW20158   1.641   4.464   2.990 -0.0447  0.2819 -0.6057
 2900SOL    HW120159   1.674   4.477   2.901  1.8637 -3.8733 -0.4971
 2900SOL    HW220160   1.721   4.497   3.031  0.8413 -1.1845 -1.1490
 2901SOL     OW20161   2.898   1.988  16.989  0.9719 -0.4768 -0.4625
 2901SOL    HW120162   2.994   1.991  16.988  0.9468  0.6805  0.7382
 2901SOL    HW220163   2.875   2.078  17.011 -3.3090 -1.2347 -1.8318
 2902SOL     OW20164   2.358   4.518   1.216  0.5472  0.5897 -0.1264
 2902SOL    HW120165   2.401   4.457   1.157 -0.3719 -0.5071  0.3380
 2902SOL    HW220166   2.266   4.493   1.218  0.4755  0.9422  1.1406
 2903SOL     OW20167   0.771   0.790   3.799 -0.5262  0.0600  0.0927
 2903SOL    HW120168   0.695   0.760   3.849 -0.1071 -0.2443  0.5509
 2903SOL    HW220169   0.748   0.749   3.716 -1.6699 -0.4923  0.6883
 2904SOL     OW20170   1.305   1.285   2.898 -0.2911 -0.0754 -0.2526
 2904SOL    HW120171   1.212   1.303   2.880 -0.6049 -0.4495  0.9699
 2904SOL    HW220172   1.327   1.250   2.812  2.2432  0.4196  0.1963
 2905SOL     OW20173   2.944   1.464   3.056  0.0692  0.1416 -0.2724
 2905SOL    HW120174   2.924   1.538   3.113 -1.2333 -0.3559 -0.1047
 2905SOL    HW220175   2.857   1.429   3.040  0.4205 -0.8845  0.0662
 2906SOL     OW20176   4.507   3.652  11.200  0.1139  0.1976  0.1216
 2906SOL    HW120177   4.489   3.615  11.113 -0.4481 -0.7482  0.6350
 2906SOL    HW220178   4.416   3.668  11.226 -1.1188 -0.3659 -3.8857
 2907SOL     OW20179   0.374   3.307  16.354  0.0431 -0.5404  0.8765
 2907SOL    HW120180   0.369   3.217  16.321  2.3040  0.2856 -1.6770
 2907SOL    HW220181   0.407   3.293  16.443  0.8006  0.2906  0.7185
 2908SOL     OW20182   3.718   2.085  15.881  0.0704 -0.6183 -0.4810
 2908SOL    HW120183   3.691   2.022  15.813  0.1533 -1.9546  0.7260
 2908SOL    HW220184   3.783   2.134  15.831  3.2589 -2.3191  2.0107
 2909SOL     OW20185   4.400   4.208  17.426 -0.0215 -0.3463  0.4387
 2909SOL    HW120186   4.348   4.166  17.357 -1.1665 -1.6690  2.1027
 2909SOL    HW220187   4.419   4.134  17.484 -1.5839 -1.0379  0.0646
 2910SOL     OW20188   0.997   0.761   3.024  0.5607 -0.4071 -0.1889
 2910SOL    HW120189   1.079   0.736   2.982  0.5562 -0.2859 -0.2696
 2910SOL    HW220190   0.980   0.849   2.991  3.2299  0.0589 -0.2913
 2911SOL     OW20191   0.114   3.067   3.723  0.5617 -0.2915  0.1931
 2911SOL    HW120192   0.133   3.114   3.642 -3.0798  0.6333 -0.1304
 2911SOL    HW220193   0.102   3.145   3.777 -2.0331 -2.3256  2.5817
 2912SOL     OW20194   0.051   0.283  11.878  0.5952 -0.1826 -0.0016
 2912SOL    HW120195   0.090   0.226  11.811 -0.5930 -2.2282  1.0460
 2912SOL    HW220196   0.015   0.345  11.815  0.2217 -2.4485 -2.0313
 2913SOL     OW20197   4.083   3.625   8.274  0.1913 -0.0758  0.0914
 2913SOL    HW120198   4.032   3.620   8.194 -0.7794 -1.9809  0.8251
 2913SOL    HW220199   4.089   3.531   8.295  2.4262  0.5293  2.1487
 2914SOL     OW20200   0.289   4.698  15.833  0.0070  0.1296  0.6030
 2914SOL    HW120201   0.302   0.072  15.832  0.1823  0.0972 -0.1017
 2914SOL    HW220202   0.340   4.667  15.759 -1.2069  0.5216 -0.4060
 2915SOL     OW20203   3.946   0.816  10.324 -0.0574 -0.0224  0.2935
 2915SOL    HW120204   3.992   0.834  10.406 -0.7991 -1.9360  1.1327
 2915SOL    HW220205   3.982   0.886  10.270 -2.7274  0.9755 -0.1851
 2916SOL     OW20206   0.277   2.769   1.890  0.3770  0.1779  0.6853
 2916SOL    HW120207   0.252   2.752   1.980  2.4022 -1.2850  0.9704
 2916SOL    HW220208   0.243   2.859   1.889  1.8704  0.7350 -0.2064
 2917SOL     OW20209   3.518   3.278   1.648 -0.3241  0.0745 -0.5496
 2917SOL    HW120210   3.436   3.237   1.675  1.5866 -2.6717  1.0532
 2917SOL    HW220211   3.480   3.360   1.616  1.5964  0.8898 -0.7558
 2918SOL     OW20212   2.534   4.187   6.423 -0.4597  0.5077 -0.2646
 2918SOL    HW120213   2.485   4.104   6.421 -0.7881  0.6523  1.5488
 2918SOL    HW220214   2.453   4.237   6.434 -0.4658  0.5345 -0.4456
 2919SOL     OW20215   3.487   2.515   2.854  0.0043 -0.7304  0.4408
 2919SOL    HW120216   3.412   2.569   2.829 -0.6577 -1.4835  0.7757
 2919SOL    HW220217   3.492   2.520   2.949  1.4274 -1.2524  0.3939
 2920SOL     OW20218   0.562   0.033   5.476 -0.2476  0.1740 -0.0679
 2920SOL    HW120219   0.492   0.087   5.439 -0.8859  0.7493  1.9812
 2920SOL    HW220220   0.624   0.046   5.405  1.6772 -1.8235  1.2413
 2921SOL     OW20221   3.479   0.193   3.267  0.1402  0.9360 -0.4914
 2921SOL    HW120222   3.552   0.135   3.248 -1.9686 -1.3971 -1.4112
 2921SOL    HW220223   3.516   0.279   3.288  1.7043  0.2683 -0.5263
 2922SOL     OW20224   1.338   0.768   6.040 -0.4404 -0.6054  0.0372
 2922SOL    HW120225   1.386   0.765   5.958 -0.2207 -1.1677  0.1871
 2922SOL    HW220226   1.400   0.732   6.103 -0.2683 -0.8447 -0.2743
 2923SOL     OW20227   1.757   0.317   5.482 -0.1185  0.6467 -0.2021
 2923SOL    HW120228   1.759   0.306   5.387 -0.4253  0.8646 -0.2337
 2923SOL    HW220229   1.823   0.383   5.501  1.6046 -0.7336 -1.2961
 2924SOL     OW20230   1.988   3.951   3.647 -0.2878 -0.5712  0.8179
 2924SOL    HW120231   1.981   4.021   3.582  1.6088 -0.9036  0.2559
 2924SOL    HW220232   2.004   3.869   3.601  0.1254  0.3885 -0.7435
 2925SOL     OW20233   4.261   3.838   4.267 -0.0358 -0.4101 -0.2071
 2925SOL    HW120234   4.266   3.743   4.254 -1.8805 -0.4021 -0.9798
 2925SOL    HW220235   4.348   3.874   4.252  0.1614 -0.0601  1.7736
 2926SOL     OW20236   0.773   1.944   4.473  0.4328  0.0121 -0.2080
 2926SOL    HW120237   0.767   1.987   4.559  0.5692 -0.2081 -0.0871
 2926SOL    HW220238   0.691   1.896   4.488  0.3272  0.8191  1.8916
 2927SOL     OW20239   0.159   1.164   2.780  0.4972  0.7699  0.7756
 2927SOL    HW120240   0.070   1.135   2.760  0.7709  0.5238 -0.0866
 2927SOL    HW220241   0.174   1.205   2.696 -1.3185  0.7067  0.4051
 2928SOL     OW20242   2.695   4.377   4.522  0.4161  0.1420  0.0994
 2928SOL    HW120243   2.758   4.425   4.468 -0.5336  1.8993  0.5342
 2928SOL    HW220244   2.614   4.414   4.488  1.2966  2.9171  0.9903
 2929SOL     OW20245   0.666   3.460   0.522 -0.6453  0.5067 -0.3162
 2929SOL    HW120246   0.704   3.372   0.517 -0.4375  0.7021 -2.1256
 2929SOL    HW220247   0.576   3.431   0.503 -0.5915 -0.7336  1.3488
 2930SOL     OW20248   2.062   3.071  11.577 -0.1139  0.1753  0.4947
 2930SOL    HW120249   2.086   3.072  11.485 -0.9306  0.1193  0.2843
 2930SOL    HW220250   2.144   3.043  11.619 -0.0681 -0.4155  0.0041
 2931SOL     OW20251   0.585   0.173   5.230 -0.4426 -0.4935  0.1315
 2931SOL    HW120252   0.613   0.137   5.145  1.7913  0.0756  0.6306
 2931SOL    HW220253   0.609   0.265   5.217  2.4091 -1.0133  1.8405
 2932SOL     OW20254   2.308   0.921   5.800 -0.4848 -0.1224  0.2813
 2932SOL    HW120255   2.349   0.850   5.849 -1.1164 -1.4729 -1.1688
 2932SOL    HW220256   2.376   0.942   5.737 -2.6728 -0.9293 -2.3507
 2933SOL     OW20257   0.829   4.599   6.906 -0.3741  0.2674  0.5443
 2933SOL    HW120258   0.822   4.511   6.870  3.2247 -0.7351  2.3181
 2933SOL    HW220259   0.743   4.606   6.946 -0.4309  0.7141  0.3398
 2934SOL     OW20260   0.963   1.621   4.668  0.3834 -0.0081  0.2047
 2934SOL    HW120261   0.966   1.651   4.577 -1.2346 -1.3162 -0.2732
 2934SOL    HW220262   1.049   1.647   4.701  0.1451  0.9996  0.0061
 2935SOL     OW20263   2.810   0.708   3.139  0.8631 -0.1527  0.3265
 2935SOL    HW120264   2.797   0.638   3.203  1.0117 -0.0294  0.4943
 2935SOL    HW220265   2.735   0.697   3.081  2.3248 -0.5223 -1.4890
 2936SOL     OW20266   2.157   0.630   2.696 -0.0276  0.5518  0.0924
 2936SOL    HW120267   2.132   0.538   2.689 -1.3676  0.7352  2.5132
 2936SOL    HW220268   2.087   0.667   2.642  1.7018  1.7201 -1.3548
 2937SOL     OW20269   0.988   4.475   5.950 -0.7611  0.2011  1.1269
 2937SOL    HW120270   0.913   4.446   5.897  0.9173  1.4407 -1.9376
 2937SOL    HW220271   1.020   4.555   5.908 -0.7823 -0.2852  0.1924
 2938SOL     OW20272   0.867   1.399   7.311  0.6845 -0.0491 -0.0047
 2938SOL    HW120273   0.910   1.453   7.244 -0.2941  0.3344 -0.3388
 2938SOL    HW220274   0.778   1.431   7.293  0.8289  0.7826  0.7361
 2939SOL     OW20275   2.955   0.559   4.081 -0.5049  0.0394  0.6278
 2939SOL    HW120276   2.985   0.602   4.161 -1.7774 -0.5476  1.4187
 2939SOL    HW220277   3.029   0.501   4.061 -0.7274 -0.9702  2.7815
 2940SOL     OW20278   2.321   0.455  13.326  0.8888  0.3299  0.3381
 2940SOL    HW120279   2.355   0.534  13.285 -0.1157  0.5318 -0.1058
 2940SOL    HW220280   2.347   0.384  13.266  0.3713  0.5901 -0.1938
 2941SOL     OW20281   3.996   1.145   5.402 -0.3320  0.8497 -0.3994
 2941SOL    HW120282   4.076   1.148   5.455 -0.0458 -2.1289 -0.6708
 2941SOL    HW220283   3.934   1.128   5.474  1.5030  0.7996  1.1684
 2942SOL     OW20284   0.071   1.792   8.316 -0.3023  0.4097 -0.1993
 2942SOL    HW120285   0.117   1.720   8.358  0.0258  0.3038 -0.7422
 2942SOL    HW220286   0.124   1.867   8.343  0.0486  0.2789 -0.5172
 2943SOL     OW20287   4.711   2.741   0.138  0.5774 -0.0330 -0.1471
 2943SOL    HW120288   0.023   2.672   0.079  2.1350 -0.4183  1.1728
 2943SOL    HW220289   0.010   2.821   0.090 -0.8038  0.3225 -0.1064
 2944SOL     OW20290   2.962   2.690  14.608 -0.1409 -0.6399  0.0521
 2944SOL    HW120291   3.003   2.703  14.693  0.3224 -0.2326 -0.2265
 2944SOL    HW220292   2.875   2.725  14.627 -0.2227 -0.5110 -0.5473
 2945SOL     OW20293   1.906   1.864   6.134  0.2949  0.7205  0.0773
 2945SOL    HW120294   1.817   1.845   6.163  0.4421 -0.2056 -0.0593
 2945SOL    HW220295   1.906   1.798   6.065  0.0268  0.8948 -0.0893
 2946SOL     OW20296   3.330   4.281   2.818  0.2638 -0.2830 -0.4275
 2946SOL    HW120297   3.385   4.315   2.888  0.7670  3.2009 -2.5366
 2946SOL    HW220298   3.244   4.270   2.860  0.9647  1.7154  1.5083
 2947SOL     OW20299   3.483   3.026   4.414  0.3096  0.0115 -0.5813
 2947SOL    HW120300   3.392   3.048   4.393  1.1577  2.9549 -1.1472
 2947SOL    HW220301   3.502   2.955   4.352 -0.6811 -1.1796  0.4763
 2948SOL     OW20302   3.610   0.100   2.672  0.2563  0.6815  0.1032
 2948SOL    HW120303   3.598   0.181   2.721  0.9280  0.6147  0.3772
 2948SOL    HW220304   3.551   0.124   2.601  0.1837  1.3163  0.3777
 2949SOL     OW20305   0.025   4.397   3.988 -0.2073  0.1036 -0.2700
 2949SOL    HW120306   0.065   4.310   3.988  2.7139  1.4344  2.0864
 2949SOL    HW220307   0.105   4.445   4.011 -0.3484 -0.4046  1.2819
 2950SOL     OW20308   0.005   4.260  14.100  0.1802  0.3442 -0.3577
 2950SOL    HW120309   0.085   4.219  14.134  0.4491  0.3321 -1.0146
 2950SOL    HW220310   0.038   4.321  14.035 -0.1074 -1.6350 -2.3715
 2951SOL     OW20311   2.797   3.806   3.884 -0.2224  0.2708  0.3728
 2951SOL    HW120312   2.702   3.805   3.878 -0.2525  2.4503  0.7256
 2951SOL    HW220313   2.818   3.837   3.796  1.3789 -1.6317  0.0925
 2952SOL     OW20314   1.488   2.089   6.534  0.2656 -0.3535 -0.1619
 2952SOL    HW120315   1.486   1.996   6.559  2.9918 -1.3518 -3.7243
 2952SOL    HW220316   1.395   2.111   6.535  0.2843 -0.2051 -1.4755
 2953SOL     OW20317   2.323   3.146   0.145 -0.4223  0.5638  0.2755
 2953SOL    HW120318   2.242   3.189   0.170 -2.3157 -1.5247 -2.2139
 2953SOL    HW220319   2.355   3.114   0.230 -3.4739 -1.4552  0.6567
 2954SOL     OW20320   1.444   4.340  13.458  0.3916  0.1359  0.6149
 2954SOL    HW120321   1.421   4.317  13.368  1.2001  0.6441  0.2791
 2954SOL    HW220322   1.458   4.434  13.447  4.4419 -0.5181  0.4241
 2955SOL     OW20323   3.802   1.945   4.481  0.3937 -0.1883 -0.1240
 2955SOL    HW120324   3.751   1.880   4.435  0.0774 -0.0927  0.0923
 2955SOL    HW220325   3.883   1.946   4.429  0.3723  0.5695 -0.1442
 2956SOL     OW20326   3.422   3.726   2.700 -0.1963 -0.1351  0.4384
 2956SOL    HW120327   3.407   3.740   2.607 -0.0436  1.2238  0.6170
 2956SOL    HW220328   3.446   3.809   2.743  1.0243 -0.4348  0.3384
 2957SOL     OW20329   2.885   4.436   5.492 -0.4251  0.2110  0.1995
 2957SOL    HW120330   2.826   4.447   5.417 -0.0204  0.4445 -0.0825
 2957SOL    HW220331   2.820   4.417   5.560 -1.0943 -1.8308 -1.0343
 2958SOL     OW20332   2.300   0.785   0.278  0.2379 -0.2437  0.0031
 2958SOL    HW120333   2.374   0.746   0.324  0.9716  1.7140  0.4795
 2958SOL    HW220334   2.341   0.800   0.193  0.2748 -2.7222 -0.4110
 2959SOL     OW20335   3.198   0.301   9.342 -0.7720 -0.5907  0.1828
 2959SOL    HW120336   3.220   0.222   9.391 -1.2242 -0.9493 -0.1918
 2959SOL    HW220337   3.276   0.350   9.366 -0.8299 -0.6521  0.4941
 2960SOL     OW20338   1.322   2.884   6.502 -0.2424  0.4388  0.0383
 2960SOL    HW120339   1.405   2.901   6.458  0.4298  0.5044  1.3233
 2960SOL    HW220340   1.330   2.947   6.574  2.7856 -0.0687  0.1274
 2961SOL     OW20341   0.993   3.668  17.268 -0.2893  0.4477 -0.4565
 2961SOL    HW120342   0.908   3.624  17.272 -0.1918  0.2094 -0.9554
 2961SOL    HW220343   0.993   3.694  17.360  3.0451  1.6425 -0.7931
 2962SOL     OW20344   4.345   0.045  12.748  0.1267 -0.1245  0.1697
 2962SOL    HW120345   4.286   0.097  12.803  1.3333  0.2991  1.0786
 2962SOL    HW220346   4.276   4.713  12.710 -0.3384 -0.0081  0.8499
 2963SOL     OW20347   0.567   2.623   7.716  0.5863  0.1409 -0.3060
 2963SOL    HW120348   0.481   2.656   7.740  0.7666  0.6048 -0.2949
 2963SOL    HW220349   0.614   2.668   7.787 -1.1461  1.8967 -0.2768
 2964SOL     OW20350   1.364   1.183  14.578 -0.7264 -0.5021  0.5118
 2964SOL    HW120351   1.297   1.165  14.644  1.0671  1.3240  2.8656
 2964SOL    HW220352   1.430   1.125  14.618 -0.4139 -1.8456 -1.9306
 2965SOL     OW20353   1.035   3.893  17.124  0.8084  0.3345  0.7382
 2965SOL    HW120354   1.008   3.820  17.180 -1.6723  0.0921 -0.7724
 2965SOL    HW220355   1.109   3.854  17.079  1.2595 -0.1538  1.8984
 2966SOL     OW20356   4.437   1.180  11.936 -0.1492  0.8260  0.5511
 2966SOL    HW120357   4.357   1.209  11.890 -1.5329 -1.7870  1.3304
 2966SOL    HW220358   4.493   1.257  11.924 -0.4421  0.7075 -1.6855
 2967SOL     OW20359   0.670   4.042   7.681 -0.0973  0.3452 -0.1890
 2967SOL    HW120360   0.599   4.100   7.652  0.3842  0.0158 -2.0170
 2967SOL    HW220361   0.699   4.019   7.593 -0.5947 -0.3452 -0.1736
 2968SOL     OW20362   4.305   3.880   2.462 -0.1001  0.1300 -0.1201
 2968SOL    HW120363   4.310   3.948   2.529  0.9424 -1.4158  1.3646
 2968SOL    HW220364   4.261   3.938   2.400  4.2129  2.5091 -0.9565
 2969SOL     OW20365   4.155   2.260   1.750  0.1952 -0.2698 -0.1023
 2969SOL    HW120366   4.075   2.309   1.729  0.0569 -0.5654 -0.2599
 2969SOL    HW220367   4.149   2.245   1.844 -1.8673 -1.8694 -0.4985
 2970SOL     OW20368   3.010   4.395   2.349 -0.6196 -0.2759 -0.2763
 2970SOL    HW120369   3.104   4.395   2.334 -0.3238 -1.4153  1.4986
 2970SOL    HW220370   3.005   4.477   2.398  2.0216 -0.5667  0.4650
 2971SOL     OW20371   3.291   1.054   6.224 -0.3152  0.2859  0.9729
 2971SOL    HW120372   3.209   1.004   6.233 -1.1916  1.5596  0.1096
 2971SOL    HW220373   3.358   1.000   6.183 -0.6634 -1.4972  2.7635
 2972SOL     OW20374   4.706   3.690   4.732  0.0659  0.0558  0.7016
 2972SOL    HW120375   4.685   3.676   4.640  0.2164 -0.6868  0.7830
 2972SOL    HW220376   4.625   3.737   4.755  0.2914  0.4581  0.6644
 2973SOL     OW20377   4.423   1.910  16.700  0.0039  0.0270  0.4137
 2973SOL    HW120378   4.339   1.878  16.665 -0.5079  0.2452  1.4563
 2973SOL    HW220379   4.478   1.917  16.622  1.4454 -0.5476  1.3750
 2974SOL     OW20380   4.421   2.443   1.794  0.5095 -0.1164  0.3015
 2974SOL    HW120381   4.513   2.464   1.811  0.2892  2.9151 -2.2473
 2974SOL    HW220382   4.381   2.512   1.846 -0.5576 -0.2641 -0.3393
 2975SOL     OW20383   3.207   1.400   6.324  0.4169 -0.3212 -0.4249
 2975SOL    HW120384   3.222   1.492   6.302 -1.2037  0.2619  0.8954
 2975SOL    HW220385   3.202   1.399   6.420  0.3057  0.7677 -0.4114
 2976SOL     OW20386   4.681   1.317   0.560  0.5103  0.3489  0.5186
 2976SOL    HW120387   4.667   1.326   0.654 -0.9031  1.3819  0.2091
 2976SOL    HW220388   4.604   1.365   0.529  0.5014  0.5471  0.8461
 2977SOL     OW20389   1.025   2.991   3.395 -0.0608  0.0586 -0.0949
 2977SOL    HW120390   0.960   2.923   3.410  0.3545 -0.9651 -2.8769
 2977SOL    HW220391   1.059   2.961   3.310  0.7002  1.6503 -0.3544
 2978SOL     OW20392   2.723   0.265   7.302  0.2559  0.5977  0.3982
 2978SOL    HW120393   2.673   0.262   7.220 -0.7680  0.0920  1.0317
 2978SOL    HW220394   2.685   0.342   7.345  0.4220  1.9314 -1.8593
 2979SOL     OW20395   1.310   1.071  15.457  0.2892 -0.0291  0.1191
 2979SOL    HW120396   1.388   1.056  15.404  0.2669  3.2588 -0.8002
 2979SOL    HW220397   1.337   1.155  15.493  1.2828 -0.0871 -0.4909
 2980SOL     OW20398   0.141   4.194   3.459  0.0843 -0.1074 -0.6749
 2980SOL    HW120399   0.191   4.175   3.380  0.0989 -1.2501 -0.3879
 2980SOL    HW220400   0.212   4.245   3.499 -2.2136  1.7776  0.9898
 2981SOL     OW20401   0.780   2.619   3.658  0.0427 -0.3764 -0.2309
 2981SOL    HW120402   0.795   2.525   3.667  0.9370 -0.3407 -1.2525
 2981SOL    HW220403   0.734   2.626   3.574  0.4920  0.6342 -0.3954
 2982SOL     OW20404   1.537   0.510   7.348 -0.4259  0.1671 -0.2479
 2982SOL    HW120405   1.471   0.528   7.415 -0.6550 -1.1109 -0.1174
 2982SOL    HW220406   1.584   0.593   7.354 -1.1824  0.3907  2.5863
 2983SOL     OW20407   0.760   4.542   4.669 -0.1866 -1.0459  0.7698
 2983SOL    HW120408   0.748   4.492   4.588 -2.4833  0.1761  0.3678
 2983SOL    HW220409   0.815   4.480   4.718 -1.0297 -1.6746  0.9211
 2984SOL     OW20410   0.438   0.240  12.541 -0.1537 -0.5675  0.1979
 2984SOL    HW120411   0.425   0.183  12.617 -1.4296 -1.1305 -0.4410
 2984SOL    HW220412   0.501   0.300  12.580 -1.0889  0.7129 -0.2767
 2985SOL     OW20413   2.720   2.676  13.216  0.0857  0.0803  0.0915
 2985SOL    HW120414   2.647   2.664  13.156 -0.0643  1.7524 -0.0532
 2985SOL    HW220415   2.772   2.746  13.177  0.8141  0.1899  1.2757
 2986SOL     OW20416   2.928   3.471  17.297  0.0924 -0.6427  0.4508
 2986SOL    HW120417   2.931   3.443  17.388  2.5512  2.5588  1.3560
 2986SOL    HW220418   3.004   3.530  17.292 -0.7182  0.4130  0.6668
 2987SOL     OW20419   0.600   2.892  12.454 -0.2032 -0.1078  0.5577
 2987SOL    HW120420   0.659   2.960  12.420 -0.6646 -0.3892 -0.8240
 2987SOL    HW220421   0.658   2.871  12.527 -1.2299  0.5145  1.5473
 2988SOL     OW20422   1.471   4.692  16.292  0.4336 -0.6176  0.0625
 2988SOL    HW120423   1.510   0.058  16.301 -1.2892  0.0496  1.2852
 2988SOL    HW220424   1.427   4.703  16.207  0.2883  0.1930  0.2465
 2989SOL     OW20425   2.534   1.874   8.643  0.2859  0.4897  0.0193
 2989SOL    HW120426   2.473   1.880   8.717  0.1229 -1.5205  0.0347
 2989SOL    HW220427   2.499   1.801   8.593  2.0893 -0.8300  0.6906
 2990SOL     OW20428   0.846   4.375  16.028  0.0072 -0.2133 -0.2462
 2990SOL    HW120429   0.772   4.364  15.968  0.8529  0.6609 -1.4585
 2990SOL    HW220430   0.819   4.308  16.091 -3.3818 -0.1490 -1.6558
 2991SOL     OW20431   2.965   2.507   9.478  0.7856  0.7465 -0.1674
 2991SOL    HW120432   2.975   2.413   9.495  1.0027  0.3715 -2.2935
 2991SOL    HW220433   2.944   2.536   9.567 -1.7680  1.1544 -0.8823
 2992SOL     OW20434   2.292   1.682   6.314 -0.1778 -0.2582  0.8114
 2992SOL    HW120435   2.219   1.738   6.341  1.1304  1.1358  1.4587
 2992SOL    HW220436   2.279   1.611   6.378 -0.0116 -0.0930  1.0302
 2993SOL     OW20437   3.639   3.662   5.131  0.5833 -0.2747  0.0986
 2993SOL    HW120438   3.618   3.653   5.224  0.9638 -0.4169  0.1683
 2993SOL    HW220439   3.624   3.571   5.105 -0.7297 -0.5740  1.9325
 2994SOL     OW20440   1.545   1.321   4.066  0.5801 -0.3436  0.2816
 2994SOL    HW120441   1.464   1.316   4.116  0.3503  0.6794  0.0075
 2994SOL    HW220442   1.520   1.293   3.978  1.4391  2.4162 -0.8392
 2995SOL     OW20443   1.818   4.426   5.412 -0.0870  0.0335  0.7706
 2995SOL    HW120444   1.796   4.512   5.448  3.1712  1.8788 -1.7129
 2995SOL    HW220445   1.820   4.450   5.320 -0.0596  1.0036  1.0239
 2996SOL     OW20446   0.294   0.462  14.573  0.1800  0.1175 -0.1535
 2996SOL    HW120447   0.308   0.423  14.487  0.1698  2.9536 -1.4555
 2996SOL    HW220448   0.297   0.398  14.643 -3.4662  0.8065  0.6678
 2997SOL     OW20449   2.998   0.715  15.200  0.3198 -0.2196  0.0931
 2997SOL    HW120450   2.903   0.723  15.198  0.4346  1.2534  0.5212
 2997SOL    HW220451   3.015   0.655  15.128 -0.2068 -0.6677  0.3469
 2998SOL     OW20452   3.311   3.107   9.684 -0.0518 -0.4584 -0.1627
 2998SOL    HW120453   3.373   3.179   9.700  1.0426 -1.4934  0.3001
 2998SOL    HW220454   3.339   3.053   9.759  0.5121 -1.4659 -1.0975
 2999SOL     OW20455   1.994   1.630   0.651 -0.5971  0.2091  0.1702
 2999SOL    HW120456   1.929   1.695   0.677 -0.4758 -0.0434  1.1092
 2999SOL    HW220457   1.937   1.553   0.657 -1.7480  0.9279 -1.6247
 3000SOL     OW20458   0.514   2.049   1.169 -0.5781  0.0777  0.3335
 3000SOL    HW120459   0.525   2.019   1.079 -1.3565 -1.4860  0.7392
 3000SOL    HW220460   0.502   2.143   1.155  0.3443 -0.0011 -0.9444
 3001SOL     OW20461   2.652   4.542   2.853  0.2455 -0.1757  0.4921
 3001SOL    HW120462   2.693   4.505   2.932  0.6157  1.2270  0.9551
 3001SOL    HW220463   2.685   4.475   2.793  0.7164  1.1612 -0.7438
 3002SOL     OW20464   0.522   3.717   4.479 -0.0932 -0.4553  0.2546
 3002SOL    HW120465   0.447   3.759   4.520 -2.1696 -0.3287 -3.7489
 3002SOL    HW220466   0.510   3.624   4.498 -2.4393 -0.1909  0.0433
 3003SOL     OW20467   2.275   1.738   7.481  0.1198 -0.2548  0.3334
 3003SOL    HW120468   2.337   1.705   7.546 -0.2212 -1.4717  0.0583
 3003SOL    HW220469   2.303   1.828   7.469 -1.2008 -0.0283 -1.0689
 3004SOL     OW20470   3.654   0.856   1.539  0.4389  0.2124 -0.8077
 3004SOL    HW120471   3.680   0.768   1.511 -1.7369  0.2725 -3.0253
 3004SOL    HW220472   3.677   0.906   1.461 -0.2774 -0.8647 -1.7012
 3005SOL     OW20473   2.166   3.500  17.122 -0.3855 -0.5907  0.3898
 3005SOL    HW120474   2.202   3.411  17.109  0.9368 -0.1638  1.0914
 3005SOL    HW220475   2.241   3.548  17.087  2.0582 -2.7516  2.6730
 3006SOL     OW20476   4.206   1.436   5.047 -0.3726 -0.1224  0.5850
 3006SOL    HW120477   4.166   1.511   5.090 -0.4690 -0.8441  1.7589
 3006SOL    HW220478   4.147   1.366   5.077  1.1853 -0.9631  1.6943
 3007SOL     OW20479   1.611   3.480   8.708  0.1332 -0.2977 -0.1582
 3007SOL    HW120480   1.683   3.455   8.766  1.5569 -0.1931 -1.8517
 3007SOL    HW220481   1.554   3.512   8.777  1.6233  2.2488 -0.0852
 3008SOL     OW20482   1.428   0.093   3.039 -0.2209 -0.4667 -0.1611
 3008SOL    HW120483   1.405   0.003   3.063 -0.2453 -1.3111 -3.3609
 3008SOL    HW220484   1.453   0.077   2.948  2.9893  0.2499  0.5692
 3009SOL     OW20485   2.371   2.354   4.952 -0.4105 -0.6594 -0.0525
 3009SOL    HW120486   2.330   2.291   4.892 -0.3225 -0.7907  0.0233
 3009SOL    HW220487   2.367   2.430   4.894  2.7707 -1.3888 -1.1959
 3010SOL     OW20488   1.435   2.636   1.374  0.4346  0.1092 -0.2546
 3010SOL    HW120489   1.442   2.627   1.279 -3.0710  2.2832 -0.7068
 3010SOL    HW220490   1.420   2.546   1.403 -0.4029  0.2774 -0.1779
 3011SOL     OW20491   4.712   0.520   4.318 -0.1798 -0.4889 -0.0269
 3011SOL    HW120492   4.680   0.596   4.367  0.5017 -0.1212 -0.1568
 3011SOL    HW220493   0.010   0.562   4.234 -1.0221 -0.7373 -0.3439
 3012SOL     OW20494   0.996   0.667   7.916  0.1330 -0.2891  0.3448
 3012SOL    HW120495   0.934   0.726   7.874  0.8357  0.9997  1.1252
 3012SOL    HW220496   1.050   0.637   7.844 -0.5676 -0.5968 -0.0592
 3013SOL     OW20497   2.848   4.553   6.740  0.1487 -0.8611  1.1881
 3013SOL    HW120498   2.895   4.636   6.731 -1.6423 -0.1004 -1.0691
 3013SOL    HW220499   2.759   4.587   6.725  1.1953  1.5161  0.3532
 3014SOL     OW20500   3.172   4.292   0.320 -0.4910  0.7574 -0.1392
 3014SOL    HW120501   3.251   4.294   0.266 -1.3253 -0.3669 -1.3907
 3014SOL    HW220502   3.096   4.273   0.265  0.1335 -0.5566 -0.5390
 3015SOL     OW20503   0.810   3.643   3.771 -0.0063 -0.0971 -0.4830
 3015SOL    HW120504   0.881   3.685   3.820 -0.4150 -0.0223  0.0481
 3015SOL    HW220505   0.732   3.696   3.784 -2.2609 -3.3119 -0.9657
 3016SOL     OW20506   2.179   4.127   0.390 -0.0486  0.0057  0.0475
 3016SOL    HW120507   2.143   4.056   0.443  0.8558 -1.6183 -1.4732
 3016SOL    HW220508   2.173   4.192   0.459 -1.0342  0.7228 -0.7230
 3017SOL     OW20509   1.247   4.713   9.146 -0.2139  0.2530  0.0504
 3017SOL    HW120510   1.192   4.691   9.221  0.8615 -0.3071  0.6884
 3017SOL    HW220511   1.231   0.086   9.149 -3.9348 -0.3812  0.4294
 3018SOL     OW20512   3.708   3.570   8.916  0.8217  0.1015  0.0134
 3018SOL    HW120513   3.705   3.658   8.877  1.3459  0.2139  0.2285
 3018SOL    HW220514   3.645   3.534   8.854 -0.5105  1.2240  0.7048
 3019SOL     OW20515   4.051   3.593   7.821 -0.6663  0.0004 -0.1360
 3019SOL    HW120516   4.075   3.573   7.731 -0.0783 -2.1411  0.4911
 3019SOL    HW220517   4.133   3.571   7.866 -1.9220  0.0341  2.2071
 3020SOL     OW20518   2.168   1.856   1.236 -0.1647 -0.0119 -0.8271
 3020SOL    HW120519   2.216   1.858   1.153 -0.5098 -2.1626 -1.0958
 3020SOL    HW220520   2.125   1.771   1.221 -0.1468 -0.2184  0.3489
 3021SOL     OW20521   3.555   3.688   5.418 -0.0395  0.0177  0.4318
 3021SOL    HW120522   3.594   3.766   5.458  0.5071 -0.4334  0.7716
 3021SOL    HW220523   3.565   3.625   5.489  1.6597 -0.7880 -0.5505
 3022SOL     OW20524   2.910   0.061   2.776 -0.7150  0.0660 -0.5728
 3022SOL    HW120525   2.954   0.144   2.760  0.6377 -0.7250 -0.9508
 3022SOL    HW220526   2.836   0.065   2.716 -0.8507  0.9662 -0.3394
 3023SOL     OW20527   2.423   2.836  13.675 -0.0604 -0.2731  0.2691
 3023SOL    HW120528   2.345   2.890  13.687 -0.7819 -1.1364 -0.4852
 3023SOL    HW220529   2.444   2.802  13.762  0.2853 -1.2948 -0.2062
 3024SOL     OW20530   1.928   4.542   3.504 -0.3185  0.2112 -0.8551
 3024SOL    HW120531   1.955   4.587   3.584 -1.2212 -0.3979 -0.2115
 3024SOL    HW220532   1.835   4.559   3.511  0.1174  0.4808  4.1798
 3025SOL     OW20533   3.923   3.363   5.205  0.9509  0.2603  0.0685
 3025SOL    HW120534   4.015   3.384   5.220  0.9488 -0.5570  1.2159
 3025SOL    HW220535   3.886   3.374   5.293  0.4756  0.9353 -0.2140
 3026SOL     OW20536   3.221   3.207   6.324  0.5647  0.0425 -0.1249
 3026SOL    HW120537   3.239   3.264   6.249 -0.6893  0.5806 -0.0211
 3026SOL    HW220538   3.242   3.268   6.395 -0.1205 -0.3593  0.4245
 3027SOL     OW20539   2.610   1.821  14.738  0.6449  0.3147 -0.2930
 3027SOL    HW120540   2.574   1.774  14.814 -0.4641  1.9435  0.1717
 3027SOL    HW220541   2.526   1.825  14.694  0.2355  2.9514  0.7532
 3028SOL     OW20542   0.921   0.035   2.812 -0.4745 -0.1679 -0.8045
 3028SOL    HW120543   0.881   0.096   2.875 -0.5746  0.1462 -1.1743
 3028SOL    HW220544   1.011   0.066   2.809 -0.7147  0.3928 -2.2069
 3029SOL     OW20545   3.593   4.587   7.485 -1.1449  0.1194 -0.7304
 3029SOL    HW120546   3.562   4.673   7.457  0.9717  1.9015  2.3385
 3029SOL    HW220547   3.558   4.536   7.412  0.2827 -4.0038  1.4809
 3030SOL     OW20548   0.249   0.743   2.416  0.0305  0.2741 -0.2379
 3030SOL    HW120549   0.325   0.692   2.442  0.0785  0.9911  1.0099
 3030SOL    HW220550   0.277   0.776   2.330 -0.2835 -1.3509 -0.9569
 3031SOL     OW20551   2.541   4.682   3.437  0.7739  0.0443 -0.1345
 3031SOL    HW120552   2.461   4.652   3.392 -1.2977  1.5024  2.5502
 3031SOL    HW220553   2.609   4.627   3.399 -0.8170 -1.5852 -0.6289
 3032SOL     OW20554   0.419   3.891   5.755 -0.7522  0.2501  0.2306
 3032SOL    HW120555   0.457   3.817   5.803 -2.3115 -0.3657  0.5457
 3032SOL    HW220556   0.431   3.867   5.663 -1.2129  0.6973  0.0537
 3033SOL     OW20557   1.745   2.639   8.895 -0.0992  0.5929  0.6812
 3033SOL    HW120558   1.654   2.669   8.898 -0.6448 -0.6203 -2.7697
 3033SOL    HW220559   1.744   2.571   8.962  2.1534 -0.0779  0.0274
 3034SOL     OW20560   2.558   4.500   7.325 -0.5179 -0.0094 -0.2927
 3034SOL    HW120561   2.619   4.471   7.257  0.7423 -0.4391  1.0104
 3034SOL    HW220562   2.525   4.413   7.345 -0.5622  0.8826  3.5442
 3035SOL     OW20563   4.038   0.439  15.278 -0.2455 -0.0269  0.4943
 3035SOL    HW120564   4.028   0.519  15.226 -1.2236 -1.0375 -0.8770
 3035SOL    HW220565   3.960   0.390  15.251 -1.5002  1.1975  1.8821
 3036SOL     OW20566   2.837   1.303   7.552 -0.3354  0.3214  0.0428
 3036SOL    HW120567   2.827   1.230   7.613  0.7550  0.2792  0.1654
 3036SOL    HW220568   2.899   1.267   7.489 -2.7577 -2.4991 -0.6966
 3037SOL     OW20569   1.671   4.275   4.749 -0.0870  0.1567  0.3538
 3037SOL    HW120570   1.608   4.240   4.812 -0.3269 -0.5787 -0.2878
 3037SOL    HW220571   1.725   4.198   4.727 -1.2994  0.3573 -3.3605
 3038SOL     OW20572   4.265   3.677  11.582 -0.2050 -0.2617 -0.7025
 3038SOL    HW120573   4.360   3.666  11.578 -0.1626 -0.1016 -0.0469
 3038SOL    HW220574   4.231   3.599  11.624 -1.2121 -1.2589 -3.3861
 3039SOL     OW20575   3.012   3.142   2.076 -0.5729 -0.0737 -0.2182
 3039SOL    HW120576   2.937   3.192   2.108 -0.2739  0.2118  0.0397
 3039SOL    HW220577   2.990   3.115   1.987 -0.4670 -1.0771  0.0539
 3040SOL     OW20578   0.432   3.747   2.782 -0.3548 -0.1068  0.1132
 3040SOL    HW120579   0.471   3.755   2.870  2.1441 -0.1228 -1.0072
 3040SOL    HW220580   0.514   3.762   2.735 -1.3843  0.3950 -1.5201
 3041SOL     OW20581   4.332   3.874  16.047 -0.5777  0.1408  0.0290
 3041SOL    HW120582   4.360   3.953  16.092 -1.5556  0.1700  0.5851
 3041SOL    HW220583   4.257   3.900  15.994 -1.1586  0.1320  0.8348
 3042SOL     OW20584   0.899   2.349   7.762  0.0794 -0.5629 -0.0748
 3042SOL    HW120585   0.959   2.285   7.724 -0.0368  0.9408 -2.8611
 3042SOL    HW220586   0.903   2.419   7.697 -0.2441  1.1133  1.7233
 3043SOL     OW20587   1.185   2.718  11.069 -0.0952  0.7793 -0.2447
 3043SOL    HW120588   1.192   2.649  11.004 -2.1686 -0.6103  1.0165
 3043SOL    HW220589   1.115   2.776  11.037  0.2450 -0.8436 -3.9392
 3044SOL     OW20590   1.256   1.761  17.014  0.1823  0.0256 -0.3391
 3044SOL    HW120591   1.233   1.834  17.072  0.4035 -0.5918  0.5309
 3044SOL    HW220592   1.217   1.695  17.072  1.8987 -0.3099  0.4340
 3045SOL     OW20593   3.728   2.669   0.386 -0.3961 -0.0266 -0.1235
 3045SOL    HW120594   3.732   2.756   0.345 -0.5793 -1.0023 -2.2435
 3045SOL    HW220595   3.647   2.629   0.354 -1.3078  0.2584  1.8298
 3046SOL     OW20596   0.400   3.607   9.009  0.4681  0.1360 -0.0871
 3046SOL    HW120597   0.347   3.681   9.038 -1.4401  0.3267 -4.1069
 3046SOL    HW220598   0.391   3.603   8.913  1.2686  2.5481 -0.2731
 3047SOL     OW20599   1.567   2.420   4.868 -0.0875  0.3213  0.2563
 3047SOL    HW120600   1.630   2.412   4.796 -0.2883 -3.0317  0.4402
 3047SOL    HW220601   1.612   2.363   4.930 -2.7864 -0.7458  1.2086
 3048SOL     OW20602   0.556   2.766   8.859 -0.5972  0.5161  0.2164
 3048SOL    HW120603   0.613   2.761   8.936 -1.2982 -2.9440  0.5450
 3048SOL    HW220604   0.543   2.860   8.854  0.8495  0.7621  1.0278
 3049SOL     OW20605   4.536   0.103   4.646 -0.6957 -0.0023  0.3040
 3049SOL    HW120606   4.494   0.176   4.600 -0.7071  1.4452  2.6545
 3049SOL    HW220607   4.471   0.096   4.715  0.8399  0.1188  1.7527
 3050SOL     OW20608   2.588   0.572  11.608  0.5813 -0.3584  0.3444
 3050SOL    HW120609   2.529   0.546  11.538  1.4261  1.5423 -1.0639
 3050SOL    HW220610   2.618   0.485  11.636 -1.8887 -1.2027  0.3945
 3051SOL     OW20611   4.060   4.642   3.783 -0.4547  0.5190  0.1972
 3051SOL    HW120612   3.991   4.657   3.719  0.3341  1.1113 -0.5081
 3051SOL    HW220613   4.130   4.691   3.739  0.2549 -0.9058 -0.2675
 3052SOL     OW20614   1.007   0.147   5.263  0.0011  0.3725  0.3323
 3052SOL    HW120615   0.989   0.240   5.255  0.3258  0.2913 -1.3596
 3052SOL    HW220616   1.051   0.141   5.178  2.0306 -3.2912  1.6551
 3053SOL     OW20617   2.150   4.348  14.403  0.0515  0.0215  0.3306
 3053SOL    HW120618   2.164   4.254  14.400  0.5797  0.0803  0.9210
 3053SOL    HW220619   2.054   4.352  14.400 -0.0001 -1.7923 -0.3689
 3054SOL     OW20620   4.349   1.805   2.730 -0.4430  0.0367 -0.4005
 3054SOL    HW120621   4.266   1.853   2.727 -0.0798  0.6173 -1.2914
 3054SOL    HW220622   4.340   1.761   2.814 -0.5373  1.8289  0.5178
 3055SOL     OW20623   3.213   2.763   9.181  0.1381  0.2633  0.0158
 3055SOL    HW120624   3.205   2.736   9.272 -0.5430  0.1087 -0.0873
 3055SOL    HW220625   3.171   2.686   9.142  0.6920 -0.0279  0.0053
 3056SOL     OW20626   2.048   0.162   9.236  0.1229 -0.2054  0.1069
 3056SOL    HW120627   2.133   0.133   9.270  1.0340  0.6512 -1.4735
 3056SOL    HW220628   2.006   0.178   9.320  3.7515 -3.8312  2.6170
 3057SOL     OW20629   2.327   1.048   9.026 -0.2312 -0.2771 -0.0469
 3057SOL    HW120630   2.414   1.063   8.989 -1.4964  1.3347 -2.3317
 3057SOL    HW220631   2.355   0.983   9.091  0.1192 -0.0860 -0.0062
 3058SOL     OW20632   2.085   2.859   1.651  0.2576  0.1418  0.2967
 3058SOL    HW120633   2.019   2.805   1.695 -0.8143  1.1238 -0.0768
 3058SOL    HW220634   2.024   2.919   1.607 -0.3481 -1.8200 -1.5471
 3059SOL     OW20635   1.602   2.447   2.221  0.4938  0.1820 -0.2129
 3059SOL    HW120636   1.554   2.435   2.139  2.4598  0.5986 -1.4187
 3059SOL    HW220637   1.671   2.506   2.190  1.1773 -2.1029 -3.0114
 3060SOL     OW20638   4.072   1.698   1.670  0.4728 -0.3063 -0.6743
 3060SOL    HW120639   4.137   1.719   1.736 -1.6817 -1.5912  1.8698
 3060SOL    HW220640   4.112   1.704   1.583  1.9258  0.8377  0.0931
 3061SOL     OW20641   3.423   0.418  16.765  0.0609  0.2625 -0.4449
 3061SOL    HW120642   3.373   0.378  16.694  0.4871 -3.2806  1.2309
 3061SOL    HW220643   3.359   0.432  16.834 -2.0634 -0.4964 -2.2747
 3062SOL     OW20644   0.247   1.129   6.406 -0.4127  0.3748  0.9012
 3062SOL    HW120645   0.178   1.127   6.472 -1.0669  0.2446  0.2105
 3062SOL    HW220646   0.322   1.166   6.452 -0.3956 -0.2165  1.3599
 3063SOL     OW20647   2.804   3.650  12.964  0.0534 -0.0319  0.2149
 3063SOL    HW120648   2.816   3.678  12.873  2.3435  0.0527  0.5533
 3063SOL    HW220649   2.861   3.574  12.964 -0.3746 -0.3493  0.8087
 3064SOL     OW20650   3.006   0.566  15.672 -0.4420  0.1299  0.0191
 3064SOL    HW120651   2.966   0.479  15.671 -1.1222  0.4352  1.0575
 3064SOL    HW220652   2.924   0.614  15.667 -2.0827 -2.7196 -0.2791
 3065SOL     OW20653   4.323   3.353   0.582 -0.1379 -0.5544 -0.2725
 3065SOL    HW120654   4.331   3.356   0.486 -0.0963 -2.1957 -0.3059
 3065SOL    HW220655   4.397   3.406   0.610  0.5488 -0.6085 -1.9660
 3066SOL     OW20656   0.849   4.664  10.807 -0.8202 -0.1964 -0.0602
 3066SOL    HW120657   0.922   0.005  10.806 -0.3015 -0.8220 -0.7253
 3066SOL    HW220658   0.800   4.699  10.882 -2.4532 -1.4395 -0.5459
 3067SOL     OW20659   2.057   0.156  11.697 -0.5016  0.7303 -0.1813
 3067SOL    HW120660   2.142   0.122  11.725 -0.9582  0.6285  1.1278
 3067SOL    HW220661   2.039   0.090  11.631  1.6314 -1.0114  0.9509
 3068SOL     OW20662   2.684   3.257   6.366 -0.2108  0.2157 -0.0331
 3068SOL    HW120663   2.657   3.170   6.336 -2.0109  0.6141  0.4092
 3068SOL    HW220664   2.647   3.261   6.454  1.2254  3.1237  0.4338
 3069SOL     OW20665   2.386   3.581   5.914 -0.2707  0.2644 -0.0332
 3069SOL    HW120666   2.443   3.651   5.886  1.1804  0.4522  3.4233
 3069SOL    HW220667   2.424   3.509   5.863 -1.6661  0.7759 -1.8008
 3070SOL     OW20668   1.584   3.558   2.324 -0.5751 -0.2525 -0.2559
 3070SOL    HW120669   1.542   3.629   2.373  0.9229  0.3786  0.0884
 3070SOL    HW220670   1.519   3.493   2.352 -2.0766  0.8889 -1.0419
 3071SOL     OW20671   2.117   4.206  14.770 -0.5508 -0.0161 -0.4891
 3071SOL    HW120672   2.147   4.294  14.791 -1.0781  0.1833 -0.5794
 3071SOL    HW220673   2.189   4.165  14.722  1.2989  1.5265  0.9533
 3072SOL     OW20674   2.337   3.946  14.990 -0.2860 -0.6455  0.0771
 3072SOL    HW120675   2.431   3.943  15.006  0.0747 -1.8459 -2.2729
 3072SOL    HW220676   2.333   3.967  14.897  1.8783  1.6301  0.4761
 3073SOL     OW20677   3.662   4.160   8.965  0.0500  0.0674  0.5350
 3073SOL    HW120678   3.723   4.133   8.895  0.2642  2.3181 -0.1540
 3073SOL    HW220679   3.649   4.075   9.006 -1.0020  0.6642  1.4234
 3074SOL     OW20680   3.703   4.024   3.138  0.1608 -0.1711  0.6236
 3074SOL    HW120681   3.668   4.075   3.211 -1.8434  0.4942 -0.8211
 3074SOL    HW220682   3.726   4.091   3.073  0.1949  1.3034  2.1422
 3075SOL     OW20683   3.616   2.527   6.642 -0.2657 -0.6950  0.2056
 3075SOL    HW120684   3.523   2.547   6.630  0.2562  1.0058 -1.1201
 3075SOL    HW220685   3.630   2.529   6.547 -0.2978 -0.3394  0.2081
 3076SOL     OW20686   1.601   0.603   5.868  0.3927  0.4840  0.5967
 3076SOL    HW120687   1.681   0.629   5.822 -0.7786 -1.2124 -2.4597
 3076SOL    HW220688   1.535   0.589   5.800  3.1446  2.3949 -2.4895
 3077SOL     OW20689   1.431   0.030   7.133  0.2082  0.3279 -0.2170
 3077SOL    HW120690   1.508   0.032   7.076 -0.5255  1.9918 -1.1387
 3077SOL    HW220691   1.450   4.691   7.205 -0.5584  1.0363  0.5771
 3078SOL     OW20692   0.221   2.260   8.537 -0.1907  0.2479 -0.1853
 3078SOL    HW120693   0.267   2.177   8.550  0.1147  0.2610 -1.1626
 3078SOL    HW220694   0.133   2.229   8.517  0.6826 -2.5334  0.1962
 3079SOL     OW20695   2.988   0.504   8.946  0.3642 -0.7013 -0.3277
 3079SOL    HW120696   3.058   0.524   8.885 -1.1970 -0.1613 -1.9399
 3079SOL    HW220697   3.015   0.575   9.004  0.9430  1.1474 -2.8630
 3080SOL     OW20698   1.310   0.378   0.674 -0.4722 -0.1640  0.5876
 3080SOL    HW120699   1.239   0.434   0.643  0.4558  0.0141 -1.2216
 3080SOL    HW220700   1.260   0.327   0.737  1.6290 -0.0400  2.3592
 3081SOL     OW20701   2.932   0.549   6.856  0.0614 -0.0834 -0.5364
 3081SOL    HW120702   3.008   0.552   6.798 -0.6707  0.7513 -1.4526
 3081SOL    HW220703   2.975   0.586   6.933 -0.0669 -1.5353  0.2354
 3082SOL     OW20704   2.686   2.206   7.067  0.5025 -0.0764  0.4508
 3082SOL    HW120705   2.644   2.254   6.995  3.2217 -0.4319 -1.3472
 3082SOL    HW220706   2.615   2.207   7.132 -2.0092 -0.6462 -2.2852
 3083SOL     OW20707   4.248   4.118   4.722  0.1408 -0.0353 -0.5293
 3083SOL    HW120708   4.213   4.060   4.654  0.7689 -2.0148  0.8473
 3083SOL    HW220709   4.197   4.196   4.701  1.6226  0.6444 -1.5792
 3084SOL     OW20710   1.673   3.548  10.180  0.0356 -0.2526 -0.2868
 3084SOL    HW120711   1.714   3.461  10.181  0.2098 -0.1976 -2.6409
 3084SOL    HW220712   1.586   3.516  10.202  1.0585 -2.2639  0.8458
 3085SOL     OW20713   2.474   3.380   3.070 -0.9030  0.8733  0.2552
 3085SOL    HW120714   2.423   3.316   3.119 -1.4444  1.3021  0.2536
 3085SOL    HW220715   2.555   3.330   3.060 -0.1223  1.8786  1.6263
 3086SOL     OW20716   3.900   2.983   0.439  0.3165  0.1454 -0.3542
 3086SOL    HW120717   3.976   2.925   0.440  1.1639  1.2826  0.6931
 3086SOL    HW220718   3.862   2.988   0.527  0.8836 -0.7394 -0.0554
 3087SOL     OW20719   2.368   2.114   1.289  0.1038  0.9107  0.4475
 3087SOL    HW120720   2.367   2.051   1.361 -1.4185  0.6294  0.1934
 3087SOL    HW220721   2.274   2.132   1.278  0.2973  0.2978 -2.3410
 3088SOL     OW20722   3.790   4.234   4.927  0.2620  0.2643  0.3018
 3088SOL    HW120723   3.808   4.210   5.018 -1.2456  1.8565  0.9939
 3088SOL    HW220724   3.695   4.229   4.923  0.1611  2.0444  0.6301
 3089SOL     OW20725   2.379   3.767  12.833  0.6016 -0.1192 -0.6517
 3089SOL    HW120726   2.298   3.732  12.870  2.3645 -3.2642  0.2349
 3089SOL    HW220727   2.381   3.852  12.878  1.3170 -0.1651 -0.5976
 3090SOL     OW20728   1.182   1.918   3.206  0.2112  0.3620  0.3706
 3090SOL    HW120729   1.159   1.935   3.298 -0.0951 -1.6657  0.6595
 3090SOL    HW220730   1.275   1.903   3.225 -0.1173 -1.4621  0.4867
 3091SOL     OW20731   4.541   0.705   5.538  0.1051  0.6599  0.1353
 3091SOL    HW120732   4.449   0.701   5.566  0.2215  0.6077  0.5162
 3091SOL    HW220733   4.568   0.786   5.581 -2.8674  1.0793  1.2105
 3092SOL     OW20734   3.791   4.680  17.436  0.1063 -0.1711 -0.3481
 3092SOL    HW120735   3.795   0.033  17.376  3.9381  0.9809  1.3035
 3092SOL    HW220736   3.874   4.636  17.418 -1.0610 -1.8045 -1.5781
 3093SOL     OW20737   4.357   3.145  12.066 -0.0349 -0.1788  0.0389
 3093SOL    HW120738   4.367   3.229  12.111 -0.5720  0.0978 -0.3637
 3093SOL    HW220739   4.443   3.134  12.027 -0.3961  0.9084 -1.0705
 3094SOL     OW20740   2.581   0.690   7.190  0.1775  0.5060 -0.7604
 3094SOL    HW120741   2.570   0.595   7.194 -0.0162  0.4967 -1.4434
 3094SOL    HW220742   2.584   0.713   7.097  0.1151  2.5835 -0.2457
 3095SOL     OW20743   0.504   0.615   6.403  0.1872 -0.2260 -0.1072
 3095SOL    HW120744   0.471   0.694   6.447  0.2661 -0.9994  1.3157
 3095SOL    HW220745   0.463   0.635   6.319  2.0334 -2.2074 -1.4759
 3096SOL     OW20746   2.184   4.161   1.384  0.0412 -0.6070 -0.2595
 3096SOL    HW120747   2.218   4.099   1.449 -1.8144 -1.9550 -0.5980
 3096SOL    HW220748   2.170   4.241   1.434  0.4421  0.8560 -2.5088
 3097SOL     OW20749   4.613   4.081   3.410  0.0854 -0.2152 -0.1154
 3097SOL    HW120750   4.682   4.137   3.447 -3.2634  3.2527  0.8807
 3097SOL    HW220751   4.661   4.064   3.329  0.7643  0.3166  0.1751
 3098SOL     OW20752   1.415   1.018  11.185  0.0993 -0.4804 -0.2318
 3098SOL    HW120753   1.439   0.937  11.139 -0.9894 -0.8985 -0.0726
 3098SOL    HW220754   1.325   1.029  11.153  0.5245 -0.4742 -1.4471
 3099SOL     OW20755   1.930   0.490   5.934  0.1922  0.1419  0.5721
 3099SOL    HW120756   1.848   0.496   5.886 -0.0965 -0.4273  0.9903
 3099SOL    HW220757   1.903   0.493   6.026  1.9567 -0.3256  1.1092
 3100SOL     OW20758   4.522   0.171   8.427  0.9147  0.5205 -0.2924
 3100SOL    HW120759   4.452   0.185   8.492  0.1625 -1.2465 -0.7164
 3100SOL    HW220760   4.595   0.136   8.478  1.4802  1.9762 -0.0939
 3101SOL     OW20761   0.928   2.196   2.448 -0.6398 -0.0527 -0.7683
 3101SOL    HW120762   0.909   2.152   2.366 -1.1856 -0.8062 -0.2351
 3101SOL    HW220763   1.006   2.147   2.473 -1.1570 -0.6690 -0.3688
 3102SOL     OW20764   0.470   1.682  17.331  0.2703 -0.1818  0.2246
 3102SOL    HW120765   0.482   1.680  17.426  2.5648  0.7210 -0.0392
 3102SOL    HW220766   0.463   1.775  17.309 -1.8550  0.0273  1.7838
 3103SOL     OW20767   3.896   3.510  16.539  0.0164 -0.0731  0.6291
 3103SOL    HW120768   3.917   3.589  16.589  1.0697  0.0452  0.0102
 3103SOL    HW220769   3.885   3.543  16.450 -0.0377 -2.0272 -0.0800
 3104SOL     OW20770   4.070   4.159  10.437  0.6648  0.4955  0.0401
 3104SOL    HW120771   4.067   4.081  10.383  0.8488  0.5364 -0.0313
 3104SOL    HW220772   4.015   4.216  10.384  0.4635 -0.7227 -1.0592
 3105SOL     OW20773   2.581   2.080   0.212 -0.0149  0.0875  0.3156
 3105SOL    HW120774   2.636   2.003   0.201  1.6105  1.4938 -1.3091
 3105SOL    HW220775   2.649   2.143   0.238  0.5275 -0.2472 -0.3024
 3106SOL     OW20776   4.304   1.048   7.437 -0.0098  0.5413  0.4505
 3106SOL    HW120777   4.335   1.065   7.348 -1.4882  1.3921  0.0984
 3106SOL    HW220778   4.364   1.100   7.491 -0.1024  0.9820  0.1326
 3107SOL     OW20779   2.311   1.699   9.524  0.2140 -0.3688  0.8426
 3107SOL    HW120780   2.251   1.653   9.583  0.0290  0.8253  1.5817
 3107SOL    HW220781   2.366   1.742   9.588  1.0664  0.1232 -0.2139
 3108SOL     OW20782   0.980   0.065   7.292  0.4760 -0.0080 -0.4327
 3108SOL    HW120783   1.031   4.712   7.324  0.9022 -0.8643 -3.0165
 3108SOL    HW220784   0.909   0.071   7.356 -1.0563 -1.3594 -1.9691
 3109SOL     OW20785   4.350   1.320  16.275 -0.5999  0.3304  0.1788
 3109SOL    HW120786   4.384   1.236  16.304 -0.8008  0.2392  0.1489
 3109SOL    HW220787   4.339   1.296  16.183 -3.0366 -1.1769  0.8458
 3110SOL     OW20788   0.696   3.827  11.467  0.0390 -0.2994  0.1363
 3110SOL    HW120789   0.748   3.804  11.390 -1.2450  0.5994 -1.0300
 3110SOL    HW220790   0.633   3.892  11.433  0.7183  0.3773  0.1765
 3111SOL     OW20791   2.602   3.741   5.762  0.6652 -0.4613 -0.2617
 3111SOL    HW120792   2.623   3.658   5.720  0.1915  0.1547 -1.7428
 3111SOL    HW220793   2.622   3.803   5.692 -1.0780  0.3603 -0.0329
 3112SOL     OW20794   1.592   0.752   6.171  0.2813 -0.6775 -0.0019
 3112SOL    HW120795   1.654   0.681   6.153  2.9179  2.3112 -2.7162
 3112SOL    HW220796   1.638   0.829   6.138  0.8150 -0.9315  0.1593
 3113SOL     OW20797   0.262   3.008   9.396  0.1265  0.2387  0.0501
 3113SOL    HW120798   0.178   2.978   9.360 -0.1995  1.7012 -0.4236
 3113SOL    HW220799   0.262   3.102   9.376 -0.1132  0.4187  0.8634
 3114SOL     OW20800   4.267   3.330   4.038 -0.2929  0.1212  0.3568
 3114SOL    HW120801   4.216   3.250   4.053 -0.8043  0.6617  1.5218
 3114SOL    HW220802   4.296   3.317   3.948  1.3206  1.2435  0.7217
 3115SOL     OW20803   3.090   4.414  16.511 -0.2426 -0.0057 -0.5566
 3115SOL    HW120804   3.149   4.483  16.482 -0.2400 -0.3650 -1.3929
 3115SOL    HW220805   3.025   4.423  16.441  3.4499  2.0500 -3.7032
 3116SOL     OW20806   0.184   0.158   4.525 -0.3431  0.0176  0.1785
 3116SOL    HW120807   0.094   0.176   4.499 -0.5543 -0.4352  0.5921
 3116SOL    HW220808   0.223   0.209   4.454 -1.4138  1.7011  0.7928
 3117SOL     OW20809   4.591   1.222   6.131 -0.0432 -0.5857 -0.0023
 3117SOL    HW120810   4.631   1.308   6.125  0.1171 -0.4570  2.9290
 3117SOL    HW220811   4.500   1.246   6.110 -0.0946 -0.5070  0.3106
 3118SOL     OW20812   3.901   0.660   3.388 -0.2824  0.6115  0.0254
 3118SOL    HW120813   3.805   0.658   3.397 -0.1803 -1.2307  0.6863
 3118SOL    HW220814   3.929   0.675   3.478  0.1672  0.1243 -0.0393
 3119SOL     OW20815   3.031   3.537   5.321 -0.3138 -0.1582 -0.0468
 3119SOL    HW120816   2.971   3.594   5.370 -1.0650  0.9151 -2.2000
 3119SOL    HW220817   3.111   3.584   5.342 -2.1808  2.1139  2.0293
 3120SOL     OW20818   2.575   0.269   3.776 -0.1180  0.3273 -0.2194
 3120SOL    HW120819   2.542   0.181   3.789 -0.8785  1.1459  3.2563
 3120SOL    HW220820   2.585   0.280   3.681  1.3352  2.7161  0.2175
 3121SOL     OW20821   3.215   4.491   4.910 -0.1105  0.0910  0.5437
 3121SOL    HW120822   3.273   4.494   4.833  1.3852 -1.0605  1.6272
 3121SOL    HW220823   3.149   4.557   4.891 -1.1293 -0.9134  0.6030
 3122SOL     OW20824   2.101   3.057   8.514 -0.1912  0.3088 -0.0020
 3122SOL    HW120825   2.042   3.000   8.465  0.0304  0.1090 -0.0338
 3122SOL    HW220826   2.168   2.999   8.552  2.6077  2.0525 -2.2782
 3123SOL     OW20827   3.666   2.069   8.431 -0.3384 -0.3549  0.2223
 3123SOL    HW120828   3.676   2.155   8.471  1.7397  0.1974 -1.4777
 3123SOL    HW220829   3.584   2.044   8.475 -0.7735 -0.3351 -0.5718
 3124SOL     OW20830   0.799   1.028   1.966  0.3385 -0.7566 -0.2948
 3124SOL    HW120831   0.750   1.001   2.043  0.3003 -0.2814 -0.1526
 3124SOL    HW220832   0.726   1.047   1.907 -0.2673 -0.1973  0.6401
 3125SOL     OW20833   3.196   0.304  14.932 -0.2667  0.1026 -0.0441
 3125SOL    HW120834   3.207   0.231  14.871 -1.0864  0.5172 -0.6809
 3125SOL    HW220835   3.274   0.359  14.928  0.1055 -0.4538 -0.5057
 3126SOL     OW20836   1.061   3.450   5.929 -0.0061 -0.0232 -0.6605
 3126SOL    HW120837   1.120   3.380   5.957 -0.9796 -0.7638 -0.4844
 3126SOL    HW220838   1.100   3.530   5.965 -0.0543  0.2089 -1.1189
 3127SOL     OW20839   0.655   2.817   4.064 -0.5497  0.1234  0.3153
 3127SOL    HW120840   0.667   2.838   3.971 -0.1422  0.3953  0.4266
 3127SOL    HW220841   0.698   2.732   4.058 -0.4065  0.3615 -2.4028
 3128SOL     OW20842   0.044   0.109   6.800 -0.8212 -0.8011 -0.3488
 3128SOL    HW120843   0.003   0.188   6.835 -2.0037 -1.4039 -0.3795
 3128SOL    HW220844   0.135   0.117   6.829 -1.2935  0.7324  0.6688
 3129SOL     OW20845   0.497   4.149  15.049  0.2431 -0.0797 -0.3263
 3129SOL    HW120846   0.459   4.098  14.976  0.0523  0.0643 -0.3285
 3129SOL    HW220847   0.582   4.174  15.013  0.0367  0.1240 -0.6765
 3130SOL     OW20848   3.505   2.278   8.895  0.5586 -0.1927  0.1372
 3130SOL    HW120849   3.537   2.318   8.976  0.9262 -1.6003  0.6772
 3130SOL    HW220850   3.410   2.278   8.902  0.6472  1.5733  1.2591
 3131SOL     OW20851   2.182   0.602   3.924  0.4062 -0.0099 -0.1782
 3131SOL    HW120852   2.212   0.649   4.003  0.1164 -0.5349  0.2429
 3131SOL    HW220853   2.232   0.653   3.860  2.4809 -1.4178  0.3385
 3132SOL     OW20854   1.844   0.569   4.150 -0.3420  1.2278 -0.0063
 3132SOL    HW120855   1.875   0.581   4.061 -1.2522  1.1347 -0.3336
 3132SOL    HW220856   1.866   0.475   4.153 -2.1648  0.7604 -1.4182
 3133SOL     OW20857   2.119   4.430   4.020 -0.2193 -0.0693 -0.2487
 3133SOL    HW120858   2.188   4.366   4.005  0.4326  0.5822 -0.0243
 3133SOL    HW220859   2.156   4.513   3.989  0.6999  0.3288  1.9433
 3134SOL     OW20860   1.023   2.942   5.622  0.4898  0.4966  0.1188
 3134SOL    HW120861   1.081   2.868   5.642  1.2278  1.3502  1.1401
 3134SOL    HW220862   1.072   2.988   5.554  2.1195 -2.3605 -0.6270
 3135SOL     OW20863   4.498   4.507  17.105 -0.5233 -0.6062 -0.2814
 3135SOL    HW120864   4.447   4.581  17.071 -0.7938  0.5260  2.5622
 3135SOL    HW220865   4.552   4.498  17.027 -2.4098 -2.0083 -1.4312
 3136SOL     OW20866   0.718   1.717   7.831 -0.5678  0.2513 -0.1362
 3136SOL    HW120867   0.716   1.631   7.873  0.0741  0.5842  0.5770
 3136SOL    HW220868   0.704   1.783   7.899  2.8722  0.2404  0.5429
 3137SOL     OW20869   0.408   2.321   2.238  0.3358 -0.2564 -0.0978
 3137SOL    HW120870   0.472   2.256   2.264  1.7225  1.7228  1.4565
 3137SOL    HW220871   0.359   2.280   2.167 -0.4750 -0.6221  0.6768
 3138SOL     OW20872   3.986   1.369   3.040  0.6938 -0.2175 -0.3729
 3138SOL    HW120873   3.962   1.412   3.122  2.4201 -0.0491  0.0236
 3138SOL    HW220874   4.067   1.411   3.013  0.3688  1.4290  1.2534
 3139SOL     OW20875   2.880   3.062   2.406  0.2198  0.1971 -0.2236
 3139SOL    HW120876   2.915   3.096   2.324 -0.8785 -0.8701 -1.1409
 3139SOL    HW220877   2.961   3.076   2.453  0.9522  0.7718 -1.6547
 3140SOL     OW20878   3.346   3.573   5.728 -0.3165  0.6893  0.0489
 3140SOL    HW120879   3.337   3.665   5.704  2.9731  0.6433 -1.3817
 3140SOL    HW220880   3.353   3.533   5.641 -0.9628  1.2237 -0.2464
 3141SOL     OW20881   2.603   0.719   4.400  0.5220 -0.1700 -0.2690
 3141SOL    HW120882   2.657   0.782   4.352 -0.7190  0.3027 -1.0490
 3141SOL    HW220883   2.563   0.671   4.327 -1.7535 -0.4329  1.1726
 3142SOL     OW20884   2.366   4.165   0.826 -0.0378  0.0858  0.4863
 3142SOL    HW120885   2.351   4.178   0.732 -0.1333 -2.4751  0.1526
 3142SOL    HW220886   2.393   4.074   0.830  0.2984  0.0684 -2.1309
 3143SOL     OW20887   1.665   2.509   1.124  0.2117 -0.1477 -0.3375
 3143SOL    HW120888   1.666   2.447   1.051 -2.6341 -2.4288  1.5518
 3143SOL    HW220889   1.619   2.454   1.187 -1.6267 -1.2758 -2.6390
 3144SOL     OW20890   2.875   4.404   6.539  0.2458 -0.0277  0.0784
 3144SOL    HW120891   2.891   4.478   6.598 -2.2055  0.2307  0.4144
 3144SOL    HW220892   2.946   4.414   6.476  0.7068  0.3348  0.6555
 3145SOL     OW20893   0.928   4.133   8.919 -0.1457 -0.5020  0.2736
 3145SOL    HW120894   0.982   4.188   8.862 -0.4453  1.0929  1.5191
 3145SOL    HW220895   0.874   4.197   8.965  1.2837  0.7617  0.1929
 3146SOL     OW20896   2.868   0.600  12.444 -0.0072 -0.0925 -0.1683
 3146SOL    HW120897   2.791   0.587  12.499 -0.7359 -1.3131 -1.4711
 3146SOL    HW220898   2.842   0.525  12.390 -1.5118 -0.2969  0.8399
 3147SOL     OW20899   4.264   1.123   2.281  0.5258  0.0925 -0.0273
 3147SOL    HW120900   4.336   1.060   2.286  1.2233  0.7374 -1.7648
 3147SOL    HW220901   4.204   1.049   2.290 -1.0828  1.3068 -0.9030
 3148SOL     OW20902   0.171   3.949   5.579  0.1959 -0.0318  0.0057
 3148SOL    HW120903   0.207   3.954   5.667  0.8578 -2.4256 -0.1440
 3148SOL    HW220904   0.177   3.855   5.562  1.1668 -0.1358  0.9353
 3149SOL     OW20905   1.010   2.174   7.145 -0.2074 -0.2507 -0.2553
 3149SOL    HW120906   0.988   2.098   7.198  0.3723  0.4234  0.9333
 3149SOL    HW220907   0.968   2.157   7.060  1.1551 -2.2828 -0.5284
 3150SOL     OW20908   0.459   2.743   2.195  0.1720 -0.2066  0.5061
 3150SOL    HW120909   0.533   2.689   2.224  1.1035  0.9459  0.3093
 3150SOL    HW220910   0.391   2.720   2.258 -2.1168  1.3787 -1.3806
 3151SOL     OW20911   4.536   0.965  10.192  0.0726 -0.2663 -0.0932
 3151SOL    HW120912   4.496   0.907  10.257  0.9884  0.4110  1.0678
 3151SOL    HW220913   4.616   0.983  10.240 -0.0609  0.6926 -0.2367
 3152SOL     OW20914   0.018   0.648  16.038 -0.3701  0.2039 -0.1348
 3152SOL    HW120915   4.716   0.588  16.109  1.1857  1.4881  1.4455
 3152SOL    HW220916   0.030   0.590  15.963 -0.7657  0.5688 -0.4773
 3153SOL     OW20917   4.654   3.593   7.777  0.1963  0.0770 -0.2844
 3153SOL    HW120918   4.694   3.557   7.856  0.1271  0.9832  0.1647
 3153SOL    HW220919   4.671   3.515   7.725  0.9565  0.3290 -0.4151
 3154SOL     OW20920   1.835   3.722   5.279  0.1882  0.4777 -0.0078
 3154SOL    HW120921   1.852   3.668   5.356  0.7875 -0.0353 -0.4998
 3154SOL    HW220922   1.808   3.804   5.320 -0.7294  0.2426 -0.1608
 3155SOL     OW20923   4.219   1.959   7.686 -0.0644  0.3857  0.1613
 3155SOL    HW120924   4.139   2.001   7.655 -0.6662 -1.2062 -0.4517
 3155SOL    HW220925   4.287   2.020   7.655  0.0357  0.1383 -0.1114
 3156SOL     OW20926   0.496   3.124  13.328  0.1947  0.1202 -0.0689
 3156SOL    HW120927   0.411   3.158  13.299  0.9491  2.0941  0.0213
 3156SOL    HW220928   0.566   3.154  13.269  2.1571  0.8914  2.6772
 3157SOL     OW20929   2.949   1.197   0.262  0.3785 -0.2733  0.2298
 3157SOL    HW120930   2.907   1.174   0.345  0.7172 -0.7612  0.2636
 3157SOL    HW220931   2.975   1.286   0.288 -0.1762 -0.1225  0.2685
 3158SOL     OW20932   1.267   0.431   7.968  0.1072  0.2944 -0.3426
 3158SOL    HW120933   1.232   0.343   7.962  1.5667 -0.4415  1.9538
 3158SOL    HW220934   1.293   0.433   8.060  0.0906 -0.8270 -0.3197
 3159SOL     OW20935   2.026   0.857   5.756 -0.3019  0.2676 -0.3562
 3159SOL    HW120936   2.119   0.835   5.760 -0.0385  1.3960 -0.3087
 3159SOL    HW220937   2.015   0.933   5.698  0.7261  0.9353  0.3152
 3160SOL     OW20938   3.611   1.679   9.800  0.4669 -0.1216 -0.1784
 3160SOL    HW120939   3.529   1.630   9.797 -0.7061  1.9458 -2.3811
 3160SOL    HW220940   3.602   1.721   9.885 -1.0318 -0.9344  0.0612
 3161SOL     OW20941   1.450   1.167  11.428 -0.0955  0.2007  0.2999
 3161SOL    HW120942   1.389   1.241  11.423  2.5316  2.3029 -0.4319
 3161SOL    HW220943   1.425   1.125  11.346  2.0885 -0.4448 -0.0272
 3162SOL     OW20944   4.491   0.338   7.133  0.4542 -0.2537  0.7626
 3162SOL    HW120945   4.571   0.286   7.121 -0.0618 -1.3784  2.2907
 3162SOL    HW220946   4.504   0.405   7.065 -0.9642  0.3444  1.0846
 3163SOL     OW20947   3.554   2.938   6.052 -0.0284 -0.1406  0.6628
 3163SOL    HW120948   3.518   2.915   6.138 -2.8867  1.4236 -0.1149
 3163SOL    HW220949   3.646   2.940   6.075  0.1956 -0.0150 -0.2473
 3164SOL     OW20950   3.062   0.220  17.449 -0.3375  0.2949  0.5329
 3164SOL    HW120951   3.157   0.216  17.458 -0.3004  1.4883  0.6554
 3164SOL    HW220952   3.030   0.230  17.538 -1.0111 -0.2397  0.3569
 3165SOL     OW20953   2.653   2.966   7.674 -0.1460 -0.0080  0.0565
 3165SOL    HW120954   2.626   3.053   7.645 -1.7525 -0.8430 -0.9906
 3165SOL    HW220955   2.744   2.987   7.697 -0.1632  0.7681 -0.5842
 3166SOL     OW20956   0.727   2.773   1.983 -0.2352 -0.0695  0.5228
 3166SOL    HW120957   0.768   2.775   2.070  0.7941  1.4090  0.0100
 3166SOL    HW220958   0.752   2.682   1.966  0.0868 -0.3792  2.6091
 3167SOL     OW20959   3.864   2.754   8.935 -0.2132 -0.2488 -0.3805
 3167SOL    HW120960   3.780   2.767   8.979 -0.3277 -1.2192 -0.3190
 3167SOL    HW220961   3.881   2.845   8.908  0.6519 -0.8508 -1.8600
 3168SOL     OW20962   2.684   4.717   8.483  0.1720 -0.4973 -0.0303
 3168SOL    HW120963   2.600   0.021   8.522  0.4682 -0.5539  0.6591
 3168SOL    HW220964   2.694   4.639   8.539  0.0972  0.9535  2.0317
 3169SOL     OW20965   4.604   3.660   4.468 -0.5622  0.9094  0.2095
 3169SOL    HW120966   4.540   3.605   4.424 -0.0470 -0.9022  1.6947
 3169SOL    HW220967   4.583   3.749   4.442 -1.4587  1.3287  2.3463
 3170SOL     OW20968   3.574   3.297  10.493 -0.4286 -0.0201  0.1596
 3170SOL    HW120969   3.634   3.312  10.420  0.9327 -1.1326  1.0454
 3170SOL    HW220970   3.636   3.252  10.550  0.5055  0.5002 -0.4480
 3171SOL     OW20971   1.476   0.512   2.330  0.2068 -0.0545  0.4599
 3171SOL    HW120972   1.393   0.470   2.307 -0.1649  0.3468  1.0801
 3171SOL    HW220973   1.533   0.437   2.312 -1.2204 -0.8493 -0.7878
 3172SOL     OW20974   2.426   2.439   9.206  0.2517 -0.0230 -0.2006
 3172SOL    HW120975   2.390   2.517   9.247 -1.9711 -1.5376  0.7074
 3172SOL    HW220976   2.402   2.452   9.114  0.6531 -1.2060 -0.4745
 3173SOL     OW20977   2.079   3.475   5.418 -0.5053 -1.1798  0.6746
 3173SOL    HW120978   2.045   3.441   5.335  1.7088  0.8097 -1.0399
 3173SOL    HW220979   2.005   3.477   5.479 -0.5781 -0.4572  0.5608
 3174SOL     OW20980   2.495   4.479   0.436 -0.0632 -0.0168  0.3290
 3174SOL    HW120981   2.558   4.407   0.431  1.3068  1.0769  1.7697
 3174SOL    HW220982   2.493   4.495   0.342 -2.6422 -0.9672  0.2317
 3175SOL     OW20983   1.409   1.852   2.630  0.2574  0.4041  0.5059
 3175SOL    HW120984   1.493   1.848   2.583 -0.1350 -0.3649 -0.1294
 3175SOL    HW220985   1.429   1.937   2.671  0.6122  0.9885 -0.8775
 3176SOL     OW20986   3.644   2.518   0.624 -0.0608  0.0298 -0.1500
 3176SOL    HW120987   3.633   2.529   0.530 -0.4916  0.8412  0.0013
 3176SOL    HW220988   3.631   2.606   0.659  1.0484  0.2047 -0.1895
 3177SOL     OW20989   1.505   3.955   4.353 -0.2156 -1.0206 -0.0216
 3177SOL    HW120990   1.548   3.881   4.396  0.2055 -0.1232  1.1142
 3177SOL    HW220991   1.450   3.910   4.289 -0.5088  0.3480 -0.7310
 3178SOL     OW20992   2.413   2.759   3.401  0.7436 -0.6523  0.0682
 3178SOL    HW120993   2.388   2.850   3.383 -0.5563 -0.8487  0.8640
 3178SOL    HW220994   2.419   2.765   3.497  1.2650  0.7201 -0.0565
 3179SOL     OW20995   0.480   4.560  15.679  0.1708 -0.1995 -0.4070
 3179SOL    HW120996   0.499   4.606  15.598 -2.2721  0.0875 -0.8185
 3179SOL    HW220997   0.485   4.471  15.644 -1.6429  0.2487 -1.7716
 3180SOL     OW20998   2.049   3.147   3.021  0.1295  0.3717  0.6813
 3180SOL    HW120999   1.966   3.103   3.038  0.4353 -0.4053  0.2118
 3180SOL    HW221000   2.016   3.232   2.993 -0.8796 -0.2104  0.0940
 3181SOL     OW21001   2.412   1.402  17.473 -0.2564 -0.8004 -0.3431
 3181SOL    HW121002   2.326   1.444  17.472 -1.2483 -2.8307  0.7855
 3181SOL    HW221003   2.394   1.327  17.417  1.1169 -1.5177  0.1802
 3182SOL     OW21004   3.886   3.683  11.410  0.1041  0.1476  0.3275
 3182SOL    HW121005   3.816   3.720  11.464 -0.9597  0.0922 -1.0269
 3182SOL    HW221006   3.896   3.598  11.452  0.2382  0.1577  0.3177
 3183SOL     OW21007   3.128   3.733  13.186 -0.4235  0.3484  0.1386
 3183SOL    HW121008   3.098   3.815  13.224 -1.5783 -1.2408  2.7336
 3183SOL    HW221009   3.091   3.748  13.099 -2.2340 -1.9590  0.4810
 3184SOL     OW21010   2.785   0.759   4.845 -0.3207 -0.1546 -0.1342
 3184SOL    HW121011   2.862   0.769   4.900  0.5856 -1.0849 -1.2484
 3184SOL    HW221012   2.806   0.740   4.754 -2.4703  0.8151 -0.8591
 3185SOL     OW21013   3.736   2.133   4.981  0.6395  0.7022  0.0341
 3185SOL    HW121014   3.796   2.105   4.911  0.5907  0.9710 -0.1168
 3185SOL    HW221015   3.746   2.059   5.041 -0.1423  0.9313  0.4470
 3186SOL     OW21016   4.552   1.234  10.133  0.3384 -0.0787 -0.1103
 3186SOL    HW121017   4.493   1.236  10.058  1.3638 -0.4181 -0.9272
 3186SOL    HW221018   4.572   1.140  10.131  0.2736 -0.0946 -0.0205
 3187SOL     OW21019   3.451   2.603  16.972  0.2196 -0.4739  0.1739
 3187SOL    HW121020   3.367   2.627  17.011  0.1234 -0.2475 -0.1675
 3187SOL    HW221021   3.508   2.631  17.044 -0.3622  1.0780  0.0428
 3188SOL     OW21022   2.555   4.283  10.304  0.3194  0.1334 -0.1603
 3188SOL    HW121023   2.464   4.305  10.284  0.4526  1.7880  1.0246
 3188SOL    HW221024   2.596   4.366  10.328 -1.8715  0.0191  3.8462
 3189SOL     OW21025   1.127   0.519  12.042 -0.6649 -0.6558  0.8243
 3189SOL    HW121026   1.072   0.441  12.037 -0.9887 -0.4314  0.9097
 3189SOL    HW221027   1.117   0.555  12.131 -1.5563 -0.1092  0.5006
 3190SOL     OW21028   3.844   3.597  17.007  0.4123 -0.4809  0.4430
 3190SOL    HW121029   3.821   3.636  16.923 -1.1083 -0.7481  0.7476
 3190SOL    HW221030   3.828   3.505  16.984 -0.8782 -0.1431 -0.0172
 3191SOL     OW21031   3.188   2.525   4.431 -0.0709  0.1017  0.1610
 3191SOL    HW121032   3.095   2.502   4.428  0.6998 -3.1209  1.2253
 3191SOL    HW221033   3.221   2.517   4.341 -1.3289 -1.4147 -0.1549
 3192SOL     OW21034   0.268   1.150   0.772  0.0369  0.1075 -0.0509
 3192SOL    HW121035   0.265   1.213   0.700 -0.8306  2.2298  1.8653
 3192SOL    HW221036   0.349   1.106   0.746  0.1044  0.3823 -0.3069
 3193SOL     OW21037   3.565   3.311  12.387  0.7704 -0.2071 -0.3741
 3193SOL    HW121038   3.625   3.283  12.318 -1.5630  0.9831 -2.8500
 3193SOL    HW221039   3.602   3.397  12.409 -0.0338 -0.5213  2.1868
 3194SOL     OW21040   2.434   0.896  16.539  0.5824 -0.3674 -0.0396
 3194SOL    HW121041   2.523   0.865  16.524  0.6560 -1.2250  2.2087
 3194SOL    HW221042   2.412   0.953  16.465 -1.3369  1.3728  1.8597
 3195SOL     OW21043   2.033   2.677   0.769  0.2321 -0.1384  0.2250
 3195SOL    HW121044   2.127   2.666   0.756 -0.0703 -2.0373 -0.3273
 3195SOL    HW221045   2.028   2.772   0.779  0.1343  0.0076 -1.2246
 3196SOL     OW21046   4.191   0.924   9.793 -0.4085 -0.2032  0.9847
 3196SOL    HW121047   4.280   0.936   9.761 -0.0452 -0.0347  2.0531
 3196SOL    HW221048   4.200   0.940   9.887  0.0996  0.6828  0.7843
 3197SOL     OW21049   3.354   3.566   6.137  0.4980 -0.0220 -0.8255
 3197SOL    HW121050   3.316   3.615   6.210  0.1339 -1.7309  0.1524
 3197SOL    HW221051   3.424   3.523   6.186 -1.3712 -2.4006 -0.2091
 3198SOL     OW21052   2.553   2.507   0.435 -0.3604 -0.4880 -0.1201
 3198SOL    HW121053   2.458   2.516   0.431 -0.1725  1.2458 -0.4810
 3198SOL    HW221054   2.569   2.449   0.361 -0.8901 -0.8340  0.0326
 3199SOL     OW21055   0.640   4.252  16.880  0.1947 -0.5557 -0.6764
 3199SOL    HW121056   0.577   4.323  16.873 -1.8591 -2.3679 -0.5655
 3199SOL    HW221057   0.719   4.293  16.846  1.0868 -3.9732 -2.7655
 3200SOL     OW21058   0.438   0.891   4.120 -0.3248  0.5077 -0.0536
 3200SOL    HW121059   0.437   0.956   4.050 -0.8790  0.1583 -0.3696
 3200SOL    HW221060   0.398   0.952   4.181  1.7415  0.9143  0.8955
 3201SOL     OW21061   4.275   4.386   1.552 -0.2646  0.4064 -0.3025
 3201SOL    HW121062   4.265   4.435   1.470 -2.6632  1.5380  0.6523
 3201SOL    HW221063   4.240   4.301   1.525  0.7593  0.2380 -1.1032
 3202SOL     OW21064   2.159   1.475   8.024 -0.5463  0.1432 -0.0676
 3202SOL    HW121065   2.229   1.420   8.059  0.3544  1.1307 -0.3207
 3202SOL    HW221066   2.189   1.471   7.934  1.7963 -0.7834  0.7611
 3203SOL     OW21067   2.428   2.777  10.646 -0.3161 -0.5181 -0.0794
 3203SOL    HW121068   2.475   2.856  10.618 -2.3274  0.3280 -1.0955
 3203SOL    HW221069   2.507   2.723  10.651  0.6160  0.8311 -0.2762
 3204SOL     OW21070   1.357   2.567   1.085 -0.1099 -0.7629 -0.6349
 3204SOL    HW121071   1.369   2.475   1.060 -0.0700 -0.9789  0.1698
 3204SOL    HW221072   1.284   2.551   1.145 -0.1386 -0.8116 -0.6817
 3205SOL     OW21073   1.887   4.235   3.137  0.2788  0.7773 -0.4363
 3205SOL    HW121074   1.946   4.174   3.183  0.3451  1.3154  0.1854
 3205SOL    HW221075   1.904   4.315   3.186  0.4650  0.5752 -0.1675
 3206SOL     OW21076   0.199   2.209   2.445 -0.1225 -0.3059  0.5371
 3206SOL    HW121077   0.258   2.182   2.375  1.5568 -0.2557  1.9261
 3206SOL    HW221078   0.173   2.121   2.474  0.2698  0.5500  3.5475
 3207SOL     OW21079   0.343   2.616   5.368 -0.3464  0.0392  0.3267
 3207SOL    HW121080   0.265   2.577   5.329  1.8562 -1.5171 -2.4973
 3207SOL    HW221081   0.336   2.569   5.451 -0.6238 -0.5638 -0.0318
 3208SOL     OW21082   3.613   1.818   2.904 -1.2224 -0.0052 -0.2677
 3208SOL    HW121083   3.541   1.825   2.840 -1.8066  2.0062  0.6230
 3208SOL    HW221084   3.640   1.909   2.906  0.2246 -0.4757  1.1734
 3209SOL     OW21085   1.397   3.517   7.662 -0.0473 -0.0816  0.3387
 3209SOL    HW121086   1.438   3.543   7.745  1.0183  0.8081 -0.4560
 3209SOL    HW221087   1.396   3.603   7.620 -1.3667 -0.8876 -1.2544
 3210SOL     OW21088   2.769   2.801  11.861  0.4968  0.1111 -0.0686
 3210SOL    HW121089   2.719   2.756  11.794  2.3050 -2.0823  0.0671
 3210SOL    HW221090   2.696   2.820  11.920 -0.0004  1.3534 -1.0658
 3211SOL     OW21091   1.835   2.806  11.484  0.1412  0.1419 -0.0135
 3211SOL    HW121092   1.801   2.733  11.535 -0.5715 -1.0550 -2.2099
 3211SOL    HW221093   1.926   2.782  11.468  0.3466 -0.4149  2.1064
 3212SOL     OW21094   2.445   4.211   4.718  0.1301 -0.2743 -0.0959
 3212SOL    HW121095   2.422   4.259   4.798  0.3307 -0.5922  0.1582
 3212SOL    HW221096   2.424   4.282   4.658  0.1576 -0.2901 -0.1240
 3213SOL     OW21097   2.944   2.506  17.369 -0.3046 -0.2043  0.2746
 3213SOL    HW121098   3.038   2.519  17.356 -0.3142 -0.3267  0.0752
 3213SOL    HW221099   2.940   2.485  17.462  0.9560  1.9280  0.8105
 3214SOL     OW21100   1.360   4.491  12.883  1.4703 -0.0349 -0.1634
 3214SOL    HW121101   1.323   4.579  12.887  0.7978 -0.3161 -0.0674
 3214SOL    HW221102   1.390   4.496  12.792 -0.3453 -2.0738 -0.8892
 3215SOL     OW21103   4.281   2.141   1.247  0.5466 -0.0737 -0.1616
 3215SOL    HW121104   4.308   2.116   1.335  1.0730 -1.3355 -0.6794
 3215SOL    HW221105   4.266   2.055   1.209  0.0304  0.3763 -0.9755
 3216SOL     OW21106   3.494   2.800   8.590  0.4987 -0.6695  0.1389
 3216SOL    HW121107   3.489   2.838   8.677 -0.5545 -2.4915  0.8579
 3216SOL    HW221108   3.426   2.853   8.548  1.5209  1.3017  0.9809
 3217SOL     OW21109   3.166   2.116   5.142 -0.4700  0.2034 -0.4918
 3217SOL    HW121110   3.095   2.112   5.077 -0.9899  1.0705  0.0239
 3217SOL    HW221111   3.231   2.164   5.091 -1.5573  2.6959  0.4721
 3218SOL     OW21112   0.945   0.855   4.519 -0.2691  0.0317 -0.7882
 3218SOL    HW121113   0.996   0.887   4.593 -0.7813 -1.4537  0.1965
 3218SOL    HW221114   1.016   0.839   4.457  0.0336  0.7319 -0.6290
 3219SOL     OW21115   3.801   3.280  10.654 -0.0210  0.2799 -0.5345
 3219SOL    HW121116   3.821   3.291  10.747  0.6541  0.4800 -0.7030
 3219SOL    HW221117   3.847   3.200  10.630 -1.6803 -0.7022 -0.4983
 3220SOL     OW21118   0.349   0.520   6.939 -0.4533 -0.2262 -0.0266
 3220SOL    HW121119   0.347   0.533   7.033 -2.5223  0.2485 -0.1396
 3220SOL    HW221120   0.437   0.486   6.923  0.5108  1.4933  1.6183
 3221SOL     OW21121   1.280   2.964   4.719 -0.3801 -0.8265  0.6368
 3221SOL    HW121122   1.191   2.957   4.686 -0.3199 -0.6418  0.4403
 3221SOL    HW221123   1.322   2.882   4.692 -0.7051 -0.4627 -0.9521
 3222SOL     OW21124   2.643   0.670   4.053  0.8053 -0.5423  0.2202
 3222SOL    HW121125   2.562   0.645   4.097 -0.6245  0.0628 -2.0392
 3222SOL    HW221126   2.679   0.588   4.020  0.0574 -0.8191  0.0965
 3223SOL     OW21127   1.896   3.368   2.961 -0.3158  0.5958 -0.1558
 3223SOL    HW121128   1.928   3.376   2.871 -0.2369 -2.3853 -0.3912
 3223SOL    HW221129   1.821   3.428   2.964 -1.0415 -0.3117 -0.4272
 3224SOL     OW21130   4.524   3.877   7.745 -0.1569 -0.0850 -0.6569
 3224SOL    HW121131   4.584   3.839   7.809  0.9841  2.4965 -0.1658
 3224SOL    HW221132   4.441   3.899   7.788 -0.0404 -0.4911 -0.2275
 3225SOL     OW21133   4.003   3.651  14.731  0.2282 -0.2459 -0.3539
 3225SOL    HW121134   3.991   3.709  14.806  1.8486 -0.4492  0.0669
 3225SOL    HW221135   3.914   3.646  14.697  0.1731  3.0346 -0.7200
 3226SOL     OW21136   1.868   2.762   1.435  0.2332  0.1831  0.0729
 3226SOL    HW121137   1.799   2.802   1.383  0.1714  0.0904  0.0842
 3226SOL    HW221138   1.824   2.735   1.515 -0.2653  2.0057  0.4104
 3227SOL     OW21139   4.298   3.678   2.777  0.4341 -0.0834  0.3432
 3227SOL    HW121140   4.306   3.596   2.729 -0.4898 -0.0434  0.1358
 3227SOL    HW221141   4.284   3.636   2.862 -0.4353  1.8554  1.1603
 3228SOL     OW21142   3.738   3.813   8.770 -0.3981 -0.2930  0.1746
 3228SOL    HW121143   3.655   3.858   8.756 -1.5361 -1.3596  3.5914
 3228SOL    HW221144   3.789   3.866   8.831 -2.2063  2.0878 -0.3595
 3229SOL     OW21145   4.188   0.304   7.962  0.0529  0.4163 -0.1568
 3229SOL    HW121146   4.222   0.388   7.994 -0.0703  0.8277 -1.1031
 3229SOL    HW221147   4.138   0.285   8.041 -0.2281  0.4172 -0.3330
 3230SOL     OW21148   1.567   3.706  15.358 -0.3788  0.1262  0.6913
 3230SOL    HW121149   1.563   3.795  15.323 -0.6883 -1.1280 -2.4877
 3230SOL    HW221150   1.579   3.721  15.452  1.2739 -0.4423  0.5702
 3231SOL     OW21151   0.451   2.081  13.600  0.2524  0.1098 -0.1439
 3231SOL    HW121152   0.463   2.022  13.675 -2.5939  0.6244  0.7198
 3231SOL    HW221153   0.514   2.148  13.624  0.7475 -0.4196  0.0272
 3232SOL     OW21154   0.678   3.247  11.981 -0.4772  0.2447  0.1782
 3232SOL    HW121155   0.589   3.213  11.974  0.4592 -2.1471 -0.2069
 3232SOL    HW221156   0.702   3.242  11.889 -0.3616  1.5977  0.1324
 3233SOL     OW21157   1.717   4.643   4.364  0.4454  0.1249  0.4787
 3233SOL    HW121158   1.662   4.688   4.428 -0.1165  0.0861  0.0168
 3233SOL    HW221159   1.720   4.701   4.288 -0.7222  0.2935  0.5670
 3234SOL     OW21160   2.460   0.842   9.136 -0.5258 -0.5393  0.2508
 3234SOL    HW121161   2.394   0.777   9.111 -1.5521  1.2485 -1.7027
 3234SOL    HW221162   2.487   0.806   9.220 -1.2201 -0.6988  0.4078
 3235SOL     OW21163   0.988   3.518   8.422  0.5647  0.6237  0.2507
 3235SOL    HW121164   0.899   3.489   8.402  0.0697  1.8058  0.7315
 3235SOL    HW221165   0.990   3.566   8.505 -2.7292  0.0330  0.6855
 3236SOL     OW21166   1.561   2.530   5.751 -0.2853  0.0756 -0.7111
 3236SOL    HW121167   1.566   2.489   5.837 -3.2888  3.4761  1.0940
 3236SOL    HW221168   1.549   2.456   5.693  0.2167 -1.0470  0.6159
 3237SOL     OW21169   3.045   1.620   4.516  0.4936 -0.7004  0.1756
 3237SOL    HW121170   3.070   1.533   4.546  0.3806 -1.5779 -2.2531
 3237SOL    HW221171   3.114   1.680   4.547 -0.3368  0.6518 -0.5797
 3238SOL     OW21172   0.098   4.628  12.260 -0.2558  0.0275  0.1201
 3238SOL    HW121173   0.005   4.607  12.246  0.0355 -1.8088  1.0183
 3238SOL    HW221174   0.112   4.720  12.235 -1.9761  0.1401 -0.4325
 3239SOL     OW21175   3.668   0.451   9.381 -0.3299 -0.2106 -0.2447
 3239SOL    HW121176   3.761   0.473   9.385 -0.5809  0.9078 -0.8056
 3239SOL    HW221177   3.655   0.422   9.471 -0.0931  0.1165 -0.1056
 3240SOL     OW21178   3.838   2.845   8.629  0.0643  0.2479 -0.1952
 3240SOL    HW121179   3.797   2.886   8.705  1.2586 -1.3022  1.2891
 3240SOL    HW221180   3.775   2.783   8.593  2.1170 -0.7686 -2.0537
 3241SOL     OW21181   3.828   2.601   7.034 -0.3747 -0.6461  0.0612
 3241SOL    HW121182   3.780   2.673   7.075  2.0382  2.3339 -2.3571
 3241SOL    HW221183   3.752   2.547   7.014 -0.2845 -0.3209 -1.1373
 3242SOL     OW21184   1.835   3.958   4.075 -0.3470  0.4760  0.5250
 3242SOL    HW121185   1.762   4.018   4.086  0.7509  1.8515  0.4204
 3242SOL    HW221186   1.871   3.954   4.164 -2.4101 -0.3131  1.3173
 3243SOL     OW21187   3.423   1.796   8.113 -0.1040  0.0564 -0.4376
 3243SOL    HW121188   3.346   1.754   8.077  0.1595 -1.4051  0.6966
 3243SOL    HW221189   3.384   1.869   8.162 -0.7033 -0.9167  0.5353
 3244SOL     OW21190   0.554   4.408  12.208 -0.0917 -0.6885  0.1822
 3244SOL    HW121191   0.637   4.452  12.226 -1.4071  1.6689  0.4756
 3244SOL    HW221192   0.486   4.464  12.246  2.1075 -0.0679  3.1534
 3245SOL     OW21193   0.034   3.697   2.259 -0.0411  0.2152 -0.5392
 3245SOL    HW121194   4.665   3.729   2.266 -0.2258 -0.1522 -1.2067
 3245SOL    HW221195   0.062   3.755   2.188  1.7542 -1.4210 -1.1787
 3246SOL     OW21196   2.851   1.295  10.140  0.4223 -0.0174  0.0099
 3246SOL    HW121197   2.872   1.284  10.047  0.3332 -2.6491  0.3019
 3246SOL    HW221198   2.775   1.240  10.155  0.5144 -0.3254 -0.6455
 3247SOL     OW21199   4.419   4.219   0.062 -0.2401 -0.0364 -0.5421
 3247SOL    HW121200   4.357   4.169   0.115  0.5107 -0.7674 -0.3631
 3247SOL    HW221201   4.453   4.146   0.010  0.6964  0.3321 -0.4357
 3248SOL     OW21202   2.999   1.470   8.440 -0.1296  0.1823  1.0108
 3248SOL    HW121203   3.067   1.409   8.469  1.7983  1.9734  0.3300
 3248SOL    HW221204   2.957   1.416   8.373 -1.6500  1.9142  0.5469
 3249SOL     OW21205   1.556   3.764   2.548 -0.0250  0.6327 -0.5120
 3249SOL    HW121206   1.580   3.856   2.553  0.0674  0.5532  0.5540
 3249SOL    HW221207   1.493   3.750   2.619  0.9752  0.4616  0.3465
 3250SOL     OW21208   2.461   3.262   1.734  0.0728 -0.4726  0.2781
 3250SOL    HW121209   2.513   3.182   1.730  2.8230  1.3082  0.4697
 3250SOL    HW221210   2.419   3.244   1.650 -4.6570  0.3901  2.4032
 3251SOL     OW21211   2.777   1.234   7.209 -0.4152  0.3042 -0.4399
 3251SOL    HW121212   2.835   1.307   7.229 -0.2847 -0.5266  2.1698
 3251SOL    HW221213   2.690   1.261   7.239  0.1303  0.0362  1.3419
 3252SOL     OW21214   1.388   0.590   9.375  0.4378  0.0840  0.1846
 3252SOL    HW121215   1.450   0.575   9.447 -0.6187  0.9420  1.2746
 3252SOL    HW221216   1.327   0.650   9.419  0.1594  0.5114 -0.7802
 3253SOL     OW21217   3.478   1.312   3.389  1.0331  0.0424  0.3110
 3253SOL    HW121218   3.468   1.264   3.307  2.5462  0.3414 -0.0559
 3253SOL    HW221219   3.570   1.339   3.391  2.2760 -4.0947 -0.5501
 3254SOL     OW21220   1.623   4.247   6.432  0.0991 -0.3128  0.9987
 3254SOL    HW121221   1.662   4.334   6.429  1.2680 -0.9240 -1.7574
 3254SOL    HW221222   1.656   4.217   6.518  0.9320  1.3230  1.2478
 3255SOL     OW21223   2.177   1.268   8.962  0.0785  0.0764  0.6302
 3255SOL    HW121224   2.232   1.194   8.987 -1.8624 -1.0366  1.6409
 3255SOL    HW221225   2.191   1.264   8.867 -1.1438  2.4283  0.3577
 3256SOL     OW21226   3.922   0.829  15.021 -0.2878 -0.0966 -0.3027
 3256SOL    HW121227   3.924   0.898  14.955 -0.3822  0.0905 -0.1133
 3256SOL    HW221228   3.876   0.758  14.977  0.6010 -1.0710  0.3614
 3257SOL     OW21229   2.893   3.648   4.088 -0.1374  0.1140 -0.0491
 3257SOL    HW121230   2.811   3.607   4.058  0.4217 -1.6224  0.7977
 3257SOL    HW221231   2.896   3.717   4.021 -0.1148  0.2154  0.0576
 3258SOL     OW21232   3.447   0.261   2.143 -0.1742  0.4442  0.3342
 3258SOL    HW121233   3.385   0.272   2.215 -1.7118  2.4581 -1.2996
 3258SOL    HW221234   3.410   0.188   2.094 -1.4539  2.3600 -1.5342
 3259SOL     OW21235   2.159   1.725   3.036 -0.0564  0.0384  0.5134
 3259SOL    HW121236   2.226   1.665   3.004  1.1960  2.2461 -1.0322
 3259SOL    HW221237   2.130   1.677   3.114 -1.5683  0.1371  0.0204
 3260SOL     OW21238   1.391   3.051   2.421  0.0780  0.0518  0.6173
 3260SOL    HW121239   1.364   3.134   2.380  1.3485 -0.3500 -1.0079
 3260SOL    HW221240   1.404   3.001   2.341  1.2228  1.6436 -0.1886
 3261SOL     OW21241   3.647   0.436   6.255 -0.6306  0.3994  0.2181
 3261SOL    HW121242   3.692   0.516   6.283  0.5854 -0.6869  1.3599
 3261SOL    HW221243   3.637   0.453   6.161 -0.3131  0.7415  0.2464
 3262SOL     OW21244   3.739   4.574   5.668  0.3276  0.2015  0.1170
 3262SOL    HW121245   3.669   4.601   5.728  0.4051 -0.7801  0.6550
 3262SOL    HW221246   3.757   4.491   5.712  3.1502 -0.5695 -2.4794
 3263SOL     OW21247   0.305   2.386  11.199 -0.0961  0.4235  0.0469
 3263SOL    HW121248   0.222   2.420  11.166 -1.5343 -0.2259  3.0039
 3263SOL    HW221249   0.285   2.341  11.280 -0.0969 -0.4997 -0.4656
 3264SOL     OW21250   1.360   0.813  13.646  0.1263 -0.1187 -0.0100
 3264SOL    HW121251   1.287   0.848  13.594  0.8822  2.2436  0.4841
 3264SOL    HW221252   1.406   0.768  13.576  1.7010  0.6302  0.5332
 3265SOL     OW21253   3.404   4.084   6.106 -0.1139  0.1633  0.2133
 3265SOL    HW121254   3.309   4.079   6.119 -0.2862  1.4064 -0.5476
 3265SOL    HW221255   3.407   4.122   6.018 -1.9699 -3.1754 -1.2933
 3266SOL     OW21256   2.675   0.508  11.199 -0.0213  0.0967 -0.3538
 3266SOL    HW121257   2.736   0.525  11.271 -0.9431 -2.8767  1.1336
 3266SOL    HW221258   2.717   0.433  11.157 -0.8811 -0.4743 -0.1769
 3267SOL     OW21259   4.547   4.225   0.669  0.2462 -0.1551  0.0776
 3267SOL    HW121260   4.523   4.245   0.578  2.6248  1.5672 -0.1715
 3267SOL    HW221261   4.509   4.292   0.725 -1.5705 -1.0575 -0.0733
 3268SOL     OW21262   1.470   2.073   8.596 -0.2392 -0.0930  0.0548
 3268SOL    HW121263   1.481   2.092   8.502  2.0678 -2.1229 -0.0919
 3268SOL    HW221264   1.482   2.156   8.642 -0.0992 -0.7183  1.1259
 3269SOL     OW21265   4.701   2.882  12.456  0.9820  0.7583 -0.2985
 3269SOL    HW121266   0.030   2.957  12.425  1.3801  0.1233 -1.2040
 3269SOL    HW221267   4.620   2.907  12.412  1.4030  1.2804 -0.7823
 3270SOL     OW21268   4.698   1.487   7.768 -1.2194 -0.0120  0.3319
 3270SOL    HW121269   0.045   1.539   7.726 -0.7419 -0.3857  0.6469
 3270SOL    HW221270   4.622   1.542   7.745 -0.4562  0.6810 -0.5399
 3271SOL     OW21271   3.469   1.141   8.963  0.2518 -0.2745  0.1308
 3271SOL    HW121272   3.446   1.105   9.049 -0.1507 -1.3372 -0.4142
 3271SOL    HW221273   3.514   1.068   8.921  0.5572 -0.4158  0.7038
 3272SOL     OW21274   0.480   3.808   2.393 -0.0826 -0.1318 -0.5826
 3272SOL    HW121275   0.447   3.722   2.418 -0.8099  0.2726 -0.1698
 3272SOL    HW221276   0.569   3.774   2.376 -0.5079 -0.4875 -2.0939
 3273SOL     OW21277   3.172   3.354   2.622 -0.1337  0.3754  0.3993
 3273SOL    HW121278   3.217   3.432   2.590  0.2202 -1.1985 -2.8861
 3273SOL    HW221279   3.090   3.394   2.651  0.2907  1.1090  0.5788
 3274SOL     OW21280   2.993   2.743  15.982 -0.4253 -0.0577 -0.3915
 3274SOL    HW121281   2.945   2.722  15.902  0.0069  1.8599 -1.1638
 3274SOL    HW221282   3.066   2.798  15.954  0.0167 -0.0009  0.8592
 3275SOL     OW21283   4.221   0.036   1.362  0.5752 -0.0660  0.3573
 3275SOL    HW121284   4.262   0.123   1.367  0.1320  0.1469  0.2552
 3275SOL    HW221285   4.196   0.028   1.454  0.9213  2.0834  0.6447
 3276SOL     OW21286   2.652   2.387  16.796  0.1979 -0.2221  1.0029
 3276SOL    HW121287   2.578   2.340  16.834 -0.3931  0.4454  0.6697
 3276SOL    HW221288   2.684   2.321  16.735 -0.5129 -1.1334  1.6278
 3277SOL     OW21289   3.650   0.499  12.992 -0.1454  0.3627 -0.5591
 3277SOL    HW121290   3.710   0.455  12.931 -1.9198  0.8417 -2.6314
 3277SOL    HW221291   3.574   0.448  12.964  0.8587 -2.1433  1.2427
 3278SOL     OW21292   3.137   2.243   6.498  0.2340  0.0851 -0.3247
 3278SOL    HW121293   3.070   2.265   6.563 -0.8998  0.1361 -1.5058
 3278SOL    HW221294   3.154   2.327   6.455 -0.1016 -0.6273 -1.8440
 3279SOL     OW21295   1.119   2.728   5.115 -0.1926 -0.9079 -0.1055
 3279SOL    HW121296   1.153   2.672   5.045  1.1126 -0.3594  0.0842
 3279SOL    HW221297   1.026   2.744   5.098  0.2284 -1.1706 -2.6841
 3280SOL     OW21298   2.892   1.995   7.899 -0.0207  0.1865 -0.3011
 3280SOL    HW121299   2.807   1.951   7.896  0.0673 -0.0679  0.8272
 3280SOL    HW221300   2.903   2.005   7.805  1.7749 -0.8620 -0.2167
 3281SOL     OW21301   4.491   1.211   2.098 -0.0355 -0.3962  0.3765
 3281SOL    HW121302   4.490   1.139   2.035  0.8454 -0.6091  0.6043
 3281SOL    HW221303   4.433   1.176   2.165 -2.0101  1.8898 -0.1251
 3282SOL     OW21304   0.087   2.235   9.987 -0.2698 -0.1425  0.3474
 3282SOL    HW121305   0.113   2.163  10.045 -0.8849 -0.3246  0.4033
 3282SOL    HW221306   0.031   2.183   9.929 -0.3943 -0.5004  0.7807
 3283SOL     OW21307   1.903   0.248  11.925 -0.0168  0.1341 -0.0087
 3283SOL    HW121308   1.913   0.231  11.831  2.6842  0.8694  0.1618
 3283SOL    HW221309   1.913   0.160  11.961  0.5708  0.8910  1.6862
 3284SOL     OW21310   3.240   3.608   7.591  0.0886 -0.0527  0.6394
 3284SOL    HW121311   3.215   3.613   7.683 -1.0629  0.1128  0.3128
 3284SOL    HW221312   3.335   3.608   7.598  0.0596  0.2074  1.0261
 3285SOL     OW21313   2.019   1.935   0.357 -0.0219 -0.3882  0.2815
 3285SOL    HW121314   2.068   1.896   0.430  1.1746 -3.1318 -2.0017
 3285SOL    HW221315   2.066   1.905   0.279 -2.7108 -2.9597 -0.3325
 3286SOL     OW21316   3.478   2.056   6.967  0.1072  0.7032 -1.1102
 3286SOL    HW121317   3.520   1.991   6.911 -0.4270 -2.1395  1.7434
 3286SOL    HW221318   3.424   2.099   6.902  3.6373  1.9750 -3.2269
 3287SOL     OW21319   1.449   4.203   7.510 -0.8145 -0.3616 -0.4191
 3287SOL    HW121320   1.414   4.194   7.599  1.3337  1.0648  0.5677
 3287SOL    HW221321   1.391   4.277   7.492 -0.2563 -0.3714 -2.2567
 3288SOL     OW21322   3.673   4.029  10.345  0.0867 -0.0405 -0.0092
 3288SOL    HW121323   3.664   4.035  10.440 -2.2279 -2.1058 -0.0987
 3288SOL    HW221324   3.687   3.935  10.335  0.9871  0.2087 -1.0227
 3289SOL     OW21325   3.406   3.272   2.013 -0.2964 -0.2505  0.3189
 3289SOL    HW121326   3.377   3.195   2.062  0.1538 -1.1080 -0.7349
 3289SOL    HW221327   3.322   3.316   1.997 -0.1121 -0.5055 -1.4477
 3290SOL     OW21328   3.659   1.411   5.780 -0.1922 -0.0974 -0.3321
 3290SOL    HW121329   3.674   1.442   5.691 -0.1588  0.1042 -0.2563
 3290SOL    HW221330   3.563   1.413   5.780 -0.2010 -0.2705 -1.9804
 3291SOL     OW21331   0.097   0.747  16.371  0.1545 -0.2774 -0.2311
 3291SOL    HW121332   0.084   0.685  16.299 -2.6072  2.6271 -2.2518
 3291SOL    HW221333   0.160   0.816  16.348  1.0265 -0.6520  1.0172
 3292SOL     OW21334   2.777   3.672   5.381 -0.6240 -0.4741 -0.1547
 3292SOL    HW121335   2.757   3.677   5.288  0.4976 -0.7063 -0.4065
 3292SOL    HW221336   2.697   3.708   5.418 -1.4010 -0.2761 -2.0602
 3293SOL     OW21337   0.909   4.368   3.729 -0.1512  0.0440  0.1686
 3293SOL    HW121338   0.841   4.345   3.792  1.2603 -0.1820  1.6278
 3293SOL    HW221339   0.968   4.425   3.780  1.0772 -1.9049  0.9143
 3294SOL     OW21340   0.452   3.455   3.587  0.2216 -0.4860  0.0388
 3294SOL    HW121341   0.521   3.416   3.642 -0.0828 -0.6670  0.2888
 3294SOL    HW221342   0.467   3.546   3.611  0.1317 -0.4282 -0.1256
 3295SOL     OW21343   2.532   4.374   8.302 -0.4659 -0.0568 -0.0973
 3295SOL    HW121344   2.525   4.316   8.226 -1.7241  0.7049 -0.5532
 3295SOL    HW221345   2.617   4.415   8.285  0.2563 -1.0180  1.1884
 3296SOL     OW21346   3.404   2.191   9.224  0.2999 -0.0932 -0.2080
 3296SOL    HW121347   3.459   2.113   9.208 -1.6235 -1.2465 -1.1456
 3296SOL    HW221348   3.462   2.265   9.207  1.6699 -1.2170 -0.4674
 3297SOL     OW21349   3.731   3.407   7.058  0.1746 -0.3703 -0.4417
 3297SOL    HW121350   3.638   3.401   7.035 -0.5984  2.4489  1.8050
 3297SOL    HW221351   3.759   3.316   7.064  0.9004  0.0166  2.3073
 3298SOL     OW21352   1.794   0.024   5.954  0.4217 -0.4713 -0.7766
 3298SOL    HW121353   1.732   0.071   6.010  0.9866  0.9403 -1.3401
 3298SOL    HW221354   1.808   0.079   5.878 -0.7910  2.7451  1.3272
 3299SOL     OW21355   3.877   3.879   5.098 -0.4814  0.0787 -0.1541
 3299SOL    HW121356   3.935   3.807   5.076  0.5267  1.0034 -0.5513
 3299SOL    HW221357   3.789   3.842   5.107  0.6380 -2.2379  0.9375
 3300SOL     OW21358   3.144   2.829  17.372  0.5387 -0.1109  0.0131
 3300SOL    HW121359   3.115   2.804  17.459  1.6914  0.3118  0.5105
 3300SOL    HW221360   3.228   2.868  17.394 -0.1614  2.5861 -2.0088
 3301SOL     OW21361   4.532   2.060   0.564 -0.1039  0.0201 -0.4049
 3301SOL    HW121362   4.579   1.978   0.578  0.9641  0.5690 -0.7483
 3301SOL    HW221363   4.603   2.114   0.529 -0.0782  0.2331 -0.0266
 3302SOL     OW21364   2.062   3.656   6.512  0.3323 -0.4541 -0.5922
 3302SOL    HW121365   2.110   3.642   6.430 -0.3692 -2.0938 -0.7035
 3302SOL    HW221366   1.975   3.659   6.472 -0.8104 -1.8676  1.8171
 3303SOL     OW21367   2.544   0.090   5.356  0.3595 -0.0291  0.0021
 3303SOL    HW121368   2.455   0.092   5.391 -0.1720  1.1944 -1.4407
 3303SOL    HW221369   2.589   0.063   5.436 -1.5510  0.3920  1.2058
 3304SOL     OW21370   2.125   1.760   1.650 -0.4354  0.2875 -0.2814
 3304SOL    HW121371   2.182   1.710   1.592  0.0853 -0.0508  0.5312
 3304SOL    HW221372   2.187   1.762   1.722  0.5845 -2.3737 -1.0896
 3305SOL     OW21373   3.843   2.307   6.973 -0.4625  0.4289 -0.9394
 3305SOL    HW121374   3.887   2.272   7.050 -1.2216  0.1720 -0.6189
 3305SOL    HW221375   3.773   2.333   7.033 -1.6744 -4.6440 -0.1380
 3306SOL     OW21376   1.002   3.963   8.465  0.2299  0.3722  0.2225
 3306SOL    HW121377   0.920   3.972   8.512 -1.3332  1.0915 -2.6324
 3306SOL    HW221378   0.976   3.986   8.376 -2.7630  1.0211  1.2697
 3307SOL     OW21379   2.170   0.721   7.069  0.1585 -0.5676 -0.0668
 3307SOL    HW121380   2.136   0.713   7.158 -0.1713  0.5535 -0.1014
 3307SOL    HW221381   2.237   0.652   7.072  0.3643 -0.2864  2.2891
 3308SOL     OW21382   1.232   2.889   3.992 -0.0523  0.7829 -0.3353
 3308SOL    HW121383   1.324   2.893   3.967  0.0508 -1.9310 -0.3641
 3308SOL    HW221384   1.247   2.886   4.086 -1.9592  0.4930 -0.0224
 3309SOL     OW21385   1.809   4.355  14.387  0.1252 -0.1862 -0.1202
 3309SOL    HW121386   1.736   4.367  14.448  0.1015  0.4030 -0.2704
 3309SOL    HW221387   1.784   4.415  14.318 -0.4501 -0.1179  0.1490
 3310SOL     OW21388   4.634   4.445   0.048  0.1072  0.5787  0.7256
 3310SOL    HW121389   4.572   4.376   0.073  1.2570  0.3821  2.9787
 3310SOL    HW221390   4.577   4.491  17.671  2.8593 -0.5706 -2.5840
 3311SOL     OW21391   1.110   1.611  14.666 -0.5543  0.1727 -0.1162
 3311SOL    HW121392   1.131   1.586  14.576 -0.0487 -0.8593  0.2966
 3311SOL    HW221393   1.080   1.702  14.661 -0.6656  0.0802 -1.0608
 3312SOL     OW21394   1.198   0.911   7.858  0.2054 -0.4747 -0.4013
 3312SOL    HW121395   1.188   0.817   7.851 -1.6826 -0.1934 -1.3078
 3312SOL    HW221396   1.217   0.939   7.769  0.2097 -0.3715 -0.3686
 3313SOL     OW21397   2.281   4.355   3.374  0.2243  0.7302 -0.2552
 3313SOL    HW121398   2.364   4.334   3.416  0.8017  0.6108 -1.4572
 3313SOL    HW221399   2.227   4.284   3.408  0.5278  1.5648  2.0031
 3314SOL     OW21400   0.802   4.348   5.776  0.0626  0.1373 -0.1191
 3314SOL    HW121401   0.883   4.298   5.767  0.2087  0.3733 -0.1031
 3314SOL    HW221402   0.742   4.278   5.749  0.6995 -0.6055  0.4056
 3315SOL     OW21403   2.333   2.344   8.535 -0.1158  0.0801 -0.3767
 3315SOL    HW121404   2.394   2.404   8.491  0.4146 -0.0594  0.1806
 3315SOL    HW221405   2.386   2.265   8.544  0.0021  0.1868 -0.1508
 3316SOL     OW21406   1.012   3.276   0.912 -0.2059 -0.3668  0.1215
 3316SOL    HW121407   0.976   3.345   0.968  1.0855  0.0277  0.4780
 3316SOL    HW221408   0.932   3.261   0.862  0.2182  0.4821 -0.8252
 3317SOL     OW21409   4.669   1.163  14.626 -0.2124 -0.2146 -0.2346
 3317SOL    HW121410   4.673   1.131  14.536  1.0488 -1.2131  0.1711
 3317SOL    HW221411   4.603   1.106  14.664  0.3829  0.7489  2.2528
 3318SOL     OW21412   2.401   3.632  15.224  0.0711  0.3898  0.0095
 3318SOL    HW121413   2.443   3.628  15.138  3.3107 -0.2485  1.6429
 3318SOL    HW221414   2.317   3.675  15.205 -0.0151  1.1717  2.1035
 3319SOL     OW21415   0.228   1.517   0.682 -0.4410  0.5892 -0.0922
 3319SOL    HW121416   0.284   1.519   0.759 -1.1095  3.5804  0.3341
 3319SOL    HW221417   0.269   1.585   0.627  0.8045 -0.4449 -0.4416
 3320SOL     OW21418   3.501   0.885   4.264 -0.1475 -0.2453  0.0550
 3320SOL    HW121419   3.456   0.803   4.242 -0.7497  0.1116 -0.0526
 3320SOL    HW221420   3.442   0.922   4.330 -0.4086 -2.6307  1.1648
 3321SOL     OW21421   4.467   0.969   5.712  0.1369 -0.5019 -0.0469
 3321SOL    HW121422   4.379   0.987   5.679 -0.0539 -1.1767  0.0971
 3321SOL    HW221423   4.482   1.051   5.759 -1.7069 -0.0244 -0.3111
 3322SOL     OW21424   0.439   4.353  15.543 -0.2543 -0.3921 -0.1071
 3322SOL    HW121425   0.381   4.408  15.491 -1.9711 -0.0768  2.1447
 3322SOL    HW221426   0.451   4.276  15.488  0.4620  0.1262 -0.6695
 3323SOL     OW21427   1.643   3.418  15.687 -0.3366  0.1076 -0.1066
 3323SOL    HW121428   1.632   3.349  15.752  0.3739  1.6670  1.6560
 3323SOL    HW221429   1.738   3.427  15.681 -0.1067 -2.4380 -0.5791
 3324SOL     OW21430   0.899   2.281  10.885  0.1798 -0.1261  0.3467
 3324SOL    HW121431   0.852   2.205  10.917 -0.7081  0.0999 -0.4326
 3324SOL    HW221432   0.821   2.333  10.864  0.6546 -0.3126 -1.9842
 3325SOL     OW21433   3.285   1.168   5.692  0.6669 -0.4604 -0.2480
 3325SOL    HW121434   3.218   1.136   5.752 -0.8408  0.9115 -1.2066
 3325SOL    HW221435   3.268   1.110   5.618 -1.6663 -2.2873  1.7213
 3326SOL     OW21436   0.247   0.402  17.573  0.0177  0.0535  0.6452
 3326SOL    HW121437   0.153   0.392  17.556  0.2361  1.7561 -1.5242
 3326SOL    HW221438   0.276   0.331  17.516  1.2787  1.5382 -0.5462
 3327SOL     OW21439   0.855   3.526   2.521 -0.0833  0.3278 -0.1220
 3327SOL    HW121440   0.820   3.462   2.459 -0.1610 -1.2130  1.5148
 3327SOL    HW221441   0.943   3.498   2.548 -0.2805 -0.5473 -0.4028
 3328SOL     OW21442   3.842   2.998   3.193  0.9928 -0.0595  0.1558
 3328SOL    HW121443   3.811   3.077   3.149 -0.7335 -1.4680 -1.1757
 3328SOL    HW221444   3.832   2.927   3.129  2.2776 -0.2295  0.1397
 3329SOL     OW21445   2.815   1.862   8.585  0.6972  0.0043 -0.6946
 3329SOL    HW121446   2.726   1.888   8.611 -0.7203 -2.2837 -3.2639
 3329SOL    HW221447   2.818   1.788   8.645 -0.2555  0.0281 -0.6190
 3330SOL     OW21448   0.750   3.020   6.266  0.0077 -0.2017 -0.5198
 3330SOL    HW121449   0.782   3.094   6.215 -1.1071  1.1766  0.7520
 3330SOL    HW221450   0.704   2.961   6.206 -1.3391  1.1966 -0.8435
 3331SOL     OW21451   1.029   2.271  13.261 -0.4568  0.2613  0.3203
 3331SOL    HW121452   1.113   2.235  13.290  0.3315  0.6395 -1.4763
 3331SOL    HW221453   1.011   2.209  13.191 -0.4089  1.6406 -0.9021
 3332SOL     OW21454   4.076   1.626   4.521 -0.4319 -0.2484  0.6284
 3332SOL    HW121455   3.994   1.594   4.559 -1.4141  1.7603  0.1995
 3332SOL    HW221456   4.132   1.611   4.597 -2.4772 -1.9466  1.8037
 3333SOL     OW21457   4.579   0.414   4.687 -0.5823 -0.2538 -0.0502
 3333SOL    HW121458   4.590   0.506   4.708 -0.0519 -0.3709  0.1860
 3333SOL    HW221459   4.486   0.391   4.685 -0.2844 -1.3403 -1.1373
 3334SOL     OW21460   4.717   1.089   1.353 -0.1985 -0.1049 -0.5777
 3334SOL    HW121461   0.042   1.163   1.315 -0.2892  0.9392  1.3809
 3334SOL    HW221462   0.072   1.031   1.360 -0.4935 -0.3507  0.5551
 3335SOL     OW21463   3.245   3.558   3.228 -0.9150  0.5217  0.0394
 3335SOL    HW121464   3.172   3.608   3.194 -1.3915 -1.0847 -1.3093
 3335SOL    HW221465   3.210   3.469   3.230  2.8585 -0.9768 -0.3610
 3336SOL     OW21466   2.130   3.741   5.636 -0.0383 -0.5415  0.0908
 3336SOL    HW121467   2.096   3.759   5.724 -1.0221 -1.0881 -0.1849
 3336SOL    HW221468   2.079   3.671   5.596  2.6123 -1.6683 -1.2845
 3337SOL     OW21469   4.617   0.062   7.213  0.4889 -0.1595 -0.2882
 3337SOL    HW121470   4.591   4.719   7.147 -0.4065 -2.7084  2.5385
 3337SOL    HW221471   4.706   0.069   7.179  0.6576  0.0512  0.2120
 3338SOL     OW21472   2.589   0.077   3.123  0.8600  0.5384 -0.2749
 3338SOL    HW121473   2.528   0.035   3.064 -2.4129  2.6622  1.5868
 3338SOL    HW221474   2.603   0.166   3.090  0.5108  1.2694  1.4865
 3339SOL     OW21475   1.804   3.126   2.490 -0.2966 -0.3232 -0.1400
 3339SOL    HW121476   1.877   3.172   2.449 -0.3891 -0.2004 -0.1660
 3339SOL    HW221477   1.812   3.040   2.448  2.5026  0.3807 -1.0811
 3340SOL     OW21478   3.936   3.663  17.382  0.5576  0.5869  0.2644
 3340SOL    HW121479   3.949   3.647  17.476 -2.4720 -0.3457  0.5368
 3340SOL    HW221480   3.979   3.747  17.373  2.7564 -0.4009  1.6732
 3341SOL     OW21481   2.373   4.043  12.940  0.1042  0.4737 -0.3096
 3341SOL    HW121482   2.360   4.137  12.929 -1.3985  0.2072 -0.7595
 3341SOL    HW221483   2.452   4.049  12.994  0.8000  2.4178 -1.5132
 3342SOL     OW21484   2.817   0.203  14.392 -0.3434 -0.0551  0.2455
 3342SOL    HW121485   2.815   0.191  14.297 -1.2114 -0.6901  0.3421
 3342SOL    HW221486   2.730   0.241  14.403  0.1708  0.8892  1.1590
 3343SOL     OW21487   2.862   0.936   2.435  0.2507  0.0768  0.2106
 3343SOL    HW121488   2.876   0.851   2.393  1.4451  0.8059 -0.8559
 3343SOL    HW221489   2.767   0.939   2.426  0.3093  0.7347 -0.1843
 3344SOL     OW21490   4.381   3.057   8.508  0.9527 -0.7688 -0.0265
 3344SOL    HW121491   4.331   3.063   8.427  0.1241  0.8242  0.5957
 3344SOL    HW221492   4.411   3.148   8.513  1.3703 -0.9495  0.7921
 3345SOL     OW21493   3.621   2.135   3.342  0.1945 -0.4840  0.4312
 3345SOL    HW121494   3.560   2.122   3.414 -1.8361 -1.0529 -1.4086
 3345SOL    HW221495   3.709   2.139   3.381 -0.1073 -0.3202  1.0895
 3346SOL     OW21496   0.473   2.278   5.969  0.0171 -0.1846  0.7277
 3346SOL    HW121497   0.565   2.306   5.969 -0.4366  1.3401  1.4936
 3346SOL    HW221498   0.487   2.204   6.027  1.5710  0.0025  0.5969
 3347SOL     OW21499   2.719   2.388   2.637 -0.7908  0.6087  0.0392
 3347SOL    HW121500   2.760   2.450   2.576 -0.1389 -0.3780 -0.5483
 3347SOL    HW221501   2.648   2.358   2.580  1.5144 -1.3191 -1.8930
 3348SOL     OW21502   0.434   2.804   0.963  0.2979  0.6410  0.4822
 3348SOL    HW121503   0.500   2.770   0.901  0.0852  0.2551  0.4701
 3348SOL    HW221504   0.459   2.759   1.044 -1.5797  1.7290  1.6394
 3349SOL     OW21505   2.225   1.969  16.107  0.2396 -0.0786 -0.5673
 3349SOL    HW121506   2.226   1.940  16.198 -2.2173 -1.0031 -0.8583
 3349SOL    HW221507   2.301   2.027  16.102  0.3995 -0.2491 -0.1061
 3350SOL     OW21508   2.790   2.157   6.175  0.4932  0.2350 -0.1483
 3350SOL    HW121509   2.706   2.160   6.129  0.5793 -2.3794 -0.4921
 3350SOL    HW221510   2.770   2.125   6.263 -0.0717 -0.4634 -0.5259
 3351SOL     OW21511   2.066   4.461  17.582  0.0238 -0.2399 -0.5836
 3351SOL    HW121512   1.983   4.429  17.618  1.8453 -1.6076  2.3778
 3351SOL    HW221513   2.052   4.443  17.489  1.0263 -1.7014 -0.4443
 3352SOL     OW21514   2.541   1.585   9.018 -0.2219  0.6020  0.3597
 3352SOL    HW121515   2.489   1.618   9.092 -1.3185 -2.7720  1.1076
 3352SOL    HW221516   2.476   1.557   8.954  0.3115 -2.0876  0.9899
 3353SOL     OW21517   4.358   2.683   4.253  0.4993  0.5015  0.5672
 3353SOL    HW121518   4.340   2.704   4.161  1.1640  1.8942  0.7566
 3353SOL    HW221519   4.303   2.606   4.267  2.5580 -0.9239  0.7161
 3354SOL     OW21520   4.028   2.291  11.648 -0.1494 -0.1734  0.0106
 3354SOL    HW121521   4.097   2.285  11.582  0.3497 -1.9951  0.6893
 3354SOL    HW221522   4.036   2.386  11.657  2.7874 -0.4375  0.0327
 3355SOL     OW21523   0.643   2.931   9.604  1.0762  0.1941  0.3476
 3355SOL    HW121524   0.697   3.000   9.566  0.8805 -0.6611 -1.4875
 3355SOL    HW221525   0.696   2.853   9.623 -0.2351 -1.2086 -1.8194
 3356SOL     OW21526   3.372   2.317  14.093 -0.2018  0.4411 -0.5035
 3356SOL    HW121527   3.379   2.317  13.997 -0.1013  1.5743 -0.4971
 3356SOL    HW221528   3.309   2.389  14.095  2.1245  2.4814 -0.0229
 3357SOL     OW21529   2.119   3.366  11.217 -0.0962 -0.2140  0.7373
 3357SOL    HW121530   2.146   3.427  11.148 -0.3214  0.1072  0.9292
 3357SOL    HW221531   2.047   3.417  11.256 -0.2174  0.3087 -0.1707
 3358SOL     OW21532   2.949   2.930   1.531 -0.0809  0.6269  0.8804
 3358SOL    HW121533   2.900   2.902   1.608 -0.2903 -0.0206  0.5139
 3358SOL    HW221534   2.877   2.951   1.472  0.4032 -1.2037 -0.3548
 3359SOL     OW21535   1.531   1.260   8.155  0.0117 -0.2142 -0.3588
 3359SOL    HW121536   1.591   1.331   8.131 -1.8236  0.9572 -1.5183
 3359SOL    HW221537   1.594   1.188   8.160 -0.3618 -0.5631 -0.6678
 3360SOL     OW21538   3.947   1.150  11.274  0.1853 -1.0369  0.7268
 3360SOL    HW121539   4.036   1.119  11.255 -0.0422 -0.6882 -0.9310
 3360SOL    HW221540   3.901   1.132  11.191  0.2609  1.3363  0.1787
 3361SOL     OW21541   3.822   1.239  14.678 -0.4076  0.0984 -0.0726
 3361SOL    HW121542   3.901   1.186  14.666 -0.8184 -0.1685 -1.6389
 3361SOL    HW221543   3.773   1.229  14.596  0.4959 -0.7413 -0.5165
 3362SOL     OW21544   0.685   2.035  13.157 -0.6107  0.0453  0.3178
 3362SOL    HW121545   0.617   2.079  13.207 -0.2476  2.2771 -1.1453
 3362SOL    HW221546   0.755   2.099  13.163 -2.3739  1.8578  1.6686
 3363SOL     OW21547   1.347   4.169   6.723 -0.5124 -0.1427 -0.1342
 3363SOL    HW121548   1.383   4.130   6.802 -0.1749 -1.4736 -0.9437
 3363SOL    HW221549   1.399   4.122   6.658  2.0900  0.0195  1.8612
 3364SOL     OW21550   1.570   4.226   2.017  0.2577  0.8857 -0.1960
 3364SOL    HW121551   1.505   4.177   2.068 -0.4972 -0.9711 -2.8927
 3364SOL    HW221552   1.654   4.219   2.061  0.0189 -0.1518  0.0910
 3365SOL     OW21553   0.155   1.038  16.606 -0.0515 -0.0089 -0.0659
 3365SOL    HW121554   0.124   1.033  16.696  0.5418  1.5105  0.2206
 3365SOL    HW221555   0.248   1.018  16.620 -0.5474 -4.0050 -2.5082
 3366SOL     OW21556   3.924   2.402   2.695 -0.2336  1.2282  0.2069
 3366SOL    HW121557   3.857   2.373   2.633  0.2320  2.0175 -0.6612
 3366SOL    HW221558   3.870   2.440   2.765 -3.0668  3.4497 -3.1507
 3367SOL     OW21559   1.474   1.994   3.510  0.2425 -0.0137  0.4685
 3367SOL    HW121560   1.436   2.080   3.496 -1.4883 -0.8035  0.3824
 3367SOL    HW221561   1.560   2.020   3.544 -0.4508  3.1296 -0.2355
 3368SOL     OW21562   3.051   1.045   9.423  0.3707  0.2134 -0.0175
 3368SOL    HW121563   2.982   1.108   9.402 -0.6965 -0.3666  1.7510
 3368SOL    HW221564   2.998   0.968   9.403  0.9660  0.4465 -2.5670
 3369SOL     OW21565   2.597   3.800  11.604 -0.2818  0.2066  0.2077
 3369SOL    HW121566   2.672   3.762  11.649  0.7271 -1.2580 -2.6895
 3369SOL    HW221567   2.592   3.747  11.524  0.2286  0.3780  0.0651
 3370SOL     OW21568   0.030   4.607   3.803  0.1887 -0.3599  0.3821
 3370SOL    HW121569   4.694   4.590   3.727  0.2700 -1.9478  0.6907
 3370SOL    HW221570   0.035   4.523   3.849 -0.3020 -0.0545  0.9908
 3371SOL     OW21571   3.977   3.320   6.458 -0.4167 -0.3015  0.5892
 3371SOL    HW121572   3.900   3.267   6.434 -0.5096 -0.3788  1.0549
 3371SOL    HW221573   3.949   3.408   6.434 -0.1336 -0.1496  0.8364
 3372SOL     OW21574   3.438   0.923   5.002  0.3617  0.0122 -0.2565
 3372SOL    HW121575   3.468   0.873   5.078 -0.6959  1.5139  1.1479
 3372SOL    HW221576   3.436   0.856   4.934  1.9072  0.1725 -0.4540
 3373SOL     OW21577   0.611   2.661  13.870 -0.3309 -0.1482 -0.3533
 3373SOL    HW121578   0.646   2.650  13.781 -0.3958 -1.0382 -0.2673
 3373SOL    HW221579   0.561   2.743  13.860 -0.4526 -0.4392 -2.1678
 3374SOL     OW21580   2.052   1.815  13.303 -0.3539 -0.3266  0.7390
 3374SOL    HW121581   2.085   1.725  13.295  0.4569 -0.0552  0.9972
 3374SOL    HW221582   2.114   1.846  13.368  0.1934  0.8278 -0.3283
 3375SOL     OW21583   3.306   1.491   4.667  0.1109  0.2492 -0.0865
 3375SOL    HW121584   3.288   1.507   4.759  1.0767  1.7732 -0.1511
 3375SOL    HW221585   3.355   1.568   4.638 -1.3545  0.9987 -0.5785
 3376SOL     OW21586   3.221   2.020  17.383  0.4008 -0.2542  0.6720
 3376SOL    HW121587   3.179   2.095  17.341 -1.2243 -0.7356  1.4320
 3376SOL    HW221588   3.141   1.968  17.390  1.1798 -1.8614 -2.4521
 3377SOL     OW21589   1.194   4.183   7.890  0.0905 -0.0443  0.3470
 3377SOL    HW121590   1.244   4.113   7.847 -0.6124  0.8761 -1.9480
 3377SOL    HW221591   1.103   4.156   7.875  0.6834 -0.9529 -1.5645
 3378SOL     OW21592   3.911   0.654   3.696 -0.1177  0.6193 -0.1820
 3378SOL    HW121593   3.982   0.595   3.669  1.1992  1.5950  1.1794
 3378SOL    HW221594   3.888   0.620   3.783 -1.0463  0.8837 -0.3236
 3379SOL     OW21595   0.811   1.408  13.194  0.5653  0.3080 -0.5050
 3379SOL    HW121596   0.838   1.475  13.131 -0.0838  1.3152  0.2775
 3379SOL    HW221597   0.853   1.331  13.157 -0.1229 -0.2897 -0.0403
 3380SOL     OW21598   0.275   0.891   3.306 -0.1099 -0.3563 -0.2370
 3380SOL    HW121599   0.244   0.843   3.383  1.6781 -0.5380  0.3635
 3380SOL    HW221600   0.307   0.821   3.250 -1.4983 -0.2024 -1.2280
 3381SOL     OW21601   3.666   0.391   4.321  0.2140 -0.1657  0.0781
 3381SOL    HW121602   3.683   0.477   4.360 -0.4511 -0.0754  0.1620
 3381SOL    HW221603   3.594   0.362   4.377 -0.1072 -1.1773 -0.8665
 3382SOL     OW21604   3.537   0.488   5.667  0.8380 -0.1446  1.1540
 3382SOL    HW121605   3.530   0.427   5.594 -2.0731 -0.0301  1.3438
 3382SOL    HW221606   3.508   0.439   5.744  1.1538 -1.4471  0.4395
 3383SOL     OW21607   1.599   3.363   3.265  0.3394  0.2170 -0.7189
 3383SOL    HW121608   1.573   3.319   3.183 -0.1325 -2.2541  0.7476
 3383SOL    HW221609   1.559   3.450   3.259 -1.8716 -0.9011 -2.3566
 3384SOL     OW21610   3.547   0.613   3.030  0.5318  0.1851 -0.2611
 3384SOL    HW121611   3.571   0.705   3.025  0.1222  0.2286 -1.5362
 3384SOL    HW221612   3.464   0.619   2.983  0.2482  0.3831  0.2680
 3385SOL     OW21613   1.699   0.109   2.031 -0.5493 -0.3540  0.3701
 3385SOL    HW121614   1.707   0.187   1.976  1.1505  0.0196  1.1552
 3385SOL    HW221615   1.620   0.138   2.077  0.1793  1.0062  0.7611
 3386SOL     OW21616   1.924   4.634   2.417 -0.3072 -0.1960 -0.4699
 3386SOL    HW121617   1.929   4.711   2.360  2.5249 -0.2024 -0.2295
 3386SOL    HW221618   1.999   4.580   2.391  1.7167  1.3273  2.1623
 3387SOL     OW21619   2.701   2.786  11.425  0.2385  0.4812  0.5966
 3387SOL    HW121620   2.610   2.756  11.435  0.5295 -0.1994  1.2506
 3387SOL    HW221621   2.692   2.818  11.336 -2.6978  0.5298  0.8950
 3388SOL     OW21622   2.166   2.604   1.517 -0.0284  0.3827  0.3580
 3388SOL    HW121623   2.158   2.668   1.587  1.6977  1.4500 -0.4202
 3388SOL    HW221624   2.246   2.558   1.543 -0.4265 -0.9209 -0.7111
 3389SOL     OW21625   2.522   0.620   5.540  0.5082 -0.2828 -0.4258
 3389SOL    HW121626   2.496   0.645   5.452 -0.9926  1.0510  0.4028
 3389SOL    HW221627   2.491   0.529   5.542 -2.1221  0.6898  2.6260
 3390SOL     OW21628   3.140   0.113  14.737 -0.0595  0.3613  0.5517
 3390SOL    HW121629   3.095   0.054  14.677 -2.2555  1.7620  0.8185
 3390SOL    HW221630   3.215   0.145  14.687 -0.1539 -1.1483 -0.5555
 3391SOL     OW21631   1.030   4.593   3.534 -0.0920 -0.7183  0.1880
 3391SOL    HW121632   0.962   4.551   3.586  0.3412 -0.8364  0.6563
 3391SOL    HW221633   1.063   4.527   3.473 -0.4417  0.8089 -1.6582
 3392SOL     OW21634   1.566   3.090   8.435 -0.0497 -0.2121 -0.1976
 3392SOL    HW121635   1.540   3.086   8.527  0.0646 -3.4506 -0.3001
 3392SOL    HW221636   1.648   3.140   8.441  0.4135 -1.0396  0.3788
 3393SOL     OW21637   1.359   4.476   7.752  0.4979 -0.2841 -0.3847
 3393SOL    HW121638   1.355   4.500   7.659 -1.0564  1.0591  0.0191
 3393SOL    HW221639   1.293   4.407   7.761  0.3452 -0.1089 -0.1543
 3394SOL     OW21640   3.801   4.666  11.198 -0.7641  0.5515  0.0079
 3394SOL    HW121641   3.765   0.010  11.136  0.0151  0.0643 -0.9570
 3394SOL    HW221642   3.842   4.717  11.268 -2.7614  3.5034 -0.9518
 3395SOL     OW21643   0.927   2.823   7.683 -0.4295  0.0759 -0.1522
 3395SOL    HW121644   0.998   2.871   7.725  1.5994 -1.2651 -1.9715
 3395SOL    HW221645   0.973   2.803   7.601  0.3749 -0.8670  0.5291
 3396SOL     OW21646   0.536   1.064   5.252  0.1008 -0.0096 -0.0991
 3396SOL    HW121647   0.490   0.980   5.250  2.8498 -1.5089  0.4221
 3396SOL    HW221648   0.595   1.067   5.177 -2.3711  0.0786 -2.0415
 3397SOL     OW21649   3.219   4.594   7.383 -0.3434 -0.1592  0.7003
 3397SOL    HW121650   3.144   4.536   7.367 -1.7315  1.3791  1.5942
 3397SOL    HW221651   3.183   4.642   7.458 -0.4829 -1.0412  1.1991
 3398SOL     OW21652   2.342   0.787  12.104  0.4289 -0.0488  1.1021
 3398SOL    HW121653   2.315   0.695  12.098  2.5570 -0.5568 -1.0982
 3398SOL    HW221654   2.428   0.774  12.063 -1.3743  0.3419 -2.8491
 3399SOL     OW21655   2.203   1.491  13.614  0.0308 -0.7865  0.2135
 3399SOL    HW121656   2.184   1.491  13.707  1.2727  1.7541  0.4686
 3399SOL    HW221657   2.271   1.424  13.613 -0.2495 -1.0753  1.3327
 3400SOL     OW21658   0.329   3.481  12.226  0.0783 -0.1264 -0.1258
 3400SOL    HW121659   0.332   3.465  12.320 -2.5268 -1.4269 -0.2816
 3400SOL    HW221660   0.391   3.554  12.223  0.5734 -0.4762  1.4541
 3401SOL     OW21661   4.411   0.627   2.749  0.3832  0.5126 -0.0160
 3401SOL    HW121662   4.479   0.634   2.681 -0.2373  2.2230 -0.4561
 3401SOL    HW221663   4.372   0.542   2.732  0.7899  0.1058  1.0726
 3402SOL     OW21664   4.505   4.639   3.200 -0.5504 -0.4184 -0.2419
 3402SOL    HW121665   4.431   4.694   3.225  0.1718 -0.3502  1.7343
 3402SOL    HW221666   4.510   4.577   3.272 -0.1022 -0.8728 -0.6648
 3403SOL     OW21667   4.506   4.094   5.955 -0.4749 -0.0485 -0.4897
 3403SOL    HW121668   4.595   4.111   5.986  0.4692  0.2917 -3.3158
 3403SOL    HW221669   4.508   3.999   5.946  1.6328  0.1171 -1.8893
 3404SOL     OW21670   2.895   3.335   5.184 -0.1165  0.4732 -0.3474
 3404SOL    HW121671   2.928   3.246   5.168  1.6301  0.9622  0.5825
 3404SOL    HW221672   2.964   3.386   5.226  1.2830 -1.3232 -0.4265
 3405SOL     OW21673   0.634   0.956   2.189  0.4645 -0.0720 -0.2286
 3405SOL    HW121674   0.606   0.876   2.232 -0.4756  0.1641 -0.4145
 3405SOL    HW221675   0.623   1.024   2.255 -1.4509  1.3641 -2.0267
 3406SOL     OW21676   2.129   3.382   4.159  0.1925 -0.2426  0.2381
 3406SOL    HW121677   2.107   3.378   4.252  3.2213  0.1448  0.9753
 3406SOL    HW221678   2.041   3.396   4.122 -1.1467  0.7461  3.7623
 3407SOL     OW21679   0.923   1.156   3.420 -0.3962  0.3408  0.5684
 3407SOL    HW121680   0.858   1.184   3.484 -0.2063  1.2890  0.3488
 3407SOL    HW221681   0.875   1.146   3.337  0.1249 -0.8581  0.4078
 3408SOL     OW21682   4.030   0.178   8.813  0.5936  1.0854 -0.2627
 3408SOL    HW121683   3.935   0.191   8.817  0.6854  0.6088  3.2610
 3408SOL    HW221684   4.050   0.095   8.769  0.4442 -0.1134  1.9612
 3409SOL     OW21685   2.223   3.716   5.248 -0.1589 -0.3634  0.6422
 3409SOL    HW121686   2.179   3.650   5.301 -1.9370  0.6946  0.4943
 3409SOL    HW221687   2.168   3.795   5.250 -1.1461 -1.0769  1.3292
 3410SOL     OW21688   3.714   3.337   7.408 -0.2386 -0.1026  0.7172
 3410SOL    HW121689   3.619   3.321   7.402  0.0711 -1.8865  0.5785
 3410SOL    HW221690   3.760   3.264   7.449 -0.7856  0.1360  1.7510
 3411SOL     OW21691   1.035   0.894   3.818  0.3639 -0.0961  0.4859
 3411SOL    HW121692   1.041   0.984   3.787 -2.2615  0.8269  2.6702
 3411SOL    HW221693   0.946   0.867   3.797  0.0640  1.0502  0.2955
 3412SOL     OW21694   1.137   0.738   3.404 -0.5418  0.8074  0.7440
 3412SOL    HW121695   1.048   0.747   3.371  0.1312  0.4796 -1.1299
 3412SOL    HW221696   1.194   0.759   3.330 -0.5464 -0.8132  0.2685
 3413SOL     OW21697   0.954   1.989   4.798  0.5757  0.7523 -0.1383
 3413SOL    HW121698   1.049   1.983   4.786  0.6011 -0.2870  0.5928
 3413SOL    HW221699   0.935   2.069   4.750 -0.1575  1.1666  0.8348
 3414SOL     OW21700   4.372   2.218   0.992  0.0059 -0.0059 -0.2038
 3414SOL    HW121701   4.308   2.160   0.951 -0.9520  1.9824 -1.5381
 3414SOL    HW221702   4.380   2.188   1.082 -1.9866 -0.9349 -0.3347
 3415SOL     OW21703   3.911   0.616  17.010 -0.4249  0.1098  0.6942
 3415SOL    HW121704   3.825   0.633  16.969 -0.3362 -0.9923  0.0485
 3415SOL    HW221705   3.899   0.672  17.086  1.6856  0.4390  0.7632
 3416SOL     OW21706   1.206   2.948   7.772  0.5443 -0.2199  0.1194
 3416SOL    HW121707   1.209   2.853   7.777  0.5669 -0.2255 -0.0038
 3416SOL    HW221708   1.248   2.968   7.856 -1.7761 -0.4156  1.3130
 3417SOL     OW21709   3.501   0.157  14.713 -0.0659 -0.4815 -0.0133
 3417SOL    HW121710   3.431   0.190  14.658  0.7959 -2.0487 -2.0411
 3417SOL    HW221711   3.504   0.063  14.694  1.7613 -0.8711  2.1313
 3418SOL     OW21712   3.086   1.475  10.336  0.0231 -0.0925 -0.6017
 3418SOL    HW121713   3.111   1.385  10.314  1.8880  0.5229 -0.9566
 3418SOL    HW221714   3.036   1.472  10.418  0.0049  1.1407 -0.5672
 3419SOL     OW21715   3.914   4.339  17.510 -0.2934 -0.4060  0.2705
 3419SOL    HW121716   3.993   4.393  17.511 -1.9190  1.9798  0.7939
 3419SOL    HW221717   3.869   4.363  17.429  0.0893 -2.1600 -0.4556
 3420SOL     OW21718   3.671   3.557   2.867 -0.3226 -1.2268  0.3552
 3420SOL    HW121719   3.660   3.631   2.927  3.1634 -0.4257 -0.0126
 3420SOL    HW221720   3.764   3.537   2.863 -0.0501  0.0580  0.3887
 3421SOL     OW21721   4.274   0.100   1.937 -0.0495 -0.1212 -0.1037
 3421SOL    HW121722   4.220   0.155   1.880 -0.5040 -0.1742  0.2825
 3421SOL    HW221723   4.345   0.084   1.874  0.7988  0.1503  0.7892
 3422SOL     OW21724   1.700   4.526  13.548  0.2889  0.1367 -0.1332
 3422SOL    HW121725   1.616   4.569  13.535  1.3086  1.8327 -0.9928
 3422SOL    HW221726   1.730   4.558  13.633 -0.0970  1.3425 -0.4554
 3423SOL     OW21727   0.761   1.347   2.782 -0.0565 -0.4332 -0.4397
 3423SOL    HW121728   0.808   1.275   2.741 -1.7059 -2.4087  1.1118
 3423SOL    HW221729   0.816   1.421   2.758  1.3038 -1.1562  0.4540
 3424SOL     OW21730   1.264   4.266   4.454  0.6210 -0.5541 -0.3558
 3424SOL    HW121731   1.359   4.253   4.460  0.6363 -2.0745 -3.7420
 3424SOL    HW221732   1.237   4.210   4.526  2.6500 -3.5753 -1.9342
 3425SOL     OW21733   3.487   0.082   0.907 -0.0171  0.4566  0.4185
 3425SOL    HW121734   3.429   0.106   0.835 -0.5167 -2.6892 -0.1927
 3425SOL    HW221735   3.507   4.714   0.880  1.5722  0.9799 -0.1785
 3426SOL     OW21736   2.791   2.583   9.270 -0.3283 -0.5343 -0.0645
 3426SOL    HW121737   2.761   2.495   9.247 -3.7020  1.0941 -1.8409
 3426SOL    HW221738   2.839   2.551   9.347 -1.0927 -1.7243 -0.0704
 3427SOL     OW21739   1.124   4.135   0.816 -0.3085 -0.1089  0.0736
 3427SOL    HW121740   1.178   4.061   0.842 -3.1049 -1.7970  1.0611
 3427SOL    HW221741   1.125   4.131   0.720  0.1990 -0.0089  0.0783
 3428SOL     OW21742   0.429   4.037   1.826  0.0212  0.4152 -0.0187
 3428SOL    HW121743   0.386   3.963   1.783 -2.0155  0.6039  1.7208
 3428SOL    HW221744   0.512   3.993   1.841  0.1344  1.5531  2.6521
 3429SOL     OW21745   0.706   0.319   3.986 -0.6170  0.7570  0.3863
 3429SOL    HW121746   0.675   0.237   3.948  0.6023  1.3865 -1.9632
 3429SOL    HW221747   0.760   0.286   4.058  0.8225  2.1420 -0.0560
 3430SOL     OW21748   1.950   2.810   6.339 -0.1868  0.2641  0.7036
 3430SOL    HW121749   1.956   2.806   6.243  0.6024 -1.3336  0.8214
 3430SOL    HW221750   1.966   2.902   6.361 -0.3774  0.2928  0.7173
 3431SOL     OW21751   2.596   3.821   1.627  0.2282 -0.5843 -0.4226
 3431SOL    HW121752   2.612   3.860   1.713 -1.2608 -1.1017  0.0923
 3431SOL    HW221753   2.590   3.729   1.652 -2.3198 -0.8568 -2.1004
 3432SOL     OW21754   0.641   4.041   2.097 -0.6018 -0.2396  0.1834
 3432SOL    HW121755   0.673   3.976   2.033 -0.4733 -1.0401  1.0617
 3432SOL    HW221756   0.709   4.034   2.164 -1.1829  0.6284  0.8646
 3433SOL     OW21757   4.515   0.443   5.867 -0.0915 -0.3222 -0.2683
 3433SOL    HW121758   4.562   0.432   5.784 -1.1033 -1.0891 -0.7327
 3433SOL    HW221759   4.425   0.425   5.841 -0.4603  1.6265 -0.3763
 3434SOL     OW21760   2.162   0.280   6.033 -0.3169 -0.0900  0.2255
 3434SOL    HW121761   2.084   0.325   6.000  0.3382  0.0581 -1.1028
 3434SOL    HW221762   2.157   0.297   6.127  2.1632 -0.7351  0.4699
 3435SOL     OW21763   0.530   4.057   8.918 -0.0908 -0.4542  0.1456
 3435SOL    HW121764   0.576   4.131   8.878 -1.3209 -0.0319 -0.4920
 3435SOL    HW221765   0.561   4.065   9.008 -0.5503 -3.1891  0.5445
 3436SOL     OW21766   1.269   3.361   2.568  0.3231  0.1049 -0.2698
 3436SOL    HW121767   1.363   3.342   2.570  0.1748 -0.5967 -0.0974
 3436SOL    HW221768   1.247   3.389   2.656  0.9903 -2.7118  0.7902
 3437SOL     OW21769   3.220   4.357   7.559  0.3566  0.6485  0.5797
 3437SOL    HW121770   3.275   4.373   7.636  1.8186 -0.2825 -0.2730
 3437SOL    HW221771   3.251   4.425   7.500 -1.6981  1.4709  0.4372
 3438SOL     OW21772   0.378   4.581  12.345  0.3117 -0.3942 -0.4659
 3438SOL    HW121773   0.401   4.564  12.436 -0.8817 -1.0920 -0.2982
 3438SOL    HW221774   0.284   4.598  12.351  0.3222  0.2401 -2.1668
 3439SOL     OW21775   0.516   0.603  14.628  0.7802  0.0387  0.1617
 3439SOL    HW121776   0.444   0.551  14.592  0.2247 -0.8400  2.5098
 3439SOL    HW221777   0.579   0.593  14.557  1.9600 -0.3814  1.2823
 3440SOL     OW21778   2.474   1.679   2.364  0.0361  0.6143  0.9964
 3440SOL    HW121779   2.549   1.726   2.402  0.9918  0.3018 -0.5253
 3440SOL    HW221780   2.408   1.747   2.373 -0.9520  0.2980 -4.1266
 3441SOL     OW21781   0.004   0.113  10.448  0.0728 -0.2067  0.2286
 3441SOL    HW121782   4.675   0.048  10.400  2.7203 -2.9418  1.2247
 3441SOL    HW221783   0.059   0.063  10.508 -0.5810 -0.3073  0.7431
 3442SOL     OW21784   4.394   3.705  15.006  0.3136  0.4160  0.2506
 3442SOL    HW121785   4.487   3.706  15.028  0.4850  1.4277 -0.5124
 3442SOL    HW221786   4.408   3.748  14.922  1.4807  1.3661  0.9240
 3443SOL     OW21787   2.097   1.746   5.828 -0.0648 -0.4223 -0.4839
 3443SOL    HW121788   2.045   1.666   5.819  1.4253 -1.5419  0.7921
 3443SOL    HW221789   2.033   1.817   5.830  1.3911  0.8939 -0.7447
 3444SOL     OW21790   2.713   4.599   8.237  1.1181  0.3791 -0.0788
 3444SOL    HW121791   2.713   4.654   8.315 -1.5266  0.7993 -0.3687
 3444SOL    HW221792   2.790   4.544   8.253 -0.7632 -2.0836  0.5341
 3445SOL     OW21793   4.293   1.989  16.180  0.0548 -0.2016  0.1635
 3445SOL    HW121794   4.251   2.035  16.252 -1.2418  1.1555 -1.4465
 3445SOL    HW221795   4.357   1.942  16.233  1.4341  1.9433  0.3646
 3446SOL     OW21796   2.092   4.286   0.816 -0.6726 -0.1774 -0.0416
 3446SOL    HW121797   2.053   4.200   0.830 -2.5437  1.1583  2.9420
 3446SOL    HW221798   2.037   4.313   0.742  1.3693 -0.1156 -1.5423
 3447SOL     OW21799   4.137   3.960   4.502  0.0928  0.5775  0.1251
 3447SOL    HW121800   4.179   3.933   4.421  3.0183  3.6548  0.6028
 3447SOL    HW221801   4.093   3.877   4.523 -0.0285  0.7162  0.4276
 3448SOL     OW21802   2.553   1.318   5.134  0.7076 -0.0291 -0.1453
 3448SOL    HW121803   2.631   1.368   5.159 -0.6977  0.0678  4.0365
 3448SOL    HW221804   2.545   1.356   5.046  0.0885  1.6844  0.6552
 3449SOL     OW21805   4.042   2.595   2.937  0.0304  0.0021 -0.6340
 3449SOL    HW121806   4.114   2.598   2.874  0.8785  2.1503  0.4471
 3449SOL    HW221807   3.965   2.622   2.886  0.1855  1.3930 -0.1118
 3450SOL     OW21808   1.554   3.265   8.169 -0.2140 -0.4593 -0.1899
 3450SOL    HW121809   1.462   3.251   8.146 -0.5862  0.5171  0.7073
 3450SOL    HW221810   1.555   3.211   8.248 -1.5343 -1.2897 -0.7488
 3451SOL     OW21811   3.708   4.423  11.088  0.2294  0.7769  0.2465
 3451SOL    HW121812   3.712   4.494  11.153 -1.2160  2.6287 -1.7075
 3451SOL    HW221813   3.734   4.478  11.014  0.1740 -1.1592 -1.1852
 3452SOL     OW21814   1.178   4.119  13.037  0.4909  0.2514 -0.4483
 3452SOL    HW121815   1.239   4.131  13.110  0.1226  0.6268 -0.2036
 3452SOL    HW221816   1.211   4.038  12.998  1.0532  0.5704 -0.6309
 3453SOL     OW21817   0.491   2.763   5.014 -1.0638  0.2721 -0.5242
 3453SOL    HW121818   0.415   2.820   5.014 -0.6644  0.8191  1.5950
 3453SOL    HW221819   0.526   2.804   5.093 -0.4286  2.4572 -1.9450
 3454SOL     OW21820   1.118   2.707   8.961 -0.3575  0.1349  0.0999
 3454SOL    HW121821   1.023   2.719   8.948 -0.4090  0.2837  0.6252
 3454SOL    HW221822   1.128   2.724   9.055 -1.7729  3.9829 -0.4477
 3455SOL     OW21823   0.683   1.681  13.336 -0.1413  0.5906 -0.2424
 3455SOL    HW121824   0.588   1.676  13.338  0.0793 -3.1212  0.8363
 3455SOL    HW221825   0.686   1.736  13.257  0.1182 -0.2563 -0.8254
 3456SOL     OW21826   1.018   2.759   3.882  0.1502 -0.0469  0.3196
 3456SOL    HW121827   0.975   2.707   3.950 -0.2253 -0.3039 -0.1162
 3456SOL    HW221828   1.097   2.797   3.921  1.8567 -3.0248 -0.2158
 3457SOL     OW21829   4.194   0.209  17.584  0.7763  0.1888 -0.2428
 3457SOL    HW121830   4.244   0.237  17.661 -0.0182  1.5221 -0.2084
 3457SOL    HW221831   4.137   0.285  17.571 -0.1059 -0.1533  1.6546
 3458SOL     OW21832   0.704   3.182  12.889  0.2447  0.5423 -0.5081
 3458SOL    HW121833   0.791   3.185  12.848  1.6681  0.0239  2.4395
 3458SOL    HW221834   0.677   3.092  12.867 -2.4993  0.9390  1.2985
 3459SOL     OW21835   1.444   0.190   2.145  0.1539  0.1968 -0.1046
 3459SOL    HW121836   1.382   0.263   2.155 -0.6157 -0.6153  1.1410
 3459SOL    HW221837   1.499   0.209   2.221  1.5160 -1.8031 -0.5987
 3460SOL     OW21838   1.994   3.189   5.589  0.0751  0.0867 -0.0270
 3460SOL    HW121839   1.918   3.194   5.531  0.7917 -0.3338 -0.9948
 3460SOL    HW221840   1.963   3.233   5.668 -0.9797 -0.5228 -0.1004
 3461SOL     OW21841   3.620   1.701   5.777 -0.1744 -0.1597  0.2596
 3461SOL    HW121842   3.625   1.630   5.841  0.1497 -1.5435 -1.3022
 3461SOL    HW221843   3.528   1.724   5.787  0.4031  0.9246  3.0768
 3462SOL     OW21844   0.748   3.194   5.244 -0.4068  0.4313 -0.1962
 3462SOL    HW121845   0.798   3.194   5.163  0.7117  1.0873  0.4909
 3462SOL    HW221846   0.809   3.215   5.315  1.5904  1.1701 -2.1499
 3463SOL     OW21847   2.562   3.546   4.923  0.1343  0.2454  0.6783
 3463SOL    HW121848   2.503   3.616   4.951  0.4106  0.2578  1.2280
 3463SOL    HW221849   2.612   3.600   4.862 -0.3039  0.4780  0.5192
 3464SOL     OW21850   1.594   3.150   3.810 -0.4634 -0.2092 -0.2094
 3464SOL    HW121851   1.651   3.088   3.765  1.5052  0.1376  1.8492
 3464SOL    HW221852   1.660   3.186   3.869  0.5933  1.3213 -2.2961
 3465SOL     OW21853   0.778   4.004   4.917  0.5712  0.6815 -0.7826
 3465SOL    HW121854   0.698   3.965   4.882 -0.0330  0.3634  0.9815
 3465SOL    HW221855   0.765   3.995   5.011 -0.2264 -1.1560 -1.0635
 3466SOL     OW21856   0.603   0.568  14.353 -0.4052 -0.1497 -0.3727
 3466SOL    HW121857   0.623   0.634  14.288  0.9655  0.1943  0.4023
 3466SOL    HW221858   0.535   0.516  14.310 -1.8672 -0.5727  2.3932
 3467SOL     OW21859   3.036   3.420   6.861  0.7828  0.1652  0.1016
 3467SOL    HW121860   3.021   3.503   6.815  2.1095  0.5864  0.4330
 3467SOL    HW221861   3.108   3.451   6.916  1.6287 -4.2922  1.4848
 3468SOL     OW21862   1.540   1.647   2.183 -0.2855  0.4579  0.2927
 3468SOL    HW121863   1.635   1.655   2.179 -0.2220 -1.7236 -2.3842
 3468SOL    HW221864   1.515   1.738   2.198  1.3114  0.8478  0.6006
 3469SOL     OW21865   0.378   3.991   2.162 -0.5283  0.0206  0.8301
 3469SOL    HW121866   0.411   3.947   2.240 -1.6122 -1.7693  0.2744
 3469SOL    HW221867   0.460   4.027   2.128 -0.7616 -0.5712 -0.3617
 3470SOL     OW21868   3.308   2.507   5.533  0.4758 -0.1613 -0.1132
 3470SOL    HW121869   3.228   2.454   5.530  0.2100  0.2001  0.6431
 3470SOL    HW221870   3.290   2.556   5.613 -1.7450  1.5237 -1.6428
 3471SOL     OW21871   2.829   2.680  10.877  0.3886 -0.9685  0.1285
 3471SOL    HW121872   2.920   2.702  10.855  0.6729 -2.3478 -0.0880
 3471SOL    HW221873   2.810   2.756  10.932  1.1826  0.3118 -1.3616
 3472SOL     OW21874   0.120   3.520   4.944  0.3279  0.2924 -0.1820
 3472SOL    HW121875   0.059   3.473   4.887  1.7862 -0.4906 -1.1154
 3472SOL    HW221876   0.161   3.443   4.985 -0.7234  0.4074  1.0773
 3473SOL     OW21877   0.832   2.634   5.105  0.4080 -0.4542  0.3641
 3473SOL    HW121878   0.862   2.624   5.015 -0.1763 -0.9629  0.2282
 3473SOL    HW221879   0.758   2.694   5.093  1.0796  0.3551  0.2965
 3474SOL     OW21880   1.803   1.290   5.906 -0.0290 -0.1054  0.2015
 3474SOL    HW121881   1.877   1.350   5.899 -0.3638  0.5285  1.8577
 3474SOL    HW221882   1.823   1.206   5.946 -1.8754 -1.8141 -2.4694
 3475SOL     OW21883   3.449   4.692   8.628 -0.3036  0.1686 -0.4155
 3475SOL    HW121884   3.538   4.688   8.592  0.8109  1.3189  2.2536
 3475SOL    HW221885   3.464   4.641   8.708 -0.5348 -1.1960 -1.2391
 3476SOL     OW21886   3.199   0.965  10.269  0.3152  0.0638 -0.4558
 3476SOL    HW121887   3.268   0.933  10.328 -2.5012 -3.9224  0.6790
 3476SOL    HW221888   3.137   0.893  10.258 -1.6357  1.7853 -0.6093
 3477SOL     OW21889   2.220   2.716   6.898 -0.0748 -0.1229 -0.1204
 3477SOL    HW121890   2.130   2.721   6.867  0.2652  0.8731 -0.9710
 3477SOL    HW221891   2.215   2.626   6.930  0.1309 -0.2850 -0.5474
 3478SOL     OW21892   2.468   4.483  10.893 -0.2112 -0.2870 -0.2240
 3478SOL    HW121893   2.515   4.463  10.813 -0.6085  1.0585 -0.8023
 3478SOL    HW221894   2.527   4.440  10.955  0.3837 -1.5216 -1.6704
 3479SOL     OW21895   2.787   0.871  12.515 -0.1917 -0.0357  0.5875
 3479SOL    HW121896   2.718   0.911  12.461 -0.5997 -1.6735 -0.1048
 3479SOL    HW221897   2.729   0.821  12.572  0.8672 -0.2715  1.4533
 3480SOL     OW21898   3.524   4.237   5.602  0.0169  0.1719  0.3579
 3480SOL    HW121899   3.436   4.260   5.571 -1.4153 -1.0192  3.5549
 3480SOL    HW221900   3.568   4.291   5.536 -0.0189 -1.5163 -1.0702
 3481SOL     OW21901   3.223   3.011   8.224 -0.6265 -0.6886  0.2563
 3481SOL    HW121902   3.178   2.999   8.141  0.1017  0.0801 -0.2528
 3481SOL    HW221903   3.199   3.100   8.252  1.0032 -0.8740  2.3007
 3482SOL     OW21904   3.982   2.235   7.179  0.3464 -0.7665  0.6591
 3482SOL    HW121905   3.973   2.141   7.197 -2.0743 -0.5547  0.5636
 3482SOL    HW221906   4.075   2.232   7.156  0.3950  0.4094  0.6973
 3483SOL     OW21907   1.661   3.654   7.529  0.0379  0.1513  0.0715
 3483SOL    HW121908   1.701   3.568   7.514  1.0284  0.4982  0.7915
 3483SOL    HW221909   1.730   3.720   7.521  1.5573 -1.2377  1.8082
 3484SOL     OW21910   1.685   2.604  15.191  0.3706  0.0003  0.4226
 3484SOL    HW121911   1.699   2.684  15.241 -0.4071  0.6047 -0.3343
 3484SOL    HW221912   1.632   2.554  15.253 -0.9274  0.9788  0.0908
 3485SOL     OW21913   0.914   0.976  12.865  0.2841 -0.1895  0.2633
 3485SOL    HW121914   0.894   0.883  12.865 -1.0373  0.1016  1.0832
 3485SOL    HW221915   1.010   0.980  12.868  0.3705 -1.9976 -0.1989
 3486SOL     OW21916   2.673   3.271   7.063 -0.4140 -0.6267 -0.3444
 3486SOL    HW121917   2.681   3.366   7.054 -1.5793 -0.5728 -0.9079
 3486SOL    HW221918   2.579   3.269   7.042 -0.1064 -1.6789 -1.6183
 3487SOL     OW21919   0.995   2.599   5.559 -0.3131  0.1054  0.1586
 3487SOL    HW121920   0.987   2.574   5.467 -0.6928  1.7392 -0.2474
 3487SOL    HW221921   1.080   2.642   5.547 -0.4417 -0.0454 -1.4119
 3488SOL     OW21922   4.322   0.296   7.356 -0.0746 -0.0056  0.0033
 3488SOL    HW121923   4.372   0.299   7.275 -0.9662  1.0488 -0.4877
 3488SOL    HW221924   4.392   0.280   7.420 -0.8901 -0.6980  0.7224
 3489SOL     OW21925   0.513   4.377   5.819  0.3046  0.4009 -0.3351
 3489SOL    HW121926   0.543   4.300   5.772 -0.6606  0.6846 -1.4176
 3489SOL    HW221927   0.499   4.434   5.743 -0.3690  0.7256  0.0354
 3490SOL     OW21928   0.489   3.675   8.480  0.1364 -0.1032 -0.5949
 3490SOL    HW121929   0.564   3.617   8.489  0.9172  0.4925 -3.1950
 3490SOL    HW221930   0.536   3.758   8.477  0.0876 -0.0789 -0.6912
 3491SOL     OW21931   3.516   0.572   9.126 -0.5064 -0.5548 -1.3676
 3491SOL    HW121932   3.547   0.553   9.214  1.3271  0.1243 -1.8544
 3491SOL    HW221933   3.444   0.509   9.117 -0.0663 -0.9529 -2.1076
 3492SOL     OW21934   2.534   4.316   3.539  0.1502  0.7898 -0.9568
 3492SOL    HW121935   2.581   4.333   3.457  0.6321  1.5008 -0.5237
 3492SOL    HW221936   2.564   4.231   3.573 -0.1668  1.1972  0.3226
 3493SOL     OW21937   1.641   0.604   9.218 -0.1782 -0.4638 -0.4702
 3493SOL    HW121938   1.697   0.526   9.212 -1.6172 -1.3295 -2.6985
 3493SOL    HW221939   1.613   0.603   9.310  1.2467  0.8163 -0.0155
 3494SOL     OW21940   3.623   2.983   4.678 -0.0884  0.2412  0.2329
 3494SOL    HW121941   3.605   3.002   4.586  0.1973  0.3079  0.1932
 3494SOL    HW221942   3.687   3.053   4.690 -0.5340  0.5418  0.8972
 3495SOL     OW21943   2.803   0.322   5.063  0.5939  0.4061  0.3750
 3495SOL    HW121944   2.723   0.326   5.115  0.0802  0.3068 -0.4031
 3495SOL    HW221945   2.824   0.415   5.077 -1.8259  1.3367 -2.1400
 3496SOL     OW21946   1.716   1.723   3.559  0.0859  0.0262  0.4678
 3496SOL    HW121947   1.754   1.766   3.483  1.9202 -0.0536  1.3426
 3496SOL    HW221948   1.732   1.797   3.619  1.3263  0.4096 -0.3389
 3497SOL     OW21949   0.312   0.806  14.580  0.0841 -0.0717  0.5348
 3497SOL    HW121950   0.377   0.740  14.556  0.1844  0.5208 -0.8130
 3497SOL    HW221951   0.352   0.844  14.659 -0.9179 -1.2091  1.5977
 3498SOL     OW21952   3.340   1.217   9.956  0.5323 -0.0204  0.6117
 3498SOL    HW121953   3.320   1.302   9.915 -1.4540 -1.2317 -0.9276
 3498SOL    HW221954   3.254   1.195   9.993 -0.0377 -1.7464 -1.7665
 3499SOL     OW21955   1.506   0.467   6.083 -0.1421 -1.2875 -0.2527
 3499SOL    HW121956   1.516   0.384   6.036 -1.9793 -1.2015 -0.8127
 3499SOL    HW221957   1.521   0.528   6.011  3.3049  0.2291  1.7381
 3500SOL     OW21958   2.115   2.033   6.808  0.1933  0.2007  0.6569
 3500SOL    HW121959   2.102   1.965   6.874  0.5129  1.3972  1.9402
 3500SOL    HW221960   2.133   1.971   6.737  0.9695  1.5862 -0.3392
 3501SOL     OW21961   1.047   3.484   5.248  0.0440  0.0627  0.4691
 3501SOL    HW121962   0.999   3.404   5.269  0.0704 -0.1871 -0.3923
 3501SOL    HW221963   1.071   3.464   5.157 -0.5776  3.2132 -0.4018
 3502SOL     OW21964   2.769   0.303   1.387  0.0723 -0.3922 -0.0692
 3502SOL    HW121965   2.799   0.389   1.358  0.1195 -0.1023  0.8233
 3502SOL    HW221966   2.736   0.311   1.477 -1.1714  0.8452 -0.6317
 3503SOL     OW21967   3.216   1.026   3.216  0.5439  0.3369  0.8778
 3503SOL    HW121968   3.273   1.068   3.281  1.9467 -2.0596  1.1861
 3503SOL    HW221969   3.145   0.994   3.271 -1.7762  1.7605 -1.2830
 3504SOL     OW21970   0.583   2.549   5.737 -0.3712  0.1760 -0.3594
 3504SOL    HW121971   0.524   2.597   5.796 -0.0559 -0.3442  0.3864
 3504SOL    HW221972   0.653   2.612   5.722  1.2752 -0.8650  2.9820
 3505SOL     OW21973   1.723   3.831   6.089 -0.5506  0.1708  0.2942
 3505SOL    HW121974   1.670   3.869   6.020 -1.7877 -1.8848  0.1220
 3505SOL    HW221975   1.802   3.884   6.086 -1.6942  1.8908  0.5247
 3506SOL     OW21976   3.988   2.865   5.173 -0.2879  0.0178  0.6432
 3506SOL    HW121977   4.062   2.885   5.231 -0.1970 -0.3880  0.6694
 3506SOL    HW221978   3.917   2.850   5.235 -1.4020  1.0954 -0.3543
 3507SOL     OW21979   1.741   1.189   2.955  0.3371  0.0758  0.2286
 3507SOL    HW121980   1.699   1.110   2.922 -1.0725  0.7198  0.4785
 3507SOL    HW221981   1.695   1.259   2.908 -1.9826 -1.0602  0.8032
 3508SOL     OW21982   3.619   0.187  10.599  0.1715 -0.3701  0.1906
 3508SOL    HW121983   3.596   0.214  10.689  0.1180  2.5314 -0.7023
 3508SOL    HW221984   3.549   0.131  10.566  1.0251 -0.3669 -1.5724
 3509SOL     OW21985   2.295   1.022   9.421 -0.1523  0.2093 -0.4772
 3509SOL    HW121986   2.296   1.090   9.354 -2.2907  0.6980 -0.0254
 3509SOL    HW221987   2.233   1.052   9.488 -0.6584  1.0545 -1.3226
 3510SOL     OW21988   2.089   0.880   0.640  0.2186  0.4309  0.2628
 3510SOL    HW121989   2.017   0.830   0.677  1.0424  0.6172  2.1536
 3510SOL    HW221990   2.164   0.826   0.664 -0.7574 -0.6156  0.9084
 3511SOL     OW21991   0.952   2.359  14.457  0.8174 -0.6020 -0.0333
 3511SOL    HW121992   1.028   2.410  14.485  1.0277 -0.7753 -0.2898
 3511SOL    HW221993   0.953   2.290  14.523 -4.0047 -0.9119 -0.2597
 3512SOL     OW21994   4.615   2.753  16.181  0.1689 -0.1445 -0.8415
 3512SOL    HW121995   4.560   2.753  16.259 -0.4025 -0.2576 -1.2387
 3512SOL    HW221996   4.698   2.770  16.225  0.2074  1.3072 -1.4897
 3513SOL     OW21997   2.439   0.443   4.797 -0.1009 -0.4097  0.8250
 3513SOL    HW121998   2.389   0.494   4.859  0.3951 -1.1956  1.8713
 3513SOL    HW221999   2.476   0.517   4.748  1.0718 -0.7366  1.1993
 3514SOL     OW22000   0.466   0.976   0.670 -0.4489  0.0567  0.1664
 3514SOL    HW122001   0.536   0.965   0.734 -1.1007  2.7429  1.3148
 3514SOL    HW222002   0.463   0.890   0.627 -2.2876  0.8316 -1.2636
 3515SOL     OW22003   2.689   0.547  15.030  0.4563  0.4114 -0.1614
 3515SOL    HW122004   2.733   0.623  14.992 -0.7572  1.8875  1.3988
 3515SOL    HW222005   2.599   0.561  15.001  0.6110  0.3245 -0.6823
 3516SOL     OW22006   3.641   2.239  15.108 -0.0439  0.4126  0.7617
 3516SOL    HW122007   3.690   2.192  15.175  2.6166  1.3963 -0.4835
 3516SOL    HW222008   3.684   2.227  15.023  2.0408 -0.2722  1.9094
 3517SOL     OW22009   2.894   0.801  10.038 -0.3792 -0.1858  0.3189
 3517SOL    HW122010   2.827   0.738  10.012  0.7260 -1.2024 -0.0961
 3517SOL    HW222011   2.936   0.762  10.115  1.8843 -0.2608 -0.9304
 3518SOL     OW22012   4.036   1.112   2.925  0.1017 -0.2142  0.2742
 3518SOL    HW122013   3.982   1.190   2.937 -0.3074 -0.7045  1.5864
 3518SOL    HW222014   4.112   1.151   2.881  0.3502 -0.5183  0.4407
 3519SOL     OW22015   0.360   1.042  11.364 -0.3991 -0.0458  0.1060
 3519SOL    HW122016   0.379   1.094  11.442  1.5335  2.6906 -2.1973
 3519SOL    HW222017   0.441   1.048  11.313 -0.4693 -0.7676 -0.0929
 3520SOL     OW22018   3.042   2.261   4.108 -0.1930  0.3540  0.0732
 3520SOL    HW122019   2.988   2.215   4.043 -0.2783 -1.7768  1.6472
 3520SOL    HW222020   3.008   2.350   4.098 -0.1936  0.2796 -0.5519
 3521SOL     OW22021   3.321   3.835   9.078  0.4742  0.5377  0.0994
 3521SOL    HW122022   3.286   3.758   9.033  1.6853 -0.1595  0.3269
 3521SOL    HW222023   3.246   3.892   9.063 -0.5247 -0.4300  1.3994
 3522SOL     OW22024   2.355   1.843  14.628 -0.0744  0.8280 -0.2443
 3522SOL    HW122025   2.361   1.922  14.574  0.6834 -0.9862 -2.7576
 3522SOL    HW222026   2.323   1.777  14.567  1.0649 -1.7529  1.9876
 3523SOL     OW22027   0.857   1.016   1.557  0.2130  0.0761  0.1731
 3523SOL    HW122028   0.918   0.954   1.597 -0.2928 -0.8181 -0.4340
 3523SOL    HW222029   0.785   0.987   1.614 -0.9754  1.7637 -0.4712
 3524SOL     OW22030   3.714   1.102   9.805  0.4601 -0.1862  0.1667
 3524SOL    HW122031   3.684   1.126   9.718 -0.8774  0.3702  0.7750
 3524SOL    HW222032   3.642   1.130   9.862  0.4540  1.2013 -0.5204
 3525SOL     OW22033   4.292   1.447   0.731  0.0693 -0.1652 -0.0959
 3525SOL    HW122034   4.287   1.352   0.746 -2.4883 -0.0133  0.0901
 3525SOL    HW222035   4.229   1.462   0.660 -1.0568  1.8941  1.3428
 3526SOL     OW22036   4.576   3.788   3.741 -0.1289  0.1938  0.1024
 3526SOL    HW122037   4.528   3.740   3.809  0.2503  0.1530  0.3365
 3526SOL    HW222038   4.577   3.882   3.757 -0.1199  0.5907 -2.1618
 3527SOL     OW22039   3.424   0.844   8.298  0.5244  0.6072 -0.0615
 3527SOL    HW122040   3.484   0.908   8.336 -0.3081  1.6423 -0.4651
 3527SOL    HW222041   3.442   0.762   8.343 -0.5748  0.8232  0.7690
 3528SOL     OW22042   2.311   3.590   3.529  0.1812  0.3310  0.0438
 3528SOL    HW122043   2.235   3.543   3.497  0.2487 -0.8077  1.5439
 3528SOL    HW222044   2.383   3.540   3.491  0.8787  0.3870  1.2992
 3529SOL     OW22045   1.142   4.408   6.256  0.6534  0.0520  0.3179
 3529SOL    HW122046   1.167   4.346   6.188 -0.2153  1.0122 -0.8827
 3529SOL    HW222047   1.183   4.362   6.329 -0.3015 -1.4330 -0.0949
 3530SOL     OW22048   0.949   2.673   5.894  0.1534  0.2903 -0.1418
 3530SOL    HW122049   1.011   2.623   5.948  0.3188  0.7274  0.0774
 3530SOL    HW222050   0.877   2.669   5.957 -0.0217  0.6078 -0.3199
 3531SOL     OW22051   1.330   2.613   4.325 -0.1575 -0.1770  0.3049
 3531SOL    HW122052   1.266   2.577   4.263 -0.4996  0.6841  0.1480
 3531SOL    HW222053   1.400   2.549   4.315 -0.3175  0.0320 -2.3340
 3532SOL     OW22054   2.361   3.270  11.270  0.2547 -0.0231 -0.4079
 3532SOL    HW122055   2.403   3.345  11.311 -0.0509  0.8197 -1.6468
 3532SOL    HW222056   2.273   3.306  11.266 -0.2805 -1.1709  0.8189
 3533SOL     OW22057   0.604   1.597  16.434 -0.6523 -0.6797 -0.3606
 3533SOL    HW122058   0.693   1.631  16.445 -0.1336 -1.9622 -0.5937
 3533SOL    HW222059   0.612   1.502  16.444 -1.9470 -0.7132  0.3521
 3534SOL     OW22060   0.532   1.151   8.529 -0.4299  0.4173 -0.0237
 3534SOL    HW122061   0.570   1.080   8.478 -0.7830 -0.2924  0.7045
 3534SOL    HW222062   0.448   1.157   8.483 -0.2541 -0.6736 -0.4760
 3535SOL     OW22063   3.495   0.727   5.960  0.4680  0.3181  0.5418
 3535SOL    HW122064   3.525   0.787   5.891  1.3017 -0.2020  0.4455
 3535SOL    HW222065   3.412   0.696   5.922  0.8064  0.3034 -0.1901
 3536SOL     OW22066   3.754   1.137   2.787 -0.5177 -0.2366  0.3081
 3536SOL    HW122067   3.767   1.189   2.708  1.7626 -3.3900 -1.4182
 3536SOL    HW222068   3.761   1.048   2.750 -3.0038  0.5224 -1.9957
 3537SOL     OW22069   0.732   1.549   0.506  0.3562 -0.6745 -0.3286
 3537SOL    HW122070   0.793   1.611   0.467  0.5437  0.2005  1.3175
 3537SOL    HW222071   0.768   1.527   0.592  1.2297 -3.1996 -1.3598
 3538SOL     OW22072   3.391   0.720   4.619 -0.0367  0.1875  0.7294
 3538SOL    HW122073   3.325   0.730   4.687 -0.8297  0.2605 -0.0436
 3538SOL    HW222074   3.447   0.792   4.645  1.3160 -0.0216 -1.5673
 3539SOL     OW22075   3.406   0.275   2.950 -0.5124 -0.4224 -0.2428
 3539SOL    HW122076   3.381   0.251   3.039 -1.3249  0.1609 -0.3175
 3539SOL    HW222077   3.333   0.236   2.902 -1.7548  0.4322  0.9631
 3540SOL     OW22078   1.750   2.807  16.415  0.1275  0.3077  0.0510
 3540SOL    HW122079   1.702   2.884  16.385 -1.2171 -0.2959  0.6941
 3540SOL    HW222080   1.726   2.813  16.507 -1.7736 -0.2017 -0.4109
 3541SOL     OW22081   0.512   3.112   8.591 -0.1854 -0.3410 -0.1078
 3541SOL    HW122082   0.478   3.044   8.533  1.5229 -0.7506 -0.6147
 3541SOL    HW222083   0.488   3.073   8.675  1.1620  1.4893  1.1084
 3542SOL     OW22084   1.279   3.920   2.035  0.9016 -0.3791  0.1872
 3542SOL    HW122085   1.313   3.834   2.011  0.0678 -1.2080  1.9433
 3542SOL    HW222086   1.355   3.942   2.089  0.7068 -0.7203  0.5969
 3543SOL     OW22087   1.269   1.861   8.575 -0.7015  0.0123  0.6450
 3543SOL    HW122088   1.338   1.922   8.550 -1.2135  1.1634  1.9675
 3543SOL    HW222089   1.204   1.925   8.606 -0.1191  0.7070  0.4461
 3544SOL     OW22090   1.601   4.062   0.738  0.4050 -0.1913  0.1993
 3544SOL    HW122091   1.572   4.145   0.700  0.6320 -0.6866 -1.0762
 3544SOL    HW222092   1.531   4.057   0.803  0.1101  0.6407 -0.0500
 3545SOL     OW22093   0.269   2.472  13.924 -0.3030 -0.0388 -0.7851
 3545SOL    HW122094   0.338   2.418  13.963 -1.4603 -0.3013  0.9074
 3545SOL    HW222095   0.190   2.422  13.946  1.3584 -2.6758 -0.7588
 3546SOL     OW22096   1.608   1.045   6.068 -0.6638 -0.3247  0.0812
 3546SOL    HW122097   1.563   1.117   6.024  1.7250  0.7853 -0.5506
 3546SOL    HW222098   1.693   1.051   6.023 -1.9199  2.4197 -1.9216
 3547SOL     OW22099   0.889   3.256   6.445  0.1274  0.2888  0.5591
 3547SOL    HW122100   0.825   3.230   6.512  0.6092 -4.2239 -0.7391
 3547SOL    HW222101   0.847   3.220   6.366  0.4355  0.4661  0.3192
 3548SOL     OW22102   4.039   0.426   4.985 -0.1890 -0.0968  0.4795
 3548SOL    HW122103   4.108   0.424   5.051  0.3137  2.3179  0.0055
 3548SOL    HW222104   3.962   0.381   5.019  0.2378  0.3395  2.0156
 3549SOL     OW22105   0.147   2.410  12.588  0.0398 -0.0054 -0.5106
 3549SOL    HW122106   0.089   2.440  12.518 -0.5525  2.2297  0.9265
 3549SOL    HW222107   0.111   2.326  12.616  1.5966 -0.3794  0.3374
 3550SOL     OW22108   2.547   2.907   7.121 -0.4070 -0.4015  0.1944
 3550SOL    HW122109   2.613   2.854   7.165  1.3777  1.0922 -0.6799
 3550SOL    HW222110   2.598   2.940   7.047 -1.6166  0.5526 -0.2177
 3551SOL     OW22111   2.409   3.603   2.925 -0.1277 -0.0835 -0.1836
 3551SOL    HW122112   2.463   3.609   2.846  0.9945  1.1598  0.6805
 3551SOL    HW222113   2.426   3.513   2.955 -0.4022 -0.3338 -0.7865
 3552SOL     OW22114   2.819   4.379   9.383 -0.4833  0.1864  0.4381
 3552SOL    HW122115   2.845   4.289   9.362 -1.0098  0.4835 -1.4655
 3552SOL    HW222116   2.819   4.381   9.479  1.2671  2.4217  0.3854
 3553SOL     OW22117   3.553   4.550   9.352  0.6594  0.3175 -0.2531
 3553SOL    HW122118   3.506   4.467   9.351  1.4202 -0.1268  2.1240
 3553SOL    HW222119   3.592   4.550   9.439 -0.5325  0.2229  0.2825
 3554SOL     OW22120   1.614   0.147  16.781 -0.9944 -0.3965 -0.1116
 3554SOL    HW122121   1.539   0.087  16.781 -0.2939 -1.2865  0.5047
 3554SOL    HW222122   1.610   0.165  16.687  1.4742  2.8223  0.4001
 3555SOL     OW22123   2.450   2.716  11.493  0.4349 -0.0835 -0.2615
 3555SOL    HW122124   2.418   2.700  11.404 -2.0530 -1.0798  0.8159
 3555SOL    HW222125   2.391   2.782  11.529 -0.7755 -0.7822 -0.9440
 3556SOL     OW22126   1.668   3.448   7.215 -0.5360 -0.5715  0.4681
 3556SOL    HW122127   1.741   3.451   7.154 -0.7784  0.3740  0.2206
 3556SOL    HW222128   1.707   3.424   7.299 -0.7550  3.0303  1.5939
 3557SOL     OW22129   1.983   3.116   6.333 -0.4059  0.1104 -0.8500
 3557SOL    HW122130   2.019   3.083   6.415 -0.1579  0.0378 -0.9867
 3557SOL    HW222131   1.954   3.207   6.344  0.6704  0.6857 -2.7012
 3558SOL     OW22132   0.120   2.249   4.916 -0.5300 -0.0341 -0.4711
 3558SOL    HW122133   0.191   2.240   4.980  0.3336 -0.9723 -1.5713
 3558SOL    HW222134   0.053   2.304   4.955  0.6305 -0.8528  2.6752
 3559SOL     OW22135   1.734   3.284   5.995 -0.1378 -0.0910 -0.4984
 3559SOL    HW122136   1.757   3.374   6.018  0.3935 -0.8385  1.8712
 3559SOL    HW222137   1.638   3.289   6.000 -0.1853  0.1535 -1.6319
 3560SOL     OW22138   1.106   3.327   4.648 -0.0986  0.6622  0.0818
 3560SOL    HW122139   1.187   3.276   4.656  1.1599  2.5034 -0.9880
 3560SOL    HW222140   1.130   3.419   4.647 -0.9706  0.8788 -3.2347
 3561SOL     OW22141   0.125   1.380   3.004 -0.4682 -0.3712 -0.3577
 3561SOL    HW122142   0.180   1.402   2.929 -1.1745  0.2908 -0.6816
 3561SOL    HW222143   0.040   1.380   2.960 -1.9345 -2.9422  2.5012
 3562SOL     OW22144   4.325   1.819   3.352 -0.0584 -1.0185  0.1552
 3562SOL    HW122145   4.244   1.824   3.403  0.8239 -0.5728  1.4971
 3562SOL    HW222146   4.340   1.724   3.353  1.2664 -0.8074 -0.2763
 3563SOL     OW22147   1.694   0.837  16.507 -0.1451 -0.4344  0.2502
 3563SOL    HW122148   1.642   0.917  16.500 -3.0889 -2.3172  0.3903
 3563SOL    HW222149   1.738   0.841  16.422 -0.8877 -1.4533 -0.1809
 3564SOL     OW22150   4.443   3.979  11.531 -0.1029  0.0730  0.3022
 3564SOL    HW122151   4.484   4.014  11.610  1.4667  0.9586 -0.8995
 3564SOL    HW222152   4.503   3.906  11.515  1.0240  1.1033 -0.2185
 3565SOL     OW22153   3.216   3.031   3.311 -0.3596 -0.0433  0.2117
 3565SOL    HW122154   3.234   2.956   3.368 -1.2435 -0.3343  0.1047
 3565SOL    HW222155   3.201   2.986   3.228  0.1664 -0.0030  0.0986
 3566SOL     OW22156   1.583   3.178   2.886 -0.3499  0.6997  0.1338
 3566SOL    HW122157   1.581   3.155   2.793  0.8398  2.2341 -0.2760
 3566SOL    HW222158   1.515   3.120   2.921 -0.0835  0.2566 -0.0880
 3567SOL     OW22159   2.984   0.721   8.040 -0.9650  0.3002 -0.4083
 3567SOL    HW122160   2.906   0.776   8.041 -0.3490  1.2166 -1.3885
 3567SOL    HW222161   3.019   0.747   8.126 -1.0395  0.6288 -0.4766
 3568SOL     OW22162   4.305   2.972  15.584 -0.1020 -0.1032 -0.4782
 3568SOL    HW122163   4.392   3.008  15.599  0.9462 -1.6904 -2.7341
 3568SOL    HW222164   4.273   2.943  15.669 -1.0524  1.7656 -0.2025
 3569SOL     OW22165   2.730   1.627   8.207  0.0140 -0.1711  0.4441
 3569SOL    HW122166   2.667   1.666   8.266 -0.8777 -1.1339  0.1360
 3569SOL    HW222167   2.793   1.591   8.270  2.0175 -0.2704 -1.6055
 3570SOL     OW22168   0.212   2.495   8.420 -0.3209 -0.3805 -0.4752
 3570SOL    HW122169   0.181   2.557   8.486 -0.8130 -1.7625  0.5970
 3570SOL    HW222170   0.208   2.410   8.464 -1.0514  0.5463  1.2050
 3571SOL     OW22171   1.500   1.880   7.636  0.2474  0.7224  1.2951
 3571SOL    HW122172   1.582   1.928   7.628 -0.1530  1.4498  1.5885
 3571SOL    HW222173   1.479   1.894   7.728 -0.7671  1.0317  1.0229
 3572SOL     OW22174   0.357   0.184   5.854  1.1799 -0.5368  0.3326
 3572SOL    HW122175   0.437   0.193   5.905  0.2192  1.0412  1.5571
 3572SOL    HW222176   0.293   0.229   5.909  0.8240  0.1237 -0.6118
 3573SOL     OW22177   2.131   3.953  12.859  0.1004 -0.2159  0.0037
 3573SOL    HW122178   2.066   3.970  12.927  0.8932  2.0624  0.1827
 3573SOL    HW222179   2.207   4.003  12.889  1.0536 -0.3978 -2.0970
 3574SOL     OW22180   3.575   2.644   8.401 -0.5860  0.2847  0.4629
 3574SOL    HW122181   3.520   2.670   8.328  0.8752  1.7840 -0.1020
 3574SOL    HW222182   3.539   2.687   8.478 -2.6642 -0.0194 -0.3391
 3575SOL     OW22183   0.074   1.010   7.321 -0.3415  0.0599 -0.2433
 3575SOL    HW122184   4.719   0.991   7.375  1.5233 -0.5444  2.1685
 3575SOL    HW222185   0.030   1.062   7.254 -1.3208 -0.5650 -0.0705
 3576SOL     OW22186   1.441   3.592  17.070 -0.3985 -0.0949 -0.1416
 3576SOL    HW122187   1.353   3.625  17.052 -0.2126 -0.5362 -1.8212
 3576SOL    HW222188   1.419   3.559  17.157 -0.2892 -2.6279 -1.0697
 3577SOL     OW22189   3.924   0.511   2.235 -0.3943  0.2052 -0.4078
 3577SOL    HW122190   3.906   0.422   2.206  0.8211 -0.5943  1.2643
 3577SOL    HW222191   3.836   0.547   2.234  0.2719  1.7424 -3.6765
 3578SOL     OW22192   0.784   3.988   6.728 -0.3436 -0.1014 -0.1566
 3578SOL    HW122193   0.802   4.033   6.811  0.4041  1.8522 -1.4037
 3578SOL    HW222194   0.688   3.982   6.730 -0.5082  2.2428 -1.7405
 3579SOL     OW22195   1.977   1.454   3.674 -0.1921  0.2916  0.0162
 3579SOL    HW122196   1.995   1.546   3.652 -1.2487  0.7472  1.0724
 3579SOL    HW222197   2.033   1.406   3.612 -0.8039  2.0153 -1.8820
 3580SOL     OW22198   2.390   2.414   9.608 -0.4723 -0.5073 -0.3797
 3580SOL    HW122199   2.349   2.492   9.644  0.9024  0.3859 -0.7414
 3580SOL    HW222200   2.476   2.450   9.585  0.7638 -2.7594  0.6963
 3581SOL     OW22201   2.101   2.476   3.495 -0.0363  0.8077 -0.0319
 3581SOL    HW122202   2.193   2.460   3.475 -0.5812 -0.7204 -1.3008
 3581SOL    HW222203   2.075   2.533   3.422  1.9068  1.4420 -0.2288
 3582SOL     OW22204   3.979   0.472   8.619 -0.2236 -1.1460 -0.0856
 3582SOL    HW122205   4.044   0.488   8.550 -0.9735 -0.4332 -0.6194
 3582SOL    HW222206   3.939   0.396   8.579 -0.5005 -0.1375 -1.7114
 3583SOL     OW22207   2.622   2.933   4.754  0.1322  0.2472  0.2876
 3583SOL    HW122208   2.668   2.966   4.677 -0.3503  1.4177  0.4984
 3583SOL    HW222209   2.688   2.938   4.823 -0.4310  1.1695  0.7495
 3584SOL     OW22210   3.165   3.215   5.321  0.1054 -0.1388  0.2055
 3584SOL    HW122211   3.121   3.210   5.406  0.4369 -1.1944  0.3134
 3584SOL    HW222212   3.231   3.282   5.336  0.4418 -0.9146  2.3062
 3585SOL     OW22213   3.574   2.273  17.505 -0.3611  0.4334 -0.0462
 3585SOL    HW122214   3.659   2.263  17.548 -0.7309  0.5757  0.7332
 3585SOL    HW222215   3.526   2.204  17.551 -0.4285  0.1744 -0.5128
 3586SOL     OW22216   3.031   3.545   1.567  0.3710 -0.3938  0.3918
 3586SOL    HW122217   2.967   3.483   1.603  2.5728 -2.4933  0.6534
 3586SOL    HW222218   3.048   3.511   1.479 -1.1786 -1.8936  0.6749
 3587SOL     OW22219   1.444   4.668  16.754 -0.3530 -0.1878  0.1945
 3587SOL    HW122220   1.362   4.630  16.785 -1.3024  3.3126  1.9238
 3587SOL    HW222221   1.431   4.679  16.660  2.4226 -0.7814 -0.2748
 3588SOL     OW22222   1.791   4.305  12.153 -0.0664 -0.0861  0.1971
 3588SOL    HW122223   1.705   4.266  12.136  0.0762 -0.1474 -0.3657
 3588SOL    HW222224   1.755   4.389  12.183 -1.4332 -0.4704 -0.4016
 3589SOL     OW22225   0.962   4.257  12.960 -0.0172  0.0907 -1.0775
 3589SOL    HW122226   0.922   4.271  13.046  0.1737 -0.5227 -0.8891
 3589SOL    HW222227   1.041   4.214  12.992 -0.3606  0.3758  0.1652
 3590SOL     OW22228   3.982   2.515  12.428  0.7640 -0.4050 -0.4012
 3590SOL    HW122229   4.045   2.457  12.385  0.7844  0.2665 -1.2767
 3590SOL    HW222230   4.029   2.521  12.512  0.4478  1.8005 -0.3915
 3591SOL     OW22231   1.648   1.494  10.213 -0.2185 -0.5872 -0.2128
 3591SOL    HW122232   1.732   1.449  10.226 -0.2469 -1.2473 -2.4451
 3591SOL    HW222233   1.664   1.588  10.218 -1.6625 -0.3187 -0.6654
 3592SOL     OW22234   2.089   0.313   3.334 -0.4998 -0.6591 -0.2181
 3592SOL    HW122235   2.155   0.366   3.291 -0.3854 -0.7782 -0.1893
 3592SOL    HW222236   2.025   0.380   3.359 -0.5391 -0.0535 -1.9406
 3593SOL     OW22237   0.488   0.736   2.265  0.3280  0.1218  0.3022
 3593SOL    HW122238   0.506   0.668   2.200  0.8149 -0.4182  1.0014
 3593SOL    HW222239   0.486   0.684   2.345 -0.3763 -2.4364 -1.3906
 3594SOL     OW22240   3.881   0.886  11.941  0.8244 -0.4499 -0.2242
 3594SOL    HW122241   3.792   0.853  11.929 -0.0520  1.8945 -0.1930
 3594SOL    HW222242   3.877   0.919  12.031 -0.9899  2.1606 -1.2715
 3595SOL     OW22243   4.623   4.043   2.644 -0.2816  0.4934  0.4640
 3595SOL    HW122244   4.626   4.087   2.558  0.1346 -0.6270 -0.0922
 3595SOL    HW222245   4.605   3.951   2.625 -0.4601  0.4428  0.8711
 3596SOL     OW22246   2.450   4.702   4.091 -0.6429 -0.0932  0.3358
 3596SOL    HW122247   2.488   0.046   4.150 -0.0575 -1.8105  1.8233
 3596SOL    HW222248   2.522   4.705   4.028 -0.9480  0.3596  0.0105
 3597SOL     OW22249   1.596   0.945   5.225  0.4222  0.2084 -0.4136
 3597SOL    HW122250   1.559   0.902   5.148 -1.5656 -1.1470  1.2924
 3597SOL    HW222251   1.588   1.034   5.190  0.4579  0.4922  0.2921
 3598SOL     OW22252   1.282   2.088   5.324 -0.1704 -0.0677  0.1277
 3598SOL    HW122253   1.362   2.130   5.292  0.0017 -1.6792 -1.5652
 3598SOL    HW222254   1.322   2.044   5.399  0.5613 -2.8675 -1.9347
 3599SOL     OW22255   4.389   1.885  12.401 -0.2383  0.0562  0.2401
 3599SOL    HW122256   4.378   1.942  12.478 -0.9648 -2.1873  1.8131
 3599SOL    HW222257   4.475   1.849  12.424 -0.1593 -0.0081 -0.1694
 3600SOL     OW22258   0.207   2.658  14.986  0.6506  0.1185  0.6856
 3600SOL    HW122259   0.278   2.625  15.041  0.8042 -0.7352 -0.0270
 3600SOL    HW222260   0.244   2.738  14.947  1.9226  0.4201  2.5143
 3601SOL     OW22261   0.083   4.443  12.563  0.2545 -0.4752  0.0107
 3601SOL    HW122262   0.002   4.413  12.604 -0.7165 -1.3652 -2.5905
 3601SOL    HW222263   0.111   4.511  12.624  1.7292  1.5852 -2.9797
 3602SOL     OW22264   0.490   0.768   5.528  0.0635 -0.3405  0.2917
 3602SOL    HW122265   0.453   0.703   5.587 -0.7433  0.2762  0.4637
 3602SOL    HW222266   0.577   0.727   5.527  0.2146  0.0193 -1.0349
 3603SOL     OW22267   1.540   4.153   6.100  0.2128  0.9580 -0.5218
 3603SOL    HW122268   1.574   4.176   6.187 -1.9874 -1.1887  0.9031
 3603SOL    HW222269   1.449   4.176   6.114  0.0433  1.2368 -2.1118
 3604SOL     OW22270   1.358   0.211   4.030 -0.1452  0.1458  0.5294
 3604SOL    HW122271   1.361   0.279   3.962  0.2493  0.2444  0.6443
 3604SOL    HW222272   1.387   0.142   3.971 -0.4378  0.8295 -0.4187
 3605SOL     OW22273   0.267   1.803   2.675 -0.0997  0.6773  0.6463
 3605SOL    HW122274   0.331   1.875   2.676  2.5195 -1.7125  2.8759
 3605SOL    HW222275   0.193   1.837   2.725 -0.8723 -0.7293  0.4419
 3606SOL     OW22276   4.410   4.002   3.566  0.9774  0.1368  0.2755
 3606SOL    HW122277   4.481   4.044   3.517 -0.5726 -0.7525 -2.6535
 3606SOL    HW222278   4.406   3.912   3.534 -0.4740  0.0720  0.6395
 3607SOL     OW22279   2.130   2.407   6.693 -0.2959 -0.5241 -0.2659
 3607SOL    HW122280   2.088   2.335   6.739 -2.3548  0.3294 -0.8369
 3607SOL    HW222281   2.202   2.358   6.653 -0.3105 -2.7865  2.5249
 3608SOL     OW22282   2.741   2.774   3.001  1.1658 -0.5643  0.8835
 3608SOL    HW122283   2.724   2.746   2.911 -2.0784  0.4701  1.1514
 3608SOL    HW222284   2.653   2.782   3.037  1.1720 -0.1301  0.8043
 3609SOL     OW22285   3.407   0.084   4.675  0.0603 -0.6697 -0.4120
 3609SOL    HW122286   3.396   0.126   4.590  0.0976  2.5985  1.1764
 3609SOL    HW222287   3.337   0.126   4.725  0.6410 -0.9981  0.6857
 3610SOL     OW22288   1.732   3.178   8.874 -0.1362  0.3163  0.5260
 3610SOL    HW122289   1.751   3.266   8.906  1.1687  0.2593 -0.0732
 3610SOL    HW222290   1.792   3.176   8.800  2.3862  0.0548  2.5824
 3611SOL     OW22291   1.245   1.432   5.854  0.3799 -0.4188 -0.3194
 3611SOL    HW122292   1.172   1.424   5.792  0.5335  2.3299 -0.8670
 3611SOL    HW222293   1.204   1.464   5.934 -1.0865 -1.6145 -0.5994
 3612SOL     OW22294   0.046   0.362  13.962 -0.5217 -0.4851 -0.0406
 3612SOL    HW122295   0.119   0.322  13.915 -0.7845 -1.7805  0.6472
 3612SOL    HW222296   4.691   0.360  13.903 -0.2571  0.6094 -0.4164
 3613SOL     OW22297   0.399   2.461   3.642 -0.1833 -0.1869 -1.3218
 3613SOL    HW122298   0.463   2.393   3.660 -0.3011 -0.3498 -1.5230
 3613SOL    HW222299   0.312   2.423   3.657 -0.6462  1.1219 -0.5762
 3614SOL     OW22300   2.592   2.117   8.259 -0.3205  0.1274 -0.6592
 3614SOL    HW122301   2.673   2.141   8.304 -1.7821 -0.9512  2.5186
 3614SOL    HW222302   2.533   2.118   8.334 -1.2892 -2.2069 -1.3713
 3615SOL     OW22303   2.864   2.542   5.021 -0.1513  0.2849  0.7582
 3615SOL    HW122304   2.905   2.496   5.094  0.3703 -1.6860 -0.7879
 3615SOL    HW222305   2.909   2.501   4.947 -0.6958  1.6365 -0.3323
 3616SOL     OW22306   3.806   3.990   7.884 -0.3138 -0.0972 -0.2321
 3616SOL    HW122307   3.757   3.933   7.824 -0.4096 -1.4421  1.1037
 3616SOL    HW222308   3.752   4.000   7.963  3.1869  0.9535  2.0318
 3617SOL     OW22309   0.867   0.131   3.373 -0.3404  0.0876 -0.0062
 3617SOL    HW122310   0.875   0.153   3.466 -0.8136 -1.2187  0.3449
 3617SOL    HW222311   0.893   0.216   3.338 -0.0813  0.1818  0.4021
 3618SOL     OW22312   3.342   1.829  12.599 -0.1394 -0.3544  0.0368
 3618SOL    HW122313   3.325   1.777  12.678 -1.6421  0.6715  0.4059
 3618SOL    HW222314   3.388   1.899  12.647  0.0322 -0.1864 -0.3745
 3619SOL     OW22315   3.558   2.571   5.496  0.1569  0.3972  0.1880
 3619SOL    HW122316   3.473   2.547   5.532  0.3066 -1.5299 -0.7385
 3619SOL    HW222317   3.520   2.615   5.420 -0.1891 -0.5667 -0.1893
 3620SOL     OW22318   4.464   1.782   3.735  0.0634  0.0694  0.4549
 3620SOL    HW122319   4.512   1.865   3.743 -0.9616  0.7545 -0.4002
 3620SOL    HW222320   4.384   1.819   3.773  0.0214  0.5447 -0.0947
 3621SOL     OW22321   0.152   0.751   0.420  0.3741 -0.2949 -0.1329
 3621SOL    HW122322   0.131   0.735   0.512  0.6467 -0.6305 -0.1308
 3621SOL    HW222323   0.180   0.842   0.427  3.0858 -0.9677 -2.0303
 3622SOL     OW22324   2.610   2.487  12.869  0.0297 -0.1929 -0.1576
 3622SOL    HW122325   2.641   2.453  12.953  1.7786 -0.9305 -1.1081
 3622SOL    HW222326   2.690   2.534  12.843  0.4340 -0.7213  0.1336
 3623SOL     OW22327   4.197   2.444   4.229  0.1971 -0.3536 -0.8170
 3623SOL    HW122328   4.232   2.358   4.204  1.0681 -0.1531 -0.2518
 3623SOL    HW222329   4.109   2.417   4.255  1.7522 -2.8563  1.7894
 3624SOL     OW22330   0.040   2.600   4.702  0.0677  0.2613 -0.6979
 3624SOL    HW122331   0.108   2.642   4.755 -0.5473 -1.3444  1.3578
 3624SOL    HW222332   0.005   2.525   4.751  1.5285  0.2344  0.3057
 3625SOL     OW22333   1.798   3.023   3.010 -0.0470  0.1689  0.2526
 3625SOL    HW122334   1.766   2.947   2.963  1.3482  0.3070 -0.9323
 3625SOL    HW222335   1.741   3.096   2.985  0.9362  0.6392 -0.6370
 3626SOL     OW22336   1.906   3.840  16.149 -0.3490 -0.1731  0.3002
 3626SOL    HW122337   1.893   3.858  16.055 -0.2860  1.6480  0.6313
 3626SOL    HW222338   1.950   3.923  16.169 -4.6333  2.0155  0.6100
 3627SOL     OW22339   4.343   0.937   7.948  0.3377  0.4621 -0.3009
 3627SOL    HW122340   4.395   0.987   7.886  0.2091  0.1383 -0.6684
 3627SOL    HW222341   4.330   0.989   8.027 -2.7765  0.2166 -0.6611
 3628SOL     OW22342   2.336   3.217   3.224 -0.0136 -0.3666  0.4096
 3628SOL    HW122343   2.344   3.131   3.264  0.2189 -0.9606 -0.9340
 3628SOL    HW222344   2.241   3.230   3.232  0.1382  0.9838  0.0524
 3629SOL     OW22345   0.208   2.037  13.497  0.6977 -0.0171  0.3817
 3629SOL    HW122346   0.217   1.942  13.502  0.2418 -0.0169  1.0447
 3629SOL    HW222347   0.297   2.064  13.519  1.4675 -2.0457 -0.2521
 3630SOL     OW22348   0.765   1.483   5.778 -0.2854 -0.2362  0.2993
 3630SOL    HW122349   0.701   1.521   5.718  2.4499  2.1771 -1.1003
 3630SOL    HW222350   0.727   1.401   5.810  2.0414 -0.4687  2.4934
 3631SOL     OW22351   4.032   3.180   0.302  0.6772  0.0997  0.5865
 3631SOL    HW122352   3.966   3.128   0.349  1.2592 -1.5689 -0.4424
 3631SOL    HW222353   3.982   3.210   0.226  0.0384  1.0213  1.3799
 3632SOL     OW22354   2.082   0.128   7.131  0.7904  0.3213 -0.3143
 3632SOL    HW122355   2.021   0.062   7.165  1.4291 -0.0078  0.1832
 3632SOL    HW222356   2.067   0.194   7.198 -0.3842 -0.1319 -0.1304
 3633SOL     OW22357   2.820   3.050   0.009 -0.1545  0.2115  0.3262
 3633SOL    HW122358   2.725   3.047   0.022  0.1863 -0.9733  2.4943
 3633SOL    HW222359   2.822   3.022  17.604  0.7355 -0.8025  0.6617
 3634SOL     OW22360   1.633   3.802   8.249 -0.0076  0.0015 -0.0181
 3634SOL    HW122361   1.631   3.861   8.324  1.6998 -0.9181  0.7526
 3634SOL    HW222362   1.577   3.734   8.284 -0.6736  0.2118 -0.6747
 3635SOL     OW22363   0.161   0.162   6.247 -0.2577  0.3476 -0.2793
 3635SOL    HW122364   0.096   0.111   6.198 -0.5607 -0.2738  0.7531
 3635SOL    HW222365   0.116   0.160   6.332  1.9437  0.1114  0.8734
 3636SOL     OW22366   2.661   2.374   0.100 -0.0274  0.1979 -0.4241
 3636SOL    HW122367   2.573   2.366   0.137 -0.4504  0.7869 -1.3142
 3636SOL    HW222368   2.711   2.321   0.162  0.3653 -1.6009 -2.2867
 3637SOL     OW22369   0.403   1.277   0.287  0.3493 -0.4531  0.2211
 3637SOL    HW122370   0.374   1.368   0.291  0.7688 -0.3355  0.6440
 3637SOL    HW222371   0.345   1.232   0.348  0.9576 -0.7513  0.5904
 3638SOL     OW22372   0.913   1.202   7.519 -0.4239 -0.4134 -0.6392
 3638SOL    HW122373   0.886   1.255   7.445 -2.8016 -1.6253 -0.6357
 3638SOL    HW222374   0.903   1.113   7.484 -0.2130 -1.3698  1.6674
 3639SOL     OW22375   0.469   2.633   6.608 -0.3880  0.7089  0.1441
 3639SOL    HW122376   0.451   2.720   6.572 -1.9587  0.3481  0.0460
 3639SOL    HW222377   0.395   2.583   6.573 -0.5147  0.1434  1.2367
 3640SOL     OW22378   2.046   3.053   0.490 -0.0601  0.0975  0.2706
 3640SOL    HW122379   2.128   3.023   0.451 -1.0848 -1.8202 -0.3852
 3640SOL    HW222380   2.054   3.148   0.478  0.4149 -0.3853 -3.2126
 3641SOL     OW22381   0.445   0.007   6.494  0.1864  0.4962 -0.4308
 3641SOL    HW122382   0.381   4.657   6.491  3.8983 -2.9747  1.2093
 3641SOL    HW222383   0.420   0.043   6.409 -2.3812  0.4784  0.3081
 3642SOL     OW22384   0.087   1.964   0.592 -0.0571 -0.3794 -0.3152
 3642SOL    HW122385   0.128   1.969   0.679  0.8496  0.7542 -0.8103
 3642SOL    HW222386   0.076   2.055   0.564  0.9036  0.3422  1.6082
 3643SOL     OW22387   2.390   1.161   7.525  0.3067 -0.1185 -0.0544
 3643SOL    HW122388   2.382   1.252   7.497 -3.1040  0.3841  2.6098
 3643SOL    HW222389   2.454   1.126   7.462  0.5620 -1.5505  0.9943
 3644SOL     OW22390   4.552   3.865   4.275 -0.0135  0.2522 -0.0289
 3644SOL    HW122391   4.566   3.932   4.342  0.6876 -1.5948  1.6738
 3644SOL    HW222392   4.591   3.910   4.201 -0.5587 -0.4119 -0.7253
 3645SOL     OW22393   3.523   3.422   3.267 -0.2271  0.1238  0.3579
 3645SOL    HW122394   3.503   3.329   3.253 -0.0686  0.0248  0.7931
 3645SOL    HW222395   3.435   3.456   3.281 -0.7548 -0.6303 -1.1453
 3646SOL     OW22396   0.897   1.469   3.365  0.4648  0.5352  0.3471
 3646SOL    HW122397   0.953   1.392   3.370  0.8759  0.9117  1.6599
 3646SOL    HW222398   0.926   1.513   3.285 -3.9459  0.7482 -1.1630
 3647SOL     OW22399   3.270   3.769   0.820 -0.1656 -0.8354 -0.9597
 3647SOL    HW122400   3.258   3.756   0.726  0.0672  3.7742 -1.6274
 3647SOL    HW222401   3.227   3.854   0.835  2.5324  0.7018 -1.8977
 3648SOL     OW22402   1.721   2.744   3.291 -0.3631  0.5322 -0.4250
 3648SOL    HW122403   1.687   2.673   3.236  1.2994 -1.8800  1.6771
 3648SOL    HW222404   1.650   2.749   3.355 -0.9689 -2.7384 -0.7983
 3649SOL     OW22405   4.354   0.427   2.322  0.2656 -0.7842 -0.0035
 3649SOL    HW122406   4.317   0.341   2.337  2.1386 -1.4674  0.6233
 3649SOL    HW222407   4.272   0.475   2.331 -0.3727 -1.8400 -0.2213
 3650SOL     OW22408   0.222   3.630   2.004  0.2432  0.9489 -0.4790
 3650SOL    HW122409   0.260   3.568   2.067  0.3996  1.0158 -0.5057
 3650SOL    HW222410   0.139   3.587   1.988  1.8462 -2.0541 -0.6424
 3651SOL     OW22411   0.261   3.985   2.737 -0.2476 -0.1325 -0.3839
 3651SOL    HW122412   0.256   3.961   2.645 -2.3399 -2.5791  0.3600
 3651SOL    HW222413   0.307   3.910   2.774  0.6056  0.8653  0.5527
 3652SOL     OW22414   0.483   2.364   9.669 -0.6903  0.4123  0.8441
 3652SOL    HW122415   0.501   2.284   9.621  2.4657  0.3864  2.0550
 3652SOL    HW222416   0.538   2.340   9.744 -1.3818 -0.6246  1.0144
 3653SOL     OW22417   3.727   3.946   4.629  0.0808 -0.1676 -0.1560
 3653SOL    HW122418   3.783   3.904   4.564 -1.3552 -3.0492  0.4733
 3653SOL    HW222419   3.777   4.013   4.676  1.0200  0.2979 -1.7919
 3654SOL     OW22420   2.378   1.333   9.680 -0.6692  0.3377  0.2434
 3654SOL    HW122421   2.447   1.380   9.727  0.1121 -0.6978  0.1427
 3654SOL    HW222422   2.399   1.358   9.590 -0.0121  2.5851  1.0245
 3655SOL     OW22423   4.641   4.038   2.081  0.2716  0.5943 -0.0177
 3655SOL    HW122424   4.713   3.975   2.069  0.3195  0.4685  0.9382
 3655SOL    HW222425   4.611   4.020   2.170 -2.8811 -0.4540 -1.2897
 3656SOL     OW22426   1.499   0.855   4.950  0.6785  0.0955 -0.5125
 3656SOL    HW122427   1.586   0.857   4.911  0.4996  0.5174 -0.8979
 3656SOL    HW222428   1.444   0.888   4.879  0.2352 -0.0438 -0.2345
 3657SOL     OW22429   2.663   4.682   5.584 -0.1204 -0.6610  0.0525
 3657SOL    HW122430   2.656   4.647   5.674  1.0951 -0.4293  0.2321
 3657SOL    HW222431   2.611   4.618   5.536  0.7810 -1.0483 -0.4113
 3658SOL     OW22432   4.609   0.062   8.673  0.0014 -0.7016  0.3095
 3658SOL    HW122433   4.529   0.114   8.662 -0.8295 -1.7821  1.2254
 3658SOL    HW222434   4.585   4.698   8.635  0.5560 -0.5845 -0.3005
 3659SOL     OW22435   1.211   2.511   5.286  0.1638  0.2249 -1.1359
 3659SOL    HW122436   1.184   2.591   5.240  0.1447  0.6720 -0.3478
 3659SOL    HW222437   1.125   2.469   5.288  0.1924  0.3838  2.8328
 3660SOL     OW22438   3.873   3.675   3.555  0.2364  0.3015 -0.0206
 3660SOL    HW122439   3.834   3.762   3.548 -3.8770 -1.7184 -2.1966
 3660SOL    HW222440   3.792   3.625   3.564 -1.3948  3.1758  1.1570
 3661SOL     OW22441   3.214   1.516  10.046  0.6565 -0.2469  0.8791
 3661SOL    HW122442   3.199   1.433  10.090 -0.5827  1.0832  2.9757
 3661SOL    HW222443   3.187   1.495   9.957 -0.0494 -1.5800  1.4151
 3662SOL     OW22444   3.140   0.257  13.322 -0.4803  0.0255 -0.1298
 3662SOL    HW122445   3.186   0.304  13.391  0.2572  0.3199 -0.8287
 3662SOL    HW222446   3.185   0.173  13.328 -1.6847 -0.7707 -2.5392
 3663SOL     OW22447   2.260   2.980   2.577 -0.2122  0.2142 -0.1516
 3663SOL    HW122448   2.194   2.914   2.601 -0.6169  0.1914 -1.3187
 3663SOL    HW222449   2.212   3.030   2.511 -1.3026 -0.6468 -0.0139
 3664SOL     OW22450   0.636   0.154   2.734  0.0603 -0.2363 -0.0370
 3664SOL    HW122451   0.576   0.128   2.804 -0.9834 -0.9725 -1.1993
 3664SOL    HW222452   0.640   0.248   2.746 -2.9338 -0.2705  1.0810
 3665SOL     OW22453   3.484   2.113  11.773  0.3773  0.0510 -0.1410
 3665SOL    HW122454   3.466   2.069  11.856 -0.9894  2.0431  0.6203
 3665SOL    HW222455   3.439   2.046  11.721 -1.6200  2.4141 -1.4876
 3666SOL     OW22456   0.947   0.294   4.707  0.6684 -0.0776 -0.1613
 3666SOL    HW122457   0.921   0.203   4.720  1.9099 -0.1695  1.7588
 3666SOL    HW222458   0.880   0.327   4.647 -1.1029 -0.0823  1.8126
 3667SOL     OW22459   0.448   3.195  12.248 -0.3577  0.1286  0.5990
 3667SOL    HW122460   0.488   3.280  12.228  1.1134 -0.6887  0.0493
 3667SOL    HW222461   0.527   3.141  12.249  0.3600  1.1440 -0.9245
 3668SOL     OW22462   2.660   0.736  12.701 -0.2862  0.1305  0.4598
 3668SOL    HW122463   2.592   0.792  12.741 -2.0346 -1.9710  0.4208
 3668SOL    HW222464   2.601   0.662  12.692 -1.0400  0.5108  2.3066
 3669SOL     OW22465   3.410   1.108   2.609  0.1538  0.0867 -0.3339
 3669SOL    HW122466   3.468   1.143   2.542 -0.4574  1.5914 -0.0801
 3669SOL    HW222467   3.440   1.161   2.683  1.1448  2.0066 -2.1018
 3670SOL     OW22468   2.303   4.513   0.768 -0.3482 -0.1618 -0.3609
 3670SOL    HW122469   2.331   4.603   0.784 -1.4574 -0.1514  1.4955
 3670SOL    HW222470   2.220   4.530   0.724 -0.5044 -1.4513 -0.5663
 3671SOL     OW22471   0.289   2.912   5.991 -0.2675  0.5614  0.5681
 3671SOL    HW122472   0.212   2.938   5.941 -0.1375  1.5189  0.8668
 3671SOL    HW222473   0.246   2.915   6.076 -0.5948 -0.3797  0.4388
 3672SOL     OW22474   4.258   3.341  17.663  0.1661 -0.1215 -0.1130
 3672SOL    HW122475   4.290   3.252  17.649 -0.9862 -0.5182 -0.2194
 3672SOL    HW222476   4.166   3.336   0.001  0.3879 -2.2776  0.2943
 3673SOL     OW22477   0.476   0.326  15.129 -0.6696 -0.5368  0.3079
 3673SOL    HW122478   0.498   0.409  15.172 -0.1875 -0.2654 -0.4665
 3673SOL    HW222479   0.469   0.356  15.038  1.3054 -1.0646  0.0001
 3674SOL     OW22480   1.434   3.566   8.363  0.0287 -0.3848  1.1398
 3674SOL    HW122481   1.359   3.601   8.412 -0.8117  1.5317 -1.5067
 3674SOL    HW222482   1.433   3.475   8.392 -1.7864 -0.5266  0.6252
 3675SOL     OW22483   2.569   3.793  12.340  0.0001  0.0294 -0.0718
 3675SOL    HW122484   2.623   3.762  12.413 -0.0619  2.7664  1.1150
 3675SOL    HW222485   2.613   3.745  12.270  0.4222 -0.9546  0.8637
 3676SOL     OW22486   0.893   2.057   3.267  0.4000 -0.2600  0.2845
 3676SOL    HW122487   0.815   2.001   3.259  0.4741 -0.2433 -0.5464
 3676SOL    HW222488   0.863   2.143   3.237 -2.8745 -0.8787  1.6843
 3677SOL     OW22489   4.389   0.814   2.997 -0.5463 -0.0913 -0.1173
 3677SOL    HW122490   4.375   0.751   2.926 -0.3623  0.6286 -0.7917
 3677SOL    HW222491   4.470   0.780   3.034 -1.1570 -2.0410 -0.5341
 3678SOL     OW22492   3.248   4.002  14.330  0.5148 -0.7486 -0.5410
 3678SOL    HW122493   3.320   3.970  14.385  0.8584  0.8157 -0.0733
 3678SOL    HW222494   3.303   4.074  14.298 -0.7948  0.5207  0.0391
 3679SOL     OW22495   2.378   0.649   3.400 -0.3353 -0.1572  0.7115
 3679SOL    HW122496   2.357   0.585   3.468  2.1538 -0.0666  1.5544
 3679SOL    HW222497   2.339   0.726   3.440 -0.4119 -0.2169  0.7532
 3680SOL     OW22498   2.186   2.291  14.119  0.1316 -0.2889 -0.2005
 3680SOL    HW122499   2.126   2.257  14.052 -1.2713  0.5394  0.6331
 3680SOL    HW222500   2.268   2.265  14.078  0.1606  1.7168 -1.4277
 3681SOL     OW22501   0.440   0.420  12.993 -0.6030 -0.0091  0.5966
 3681SOL    HW122502   0.399   0.369  13.063  4.1802 -2.4309  1.6191
 3681SOL    HW222503   0.387   0.499  13.004  2.0282  1.7891  0.3379
 3682SOL     OW22504   1.838   1.585  12.510 -0.4870  0.5680 -0.4858
 3682SOL    HW122505   1.767   1.556  12.567  0.3402  0.1411  0.3370
 3682SOL    HW222506   1.889   1.641  12.569  0.8405  0.4263 -1.5066
 3683SOL     OW22507   4.257   2.255   6.058  0.1661  0.9181 -0.1545
 3683SOL    HW122508   4.177   2.265   6.110  0.8782  1.0649  0.9236
 3683SOL    HW222509   4.301   2.174   6.081 -0.7472  0.2226 -0.8525
 3684SOL     OW22510   4.485   1.132  15.533  0.4772 -0.4114  0.1393
 3684SOL    HW122511   4.495   1.055  15.588 -0.1809 -0.5762  0.0327
 3684SOL    HW222512   4.574   1.146  15.503  0.3209  0.0533 -0.1053
 3685SOL     OW22513   0.997   0.062   6.624  0.0343 -0.2630 -0.2680
 3685SOL    HW122514   0.970   0.087   6.712  1.2330 -1.8000  0.5381
 3685SOL    HW222515   1.074   0.118   6.611 -0.7489  1.2112  1.4365
 3686SOL     OW22516   3.107   0.756   5.691  0.2197 -0.6754  0.0853
 3686SOL    HW122517   3.046   0.682   5.690  0.8949 -1.2562  1.9595
 3686SOL    HW222518   3.072   0.816   5.626 -0.6354 -1.6560 -0.3704
 3687SOL     OW22519   1.577   2.416   6.018 -0.4356 -0.3492 -0.1853
 3687SOL    HW122520   1.504   2.471   6.045  1.2737  1.6638  0.3502
 3687SOL    HW222521   1.648   2.440   6.078  0.2182 -0.1224 -1.0600
 3688SOL     OW22522   4.495   1.336   5.712 -0.3594 -0.3200 -0.1129
 3688SOL    HW122523   4.577   1.374   5.682  0.3439 -2.4151 -0.8700
 3688SOL    HW222524   4.438   1.393   5.661  0.0352  0.2022  0.0290
 3689SOL     OW22525   2.712   3.979   7.353 -0.0669 -0.1640  0.4103
 3689SOL    HW122526   2.677   3.970   7.441  1.1235  1.8896  1.1201
 3689SOL    HW222527   2.634   3.973   7.299 -0.4091 -2.0266  1.1151
 3690SOL     OW22528   0.856   2.082   3.930 -0.2511 -0.8680 -0.2951
 3690SOL    HW122529   0.948   2.077   3.958 -0.7387 -0.9708  1.3171
 3690SOL    HW222530   0.829   2.015   3.992  0.3085 -1.3274 -0.5489
 3691SOL     OW22531   0.580   3.329   8.881  0.3577  0.3722  0.1311
 3691SOL    HW122532   0.492   3.311   8.913  0.4142  0.2495  0.2216
 3691SOL    HW222533   0.572   3.364   8.792 -0.4336 -0.0999  0.0201
 3692SOL     OW22534   0.568   1.345   3.357 -0.1863 -0.6727  0.5038
 3692SOL    HW122535   0.565   1.278   3.289  2.2465  1.5104 -1.7585
 3692SOL    HW222536   0.528   1.419   3.312  0.2906 -0.7473 -0.0503
 3693SOL     OW22537   2.954   3.793   4.860 -0.2401 -0.6230 -0.0223
 3693SOL    HW122538   2.981   3.746   4.782 -0.4191  1.6212 -1.4242
 3693SOL    HW222539   3.006   3.872   4.850  0.9421 -1.6263 -1.6893
 3694SOL     OW22540   3.718   3.432  15.879  0.1161  0.2922 -0.0153
 3694SOL    HW122541   3.712   3.500  15.812  3.1881  0.5217 -0.0696
 3694SOL    HW222542   3.725   3.491  15.953 -2.8921  1.3201 -0.5664
 3695SOL     OW22543   2.004   2.610   4.393 -0.2602 -0.0433  0.1043
 3695SOL    HW122544   2.053   2.691   4.378 -0.9943  0.1804 -1.0372
 3695SOL    HW222545   2.067   2.568   4.451 -0.1675  0.8228  0.6360
 3696SOL     OW22546   4.613   2.968   4.377  0.1405  0.0511  0.5799
 3696SOL    HW122547   4.671   2.956   4.301 -0.4791  0.6558  0.0141
 3696SOL    HW222548   4.622   2.881   4.416  0.0621 -0.5588 -0.7641
 3697SOL     OW22549   2.583   1.079   8.208  0.0336 -0.0793 -0.0492
 3697SOL    HW122550   2.634   1.062   8.288  1.7466  0.0504 -1.1198
 3697SOL    HW222551   2.520   1.140   8.247 -0.5656 -0.2349 -0.7762
 3698SOL     OW22552   1.471   2.662   4.930 -0.2981  0.1505 -0.4007
 3698SOL    HW122553   1.494   2.569   4.926 -0.6790  0.0802 -1.1760
 3698SOL    HW222554   1.380   2.657   4.898  0.2050  1.8905 -2.1225
 3699SOL     OW22555   0.465   0.851  11.742  0.6681 -0.3423 -0.2877
 3699SOL    HW122556   0.538   0.797  11.710 -1.3669 -3.2586 -0.0642
 3699SOL    HW222557   0.409   0.863  11.665 -1.1873  0.9236  1.2617
 3700SOL     OW22558   0.187   3.900   2.486  0.2066 -0.7998  0.1274
 3700SOL    HW122559   0.130   3.838   2.531 -0.3863 -0.4090 -0.0935
 3700SOL    HW222560   0.241   3.833   2.444 -1.2882 -1.5686 -0.5494
 3701SOL     OW22561   0.144   2.033   5.123  0.6330  0.0019  0.0629
 3701SOL    HW122562   0.162   2.006   5.033  2.2444 -1.5345  0.8461
 3701SOL    HW222563   0.234   2.023   5.153  0.8767 -1.6588 -1.1904
 3702SOL     OW22564   2.007   1.023   6.558  0.1145  0.2718  1.0650
 3702SOL    HW122565   1.984   0.931   6.550 -0.5767  0.4355  1.1157
 3702SOL    HW222566   2.102   1.014   6.557  0.0938  0.3049 -0.4632
 3703SOL     OW22567   0.255   1.419   8.334  0.1780 -0.3544  0.0755
 3703SOL    HW122568   0.206   1.456   8.260 -1.0713  0.3790  1.2722
 3703SOL    HW222569   0.266   1.502   8.380  1.8542  0.1187 -1.1886
 3704SOL     OW22570   2.660   0.642   9.971  0.1565 -0.3634  0.6203
 3704SOL    HW122571   2.607   0.567   9.998  0.9450 -1.7820 -1.7358
 3704SOL    HW222572   2.613   0.722   9.995 -1.6153 -0.6889 -1.7336
 3705SOL     OW22573   3.686   2.737   7.699 -0.2972 -0.0467 -0.5730
 3705SOL    HW122574   3.676   2.662   7.640  0.0003  1.0059 -1.9603
 3705SOL    HW222575   3.617   2.801   7.682 -1.3358 -0.9020  0.3472
 3706SOL     OW22576   2.984   2.296   2.345  0.3247  0.4378 -0.1135
 3706SOL    HW122577   3.031   2.270   2.266  0.1429  1.1619 -0.4635
 3706SOL    HW222578   2.966   2.388   2.324 -1.5153  0.0446 -0.3217
 3707SOL     OW22579   4.282   3.194  17.076 -0.1963  0.2817 -0.0521
 3707SOL    HW122580   4.189   3.172  17.069  0.0810 -0.1422 -2.3256
 3707SOL    HW222581   4.315   3.179  16.987 -1.0861 -1.7227 -0.0373
 3708SOL     OW22582   1.050   1.413   5.491 -0.3504  0.2952  0.0542
 3708SOL    HW122583   1.073   1.352   5.421 -1.7766 -1.8982  1.4933
 3708SOL    HW222584   1.034   1.491   5.438  0.6712  0.1935 -0.3960
 3709SOL     OW22585   0.242   4.231   6.559  0.0433 -0.4240 -0.0643
 3709SOL    HW122586   0.154   4.214   6.527  0.7437 -0.9120 -1.7072
 3709SOL    HW222587   0.294   4.169   6.509 -2.4117  0.5162 -3.7444
 3710SOL     OW22588   2.218   3.234   4.423  0.5854 -0.3011 -0.2462
 3710SOL    HW122589   2.285   3.233   4.491  0.8032 -0.2180 -0.4573
 3710SOL    HW222590   2.265   3.197   4.348 -1.3726  0.7619 -2.0125
 3711SOL     OW22591   0.679   1.377   3.051  0.0902 -0.1976  0.5345
 3711SOL    HW122592   0.701   1.376   2.958  0.4031  0.3406  0.6034
 3711SOL    HW222593   0.771   1.374   3.078  0.6742 -1.1184 -1.6193
 3712SOL     OW22594   2.111   4.121   6.530 -0.3608  0.3728  0.0828
 3712SOL    HW122595   2.045   4.085   6.471 -0.3070  1.1445 -0.4370
 3712SOL    HW222596   2.056   4.196   6.553 -1.0127  0.7041 -2.4938
 3713SOL     OW22597   0.988   4.312   7.027  0.7348 -0.2953 -0.1880
 3713SOL    HW122598   0.932   4.356   7.091  0.5018  0.2293 -0.7518
 3713SOL    HW222599   0.923   4.311   6.957 -1.6102 -0.6223  1.9909
 3714SOL     OW22600   2.458   0.358  14.376  0.2051 -0.0185  0.2732
 3714SOL    HW122601   2.403   0.379  14.300  1.4682 -1.1144 -0.9445
 3714SOL    HW222602   2.412   0.402  14.447 -2.5434 -1.1028 -0.8087
 3715SOL     OW22603   2.981   0.475  15.065  0.0130  0.1843 -0.5841
 3715SOL    HW122604   2.895   0.456  15.102 -0.2352 -1.0793 -1.7934
 3715SOL    HW222605   2.990   0.404  15.002  0.4184  1.5190 -2.0082
 3716SOL     OW22606   3.758   1.233   3.042 -0.6099  0.2791  0.0514
 3716SOL    HW122607   3.772   1.161   2.980 -1.0246  1.4197 -1.3553
 3716SOL    HW222608   3.832   1.293   3.040 -0.0785 -0.3440  1.3642
 3717SOL     OW22609   1.668   4.557   3.462  0.3632  0.3772  0.5861
 3717SOL    HW122610   1.600   4.492   3.478 -0.2274  0.8872  0.1314
 3717SOL    HW222611   1.628   4.606   3.390  0.5023  0.8828  0.8508
 3718SOL     OW22612   1.042   4.677  14.573  0.8817 -0.3530 -0.2241
 3718SOL    HW122613   0.958   4.663  14.528  0.5888 -2.9954  1.1156
 3718SOL    HW222614   1.071   0.040  14.538  0.1996 -0.5943 -1.3481
 3719SOL     OW22615   0.652   2.644   4.547  0.3727  0.2778  0.0784
 3719SOL    HW122616   0.637   2.698   4.625  2.1516  1.3702 -0.3517
 3719SOL    HW222617   0.636   2.702   4.473 -1.0537  1.8198  1.5801
 3720SOL     OW22618   0.432   1.673   5.115 -0.4304  0.6041  0.0760
 3720SOL    HW122619   0.506   1.692   5.172  1.3684 -2.2241 -1.3228
 3720SOL    HW222620   0.425   1.578   5.106 -2.0625  1.0310 -3.1735
 3721SOL     OW22621   2.369   0.760  12.524  0.3314  0.4495 -0.2074
 3721SOL    HW122622   2.417   0.678  12.513 -0.5709 -0.0495 -0.5113
 3721SOL    HW222623   2.307   0.779  12.453 -1.5279  0.4219  1.3942
 3722SOL     OW22624   4.108   3.176   5.469  0.3606 -0.0991  0.6484
 3722SOL    HW122625   4.036   3.197   5.410  0.2185 -1.0930  0.4709
 3722SOL    HW222626   4.069   3.106   5.522  0.4277 -2.6623 -2.6676
 3723SOL     OW22627   3.902   1.114   3.849 -0.0210 -0.1911 -0.1172
 3723SOL    HW122628   3.817   1.147   3.878 -0.4207 -0.2594 -1.1880
 3723SOL    HW222629   3.887   1.067   3.767 -0.3988 -0.5614  0.1638
 3724SOL     OW22630   3.310   0.857   2.599 -0.0526 -0.1820  0.5269
 3724SOL    HW122631   3.349   0.944   2.609  0.7093 -0.5838  1.0481
 3724SOL    HW222632   3.221   0.885   2.575 -1.2576 -2.3477  2.3981
 3725SOL     OW22633   3.821   1.296   0.571 -0.3374  0.1598  0.3942
 3725SOL    HW122634   3.740   1.332   0.606  0.8884  3.0063  0.2880
 3725SOL    HW222635   3.872   1.376   0.563 -0.5969 -0.0148 -3.1795
 3726SOL     OW22636   3.157   1.782  11.437 -0.4298 -0.6293  0.8573
 3726SOL    HW122637   3.203   1.847  11.384 -0.4234  0.3605  2.0768
 3726SOL    HW222638   3.224   1.713  11.449  0.9748  0.0656 -3.0445
 3727SOL     OW22639   4.234   3.181  14.915 -0.0753  0.2259  0.3613
 3727SOL    HW122640   4.190   3.109  14.961  1.9684 -1.2327  0.0641
 3727SOL    HW222641   4.283   3.221  14.986  1.2709  0.8449 -0.9177
 3728SOL     OW22642   0.604   4.677   4.492  0.1715 -0.0223 -0.3120
 3728SOL    HW122643   0.669   4.648   4.555 -0.1952 -0.1741 -0.0019
 3728SOL    HW222644   0.529   4.632   4.532 -1.1824  0.6208 -2.1024
 3729SOL     OW22645   1.405   3.480   4.502  0.1768  0.3120 -0.7191
 3729SOL    HW122646   1.411   3.408   4.565  0.7351  1.5641  0.6668
 3729SOL    HW222647   1.329   3.529   4.533  2.4548  1.9836  2.2327
 3730SOL     OW22648   0.288   0.353   8.270 -0.2615 -0.1016 -0.0876
 3730SOL    HW122649   0.335   0.430   8.238  1.2713  0.0978  2.6924
 3730SOL    HW222650   0.265   0.387   8.357  0.0717 -0.1341  0.0096
 3731SOL     OW22651   2.744   2.769   5.301 -0.1122  0.2646  0.0973
 3731SOL    HW122652   2.747   2.847   5.356 -0.0236 -0.2625  0.8373
 3731SOL    HW222653   2.650   2.766   5.281  0.0134 -2.1557 -0.1806
 3732SOL     OW22654   0.194   0.391   2.637  0.1243  0.2926 -0.4565
 3732SOL    HW122655   0.247   0.441   2.575  0.4067  1.1303  0.4711
 3732SOL    HW222656   0.244   0.388   2.718 -0.3075  0.8198 -0.1707
 3733SOL     OW22657   2.456   2.203   7.207 -0.0697  0.0055 -0.6278
 3733SOL    HW122658   2.489   2.183   7.294  2.9423  1.6305 -1.3902
 3733SOL    HW222659   2.375   2.152   7.203  0.8779 -1.2783 -3.1706
 3734SOL     OW22660   0.306   4.138  11.819 -0.4828  0.1576  0.5155
 3734SOL    HW122661   0.365   4.204  11.782  0.5351  0.8892  3.4351
 3734SOL    HW222662   0.355   4.093  11.888 -1.4104 -1.6537 -0.0003
 3735SOL     OW22663   3.810   0.587  14.887  0.1713 -1.0723  0.1046
 3735SOL    HW122664   3.797   0.551  14.975 -0.7050 -1.8187 -0.3251
 3735SOL    HW222665   3.766   0.528  14.826 -1.2814  1.6553 -1.5083
 3736SOL     OW22666   4.287   2.344   5.461 -0.2480  0.2632  0.0763
 3736SOL    HW122667   4.218   2.396   5.421 -0.0802  0.2261 -0.2652
 3736SOL    HW222668   4.279   2.366   5.554  0.8958  0.3059  0.1675
 3737SOL     OW22669   4.195   0.778   7.760  0.1856  0.4200 -0.0199
 3737SOL    HW122670   4.213   0.821   7.844  0.1103  1.3779 -0.4834
 3737SOL    HW222671   4.145   0.847   7.716 -1.3040  0.8269  2.2648
 3738SOL     OW22672   3.792   0.413   5.852 -0.2275  0.0499 -0.1184
 3738SOL    HW122673   3.709   0.366   5.841  1.4960 -2.5876 -1.7856
 3738SOL    HW222674   3.777   0.449   5.939 -2.8805  0.7989 -0.8910
 3739SOL     OW22675   1.291   3.164   5.883  0.4132 -0.4858 -0.1151
 3739SOL    HW122676   1.254   3.216   5.812 -1.4398  0.1769  1.3336
 3739SOL    HW222677   1.213   3.139   5.933  0.2047 -0.1735 -0.2876
 3740SOL     OW22678   1.165   0.005   0.203  0.3322 -0.5724 -0.2050
 3740SOL    HW122679   1.121   0.033   0.283  1.9044 -0.5088  0.6526
 3740SOL    HW222680   1.212   0.085   0.178  2.1316 -0.7888  2.4736
 3741SOL     OW22681   4.156   2.170   4.500  0.1339  0.3502  0.4802
 3741SOL    HW122682   4.143   2.199   4.590  0.1473 -1.0281  0.9259
 3741SOL    HW222683   4.188   2.082   4.519 -1.1479 -0.1436  0.3289
 3742SOL     OW22684   4.630   1.480  16.586 -0.1625  0.1572 -0.4888
 3742SOL    HW122685   4.680   1.552  16.547  0.1027  1.6819  2.7005
 3742SOL    HW222686   4.590   1.535  16.653  0.1048 -1.7611  1.2222
 3743SOL     OW22687   2.466   3.917   8.765  0.1266 -0.2632 -0.0397
 3743SOL    HW122688   2.467   3.896   8.671 -0.2968  2.0496 -0.5689
 3743SOL    HW222689   2.472   3.831   8.806  0.9673  1.1494  2.7969
 3744SOL     OW22690   0.473   2.178   5.707 -0.1812 -0.0150 -0.4410
 3744SOL    HW122691   0.475   2.202   5.799 -1.0775 -1.9996  0.0944
 3744SOL    HW222692   0.565   2.179   5.679  0.1539 -2.0907  0.6399
 3745SOL     OW22693   4.072   3.502   0.943  0.4417 -0.1798 -0.0229
 3745SOL    HW122694   4.157   3.477   0.907  0.7597  1.7628 -0.5787
 3745SOL    HW222695   4.097   3.495   1.036 -0.5126 -1.0120  0.1722
 3746SOL     OW22696   2.941   1.433  11.371  0.5869  0.5716  0.2773
 3746SOL    HW122697   2.987   1.350  11.376  1.7072  1.1804  0.1709
 3746SOL    HW222698   2.851   1.402  11.380  0.4173  1.1864  0.7340
 3747SOL     OW22699   2.869   3.631   3.517 -0.3015 -0.4373  0.0917
 3747SOL    HW122700   2.918   3.711   3.537  0.4997 -0.9483  0.1304
 3747SOL    HW222701   2.779   3.663   3.507  0.7045  2.5586  0.6675
 3748SOL     OW22702   3.578   1.726  10.381  0.2024 -0.7654 -0.5103
 3748SOL    HW122703   3.513   1.669  10.422  0.1837 -1.4653 -1.5132
 3748SOL    HW222704   3.655   1.693  10.428  0.7472 -0.2287 -1.0306
 3749SOL     OW22705   2.270   2.091   8.216  0.2289 -0.6209 -0.5962
 3749SOL    HW122706   2.271   2.117   8.308  1.1589  1.3477 -1.1558
 3749SOL    HW222707   2.189   2.040   8.207  0.8126 -1.8176  1.0808
 3750SOL     OW22708   2.218   2.234   2.522 -0.3431  0.1245 -0.0752
 3750SOL    HW122709   2.158   2.165   2.553  0.4626 -0.1576  0.8620
 3750SOL    HW222710   2.159   2.298   2.483  0.1393 -0.7207 -2.1586
 3751SOL     OW22711   3.609   3.901   9.063  0.2836 -0.0177  0.7479
 3751SOL    HW122712   3.632   3.817   9.102  0.2138 -1.2834 -1.9061
 3751SOL    HW222713   3.514   3.892   9.060  0.1777  1.4762 -0.5964
 3752SOL     OW22714   3.532   4.223   1.283 -0.3238  0.6397 -0.3785
 3752SOL    HW122715   3.501   4.185   1.365  2.8357  1.0583  1.0020
 3752SOL    HW222716   3.601   4.279   1.319 -0.6928  0.1204  1.1279
 3753SOL     OW22717   2.868   2.368   0.884 -0.3685 -0.4981 -0.3679
 3753SOL    HW122718   2.788   2.403   0.924  0.8977  1.0668  0.7900
 3753SOL    HW222719   2.877   2.436   0.818 -0.7097 -0.0794  0.0125
 3754SOL     OW22720   2.847   4.226   7.351  0.0120 -0.0193  0.0592
 3754SOL    HW122721   2.871   4.225   7.444 -0.7876 -2.8517  0.2503
 3754SOL    HW222722   2.787   4.152   7.345 -0.1678 -0.0273  1.9208
 3755SOL     OW22723   0.166   4.014   7.413 -0.0190 -0.0740  0.0225
 3755SOL    HW122724   0.212   4.001   7.496 -0.0539  1.5396  0.2920
 3755SOL    HW222725   0.081   4.036   7.450  0.0307  1.4677 -0.7540
 3756SOL     OW22726   1.106   1.848  10.574 -0.0440  0.3280 -0.4299
 3756SOL    HW122727   1.106   1.755  10.596 -0.4426 -0.1437 -2.3809
 3756SOL    HW222728   1.027   1.879  10.618 -1.9566 -1.5663 -2.5338
 3757SOL     OW22729   1.808   3.057  15.189  0.1333  0.0895 -0.0034
 3757SOL    HW122730   1.875   3.123  15.176  0.8648 -0.6950 -0.2544
 3757SOL    HW222731   1.745   3.088  15.124  0.8749 -1.9516 -1.6881
 3758SOL     OW22732   3.272   1.443   5.503  0.2252  0.0825 -0.0596
 3758SOL    HW122733   3.338   1.510   5.521 -0.0935  1.0832 -2.4973
 3758SOL    HW222734   3.316   1.371   5.547  1.3397  1.1287  0.5499
 3759SOL     OW22735   0.431   4.382   8.344  0.0638  0.1622  0.8135
 3759SOL    HW122736   0.347   4.336   8.337  0.7567 -0.6240 -2.0091
 3759SOL    HW222737   0.415   4.447   8.413 -1.6248  0.6355 -0.0270
 3760SOL     OW22738   2.612   1.668   0.956  0.2252  0.5011 -0.3612
 3760SOL    HW122739   2.541   1.683   0.894 -1.0978 -1.4775  0.6629
 3760SOL    HW222740   2.675   1.735   0.930 -0.3421  1.7361  1.4436
 3761SOL     OW22741   0.868   3.237   6.156 -0.2616 -0.2747  0.1680
 3761SOL    HW122742   0.961   3.230   6.133 -0.2642 -1.0018  0.3872
 3761SOL    HW222743   0.836   3.301   6.091 -1.2037  0.6815  1.5625
 3762SOL     OW22744   1.433   3.503   9.932 -0.6813  0.1316  0.9137
 3762SOL    HW122745   1.511   3.552   9.904  0.9102 -2.1148  1.4480
 3762SOL    HW222746   1.360   3.534   9.878  1.6179  1.5925 -1.4248
 3763SOL     OW22747   0.996   3.728   6.029  0.0088 -0.0609  0.4332
 3763SOL    HW122748   0.960   3.647   5.992 -0.8454  1.5894 -2.3832
 3763SOL    HW222749   0.958   3.736   6.117  2.9560 -0.5568  1.7417
 3764SOL     OW22750   4.625   2.692   2.257  0.1963 -0.0568 -0.6919
 3764SOL    HW122751   4.560   2.761   2.245 -1.6051 -1.3470  1.4871
 3764SOL    HW222752   4.572   2.615   2.278 -0.3955  0.7011  0.5885
 3765SOL     OW22753   2.734   1.514   4.328 -0.1249 -0.2480  0.3067
 3765SOL    HW122754   2.760   1.422   4.331 -1.1094 -0.5377 -0.1749
 3765SOL    HW222755   2.803   1.559   4.377  1.7846 -1.7774 -0.9742
 3766SOL     OW22756   3.466   0.582  15.095  0.6687 -0.2563  0.1830
 3766SOL    HW122757   3.453   0.526  15.019 -2.6638  0.2281  0.3890
 3766SOL    HW222758   3.446   0.513  15.158  2.7395 -2.6687 -1.7862
 3767SOL     OW22759   0.295   2.265   2.928 -0.0009 -0.0072  0.1598
 3767SOL    HW122760   0.270   2.354   2.905  1.9206  0.0535 -1.7525
 3767SOL    HW222761   0.293   2.258   3.024  0.1242  0.9210  0.2292
 3768SOL     OW22762   0.843   4.244  13.205 -0.5965 -0.3283 -0.0891
 3768SOL    HW122763   0.906   4.200  13.262 -0.4154  0.5549  0.3969
 3768SOL    HW222764   0.822   4.328  13.247  2.1808  0.7449 -0.8669
 3769SOL     OW22765   0.953   4.074   0.216  0.5678  0.3348  0.0260
 3769SOL    HW122766   1.030   4.071   0.273  1.6515 -2.8248 -1.6527
 3769SOL    HW222767   0.939   3.980   0.205  0.8231  0.6706 -3.1196
 3770SOL     OW22768   0.154   4.603  12.981  0.7201  0.0048  0.4364
 3770SOL    HW122769   0.210   4.526  12.992 -0.5991 -0.7248  1.9313
 3770SOL    HW222770   0.155   4.619  12.886  2.7863  1.7375  0.7431
 3771SOL     OW22771   3.233   4.427   2.063  0.4334  0.0228  0.2851
 3771SOL    HW122772   3.254   4.412   2.155 -0.9441  1.2775  0.8101
 3771SOL    HW222773   3.315   4.468   2.036  0.0349  0.4862 -0.2074
 3772SOL     OW22774   2.806   3.343  12.812 -0.5691 -0.3126 -0.3336
 3772SOL    HW122775   2.777   3.415  12.757 -1.7200  0.8509  1.8130
 3772SOL    HW222776   2.866   3.387  12.873  0.4750 -0.7288 -1.0547
 3773SOL     OW22777   1.158   3.372  13.659 -0.4005 -0.0391 -0.7193
 3773SOL    HW122778   1.213   3.351  13.583 -0.5045 -1.5600 -0.3788
 3773SOL    HW222779   1.204   3.320  13.725 -2.1615  2.8452  2.7763
 3774SOL     OW22780   1.656   0.899  14.964 -0.1987 -0.1913 -0.8447
 3774SOL    HW122781   1.655   0.819  14.911  0.3059 -0.3253 -0.6591
 3774SOL    HW222782   1.609   0.862  15.038 -0.2908  0.1195 -0.7480
 3775SOL     OW22783   3.034   2.702  15.371 -0.7381 -0.0764  0.4360
 3775SOL    HW122784   2.953   2.658  15.345 -1.6127  0.8370  1.6371
 3775SOL    HW222785   3.011   2.792  15.348 -2.8225  0.2492  3.8740
 3776SOL     OW22786   2.758   2.864   2.569  0.3500  0.3167  0.2527
 3776SOL    HW122787   2.689   2.904   2.517 -1.0365 -1.5782  0.6592
 3776SOL    HW222788   2.792   2.942   2.613  1.2811 -0.7486  1.4319
 3777SOL     OW22789   1.488   0.338   5.503  0.0928  0.7566 -0.4166
 3777SOL    HW122790   1.583   0.327   5.500  0.1324  1.0339 -0.1611
 3777SOL    HW222791   1.475   0.395   5.578  0.7703 -0.0191  0.2890
 3778SOL     OW22792   4.475   3.526   9.251  0.4588 -0.8313  0.1682
 3778SOL    HW122793   4.459   3.600   9.192  0.8139 -0.5774  0.3865
 3778SOL    HW222794   4.396   3.525   9.306  0.6105 -1.5156  0.3720
 3779SOL     OW22795   2.527   0.265  12.500  0.0348  0.0040  0.3400
 3779SOL    HW122796   2.502   0.355  12.522 -0.0886  0.4833 -1.7417
 3779SOL    HW222797   2.561   0.275  12.411 -0.7957 -3.0281 -0.3219
 3780SOL     OW22798   3.423   0.147   3.804  0.2332 -0.2802 -0.3128
 3780SOL    HW122799   3.433   0.199   3.884  1.1137  2.1802 -2.0172
 3780SOL    HW222800   3.501   0.092   3.800  0.2801 -0.2185 -0.2331
 3781SOL     OW22801   1.988   3.305   9.555  0.5146  0.2470  0.2960
 3781SOL    HW122802   2.054   3.365   9.522  0.1663  0.2966 -0.3049
 3781SOL    HW222803   2.046   3.247   9.604  0.9686 -0.3545 -0.9522
 3782SOL     OW22804   0.598   3.132   3.018 -0.0118 -0.5220 -0.0062
 3782SOL    HW122805   0.648   3.067   2.968 -1.3338 -1.6781  0.1615
 3782SOL    HW222806   0.524   3.138   2.958 -0.0460  0.8741  0.1791
 3783SOL     OW22807   0.656   4.257  11.994  0.2826 -0.5325 -0.0705
 3783SOL    HW122808   0.693   4.180  12.037  1.8275 -0.6304 -1.5383
 3783SOL    HW222809   0.631   4.315  12.067  0.7103  0.9386 -1.0780
 3784SOL     OW22810   3.201   3.829  11.587 -0.3383  0.2305 -0.0606
 3784SOL    HW122811   3.234   3.751  11.543 -0.5802  0.7091 -1.0888
 3784SOL    HW222812   3.253   3.899  11.546 -0.9506  1.5258  1.3521
 3785SOL     OW22813   1.203   4.184  11.915  0.6535  0.5155 -0.0682
 3785SOL    HW122814   1.288   4.155  11.883  0.6550  0.2415  0.1820
 3785SOL    HW222815   1.221   4.261  11.969 -1.7603 -0.5643  2.2903
 3786SOL     OW22816   1.627   3.519  15.180  0.3724 -0.3585  0.1857
 3786SOL    HW122817   1.590   3.589  15.234 -1.1453 -1.5749  0.7241
 3786SOL    HW222818   1.559   3.507  15.113 -1.3759  0.2291  1.8498
 3787SOL     OW22819   1.210   1.080   6.854  0.2798  0.9421  0.1955
 3787SOL    HW122820   1.192   1.032   6.935  1.4170 -0.8505 -0.6053
 3787SOL    HW222821   1.125   1.067   6.814  0.6996  2.7975 -1.2828
 3788SOL     OW22822   4.459   0.950   2.248 -0.1962  0.3297  0.3926
 3788SOL    HW122823   4.537   0.908   2.285  0.6748  1.7072  0.1215
 3788SOL    HW222824   4.427   0.879   2.192  2.9441 -1.1290  0.4583
 3789SOL     OW22825   0.926   3.643   5.674 -0.2868 -0.3132 -0.2140
 3789SOL    HW122826   0.866   3.570   5.692  0.4496 -0.6963  0.7014
 3789SOL    HW222827   0.908   3.643   5.580  1.1683 -1.5270 -0.4895
 3790SOL     OW22828   0.509   3.163   5.739  0.3493 -0.4349  0.0935
 3790SOL    HW122829   0.528   3.130   5.826  3.9995 -2.1350 -1.3251
 3790SOL    HW222830   0.533   3.085   5.688 -0.7305 -1.0300  0.5041
 3791SOL     OW22831   3.922   0.925   3.639  0.0700  0.0343  0.2547
 3791SOL    HW122832   3.901   0.840   3.677  1.1945 -0.7828 -0.9647
 3791SOL    HW222833   3.945   0.908   3.547  1.0006 -0.2770  0.5491
 3792SOL     OW22834   0.827   2.549   1.020  0.4995  0.1032 -0.2615
 3792SOL    HW122835   0.898   2.604   0.988 -0.4396  1.3179 -0.2341
 3792SOL    HW222836   0.811   2.589   1.106 -2.4044 -1.0967 -0.2149
 3793SOL     OW22837   2.160   1.993   2.975  0.0676  0.7721  0.2709
 3793SOL    HW122838   2.212   2.010   3.054  0.2658 -0.3803  0.3829
 3793SOL    HW222839   2.149   1.899   2.989 -1.3598  0.8163 -0.6054
 3794SOL     OW22840   1.849   2.477  15.004  0.2092  0.0412  0.0184
 3794SOL    HW122841   1.933   2.470  15.051  0.5671 -0.4899 -0.6981
 3794SOL    HW222842   1.795   2.508  15.077  1.4402 -2.7572  2.1589
 3795SOL     OW22843   4.316   4.297  10.473  0.5273  0.0917  0.2454
 3795SOL    HW122844   4.233   4.260  10.504  0.7341 -0.3020  0.3392
 3795SOL    HW222845   4.365   4.285  10.555  1.7857 -1.4679 -0.7178
 3796SOL     OW22846   3.619   2.814  11.559  0.0566  0.2724 -0.1633
 3796SOL    HW122847   3.586   2.860  11.482 -0.3451  0.6477  0.2336
 3796SOL    HW222848   3.573   2.857  11.631 -3.1433 -1.9402 -0.8792
 3797SOL     OW22849   4.190   3.392   2.948 -0.3069 -0.0148  0.1534
 3797SOL    HW122850   4.125   3.376   3.017 -1.1914 -2.3906 -1.2432
 3797SOL    HW222851   4.253   3.445   2.998 -0.1654 -0.2062  0.1793
 3798SOL     OW22852   0.204   2.392   5.964 -0.6848 -0.0238  0.3205
 3798SOL    HW122853   0.260   2.373   6.039 -2.0392 -1.1321  1.0406
 3798SOL    HW222854   0.272   2.394   5.897 -1.7603 -1.7042 -0.8137
 3799SOL     OW22855   3.429   0.340   5.872 -0.4913  0.0148  1.3570
 3799SOL    HW122856   3.388   0.324   5.957  0.1176  0.6362  1.7730
 3799SOL    HW222857   3.485   0.262   5.871  1.3940  1.3683  1.4212
 3800SOL     OW22858   3.526   1.225  12.623  0.5993  0.3150  0.0906
 3800SOL    HW122859   3.526   1.166  12.699  2.9055  0.0121 -0.1624
 3800SOL    HW222860   3.431   1.233  12.613  0.5617 -0.4819 -0.1758
 3801SOL     OW22861   0.360   3.290   6.853 -0.2530  0.5989 -0.4823
 3801SOL    HW122862   0.355   3.195   6.848 -1.2661  0.6144  0.0647
 3801SOL    HW222863   0.264   3.296   6.851 -0.1776  1.9590 -0.2097
 3802SOL     OW22864   2.131   1.090   5.288  0.1545 -0.6043 -0.5914
 3802SOL    HW122865   2.151   1.148   5.214  0.3454  2.0792  1.5364
 3802SOL    HW222866   2.048   1.051   5.261  0.4735 -1.8960  0.3022
 3803SOL     OW22867   1.604   0.572   8.051  0.0004 -0.0272 -0.1013
 3803SOL    HW122868   1.519   0.603   8.018 -1.0357 -1.8560  0.8744
 3803SOL    HW222869   1.647   0.657   8.062  0.1896 -0.2358  0.7961
 3804SOL     OW22870   0.112   0.891   5.455 -0.3906  0.2854 -0.2581
 3804SOL    HW122871   0.099   0.887   5.550 -2.4358 -0.1805 -0.5357
 3804SOL    HW222872   0.030   0.848   5.430 -1.4426  2.0159  0.2614
 3805SOL     OW22873   4.117   1.577   6.743  0.5058 -0.6421  0.1356
 3805SOL    HW122874   4.193   1.561   6.687 -0.3512  1.9594 -1.7786
 3805SOL    HW222875   4.159   1.641   6.800  0.4087 -2.0095  1.7448
 3806SOL     OW22876   2.447   1.465   7.498  0.0513 -0.4117  0.3599
 3806SOL    HW122877   2.505   1.538   7.474 -3.0567  1.2220 -2.1277
 3806SOL    HW222878   2.402   1.440   7.418  3.2966 -3.2622 -0.6125
 3807SOL     OW22879   3.027   2.851   2.746  0.0565 -0.0088 -0.4543
 3807SOL    HW122880   2.987   2.904   2.816 -0.1861 -2.3660  1.1851
 3807SOL    HW222881   2.956   2.799   2.708 -0.5618 -0.0767  0.7968
 3808SOL     OW22882   4.021   3.204   8.782  0.1036 -0.0774  0.5995
 3808SOL    HW122883   4.102   3.189   8.831  0.5308  0.7733  0.1534
 3808SOL    HW222884   3.994   3.292   8.808 -0.8751  0.3681 -1.9335
 3809SOL     OW22885   0.741   4.512   7.761 -0.2818 -0.4034  0.3941
 3809SOL    HW122886   0.746   4.608   7.755  2.5001 -0.5670 -0.3138
 3809SOL    HW222887   0.672   4.491   7.698 -0.5851  1.5298  0.0595
 3810SOL     OW22888   2.618   0.376   8.115  0.2908  0.5390  0.1835
 3810SOL    HW122889   2.683   0.445   8.130 -0.0170  0.6881  0.8500
 3810SOL    HW222890   2.555   0.413   8.053  0.5393  0.3664 -0.1704
 3811SOL     OW22891   0.341   2.654   4.414 -0.0644 -0.0703 -0.5468
 3811SOL    HW122892   0.361   2.652   4.508 -1.4935  0.3836 -0.2414
 3811SOL    HW222893   0.406   2.713   4.375 -1.0147  0.5071 -1.2550
 3812SOL     OW22894   2.501   2.618  14.230 -0.2932 -0.1932  0.1610
 3812SOL    HW122895   2.418   2.572  14.235 -0.7566  0.3557 -2.5076
 3812SOL    HW222896   2.518   2.639  14.322 -2.5288 -0.9298  0.7279
 3813SOL     OW22897   1.242   2.520   8.406  0.2561 -0.3419  0.0701
 3813SOL    HW122898   1.161   2.537   8.453 -1.7884 -0.6914 -3.3166
 3813SOL    HW222899   1.292   2.590   8.449 -0.0856 -0.2700  0.3418
 3814SOL     OW22900   2.573   1.764   1.213 -0.6090 -0.2904 -0.2467
 3814SOL    HW122901   2.559   1.744   1.121  0.3966  1.7171 -0.8469
 3814SOL    HW222902   2.573   1.674   1.243 -1.7026 -0.7905 -1.7295
 3815SOL     OW22903   0.383   3.572  15.102 -0.3515  0.1576  0.3351
 3815SOL    HW122904   0.419   3.529  15.179  0.3124 -1.2053 -0.7211
 3815SOL    HW222905   0.456   3.626  15.071  0.7673 -1.0760  0.8172
 3816SOL     OW22906   2.276   1.554   4.505 -0.3280 -0.1666 -0.2977
 3816SOL    HW122907   2.192   1.598   4.518 -0.5503 -1.4043  2.6092
 3816SOL    HW222908   2.319   1.610   4.441  1.0114  1.6425  2.1805
 3817SOL     OW22909   2.627   1.869   2.506  0.3693  0.1788  0.1245
 3817SOL    HW122910   2.628   1.954   2.462 -0.0105  1.0166  1.7619
 3817SOL    HW222911   2.596   1.889   2.594 -0.6038  1.0220 -0.4181
 3818SOL     OW22912   4.118   1.115   9.141  0.6971  0.4086 -0.4540
 3818SOL    HW122913   4.161   1.127   9.226 -0.6990  0.2049  0.2808
 3818SOL    HW222914   4.081   1.027   9.139 -1.0991  1.1555 -0.0800
 3819SOL     OW22915   3.719   2.934   3.923 -0.6937  0.1583  0.2641
 3819SOL    HW122916   3.731   2.954   3.830  0.9498 -1.9351  0.0201
 3819SOL    HW222917   3.719   3.022   3.961  2.7252  0.6479 -0.9119
 3820SOL     OW22918   4.712   0.601   7.819 -0.0480  0.0386  0.3400
 3820SOL    HW122919   0.022   0.569   7.904 -1.1497  0.9550  1.0769
 3820SOL    HW222920   0.014   0.691   7.799 -0.1922 -0.2059 -0.9323
 3821SOL     OW22921   1.162   1.964  17.174  0.1379  0.0638 -0.3156
 3821SOL    HW122922   1.183   2.028  17.241  1.7440 -0.8357  0.0433
 3821SOL    HW222923   1.202   2.006  17.097 -1.9506  2.0777 -0.2862
 3822SOL     OW22924   0.579   0.997   4.982 -0.0035 -0.3516 -0.0010
 3822SOL    HW122925   0.524   1.075   4.974  0.7462  0.7282  4.7538
 3822SOL    HW222926   0.515   0.927   4.974 -0.6695  0.4318 -1.4566
 3823SOL     OW22927   4.534   4.682   2.844 -0.3009 -0.3270 -0.4717
 3823SOL    HW122928   4.608   4.719   2.892 -0.7681 -0.3123  0.2499
 3823SOL    HW222929   4.529   4.595   2.884  0.3533 -1.2882 -2.4993
 3824SOL     OW22930   0.776   3.438   7.803  0.2436  0.6887 -0.0491
 3824SOL    HW122931   0.689   3.400   7.817 -0.6912  2.1577 -1.8822
 3824SOL    HW222932   0.801   3.440   7.895 -1.2135 -0.4600  0.3721
 3825SOL     OW22933   4.279   0.512   5.397 -0.1920 -0.3899 -0.1779
 3825SOL    HW122934   4.198   0.553   5.366  0.0397 -1.0153 -1.6422
 3825SOL    HW222935   4.294   0.556   5.480 -0.8663  0.5051 -0.5315
 3826SOL     OW22936   0.701   4.389   4.450  0.1252  0.2524 -0.3438
 3826SOL    HW122937   0.793   4.366   4.457 -0.4800 -1.6147  1.4810
 3826SOL    HW222938   0.654   4.306   4.438 -2.1105  1.7678 -2.1326
 3827SOL     OW22939   1.716   3.007  14.345  0.1586  0.2672 -0.3649
 3827SOL    HW122940   1.717   3.073  14.275  0.4612  1.2214  0.5447
 3827SOL    HW222941   1.779   2.945  14.307  1.6565 -1.2392  4.6533
 3828SOL     OW22942   0.885   0.588   9.001  0.3105 -0.0035 -0.0598
 3828SOL    HW122943   0.896   0.530   9.076 -1.1425  0.9444  0.8727
 3828SOL    HW222944   0.882   0.523   8.931  0.5010  0.3422 -0.3886
 3829SOL     OW22945   3.538   2.321   4.600 -0.0117  0.6711  0.1286
 3829SOL    HW122946   3.537   2.414   4.578 -0.7890  0.8340  0.8291
 3829SOL    HW222947   3.627   2.299   4.572  0.2017  1.1296  0.4422
 3830SOL     OW22948   3.043   3.404   4.848 -0.2962  0.3552  0.4753
 3830SOL    HW122949   3.070   3.478   4.902 -0.2591  0.6740  0.0134
 3830SOL    HW222950   3.098   3.336   4.887 -1.2942  0.1142  1.4900
 3831SOL     OW22951   2.225   0.363   3.786 -0.3316 -0.1698  0.0228
 3831SOL    HW122952   2.214   0.447   3.831 -3.2081  0.4240 -1.7629
 3831SOL    HW222953   2.236   0.298   3.855 -0.2878  0.1785  0.3495
 3832SOL     OW22954   0.950   0.194   7.872 -0.2960 -0.3325  0.9106
 3832SOL    HW122955   0.928   0.208   7.964 -1.6401 -0.7581  0.6524
 3832SOL    HW222956   1.045   0.186   7.885 -0.2304 -1.4099 -0.1615
 3833SOL     OW22957   0.886   2.223   4.682 -0.5507  0.0191  0.2615
 3833SOL    HW122958   0.836   2.270   4.749 -2.7893 -3.3581  1.0025
 3833SOL    HW222959   0.873   2.284   4.609 -0.2720  2.1755  2.0056
 3834SOL     OW22960   3.997   3.463   1.567 -0.2506  0.4994 -0.6186
 3834SOL    HW122961   3.983   3.481   1.475 -0.3613  1.2877 -0.4477
 3834SOL    HW222962   4.059   3.390   1.562  2.2263  2.4502  1.0770
 3835SOL     OW22963   0.408   4.316   3.501  0.2670 -0.0285 -0.1350
 3835SOL    HW122964   0.499   4.335   3.527  0.9639 -0.8339 -1.9610
 3835SOL    HW222965   0.364   4.391   3.540 -1.1389 -0.5496 -0.7224
 3836SOL     OW22966   0.784   0.997  16.302 -0.0209  0.0773  0.3728
 3836SOL    HW122967   0.870   0.956  16.308 -0.1957 -0.3368  0.0481
 3836SOL    HW222968   0.764   1.014  16.394  1.1433  1.1651  0.4139
 3837SOL     OW22969   0.782   1.326   8.661 -0.3721 -0.3580 -0.5133
 3837SOL    HW122970   0.717   1.273   8.615 -0.0004  0.4977 -2.0247
 3837SOL    HW222971   0.737   1.330   8.745 -0.8775 -0.3659 -0.7848
 3838SOL     OW22972   2.993   4.323  10.576  0.2318 -0.3006 -0.7739
 3838SOL    HW122973   2.965   4.332  10.667 -0.2173 -3.3455 -0.6154
 3838SOL    HW222974   2.983   4.230  10.556 -0.4548 -0.5539  0.7120
 3839SOL     OW22975   2.069   1.954   9.426 -0.0411  0.1246 -0.9359
 3839SOL    HW122976   2.088   1.888   9.493 -1.2015 -0.5801 -1.2969
 3839SOL    HW222977   1.985   1.979   9.463 -0.9113  0.1364 -2.9588
 3840SOL     OW22978   4.413   3.737  17.651  0.6174 -0.3728 -0.0471
 3840SOL    HW122979   4.323   3.704  17.643 -1.1890  4.4020  0.2907
 3840SOL    HW222980   4.469   3.663  17.629  0.3857 -0.9750  1.4309
 3841SOL     OW22981   0.568   3.395   4.407  0.7214 -0.6306  0.0699
 3841SOL    HW122982   0.611   3.360   4.329 -1.9724 -2.7808 -0.4500
 3841SOL    HW222983   0.641   3.414   4.466  0.7844  0.8305 -0.4712
 3842SOL     OW22984   3.296   4.329   5.483 -0.2804  0.1815 -0.0668
 3842SOL    HW122985   3.243   4.408   5.480  0.8590  0.9232 -0.5876
 3842SOL    HW222986   3.275   4.276   5.407  0.0847  0.5351 -0.4150
 3843SOL     OW22987   1.878   0.216  10.391  0.8139 -0.6032  0.1586
 3843SOL    HW122988   1.810   0.166  10.436  0.2267 -0.4766 -0.5900
 3843SOL    HW222989   1.936   0.213  10.467 -0.0589 -1.5699  0.7835
 3844SOL     OW22990   0.021   4.392  10.026  0.0395  0.2333 -0.6009
 3844SOL    HW122991   4.655   4.393   9.984  0.6994 -1.3608 -2.0393
 3844SOL    HW222992   0.015   4.482  10.057  4.5614  0.5826 -0.8299
 3845SOL     OW22993   0.998   4.056  15.165  0.4917 -0.6130  0.2217
 3845SOL    HW122994   0.964   3.997  15.098  0.1533  1.7435 -1.6762
 3845SOL    HW222995   1.007   4.132  15.107 -0.5481 -1.5616 -1.1639
 3846SOL     OW22996   0.225   3.810   9.320  0.3600 -0.7315  0.2342
 3846SOL    HW122997   0.162   3.753   9.365 -1.6821  1.7934  0.5653
 3846SOL    HW222998   0.309   3.779   9.353  0.5239  0.6693  1.1282
 3847SOL     OW22999   3.927   4.080   1.661 -0.4946  0.1158 -0.0672
 3847SOL    HW123000   3.981   4.123   1.595 -0.5664 -0.5233 -0.5406
 3847SOL    HW223001   3.901   4.000   1.617  0.1725 -0.6975  1.0143
 3848SOL     OW23002   4.463   2.536   7.434  0.0451  0.3587  0.0460
 3848SOL    HW123003   4.408   2.539   7.355 -0.6924  1.3146  0.6093
 3848SOL    HW223004   4.522   2.608   7.412 -0.3922  0.5198 -0.5991
 3849SOL     OW23005   2.375   3.468   7.531 -0.1429  0.5779 -0.5090
 3849SOL    HW123006   2.329   3.421   7.462 -0.2780  0.4547 -0.3364
 3849SOL    HW223007   2.359   3.419   7.612 -1.0568  3.4607  1.0925
 3850SOL     OW23008   1.364   0.095   8.415 -0.2478 -0.0839 -0.6162
 3850SOL    HW123009   1.378   0.006   8.383 -0.1853 -0.4893  0.5464
 3850SOL    HW223010   1.441   0.116   8.469  0.4148 -1.5231 -1.0082
 3851SOL     OW23011   0.042   3.801  11.007  0.8491 -0.0118 -0.1482
 3851SOL    HW123012   0.027   3.741  11.081 -2.6635 -0.3670 -1.1386
 3851SOL    HW223013   0.049   3.735  10.938 -0.8620  0.6143 -0.9106
 3852SOL     OW23014   4.020   1.335   5.902  0.0431  0.0135 -0.2500
 3852SOL    HW123015   3.997   1.364   5.814 -0.1124  0.0997 -0.1810
 3852SOL    HW223016   4.104   1.380   5.918  2.1679 -4.0462 -0.1646
 3853SOL     OW23017   2.697   2.905   8.299 -0.1097 -0.2820 -0.3307
 3853SOL    HW123018   2.787   2.878   8.314  0.4877  0.8314 -1.9193
 3853SOL    HW223019   2.700   2.942   8.210 -2.5850 -0.4441 -0.4985
 3854SOL     OW23020   2.117   4.349   7.910 -0.1577  0.5059  0.2047
 3854SOL    HW123021   2.050   4.417   7.912 -0.5060  0.1170  1.7647
 3854SOL    HW223022   2.116   4.336   8.005 -0.2354 -0.4980  0.0680
 3855SOL     OW23023   1.416   0.718   3.552 -0.3297  0.1098 -0.2711
 3855SOL    HW123024   1.409   0.692   3.644 -1.1738  0.0174 -0.3590
 3855SOL    HW223025   1.324   0.727   3.527  0.0672  0.9107 -1.4527
 3856SOL     OW23026   2.260   1.140   0.669 -0.4319  0.0408 -0.3312
 3856SOL    HW123027   2.274   1.100   0.755  2.3639  2.4531  0.3314
 3856SOL    HW223028   2.247   1.064   0.612  2.1902 -0.3905 -0.3651
 3857SOL     OW23029   1.566   1.965   2.136  0.0028  0.1619 -0.1079
 3857SOL    HW123030   1.661   1.950   2.141 -0.1070 -0.7518 -0.7658
 3857SOL    HW223031   1.549   2.013   2.217  2.8115  0.4988  0.2977
 3858SOL     OW23032   3.737   1.097  11.681 -0.2185 -0.1633 -0.0556
 3858SOL    HW123033   3.749   1.191  11.691 -1.1291 -0.1715  1.1761
 3858SOL    HW223034   3.675   1.077  11.751  0.3515 -1.4192  0.1001
 3859SOL     OW23035   2.363   2.579   4.804  0.4520 -0.0053 -0.0594
 3859SOL    HW123036   2.340   2.670   4.784 -2.3094 -0.6942  0.0217
 3859SOL    HW223037   2.453   2.588   4.837  0.4190  0.6128 -0.1398
 3860SOL     OW23038   2.213   1.624   3.872 -0.1265  0.2272 -0.1017
 3860SOL    HW123039   2.191   1.704   3.824  0.3842  1.1462  1.2160
 3860SOL    HW223040   2.128   1.612   3.914 -0.1498 -3.9889 -1.3912
 3861SOL     OW23041   0.703   3.513   8.509 -0.4814  0.4037 -0.2516
 3861SOL    HW123042   0.693   3.421   8.483  0.7579  0.1998 -0.0030
 3861SOL    HW223043   0.706   3.501   8.604  0.9895  0.7058 -0.2568
 3862SOL     OW23044   2.641   2.236  16.427 -0.1017  0.0751 -0.5165
 3862SOL    HW123045   2.598   2.291  16.361  0.7503  0.8744 -0.4165
 3862SOL    HW223046   2.591   2.155  16.415 -1.0607  0.8554 -1.8056
 3863SOL     OW23047   4.076   3.767  11.800  0.2756  0.3932  0.1639
 3863SOL    HW123048   4.019   3.843  11.785 -1.0148 -0.8922 -1.3805
 3863SOL    HW223049   4.147   3.778  11.737 -0.8085 -0.8955 -1.2914
 3864SOL     OW23050   2.782   1.491   7.351  0.0383  0.1714  0.4572
 3864SOL    HW123051   2.748   1.567   7.398  2.0606  2.3839 -1.6399
 3864SOL    HW223052   2.805   1.432   7.422  2.2867  1.3628  0.7422
 3865SOL     OW23053   0.195   3.428   4.116  0.4246 -0.0236  0.1424
 3865SOL    HW123054   0.249   3.361   4.075 -1.8511 -0.4541 -2.1672
 3865SOL    HW223055   0.229   3.441   4.204 -0.2093 -1.3893  0.5808
 3866SOL     OW23056   4.394   4.088   1.194  0.2726  0.6192 -0.2046
 3866SOL    HW123057   4.408   4.114   1.103  0.5798  1.9760  0.2320
 3866SOL    HW223058   4.430   4.000   1.200  0.8934  0.8811 -0.1358
 3867SOL     OW23059   3.922   2.047  15.507 -0.2281 -0.1702 -0.0703
 3867SOL    HW123060   3.908   2.107  15.434 -0.4186  0.3669  0.4022
 3867SOL    HW223061   3.921   2.104  15.584  0.4729  0.4887 -0.5531
 3868SOL     OW23062   1.535   3.325   2.516  0.1168 -0.3241 -0.9641
 3868SOL    HW123063   1.533   3.312   2.421  0.4704 -2.1795 -0.7089
 3868SOL    HW223064   1.608   3.263   2.526 -2.8049 -3.0545  3.1845
 3869SOL     OW23065   2.532   0.681   7.713  0.0899 -0.1266 -0.1107
 3869SOL    HW123066   2.521   0.775   7.698  1.5680  0.4838  2.7572
 3869SOL    HW223067   2.479   0.678   7.792 -1.5032  1.8764 -1.0995
 3870SOL     OW23068   2.901   4.175   2.845  0.2009  0.3224  0.0240
 3870SOL    HW123069   2.975   4.216   2.890  1.4099 -4.4413  2.3037
 3870SOL    HW223070   2.907   4.205   2.754  3.5480 -0.6570 -0.0762
 3871SOL     OW23071   0.680   1.474   2.469 -0.2678  0.1264 -0.1605
 3871SOL    HW123072   0.657   1.392   2.425 -1.5210 -0.6458  1.9383
 3871SOL    HW223073   0.633   1.537   2.414  1.4821  0.0328 -1.7448
 3872SOL     OW23074   1.567   3.552   1.203  0.8809  0.2769  0.5720
 3872SOL    HW123075   1.603   3.616   1.141 -0.1422  1.6784  1.4377
 3872SOL    HW223076   1.616   3.471   1.189  0.3816 -0.0332  0.6470
 3873SOL     OW23077   3.014   1.411   7.834  0.0534  0.0751 -0.2918
 3873SOL    HW123078   2.969   1.485   7.875  0.8273  0.4863 -0.1840
 3873SOL    HW223079   2.959   1.399   7.756 -1.7023 -0.9128  1.1086
 3874SOL     OW23080   3.508   0.543  14.314  0.4720  0.0694  0.2465
 3874SOL    HW123081   3.560   0.471  14.278 -2.0033 -0.4049 -2.2951
 3874SOL    HW223082   3.425   0.506  14.287 -0.0324  0.0430  1.8394
 3875SOL     OW23083   3.435   0.011   7.020  0.4798 -1.0054 -0.2596
 3875SOL    HW123084   3.504   0.037   6.959 -0.3278  0.6057 -0.4974
 3875SOL    HW223085   3.469   0.044   7.103 -2.3757 -0.1029  0.5777
 3876SOL     OW23086   1.573   2.276  10.909 -0.3876  0.2417 -0.0033
 3876SOL    HW123087   1.531   2.292  10.994  1.0497 -0.6074  0.8731
 3876SOL    HW223088   1.591   2.364  10.878 -0.5241  0.0492 -0.6239
 3877SOL     OW23089   0.925   4.071  15.557  0.1160 -0.1567 -1.0190
 3877SOL    HW123090   0.915   4.160  15.589  2.0448 -0.0608 -0.6773
 3877SOL    HW223091   0.840   4.036  15.585  0.0567  1.7124  1.0980
 3878SOL     OW23092   1.890   0.619  17.119 -0.3306 -0.5725  0.0091
 3878SOL    HW123093   1.932   0.560  17.056 -0.1433 -0.5829  0.1417
 3878SOL    HW223094   1.885   0.562  17.196  2.0580  0.5522  0.9954
 3879SOL     OW23095   3.659   2.828   9.117  0.1012 -0.1541 -0.3697
 3879SOL    HW123096   3.605   2.907   9.124 -0.8978 -0.9047  0.4700
 3879SOL    HW223097   3.613   2.780   9.185  1.0513 -2.3052 -1.2583
 3880SOL     OW23098   2.047   2.730  15.226  0.5400 -0.9818 -0.1322
 3880SOL    HW123099   2.052   2.641  15.194 -0.9224 -1.1212 -0.0039
 3880SOL    HW223100   1.984   2.775  15.170  0.5679 -1.3789 -0.4782
 3881SOL     OW23101   2.963   1.773   7.086  0.5920 -0.2935  0.1016
 3881SOL    HW123102   3.036   1.798   7.143 -0.3427 -0.3783  1.3296
 3881SOL    HW223103   2.907   1.847   7.110  0.4275 -0.8912  1.6091
 3882SOL     OW23104   1.808   1.922   9.151 -0.0681  0.1034 -0.3004
 3882SOL    HW123105   1.729   1.916   9.205  0.4769 -0.8968  0.3912
 3882SOL    HW223106   1.840   1.831   9.147  1.6215  0.6396  1.5618
 3883SOL     OW23107   2.275   3.291   6.493  0.1256 -0.3154  0.7239
 3883SOL    HW123108   2.314   3.244   6.420  0.0523  1.3282 -0.3795
 3883SOL    HW223109   2.183   3.287   6.465 -0.1948  0.3082  1.6968
 3884SOL     OW23110   4.265   2.134   8.022 -0.5652  0.7793  0.0878
 3884SOL    HW123111   4.208   2.177   7.959 -1.2762 -0.3090 -0.0080
 3884SOL    HW223112   4.315   2.203   8.066 -0.8912  0.0659  1.5824
 3885SOL     OW23113   4.509   3.137  15.610  0.0920 -0.0046  0.4155
 3885SOL    HW123114   4.579   3.132  15.675  0.2358  1.4253  0.3676
 3885SOL    HW223115   4.481   3.228  15.606  0.8888  0.4025  3.7608
 3886SOL     OW23116   4.574   1.034   9.890 -0.1570 -0.0629  0.5782
 3886SOL    HW123117   4.500   1.087   9.921  0.7800  1.7541 -0.3381
 3886SOL    HW223118   4.576   0.971   9.962 -0.6737 -1.4275 -0.6161
 3887SOL     OW23119   2.442   1.358  11.243  0.7860  0.0428 -0.3292
 3887SOL    HW123120   2.460   1.452  11.250  2.4559 -0.4314  1.6833
 3887SOL    HW223121   2.350   1.353  11.268  0.7171 -0.6180 -0.7239
 3888SOL     OW23122   0.033   2.494   3.109 -0.3820  0.0994  0.1469
 3888SOL    HW123123   4.683   2.430   3.101 -0.7752  0.7304 -1.5745
 3888SOL    HW223124   0.003   2.547   3.183  0.4013 -0.6260  0.9649
 3889SOL     OW23125   2.550   1.912   5.167  0.5122  0.2271  0.2508
 3889SOL    HW123126   2.557   1.840   5.230 -1.0633 -1.2413 -1.2711
 3889SOL    HW223127   2.480   1.973   5.191 -0.2152 -0.1039 -1.0037
 3890SOL     OW23128   4.186   1.050   4.458 -0.6204 -0.1541  0.0617
 3890SOL    HW123129   4.095   1.050   4.429 -0.4494 -0.5742 -0.4849
 3890SOL    HW223130   4.186   0.964   4.502  0.2523 -1.1075 -1.8095
 3891SOL     OW23131   2.349   2.374   3.476 -0.1237 -0.2087  0.1725
 3891SOL    HW123132   2.378   2.293   3.434  0.4636  0.3225 -0.4428
 3891SOL    HW223133   2.363   2.431   3.400 -1.6627 -0.0180  0.0390
 3892SOL     OW23134   0.057   1.361   5.843 -0.2657 -0.4351  0.2932
 3892SOL    HW123135   0.031   1.409   5.922 -1.7528 -1.6988  0.5691
 3892SOL    HW223136   0.146   1.392   5.825 -0.2839 -0.6329 -0.1291
 3893SOL     OW23137   4.458   0.435   0.266 -0.0138  0.3518  0.1282
 3893SOL    HW123138   4.523   0.406   0.330 -0.1114  0.2717  0.1919
 3893SOL    HW223139   4.490   0.522   0.242  0.3547  1.1731  3.5749
 3894SOL     OW23140   1.848   1.058   9.637 -0.1862 -0.2424  0.4057
 3894SOL    HW123141   1.828   1.018   9.721  1.8782 -2.3091 -0.0969
 3894SOL    HW223142   1.771   1.115   9.629 -0.7156 -1.1002 -0.6397
 3895SOL     OW23143   2.549   3.517   2.694  0.5050  0.3037 -0.2122
 3895SOL    HW123144   2.570   3.437   2.646 -2.3394  0.1116 -1.1427
 3895SOL    HW223145   2.542   3.578   2.620 -3.4324 -0.0112 -0.0953
 3896SOL     OW23146   2.071   3.187  16.575 -0.6700 -0.4464  0.2951
 3896SOL    HW123147   2.092   3.274  16.607 -0.7836 -0.4510  0.3829
 3896SOL    HW223148   2.067   3.194  16.480  2.0558  1.3144  0.3089
 3897SOL     OW23149   0.694   2.389   5.448 -0.1822 -0.5767 -0.0622
 3897SOL    HW123150   0.766   2.441   5.412 -0.3289  0.8056  1.6359
 3897SOL    HW223151   0.748   2.315   5.479  0.1890 -0.6690 -0.9369
 3898SOL     OW23152   4.149   1.831   8.369  0.1869 -0.1900  0.1884
 3898SOL    HW123153   4.191   1.753   8.333  0.9117 -0.7966  2.3350
 3898SOL    HW223154   4.123   1.790   8.452  2.1089 -0.1339  0.8286
 3899SOL     OW23155   2.552   3.356  15.123  0.1322  0.3833  0.1460
 3899SOL    HW123156   2.511   3.307  15.052  3.0331  3.7857 -3.8707
 3899SOL    HW223157   2.618   3.293  15.151 -0.0836 -0.0597 -0.3256
 3900SOL     OW23158   2.195   3.540  13.171 -0.2990  0.0898  0.0378
 3900SOL    HW123159   2.142   3.504  13.100 -0.6620 -0.0334  0.3730
 3900SOL    HW223160   2.195   3.628  13.133  0.2247 -0.3851 -1.0579
 3901SOL     OW23161   4.427   3.542   8.272  0.3677  0.4075  0.2291
 3901SOL    HW123162   4.395   3.534   8.362  1.1849 -0.8826  0.4111
 3901SOL    HW223163   4.424   3.451   8.242 -2.7731  0.6313 -0.1689
 3902SOL     OW23164   0.707   1.926  15.859  0.3090 -0.0560 -0.1369
 3902SOL    HW123165   0.644   1.893  15.794  0.2494 -0.6782  0.2318
 3902SOL    HW223166   0.738   2.008  15.822  0.6738 -1.0241 -2.0070
 3903SOL     OW23167   3.815   2.571  17.280 -0.1913 -0.1062  0.3952
 3903SOL    HW123168   3.853   2.493  17.321  2.0759 -1.2606 -3.8920
 3903SOL    HW223169   3.816   2.633  17.353  1.1788  1.7573 -1.2021
 3904SOL     OW23170   3.384   0.975   7.961  0.0624 -0.1143  0.4257
 3904SOL    HW123171   3.440   0.943   7.890  0.1538  0.5081  0.2148
 3904SOL    HW223172   3.458   0.994   8.020  2.1628 -0.9951 -1.9296
 3905SOL     OW23173   4.530   4.406   3.361  0.3661 -0.2371 -0.0785
 3905SOL    HW123174   4.625   4.408   3.347  0.4080  0.3735  0.2673
 3905SOL    HW223175   4.525   4.406   3.457 -1.9017 -1.2003 -0.1943
 3906SOL     OW23176   3.737   3.096  10.352  0.1089 -0.4969 -0.2150
 3906SOL    HW123177   3.785   3.036  10.294 -1.1771  0.7693 -2.5972
 3906SOL    HW223178   3.799   3.110  10.423  0.6508 -2.5224 -0.2717
 3907SOL     OW23179   3.030   3.941   6.516  0.4989 -0.1676  0.4512
 3907SOL    HW123180   3.105   3.974   6.566  0.6536  0.7751 -0.3925
 3907SOL    HW223181   2.964   4.008   6.500  1.4123  0.5079 -0.5577
 3908SOL     OW23182   0.066   1.742   2.910  0.6616  0.2983  0.0107
 3908SOL    HW123183   0.026   1.670   2.860 -1.9173  2.6946 -1.3930
 3908SOL    HW223184   0.006   1.750   2.984 -0.7139  0.6393 -1.1461
 3909SOL     OW23185   3.395   0.793   7.624  0.1819 -0.0981  0.4254
 3909SOL    HW123186   3.385   0.715   7.570 -0.1788 -0.8489  1.5875
 3909SOL    HW223187   3.319   0.783   7.683 -0.8935 -0.0914 -0.9540
 3910SOL     OW23188   0.132   1.108   5.789 -0.2209 -0.4741  0.1817
 3910SOL    HW123189   0.212   1.124   5.838 -2.1748  1.8711  2.6336
 3910SOL    HW223190   0.081   1.187   5.807  0.4292 -0.4491  1.8505
 3911SOL     OW23191   3.808   0.044  14.568  0.5801  0.2525  0.3146
 3911SOL    HW123192   3.737   4.715  14.528  0.2449 -1.2659  2.7701
 3911SOL    HW223193   3.869   4.691  14.579  0.4696 -0.0396 -1.0872
 3912SOL     OW23194   3.967   4.678  10.737  0.3857  0.2280  0.1374
 3912SOL    HW123195   3.974   0.047  10.705  0.1154 -0.0679 -0.7529
 3912SOL    HW223196   4.004   4.685  10.825 -1.1086  0.9615  0.7126
 3913SOL     OW23197   3.916   0.580   7.153  0.1704 -0.1960  0.5525
 3913SOL    HW123198   3.953   0.521   7.219  0.0542  0.0958  0.8778
 3913SOL    HW223199   3.956   0.542   7.075 -0.9904 -0.6070  0.1511
 3914SOL     OW23200   0.362   0.292   7.292 -0.9681 -0.0140  0.0794
 3914SOL    HW123201   0.320   0.269   7.375  0.3177 -2.6692  0.0006
 3914SOL    HW223202   0.300   0.355   7.254 -1.2499  0.4695  1.3124
 3915SOL     OW23203   0.578   3.615   0.732 -0.3291 -0.0999 -0.3621
 3915SOL    HW123204   0.629   3.646   0.807  1.4835 -1.0471 -1.1978
 3915SOL    HW223205   0.641   3.565   0.680 -0.1508 -0.5661  0.2968
 3916SOL     OW23206   2.633   1.852  11.906 -0.1706 -0.3395  0.3019
 3916SOL    HW123207   2.561   1.881  11.962 -1.5711  0.1268 -1.7464
 3916SOL    HW223208   2.634   1.922  11.841 -1.8087 -0.1104  0.5194
 3917SOL     OW23209   0.396   2.728   6.276 -0.0537  0.4351 -0.2616
 3917SOL    HW123210   0.384   2.757   6.367  1.6859  0.8873 -0.1820
 3917SOL    HW223211   0.323   2.667   6.285  0.8674 -0.6649 -0.2151
 3918SOL     OW23212   1.641   3.587  11.104  0.1745  0.2576  0.3362
 3918SOL    HW123213   1.578   3.551  11.041  1.1089 -1.0773  0.1589
 3918SOL    HW223214   1.682   3.661  11.060 -0.7779  0.4834 -0.1847
 3919SOL     OW23215   2.941   4.414   0.834  0.4276 -0.2957 -0.1035
 3919SOL    HW123216   2.853   4.381   0.815  2.1738 -3.4102 -2.7225
 3919SOL    HW223217   2.988   4.367   0.765  0.9092 -1.0183  0.7218
 3920SOL     OW23218   4.367   3.902   1.501  0.5254  0.7535  0.0649
 3920SOL    HW123219   4.302   3.833   1.511  2.0275 -0.9349 -2.0214
 3920SOL    HW223220   4.317   3.962   1.446 -0.0891 -1.1428 -1.4354
 3921SOL     OW23221   2.123   1.381   8.371  0.3274 -0.0852  0.3514
 3921SOL    HW123222   2.147   1.420   8.287 -1.0422 -1.2098 -0.5529
 3921SOL    HW223223   2.030   1.394   8.357  0.3644 -0.0506  0.1351
 3922SOL     OW23224   1.241   3.475   4.278  0.0689 -0.1265 -0.1543
 3922SOL    HW123225   1.289   3.487   4.360  1.4442  0.2085 -0.9965
 3922SOL    HW223226   1.163   3.429   4.307  1.2431 -3.3709 -2.1078
 3923SOL     OW23227   3.792   3.890   2.186  0.1806 -0.3091  0.2250
 3923SOL    HW123228   3.718   3.924   2.135  0.5625 -2.1670 -1.5688
 3923SOL    HW223229   3.743   3.861   2.263 -0.1248  0.3777  0.2940
 3924SOL     OW23230   0.159   3.752  12.420  0.1099 -0.4661  0.2155
 3924SOL    HW123231   0.073   3.793  12.430  0.2936  0.0078 -0.1625
 3924SOL    HW223232   0.220   3.820  12.448 -1.6119  0.4291  1.7717
 3925SOL     OW23233   3.632   2.410   7.140 -0.1180 -0.3583  0.2343
 3925SOL    HW123234   3.585   2.441   7.218  0.3992 -0.5819  0.6373
 3925SOL    HW223235   3.572   2.417   7.066  2.2733 -0.4630 -1.6793
 3926SOL     OW23236   0.084   4.664   5.824 -0.4376  0.5587  0.1196
 3926SOL    HW123237   0.041   0.025   5.848 -3.2115 -1.3405  1.5878
 3926SOL    HW223238   0.152   4.685   5.759 -2.7192 -1.5575 -2.9551
 3927SOL     OW23239   0.217   4.693   2.633  0.1101  0.3339  0.1905
 3927SOL    HW123240   0.290   4.645   2.596 -2.5570 -1.5957 -2.5791
 3927SOL    HW223241   0.236   4.692   2.727 -0.4344  1.9562  0.3295
 3928SOL     OW23242   3.544   0.985   6.971  0.0477 -0.0320  0.3993
 3928SOL    HW123243   3.624   1.010   7.017  0.8609 -1.5636 -0.1585
 3928SOL    HW223244   3.485   1.008   7.043 -2.1142 -0.6793 -1.1492
 3929SOL     OW23245   1.695   0.983  13.549 -0.0753 -0.4460  0.1418
 3929SOL    HW123246   1.709   0.899  13.594  2.8618  0.1668  0.3621
 3929SOL    HW223247   1.640   1.032  13.610  1.9581 -0.3052  1.8830
 3930SOL     OW23248   1.148   3.561  10.904  0.2736 -0.0903 -0.3479
 3930SOL    HW123249   1.132   3.651  10.932  1.4262 -0.3898  1.3106
 3930SOL    HW223250   1.142   3.563  10.809 -0.6800  1.7834 -0.2497
 3931SOL     OW23251   2.350   2.754  15.408  0.3705  0.3612 -0.1334
 3931SOL    HW123252   2.260   2.785  15.395  0.3728  1.6945  2.8421
 3931SOL    HW223253   2.360   2.689  15.339 -1.7506 -2.5777  2.2907
 3932SOL     OW23254   2.812   0.510   6.615 -0.7477 -0.0044 -0.1381
 3932SOL    HW123255   2.887   0.536   6.560 -1.7464  2.7856 -0.1530
 3932SOL    HW223256   2.854   0.476   6.694  0.6673  0.2990 -0.7513
 3933SOL     OW23257   0.410   0.176   2.520 -0.0784 -0.6495 -0.1415
 3933SOL    HW123258   0.341   0.129   2.567  0.5866 -2.3435 -0.8743
 3933SOL    HW223259   0.490   0.146   2.563 -0.0944 -1.2380 -0.5265
 3934SOL     OW23260   1.459   2.333   7.678  0.5270 -0.1250  0.0321
 3934SOL    HW123261   1.383   2.365   7.629  1.0733 -0.5293 -1.0760
 3934SOL    HW223262   1.509   2.288   7.611 -1.3524 -0.5195 -1.0937
 3935SOL     OW23263   0.267   4.359   5.498 -0.6595 -0.4491  0.0976
 3935SOL    HW123264   0.190   4.303   5.489 -2.2680  1.9004 -0.6511
 3935SOL    HW223265   0.229   4.446   5.493 -1.0402 -0.5759  0.7363
 3936SOL     OW23266   3.676   1.524   2.394 -0.1353 -0.5529  0.0190
 3936SOL    HW123267   3.730   1.445   2.404  1.4522  0.2691 -2.2307
 3936SOL    HW223268   3.618   1.522   2.470 -0.0323 -2.9375  0.0391
 3937SOL     OW23269   0.405   0.730   6.163 -0.0999  0.0262 -0.4596
 3937SOL    HW123270   0.443   0.781   6.092 -1.4024 -0.7855 -1.7481
 3937SOL    HW223271   0.351   0.789   6.215  0.3125  0.3711 -0.4309
 3938SOL     OW23272   0.835   1.503  13.454 -0.0810  0.3673 -0.1800
 3938SOL    HW123273   0.826   1.460  13.370  0.3490  0.0439 -0.0607
 3938SOL    HW223274   0.766   1.567  13.440 -0.9980 -0.9773 -1.7351
 3939SOL     OW23275   0.022   3.335   2.125 -0.3000 -0.3702  0.0627
 3939SOL    HW123276   0.021   3.243   2.152  3.4858 -0.3339  0.3820
 3939SOL    HW223277   4.684   3.325   2.050  0.3129 -0.3096 -0.4262
 3940SOL     OW23278   2.029   3.950  11.149 -0.0601  0.6020  0.2622
 3940SOL    HW123279   2.074   4.017  11.201 -1.6088  1.7179  0.1798
 3940SOL    HW223280   1.940   3.948  11.183 -0.7928  0.9711 -1.6226
 3941SOL     OW23281   3.505   2.525   3.123 -0.0826 -0.0026 -0.0572
 3941SOL    HW123282   3.505   2.484   3.209  1.8212  1.1951  0.5195
 3941SOL    HW223283   3.488   2.617   3.142  0.8628  0.5483 -1.8128
 3942SOL     OW23284   1.661   3.103  14.788 -0.2135  0.4097  0.6019
 3942SOL    HW123285   1.596   3.169  14.763 -2.0624 -1.0636  1.5278
 3942SOL    HW223286   1.680   3.139  14.875  0.3602  1.2155  0.1467
 3943SOL     OW23287   1.450   0.759  12.221  0.1871 -0.2560 -0.6042
 3943SOL    HW123288   1.519   0.824  12.210 -1.0656  1.2834  0.8062
 3943SOL    HW223289   1.485   0.694  12.160  0.7692 -1.5766  1.1539
 3944SOL     OW23290   2.964   2.557   2.244  0.0557  0.0791 -0.0110
 3944SOL    HW123291   3.027   2.565   2.172  0.6892 -3.0244  0.1756
 3944SOL    HW223292   2.916   2.640   2.242 -0.4622 -0.1751  3.4289
 3945SOL     OW23293   4.303   2.665   2.378 -0.2646  0.6582  0.2331
 3945SOL    HW123294   4.379   2.613   2.404 -0.3097  1.6138  2.3138
 3945SOL    HW223295   4.234   2.605   2.406 -0.4611 -0.4416 -2.6038
 3946SOL     OW23296   1.453   0.319   4.250  0.3691 -0.7641 -0.0531
 3946SOL    HW123297   1.405   0.285   4.174 -1.4767 -1.5458  1.4542
 3946SOL    HW223298   1.429   0.277   4.332  0.4643  0.3091  0.5237
 3947SOL     OW23299   2.714   2.351   4.271  0.4330 -0.0495  0.3363
 3947SOL    HW123300   2.644   2.286   4.267 -1.6500  2.3677 -2.1841
 3947SOL    HW223301   2.691   2.408   4.199  2.9955  0.0456 -0.4070
 3948SOL     OW23302   3.653   2.570   3.490  0.3382  0.0090  0.0502
 3948SOL    HW123303   3.691   2.654   3.467 -2.0250  0.9094 -0.4918
 3948SOL    HW223304   3.722   2.515   3.527  0.3682 -0.9377 -1.4289
 3949SOL     OW23305   4.650   1.035   2.879  0.2172 -0.3260 -0.1653
 3949SOL    HW123306   4.613   1.112   2.923  3.2571 -0.0666  1.9635
 3949SOL    HW223307   0.009   1.022   2.930  0.2729  1.9518  0.3425
 3950SOL     OW23308   0.419   0.074   6.226 -0.3634  0.0254 -0.0621
 3950SOL    HW123309   0.335   0.116   6.241  0.9642  2.1212  1.7119
 3950SOL    HW223310   0.386   0.002   6.173 -0.2584  0.1153 -0.2492
 3951SOL     OW23311   4.353   2.508   8.537  0.4220  0.0783  0.5356
 3951SOL    HW123312   4.369   2.586   8.484 -2.1400  1.9343  2.4938
 3951SOL    HW223313   4.304   2.541   8.612 -1.1140  0.8140 -0.8082
 3952SOL     OW23314   1.314   2.108  12.070 -0.0251  0.2532 -0.0703
 3952SOL    HW123315   1.310   2.025  12.022 -0.2866  0.1344  0.1532
 3952SOL    HW223316   1.314   2.167  11.995 -1.2061 -1.1547 -1.1759
 3953SOL     OW23317   2.689   1.388   8.789  0.2825 -0.1504  0.1345
 3953SOL    HW123318   2.728   1.467   8.751  0.6893 -2.0164 -3.3176
 3953SOL    HW223319   2.742   1.326   8.738  1.8375  1.7265 -0.5179
 3954SOL     OW23320   0.904   2.249   8.630 -0.3908  0.0558  0.1368
 3954SOL    HW123321   0.933   2.333   8.665  0.3731  0.5845 -1.7868
 3954SOL    HW223322   0.845   2.272   8.558  1.9717 -3.0285 -2.8394
 3955SOL     OW23323   3.017   4.166   0.585  0.2860  0.1337 -0.0681
 3955SOL    HW123324   3.091   4.227   0.583  0.9242 -0.5834  1.8841
 3955SOL    HW223325   2.941   4.217   0.556  0.2183  0.0937  0.0402
 3956SOL     OW23326   2.340   2.309  17.611  0.7955  0.2485  0.0996
 3956SOL    HW123327   2.277   2.315  17.683 -0.9856  0.9165 -1.5004
 3956SOL    HW223328   2.386   2.233  17.646 -0.2593  0.7245  2.4849
 3957SOL     OW23329   3.072   4.639  17.648 -0.1895 -0.9060  0.2351
 3957SOL    HW123330   3.072   4.705   0.031  0.4207 -0.6498 -0.0141
 3957SOL    HW223331   2.991   4.658  17.601 -0.0706 -1.4188 -0.1727
 3958SOL     OW23332   3.822   4.584   6.051 -0.5125 -0.7269 -0.0851
 3958SOL    HW123333   3.779   4.558   6.132 -0.2613  0.1725  0.3426
 3958SOL    HW223334   3.763   4.552   5.983 -1.4667 -1.0388  0.8817
 3959SOL     OW23335   4.583   4.712  14.488 -0.4489  0.1462 -0.3593
 3959SOL    HW123336   4.679   4.708  14.492 -0.3657  0.2943 -1.9327
 3959SOL    HW223337   4.572   0.027  14.399 -0.1491 -2.7017 -1.5290
 3960SOL     OW23338   0.512   0.803  15.642 -0.0993 -0.4026 -0.0595
 3960SOL    HW123339   0.500   0.823  15.549 -3.0750  0.3490  0.4904
 3960SOL    HW223340   0.537   0.887  15.680  0.2732 -0.3264 -0.4738
 3961SOL     OW23341   2.737   3.846  16.505 -0.5132 -0.1207  0.2089
 3961SOL    HW123342   2.762   3.854  16.597  3.5853 -0.0373 -0.9223
 3961SOL    HW223343   2.705   3.934  16.485 -0.5646 -0.3806 -0.8462
 3962SOL     OW23344   3.519   0.225   8.938 -0.2180 -0.3753 -0.2138
 3962SOL    HW123345   3.454   0.155   8.949 -0.7147 -0.2760 -2.4869
 3962SOL    HW223346   3.526   0.259   9.027  0.0369  0.0791 -0.4117
 3963SOL     OW23347   3.295   4.485   2.609  0.3990 -0.3641  0.1422
 3963SOL    HW123348   3.330   4.544   2.675  0.1025 -0.3656  0.3015
 3963SOL    HW223349   3.328   4.396   2.625  1.6714  0.0971  0.0170
 3964SOL     OW23350   1.705   1.238   5.063 -0.3440 -0.8075 -0.3055
 3964SOL    HW123351   1.753   1.320   5.071 -0.3415 -0.9003  0.6569
 3964SOL    HW223352   1.668   1.244   4.975  0.2874 -0.8651 -0.5735
 3965SOL     OW23353   4.312   3.451   5.958  0.6629  0.5027 -0.1301
 3965SOL    HW123354   4.388   3.399   5.929 -1.8640 -2.8385 -0.7430
 3965SOL    HW223355   4.249   3.417   5.894 -0.8550  4.2132 -0.5923
 3966SOL     OW23356   0.286   1.913   7.579  0.2957 -0.4610 -0.1248
 3966SOL    HW123357   0.244   1.914   7.665 -0.2030 -0.2933 -0.3685
 3966SOL    HW223358   0.358   1.976   7.586  0.9548 -1.4457  1.8063
 3967SOL     OW23359   3.800   3.278   1.227  0.4050  0.2742 -0.2746
 3967SOL    HW123360   3.862   3.207   1.208  2.0325  1.0955  1.9397
 3967SOL    HW223361   3.840   3.349   1.176  1.0868 -0.1423 -0.3283
 3968SOL     OW23362   4.259   0.029   2.830  0.3014  0.2249 -0.1702
 3968SOL    HW123363   4.324   4.704   2.883  1.1046  1.2061 -0.3064
 3968SOL    HW223364   4.317   0.078   2.771  1.3594  0.5445  1.1278
 3969SOL     OW23365   1.506   1.815   7.319  0.4422  0.0554 -0.2353
 3969SOL    HW123366   1.489   1.832   7.412 -2.0260  0.1898 -0.7066
 3969SOL    HW223367   1.597   1.788   7.309  0.8532  0.4359  2.4947
 3970SOL     OW23368   4.339   1.216   8.526 -0.6284  0.7296 -0.3350
 3970SOL    HW123369   4.307   1.215   8.616  1.8369  0.3944  0.5311
 3970SOL    HW223370   4.277   1.159   8.480  0.9711 -0.4594 -1.0240
 3971SOL     OW23371   1.031   4.008   6.602  0.7167 -0.3976  0.5272
 3971SOL    HW123372   1.022   4.092   6.558 -0.8080 -1.2635 -0.8069
 3971SOL    HW223373   0.942   4.008   6.638  2.0470  1.7317  3.8455
 3972SOL     OW23374   2.685   3.770   4.776  0.5611 -0.0979  0.2579
 3972SOL    HW123375   2.647   3.855   4.754  1.4457 -0.5082 -2.7999
 3972SOL    HW223376   2.769   3.799   4.812  0.0842  0.9644  0.5309
 3973SOL     OW23377   0.263   4.509   4.079  0.0597 -0.2249 -1.0708
 3973SOL    HW123378   0.315   4.570   4.026 -0.5248 -0.0036 -1.3942
 3973SOL    HW223379   0.321   4.501   4.154  0.4114 -0.2352 -1.3428
 3974SOL     OW23380   3.402   0.488   9.424 -0.0790 -0.1543  0.0816
 3974SOL    HW123381   3.496   0.486   9.410  0.1112  1.5185  1.1002
 3974SOL    HW223382   3.381   0.502   9.516  0.8017 -0.6976  0.3626
 3975SOL     OW23383   0.814   3.395   7.317  0.4341 -0.0465 -0.0778
 3975SOL    HW123384   0.853   3.345   7.245  0.0574  0.2988 -0.5269
 3975SOL    HW223385   0.817   3.478   7.269 -2.5705 -0.4896 -1.0457
 3976SOL     OW23386   0.139   3.039   8.020  0.3244 -0.3323  0.1376
 3976SOL    HW123387   0.188   3.038   7.938 -0.6569  0.4931 -0.4479
 3976SOL    HW223388   0.124   2.946   8.037 -2.0933  0.4698  2.3521
 3977SOL     OW23389   2.832   3.276   6.804 -0.2525  0.3967  0.0431
 3977SOL    HW123390   2.755   3.331   6.819 -0.9148 -1.7985  4.6880
 3977SOL    HW223391   2.903   3.340   6.809  0.8931 -1.0639  1.9022
 3978SOL     OW23392   2.580   2.107   3.567  0.4386 -0.0134 -0.4100
 3978SOL    HW123393   2.534   2.122   3.485  1.2494 -1.2855 -1.0842
 3978SOL    HW223394   2.652   2.170   3.554  0.8012  0.2063  2.4890
 3979SOL     OW23395   4.225   3.590   4.171  0.1726 -0.1987 -0.1610
 3979SOL    HW123396   4.135   3.615   4.148  0.5825  0.8223 -0.6172
 3979SOL    HW223397   4.223   3.497   4.147 -0.0256 -0.7333  1.9294
 3980SOL     OW23398   1.932   2.723   5.625  0.2706  0.2964  0.4210
 3980SOL    HW123399   1.986   2.793   5.660 -1.1168  0.3343  2.4927
 3980SOL    HW223400   1.981   2.683   5.553 -0.7230  1.0626 -0.6778
 3981SOL     OW23401   1.533   2.021   7.882 -0.2796 -0.2741 -0.2882
 3981SOL    HW123402   1.584   2.102   7.892 -1.2892  0.0493  2.1165
 3981SOL    HW223403   1.605   1.966   7.913  0.9239  0.5198 -1.6481
 3982SOL     OW23404   2.241   4.326   0.230 -0.3408 -0.3022 -0.2316
 3982SOL    HW123405   2.322   4.290   0.195 -0.5776 -0.4719 -0.6004
 3982SOL    HW223406   2.200   4.243   0.255  0.6521  0.6302  4.5761
 3983SOL     OW23407   2.553   4.545  13.870 -0.1893 -0.1713 -0.2531
 3983SOL    HW123408   2.521   4.458  13.895 -0.5794 -0.4302 -1.6474
 3983SOL    HW223409   2.521   4.560  13.782  0.0928  1.5657 -0.0575
 3984SOL     OW23410   4.245   4.616   2.146  0.4112 -0.7620 -0.0455
 3984SOL    HW123411   4.292   4.539   2.117 -1.2482 -2.2447  1.2278
 3984SOL    HW223412   4.283   4.686   2.092  0.3435  0.4439  1.4705
 3985SOL     OW23413   3.874   2.972   2.830 -0.1776  0.0628 -0.1283
 3985SOL    HW123414   3.793   3.023   2.831 -0.9423 -1.1929  0.5585
 3985SOL    HW223415   3.937   3.045   2.826 -0.7613  0.6190  1.0228
 3986SOL     OW23416   4.065   3.392  14.771 -0.6675 -0.5720  0.0930
 3986SOL    HW123417   4.063   3.485  14.749  0.8247 -0.1783  1.6438
 3986SOL    HW223418   4.157   3.367  14.775 -0.8322 -1.0619  0.9462
 3987SOL     OW23419   1.357   0.515   3.137  0.0353 -0.0900 -0.1520
 3987SOL    HW123420   1.389   0.595   3.177  2.7101 -0.8047 -0.8089
 3987SOL    HW223421   1.299   0.475   3.202  0.0593  0.7095  0.3525
 3988SOL     OW23422   2.165   1.863   6.616  0.0219 -0.0794 -0.4194
 3988SOL    HW123423   2.159   1.775   6.654 -1.0817  0.2350  0.1431
 3988SOL    HW223424   2.135   1.852   6.526 -1.5579 -2.2493  0.3830
 3989SOL     OW23425   4.302   1.963   5.161 -0.3691  0.0092 -0.1375
 3989SOL    HW123426   4.280   1.974   5.253 -1.1917 -3.1052  0.0219
 3989SOL    HW223427   4.394   1.989   5.152 -0.4283  0.1930 -0.2248
 3990SOL     OW23428   2.739   1.216   3.041 -0.1809 -0.6907 -0.0332
 3990SOL    HW123429   2.715   1.277   3.111  1.2255 -0.3259  0.1290
 3990SOL    HW223430   2.784   1.152   3.096 -2.7419 -1.6550  0.9956
 3991SOL     OW23431   1.296   1.958   5.586  0.1129  0.3821  0.0044
 3991SOL    HW123432   1.336   1.873   5.567  1.6128  0.7394  1.5853
 3991SOL    HW223433   1.229   1.934   5.649  0.7855 -0.1089  0.5355
 3992SOL     OW23434   1.976   2.966  16.694  0.5079 -0.1104  0.3049
 3992SOL    HW123435   1.917   2.998  16.761 -1.8189  0.4319 -2.0282
 3992SOL    HW223436   2.023   3.046  16.672 -0.9640 -0.0424 -2.5446
 3993SOL     OW23437   0.375   3.703   4.208 -0.3754 -0.2052  0.0842
 3993SOL    HW123438   0.333   3.625   4.244  2.7710 -2.1649 -0.4573
 3993SOL    HW223439   0.447   3.710   4.272 -0.5941  0.1899  0.2843
 3994SOL     OW23440   3.731   3.601  15.657 -0.1846 -0.3806 -0.1017
 3994SOL    HW123441   3.771   3.542  15.593  1.1815  0.4673 -0.0280
 3994SOL    HW223442   3.756   3.688  15.626 -1.4807  0.0243 -0.0012
 3995SOL     OW23443   2.823   1.683  11.989 -0.6194 -0.5144 -0.6938
 3995SOL    HW123444   2.891   1.702  11.925 -0.1590  1.3642  0.3528
 3995SOL    HW223445   2.751   1.739  11.959  0.9965  1.1391 -1.4760
 3996SOL     OW23446   0.683   0.417   0.888 -0.3190  0.1066  0.1237
 3996SOL    HW123447   0.596   0.412   0.848 -0.3028  0.5128  0.0365
 3996SOL    HW223448   0.661   0.358   0.961 -0.7568 -0.9698 -0.8783
 3997SOL     OW23449   0.178   3.621  13.790 -0.1927 -0.0315 -0.4780
 3997SOL    HW123450   0.083   3.612  13.801 -0.0989  0.0644  0.3837
 3997SOL    HW223451   0.193   3.542  13.739  1.2855 -1.4007  2.0866
 3998SOL     OW23452   3.797   2.503   8.785 -0.2431 -0.3257  0.1367
 3998SOL    HW123453   3.890   2.508   8.762  0.1878 -0.6780  1.7487
 3998SOL    HW223454   3.795   2.549   8.869  0.4295 -1.2137  0.6439
 3999SOL     OW23455   4.212   3.589   6.466 -0.4332 -0.2047  0.3184
 3999SOL    HW123456   4.139   3.650   6.479 -1.1362 -1.1641  0.8753
 3999SOL    HW223457   4.171   3.525   6.408 -0.9749  1.5160 -1.2026
 4000SOL     OW23458   0.522   3.826  15.033 -0.3849  0.0001 -0.2058
 4000SOL    HW123459   0.485   3.896  15.086 -0.2279  1.0093 -1.4232
 4000SOL    HW223460   0.524   3.869  14.948 -0.0346  0.5981  0.1096
 4001SOL     OW23461   2.268   2.233   6.020  0.1448  0.6114  0.3168
 4001SOL    HW123462   2.254   2.324   6.045 -0.8587  0.1451  1.4486
 4001SOL    HW223463   2.235   2.236   5.930  0.1308  0.7288  0.3259
 4002SOL     OW23464   2.318   1.013  12.274 -0.0070  0.1202 -0.4360
 4002SOL    HW123465   2.236   1.047  12.239  0.2031  0.6843 -0.3892
 4002SOL    HW223466   2.319   0.931  12.225  1.9302  1.2878 -2.3941
 4003SOL     OW23467   0.289   2.100  14.333 -0.5608  0.7020  0.5178
 4003SOL    HW123468   0.296   2.042  14.257 -1.5391  2.0892 -0.6367
 4003SOL    HW223469   0.324   2.179  14.292  0.4644  0.1649  0.3509
 4004SOL     OW23470   2.705   4.298   6.915  0.6507  0.1218  0.0474
 4004SOL    HW123471   2.675   4.322   6.828  0.8428  0.9716  0.2164
 4004SOL    HW223472   2.776   4.239   6.888  2.1783  2.0574 -0.1661
 4005SOL     OW23473   4.185   1.521   7.707 -0.0052 -1.0223 -0.0718
 4005SOL    HW123474   4.160   1.597   7.759 -1.0322 -0.5763 -1.2395
 4005SOL    HW223475   4.120   1.459   7.740 -0.1055 -0.1539  1.3467
 4006SOL     OW23476   3.775   0.946  12.206 -0.5085  0.3551  0.4686
 4006SOL    HW123477   3.684   0.974  12.199 -0.7165 -0.0744  1.4371
 4006SOL    HW223478   3.809   1.004  12.274 -0.5893  1.2775 -0.2804
 4007SOL     OW23479   3.351   2.671   6.154  0.7347 -0.5942 -0.0994
 4007SOL    HW123480   3.292   2.601   6.126 -0.5054  0.5851 -0.4329
 4007SOL    HW223481   3.285   2.736   6.128  0.3429 -0.2923  1.6257
 4008SOL     OW23482   3.015   1.830  14.940  0.1597 -0.3328  0.0342
 4008SOL    HW123483   2.988   1.774  14.868 -2.2257  3.0783 -1.7238
 4008SOL    HW223484   3.030   1.762  15.005 -0.1869 -0.5487 -0.1140
 4009SOL     OW23485   1.065   0.401   5.161  0.5298 -0.4407  0.6918
 4009SOL    HW123486   1.158   0.396   5.183  0.9922 -0.1862 -1.1908
 4009SOL    HW223487   1.070   0.367   5.071  0.6002 -1.8809  1.2417
 4010SOL     OW23488   3.972   4.203   2.649 -0.3812  0.0820  0.3136
 4010SOL    HW123489   3.934   4.117   2.635  1.0700 -0.1404 -2.2687
 4010SOL    HW223490   3.955   4.247   2.565  3.1178 -1.1203 -1.0026
 4011SOL     OW23491   3.050   1.727   1.860  0.4752 -0.8131 -0.9635
 4011SOL    HW123492   2.979   1.664   1.873  0.0363  0.0871  1.0299
 4011SOL    HW223493   3.121   1.662   1.854 -0.2003 -1.6788  0.2684
 4012SOL     OW23494   3.407   4.459   7.764 -0.2639  0.0587 -0.6283
 4012SOL    HW123495   3.465   4.531   7.787  2.0550 -1.6787 -1.0329
 4012SOL    HW223496   3.362   4.451   7.848 -0.1279  1.1604 -0.4539
 4013SOL     OW23497   1.345   3.394  10.724 -0.2903 -0.5571  0.2820
 4013SOL    HW123498   1.287   3.460  10.686 -0.4122 -0.3446  0.8313
 4013SOL    HW223499   1.364   3.354  10.640 -1.8831 -2.0399  0.6286
 4014SOL     OW23500   3.611   3.584   0.115 -0.0244  0.3229  0.3437
 4014SOL    HW123501   3.571   3.642   0.180 -3.3344 -0.0488 -1.3517
 4014SOL    HW223502   3.635   3.508   0.167 -3.1268 -1.5612 -0.9783
 4015SOL     OW23503   1.122   0.186   9.869  0.1387 -0.1504  0.0019
 4015SOL    HW123504   1.081   0.123   9.928 -1.0795 -2.0846 -2.8490
 4015SOL    HW223505   1.076   0.268   9.886 -0.3154  0.4337 -3.8653
 4016SOL     OW23506   4.643   3.455  12.105  0.1924  0.4866 -0.4155
 4016SOL    HW123507   4.693   3.536  12.094 -0.7589  1.3903  1.8434
 4016SOL    HW223508   4.710   3.390  12.085  0.5624  0.2487  1.6356
 4017SOL     OW23509   1.230   2.955   4.265  0.3746 -0.1404  0.3889
 4017SOL    HW123510   1.302   2.992   4.317  1.1893  1.1705 -1.6609
 4017SOL    HW223511   1.177   2.904   4.326  1.7390  0.3800  2.0222
 4018SOL     OW23512   0.308   3.317   5.025  0.3049  0.2852  0.2078
 4018SOL    HW123513   0.394   3.357   5.039  0.7979 -0.6152 -0.2173
 4018SOL    HW223514   0.267   3.317   5.111 -1.3496 -0.7511 -0.5690
 4019SOL     OW23515   2.725   0.907   5.394 -0.4118  0.2824 -0.5746
 4019SOL    HW123516   2.768   0.973   5.340  2.8033 -0.0532  1.5539
 4019SOL    HW223517   2.637   0.937   5.371 -0.3980  1.1089  0.4628
 4020SOL     OW23518   1.081   4.540   6.562  0.8651  0.4360 -0.0551
 4020SOL    HW123519   1.079   4.492   6.645 -0.0660  0.2921 -0.1672
 4020SOL    HW223520   1.050   4.628   6.584 -1.1648 -0.4144  0.4786
 4021SOL     OW23521   1.609   3.108   0.947 -0.1091 -0.4716 -0.5641
 4021SOL    HW123522   1.664   3.038   0.981  0.3248 -1.0098 -2.3458
 4021SOL    HW223523   1.619   3.091   0.853 -0.0919 -0.0753 -0.6368
 4022SOL     OW23524   1.817   3.716   1.946 -0.1884 -0.9064 -0.6174
 4022SOL    HW123525   1.903   3.679   1.926 -0.1002 -1.1242  0.1726
 4022SOL    HW223526   1.804   3.715   2.041  1.8515  1.7714 -0.2784
 4023SOL     OW23527   1.692   0.933   2.269  0.0365  0.3028  0.0171
 4023SOL    HW123528   1.614   0.975   2.233 -0.3648  0.3243  0.9067
 4023SOL    HW223529   1.721   0.868   2.204  0.7705  1.3731 -0.7313
 4024SOL     OW23530   1.070   4.073  14.851 -0.0893  0.6782  0.0140
 4024SOL    HW123531   1.042   4.143  14.791 -0.2863  0.9035  0.3706
 4024SOL    HW223532   1.051   3.992  14.805  0.4866 -0.2046  1.3529
 4025SOL     OW23533   0.654   0.465   1.578 -0.7913 -0.5709 -0.2411
 4025SOL    HW123534   0.717   0.405   1.619  0.1338  0.4204 -0.1896
 4025SOL    HW223535   0.711   0.526   1.531 -1.4376  1.5284  1.6687
 4026SOL     OW23536   1.114   3.612   7.941 -0.1619 -0.2690 -0.3451
 4026SOL    HW123537   1.196   3.609   7.990 -0.1540  3.5027 -0.1096
 4026SOL    HW223538   1.044   3.617   8.007 -0.3401 -0.8658 -0.4900
 4027SOL     OW23539   2.100   3.667   7.186  0.0275 -0.5195 -0.2849
 4027SOL    HW123540   2.159   3.592   7.188  2.0642  1.1450  2.0895
 4027SOL    HW223541   2.016   3.642   7.149  0.4513 -0.9556 -0.9550
 4028SOL     OW23542   2.404   4.109  16.040  0.2293  0.1753  0.0805
 4028SOL    HW123543   2.469   4.041  16.022 -0.1366 -0.0795 -0.2642
 4028SOL    HW223544   2.330   4.092  15.982 -0.5315 -0.8973  1.3638
 4029SOL     OW23545   2.031   0.853  15.194 -0.6535  0.1352  0.4360
 4029SOL    HW123546   2.046   0.935  15.148 -2.6678  0.2988  0.0653
 4029SOL    HW223547   2.119   0.817  15.207 -1.8320 -1.8524  2.7950
 4030SOL     OW23548   1.877   1.494  17.472 -0.6922  0.0100  0.2785
 4030SOL    HW123549   1.929   1.415  17.478  1.5299  1.4362 -0.1921
 4030SOL    HW223550   1.808   1.456  17.417  0.1431 -1.8921  0.5612
 4031SOL     OW23551   0.226   1.892   5.440 -0.4318  0.0004 -0.5489
 4031SOL    HW123552   0.267   1.958   5.384 -1.7083 -1.0430 -2.6707
 4031SOL    HW223553   0.148   1.867   5.391 -0.8224  2.1915 -1.0389
 4032SOL     OW23554   1.817   0.140  14.502 -0.2130  0.8033  0.2004
 4032SOL    HW123555   1.785   0.121  14.414 -1.7461 -0.1081  0.9599
 4032SOL    HW223556   1.877   0.067  14.520  2.1973  2.9741  1.0863
 4033SOL     OW23557   3.720   3.620   8.293 -0.4244 -0.0823  0.2090
 4033SOL    HW123558   3.727   3.705   8.336 -0.6921 -0.2504  0.5856
 4033SOL    HW223559   3.795   3.611   8.234 -0.1788 -1.7895  0.7659
 4034SOL     OW23560   2.369   0.367  11.607  0.0895 -0.4693 -0.1833
 4034SOL    HW123561   2.452   0.322  11.622  0.1793  0.1483  1.1959
 4034SOL    HW223562   2.347   0.325  11.524  0.4917 -2.2471  0.6060
 4035SOL     OW23563   3.635   3.862   2.419  0.2098  0.0901  0.6634
 4035SOL    HW123564   3.545   3.829   2.419 -0.4346  1.8707  0.0733
 4035SOL    HW223565   3.640   3.908   2.503 -0.4582  1.8177 -0.2575
 4036SOL     OW23566   1.267   4.708  14.269 -0.3470  0.1344 -0.2817
 4036SOL    HW123567   1.204   4.648  14.230 -0.5072  0.1114  0.0125
 4036SOL    HW223568   1.206   0.043  14.317  1.9839 -0.0785  2.9461
 4037SOL     OW23569   1.992   1.274   3.946  1.0517  0.3800  0.0827
 4037SOL    HW123570   1.936   1.296   3.872  1.5805  0.5837 -0.2511
 4037SOL    HW223571   2.064   1.329   3.913  0.8901 -0.8546 -2.3011
 4038SOL     OW23572   4.353   1.077   3.061  0.0802  0.1211  0.8358
 4038SOL    HW123573   4.378   0.986   3.046 -2.3946 -0.2433 -0.8804
 4038SOL    HW223574   4.321   1.101   2.974  2.2079  1.0622  0.2991
 4039SOL     OW23575   2.081   1.324   1.624 -0.0482  0.3078 -0.0417
 4039SOL    HW123576   2.022   1.292   1.693  0.7358 -1.4708 -0.1951
 4039SOL    HW223577   2.075   1.240   1.580  1.2535  0.9670 -1.4798
 4040SOL     OW23578   1.673   0.681  12.789  0.2716  0.1982  0.4885
 4040SOL    HW123579   1.632   0.604  12.750 -0.5962  0.5668  0.6764
 4040SOL    HW223580   1.764   0.650  12.785  0.5852  1.6626 -3.5150
 4041SOL     OW23581   3.887   1.172   0.327  0.7233 -0.0744  0.1825
 4041SOL    HW123582   3.870   1.093   0.378  0.0155  0.0349  0.1162
 4041SOL    HW223583   3.845   1.229   0.392  0.9645 -1.8098  1.8396
 4042SOL     OW23584   0.756   0.513   6.464 -0.1217  0.2951 -0.3234
 4042SOL    HW123585   0.671   0.552   6.441  0.1529  1.4300  0.5660
 4042SOL    HW223586   0.736   0.437   6.519  0.2681 -0.9386 -1.8752
 4043SOL     OW23587   3.329   4.121   6.564 -0.1566 -0.2344  0.1510
 4043SOL    HW123588   3.242   4.151   6.590 -0.8397  0.0539 -2.4395
 4043SOL    HW223589   3.386   4.183   6.609  1.1163 -0.7820 -0.6791
 4044SOL     OW23590   2.520   0.542   6.607 -0.3589 -0.3660 -0.3849
 4044SOL    HW123591   2.600   0.511   6.650 -1.5302 -2.4943  0.2511
 4044SOL    HW223592   2.445   0.513   6.658  1.1718  1.1497  2.7951
 4045SOL     OW23593   1.813   0.377   8.533  0.1527  0.7263 -0.2408
 4045SOL    HW123594   1.856   0.386   8.618 -0.5698 -1.6538  0.3822
 4045SOL    HW223595   1.723   0.399   8.557 -0.1652  1.5739 -2.2155
 4046SOL     OW23596   3.693   4.421   9.870  0.2357  0.2456 -0.7261
 4046SOL    HW123597   3.758   4.478   9.911  0.7144 -0.8945  0.1022
 4046SOL    HW223598   3.742   4.339   9.881 -0.2925  0.0072 -0.1272
 4047SOL     OW23599   1.828   1.893   5.161  0.0004 -0.0920 -0.0833
 4047SOL    HW123600   1.799   1.949   5.089  1.1463  2.6372  1.6074
 4047SOL    HW223601   1.919   1.889   5.131 -0.5066 -1.0793 -1.5235
 4048SOL     OW23602   1.684   3.087   1.621 -0.0879  0.2888 -0.7754
 4048SOL    HW123603   1.630   3.012   1.594 -0.7613  0.1127  1.1079
 4048SOL    HW223604   1.631   3.142   1.679  0.3930  1.3118 -1.3031
 4049SOL     OW23605   0.615   4.058   9.160 -0.1933 -0.6032  0.0614
 4049SOL    HW123606   0.530   4.087   9.193 -0.6591  0.9522 -2.5204
 4049SOL    HW223607   0.637   3.985   9.218  0.3283 -0.6548 -0.2025
 4050SOL     OW23608   0.794   3.430   5.975 -0.3300  0.1778  0.1087
 4050SOL    HW123609   0.769   3.412   5.885  1.9163  0.5051 -0.5723
 4050SOL    HW223610   0.882   3.464   5.959  0.0332 -0.2381  1.2151
 4051SOL     OW23611   1.338   4.633  16.517  0.1332 -0.2881  0.8161
 4051SOL    HW123612   1.390   4.666  16.444 -1.4533 -1.0807 -0.6811
 4051SOL    HW223613   1.344   4.538  16.507  1.6608 -0.6726  5.2212
 4052SOL     OW23614   2.172   1.280   8.641 -0.0770 -0.5611 -0.4292
 4052SOL    HW123615   2.159   1.305   8.549  0.2367  1.3788  0.0423
 4052SOL    HW223616   2.083   1.287   8.674 -0.6475  2.5777 -2.5519
 4053SOL     OW23617   1.667   1.521   0.491  0.4298 -0.2417 -0.0419
 4053SOL    HW123618   1.616   1.515   0.410 -0.9873  0.0426  0.8383
 4053SOL    HW223619   1.691   1.613   0.497  1.1297 -0.4683  0.7238
 4054SOL     OW23620   1.457   4.056  13.499 -0.2838  0.3706  0.1600
 4054SOL    HW123621   1.414   4.020  13.422  1.8205  0.6608 -1.1408
 4054SOL    HW223622   1.449   4.151  13.492  2.1853  0.6446  0.8522
 4055SOL     OW23623   2.629   3.564   7.034 -0.3747 -0.0903  0.1980
 4055SOL    HW123624   2.551   3.584   6.982  0.7386  1.1294 -1.0203
 4055SOL    HW223625   2.695   3.572   6.965  1.2674 -0.8078  1.6758
 4056SOL     OW23626   4.466   3.965   6.751 -0.2823  0.4393 -0.4169
 4056SOL    HW123627   4.407   3.925   6.815  1.3442  0.6626  1.2313
 4056SOL    HW223628   4.550   3.926   6.776 -0.8085 -0.7255 -0.4928
 4057SOL     OW23629   3.957   1.431   6.140 -0.0831  0.0425 -0.0148
 4057SOL    HW123630   3.969   1.381   6.059 -0.0142  1.0601 -0.6222
 4057SOL    HW223631   4.039   1.406   6.183 -0.0052 -0.5929 -0.5397
 4058SOL     OW23632   3.670   0.342  14.479  0.3871  0.0538 -0.2554
 4058SOL    HW123633   3.686   0.431  14.446 -2.6819  0.4274 -0.7654
 4058SOL    HW223634   3.636   0.301  14.399 -2.0458 -0.2396  0.9154
 4059SOL     OW23635   2.997   2.813   4.787  0.1636 -0.4363  0.1271
 4059SOL    HW123636   2.929   2.855   4.839 -1.8822 -0.8039 -2.2550
 4059SOL    HW223637   2.958   2.792   4.702 -2.0903  0.1886  1.0228
 4060SOL     OW23638   2.388   3.735   5.025 -0.5368 -0.1452  0.3709
 4060SOL    HW123639   2.437   3.813   5.050 -1.0330  0.1842  0.3052
 4060SOL    HW223640   2.327   3.726   5.098 -0.6252 -0.4767  0.2560
 4061SOL     OW23641   3.870   4.434  17.262 -0.6917 -0.2486  0.7121
 4061SOL    HW123642   3.926   4.366  17.227  0.0470  0.9214 -0.3645
 4061SOL    HW223643   3.832   4.475  17.184  1.7932 -0.7797 -0.7636
 4062SOL     OW23644   1.660   1.363   3.351  0.2424 -0.0803 -0.2936
 4062SOL    HW123645   1.656   1.433   3.286 -0.4207  1.8378  1.8235
 4062SOL    HW223646   1.735   1.315   3.317  1.5083  1.2132  0.7216
 4063SOL     OW23647   1.874   0.892   9.409  0.1067 -0.6816  0.0847
 4063SOL    HW123648   1.946   0.829   9.404 -0.4934 -1.3132 -0.5684
 4063SOL    HW223649   1.905   0.950   9.479 -0.2420 -0.6275  0.1935
 4064SOL     OW23650   1.829   1.844   8.875  0.4222 -0.4151  0.1693
 4064SOL    HW123651   1.790   1.869   8.958  0.7835  1.3762 -0.2068
 4064SOL    HW223652   1.749   1.847   8.823 -0.5106  2.7348  1.7484
 4065SOL     OW23653   1.970   2.441  17.592  0.1178  0.1712 -0.1266
 4065SOL    HW123654   1.969   2.524  17.638 -0.6763  0.0370  0.0848
 4065SOL    HW223655   2.026   2.383  17.644  1.2036  1.0505 -0.3167
 4066SOL     OW23656   2.141   2.751   3.099 -0.2049 -0.5021 -0.3117
 4066SOL    HW123657   2.195   2.819   3.059 -0.2103 -0.7486 -0.7459
 4066SOL    HW223658   2.195   2.676   3.074 -1.5639 -1.5558 -0.1061
 4067SOL     OW23659   3.675   3.315   0.561 -0.2922 -0.5938 -0.7801
 4067SOL    HW123660   3.630   3.232   0.581  0.0652 -0.7832 -0.7452
 4067SOL    HW223661   3.745   3.310   0.627  0.3628 -1.0190 -1.5018
 4068SOL     OW23662   2.163   1.443   2.436 -0.2053  0.1813 -0.2819
 4068SOL    HW123663   2.143   1.374   2.499 -0.5043 -1.1272 -1.8043
 4068SOL    HW223664   2.256   1.429   2.421 -0.1920 -0.8347  0.7435
 4069SOL     OW23665   4.051   3.170  12.628 -0.2058 -0.0575 -0.0916
 4069SOL    HW123666   4.131   3.221  12.633 -1.2705  1.7280 -1.1581
 4069SOL    HW223667   4.053   3.136  12.538 -0.8126 -1.1132  0.2929
 4070SOL     OW23668   3.591   1.450  12.468  0.0665 -0.4822  0.2204
 4070SOL    HW123669   3.642   1.408  12.537  0.4567 -0.5342 -0.1019
 4070SOL    HW223670   3.510   1.407  12.497 -0.0608 -0.0746  0.4635
 4071SOL     OW23671   4.598   1.869   6.790  0.2778 -0.0633 -0.1213
 4071SOL    HW123672   4.617   1.915   6.709  1.9391  1.2700  1.0173
 4071SOL    HW223673   4.646   1.787   6.779 -0.3781 -0.3785 -0.6312
 4072SOL     OW23674   1.802   0.115  17.389 -0.4584 -0.1389  0.6384
 4072SOL    HW123675   1.783   0.061  17.312  0.6297  1.6888 -0.9014
 4072SOL    HW223676   1.725   0.126  17.445 -2.4105 -1.8132 -1.7475
 4073SOL     OW23677   3.973   1.802   8.028  0.2709 -0.2792 -0.1541
 4073SOL    HW123678   4.031   1.805   8.105 -2.5929 -0.6733  2.0014
 4073SOL    HW223679   3.894   1.838   8.067 -0.7010 -1.5783 -0.9381
 4074SOL     OW23680   1.383   1.356   3.245 -0.2818 -0.2910 -0.3499
 4074SOL    HW123681   1.442   1.402   3.304  1.1014 -1.2854 -0.9631
 4074SOL    HW223682   1.308   1.332   3.299 -0.6530  2.6363  0.4013
 4075SOL     OW23683   3.096   4.695   7.601 -0.2633 -0.2220  0.0373
 4075SOL    HW123684   3.079   4.673   7.693 -0.6925 -0.2847 -0.0557
 4075SOL    HW223685   3.039   0.051   7.592  0.7433  0.4302 -0.7624
 4076SOL     OW23686   2.464   1.687   0.477 -0.2536 -0.2179  0.0375
 4076SOL    HW123687   2.503   1.750   0.418  0.9730 -0.3534  0.6980
 4076SOL    HW223688   2.464   1.604   0.428  0.6488 -0.9511  1.2774
 4077SOL     OW23689   3.113   0.564   3.004  0.2836 -0.2132 -0.1380
 4077SOL    HW123690   3.162   0.539   2.926 -0.5614 -1.9073 -0.1342
 4077SOL    HW223691   3.128   0.657   2.988  1.8179 -0.3751  0.3064
 4078SOL     OW23692   1.352   1.109   3.133  0.0666 -0.5194  0.6046
 4078SOL    HW123693   1.332   1.128   3.041  0.7045  0.8526  0.7462
 4078SOL    HW223694   1.408   1.185   3.148  0.4905 -1.0686  1.7664
 4079SOL     OW23695   4.672   0.774  12.327  0.3480  0.3569  0.1738
 4079SOL    HW123696   0.019   0.812  12.271  0.6588 -1.5946 -0.8105
 4079SOL    HW223697   4.601   0.744  12.270  0.5229 -0.0906  0.1892
 4080SOL     OW23698   4.267   3.044   0.351  0.1115 -0.0566 -0.8292
 4080SOL    HW123699   4.182   3.080   0.327 -0.6231 -1.3324 -0.1569
 4080SOL    HW223700   4.270   2.961   0.302  0.4410 -0.3039 -0.3885
 4081SOL     OW23701   2.615   4.277  16.091  0.2288  0.7323 -0.6418
 4081SOL    HW123702   2.668   4.229  16.155 -2.1034 -0.8883  0.0699
 4081SOL    HW223703   2.532   4.231  16.104  0.1008  1.5256  1.3332
 4082SOL     OW23704   2.600   1.244  10.056 -0.1707  0.4202  0.0976
 4082SOL    HW123705   2.581   1.288  10.139  0.3129 -1.1688  1.0558
 4082SOL    HW223706   2.594   1.316   9.994 -1.1101  0.9933  0.8650
 4083SOL     OW23707   0.634   1.204   5.796  0.1154 -0.3485 -0.5118
 4083SOL    HW123708   0.554   1.182   5.844  1.5256 -1.5698  1.2568
 4083SOL    HW223709   0.615   1.217   5.703 -0.6898  0.8609 -0.1926
 4084SOL     OW23710   0.049   4.207   0.848  0.1194  0.5275  0.3791
 4084SOL    HW123711   0.068   4.301   0.851 -0.6694  0.7339 -1.1718
 4084SOL    HW223712   0.016   4.208   0.758  0.1406 -1.0366  0.3586
 4085SOL     OW23713   0.870   1.742   2.892 -0.3498 -0.2762  0.3237
 4085SOL    HW123714   0.952   1.692   2.889 -1.2608 -1.7446  0.1569
 4085SOL    HW223715   0.849   1.768   2.802  1.2410 -0.2012 -0.0289
 4086SOL     OW23716   2.297   4.658   4.593  0.3732  0.7585  0.3889
 4086SOL    HW123717   2.203   4.660   4.577  0.4118  0.9141  0.1921
 4086SOL    HW223718   2.310   0.014   4.648  0.3979  0.0351  1.4002
 4087SOL     OW23719   0.944   2.602  13.006  0.2169  0.5343 -0.5274
 4087SOL    HW123720   1.033   2.634  13.022  1.1054 -1.1502 -2.1492
 4087SOL    HW223721   0.918   2.572  13.093  2.0083  0.8979  0.1328
 4088SOL     OW23722   1.627   1.844   8.671  0.4554  0.3925 -0.0323
 4088SOL    HW123723   1.690   1.835   8.599 -0.8818  0.8273 -1.2580
 4088SOL    HW223724   1.586   1.929   8.659 -1.0820 -0.3730 -0.2731
 4089SOL     OW23725   1.378   1.300   6.934 -0.4629 -0.2402  0.0812
 4089SOL    HW123726   1.332   1.220   6.910 -1.2322  0.6307 -1.3218
 4089SOL    HW223727   1.450   1.289   6.872 -0.7184 -2.0701  0.1130
 4090SOL     OW23728   2.960   1.630  12.866 -0.1906 -0.3389  0.4223
 4090SOL    HW123729   3.028   1.688  12.834  0.9090 -0.6361  2.2088
 4090SOL    HW223730   2.885   1.687  12.847  0.3115  0.0464 -0.3825
 4091SOL     OW23731   4.699   0.083   9.206  0.3444 -0.6576 -0.6088
 4091SOL    HW123732   0.006   0.048   9.290 -1.6912  1.5921  1.0330
 4091SOL    HW223733   4.689   0.006   9.150 -0.8050 -0.5626 -0.5518
 4092SOL     OW23734   2.631   0.836  11.129  0.6783 -0.3103  0.3743
 4092SOL    HW123735   2.559   0.792  11.175  0.2014  2.1319  1.9959
 4092SOL    HW223736   2.623   0.805  11.039  1.1001 -0.5529  0.4195
 4093SOL     OW23737   1.786   3.793   5.747 -0.3246  0.3743 -0.2475
 4093SOL    HW123738   1.852   3.859   5.770  0.1568  0.1628 -1.0457
 4093SOL    HW223739   1.709   3.847   5.768  1.3190  2.2300  1.0661
 4094SOL     OW23740   3.167   1.922   5.934 -0.0880  0.2828  0.6281
 4094SOL    HW123741   3.167   1.987   5.864  2.8542 -0.9636 -0.5067
 4094SOL    HW223742   3.145   1.966   6.016 -1.0941  1.2787 -0.1839
 4095SOL     OW23743   3.609   3.602   9.677 -0.0496 -0.1043  0.2282
 4095SOL    HW123744   3.617   3.551   9.597  0.9271  1.1536 -0.4647
 4095SOL    HW223745   3.565   3.674   9.634 -0.9975 -0.6256  0.3204
 4096SOL     OW23746   0.928   1.882   6.553  0.1067  0.2922 -0.6441
 4096SOL    HW123747   0.857   1.924   6.601 -1.7309  0.1186 -3.1684
 4096SOL    HW223748   0.999   1.926   6.598 -0.0485 -0.3367  0.2249
 4097SOL     OW23749   3.473   3.566   0.753  0.1496 -0.2274  0.6897
 4097SOL    HW123750   3.406   3.625   0.788 -1.9458 -1.6501 -0.9188
 4097SOL    HW223751   3.532   3.566   0.828 -1.6227  2.6551  2.0810
 4098SOL     OW23752   0.213   1.461  15.432 -0.4685 -0.0572 -0.0684
 4098SOL    HW123753   0.183   1.551  15.418  0.1314 -0.2116 -2.3178
 4098SOL    HW223754   0.126   1.430  15.455  0.3991 -2.0803  0.4489
 4099SOL     OW23755   2.348   0.131   7.400 -0.8503 -0.1726 -0.3126
 4099SOL    HW123756   2.316   0.201   7.458 -0.0043  0.6349 -0.8133
 4099SOL    HW223757   2.273   0.094   7.354 -0.3198 -1.4479 -0.1575
 4100SOL     OW23758   3.758   1.235   5.936 -0.2255  0.2910  0.4346
 4100SOL    HW123759   3.718   1.300   5.877  0.3776  3.0335  3.0459
 4100SOL    HW223760   3.849   1.266   5.937  0.6407 -2.2948  1.8682
 4101SOL     OW23761   2.053   2.199   1.196  0.3850  0.1942  0.5045
 4101SOL    HW123762   2.019   2.168   1.280 -0.7911  0.8007  0.2449
 4101SOL    HW223763   2.087   2.284   1.223  1.4678  0.1746 -0.7731
 4102SOL     OW23764   4.151   2.259   7.796  0.6733  0.3190  0.2120
 4102SOL    HW123765   4.181   2.322   7.730  0.3568  0.6317  0.3606
 4102SOL    HW223766   4.105   2.192   7.746 -1.9803  1.2647  1.3862
 4103SOL     OW23767   0.612   2.045   6.053 -0.3152  0.1053  0.0908
 4103SOL    HW123768   0.667   2.011   6.123  0.1664  0.8461  0.0724
 4103SOL    HW223769   0.537   2.053   6.113  0.4967 -1.8536  1.3744
 4104SOL     OW23770   3.771   1.472   3.683  0.3464  0.4549  0.2641
 4104SOL    HW123771   3.794   1.383   3.709  0.1518  0.3986  0.2462
 4104SOL    HW223772   3.736   1.458   3.595  1.5155 -0.4515 -0.0566
 4105SOL     OW23773   2.387   1.839   8.061 -0.4571 -0.3887  0.3048
 4105SOL    HW123774   2.453   1.902   8.031  1.2913 -3.1070 -1.5404
 4105SOL    HW223775   2.416   1.820   8.150  0.5336 -1.7380 -0.3232
 4106SOL     OW23776   3.240   1.532   4.948  0.0313 -0.3046  0.4051
 4106SOL    HW123777   3.246   1.628   4.956 -0.0614 -0.1711 -1.0875
 4106SOL    HW223778   3.256   1.510   5.039  0.4614 -1.4832  0.0361
 4107SOL     OW23779   2.878   0.250   6.865  0.0110 -0.2169  0.1359
 4107SOL    HW123780   2.947   0.310   6.839  0.1180 -0.1375  0.6109
 4107SOL    HW223781   2.882   0.185   6.794 -0.4070  1.1921 -1.1844
 4108SOL     OW23782   3.975   4.620   0.716  0.2565  0.2380 -0.4957
 4108SOL    HW123783   3.888   4.639   0.680  0.5765  0.8748 -0.9109
 4108SOL    HW223784   4.005   4.573   0.639  1.3262  0.2122 -0.0620
 4109SOL     OW23785   3.989   2.043   8.307 -0.3731  0.2544  0.3012
 4109SOL    HW123786   4.017   2.086   8.388  0.1017 -0.1374  0.3451
 4109SOL    HW223787   4.022   1.956   8.326  1.2422  0.6717 -0.6179
 4110SOL     OW23788   0.220   1.427   4.801 -0.2797 -0.5865 -0.2709
 4110SOL    HW123789   0.280   1.378   4.856 -1.1583 -0.0147  1.1768
 4110SOL    HW223790   0.278   1.472   4.739 -1.0295 -0.1001 -0.6309
 4111SOL     OW23791   1.380   3.168   5.185  0.1882 -0.1090  0.0591
 4111SOL    HW123792   1.343   3.173   5.097 -0.9095 -1.6532  0.4349
 4111SOL    HW223793   1.427   3.085   5.178  1.2678  0.4829  0.2747
 4112SOL     OW23794   0.784   2.077   0.878  0.3589 -0.1763  0.7205
 4112SOL    HW123795   0.730   2.056   0.954 -1.5637  1.1782 -0.2879
 4112SOL    HW223796   0.818   1.993   0.849 -0.5368  0.2483 -1.5734
 4113SOL     OW23797   4.444   1.233   3.499 -0.1472  0.1057 -0.4404
 4113SOL    HW123798   4.403   1.299   3.443  0.3052 -1.3661 -2.4828
 4113SOL    HW223799   4.395   1.154   3.476 -0.7637  0.6483 -0.9786
 4114SOL     OW23800   1.920   4.513   5.963 -0.1500 -0.7228 -0.5303
 4114SOL    HW123801   1.850   4.464   6.007  1.5508 -2.6121  0.0946
 4114SOL    HW223802   1.876   4.598   5.965 -1.4333 -1.4139  1.3928
 4115SOL     OW23803   1.754   0.797   3.696 -0.8721  0.2939 -0.4227
 4115SOL    HW123804   1.822   0.840   3.747  0.2194  1.3616 -2.7811
 4115SOL    HW223805   1.700   0.874   3.678 -1.3026 -0.7600 -3.7346
 4116SOL     OW23806   2.413   3.084  11.462 -0.1832  0.3194  0.6096
 4116SOL    HW123807   2.377   3.120  11.381  2.5814  0.6220 -0.4873
 4116SOL    HW223808   2.478   3.150  11.486  1.8281 -0.8892 -1.5710
 4117SOL     OW23809   1.266   2.600   7.138 -0.1557 -0.0389 -0.5560
 4117SOL    HW123810   1.274   2.691   7.166 -1.2110 -0.4746  1.1519
 4117SOL    HW223811   1.193   2.604   7.076 -0.5088 -4.1709 -0.4072
 4118SOL     OW23812   2.314   2.612  10.435 -0.0793  0.0783  0.3033
 4118SOL    HW123813   2.320   2.655  10.521  3.5276 -0.5287  0.3494
 4118SOL    HW223814   2.272   2.528  10.456  0.4096 -0.2230  0.0777
 4119SOL     OW23815   1.029   3.670   6.450  0.0009  0.0945  0.5609
 4119SOL    HW123816   0.969   3.712   6.512 -2.7271 -2.6705 -0.2500
 4119SOL    HW223817   1.041   3.741   6.387  1.8325 -0.5559  0.1782
 4120SOL     OW23818   1.722   0.958   9.113  0.0786 -0.0136  0.1153
 4120SOL    HW123819   1.720   0.921   9.201 -0.8673  0.7019  0.3999
 4120SOL    HW223820   1.708   0.881   9.059  1.1165 -0.5550  0.6291
 4121SOL     OW23821   2.024   3.563  15.319  0.7689  0.0423 -0.3613
 4121SOL    HW123822   1.959   3.511  15.271  0.3444  0.6877 -0.4910
 4121SOL    HW223823   1.997   3.654  15.314 -1.1553 -0.6387 -2.5730
 4122SOL     OW23824   2.610   3.716  16.815  0.1322  0.4343  0.2594
 4122SOL    HW123825   2.587   3.726  16.907 -1.6462  0.3974 -0.1893
 4122SOL    HW223826   2.684   3.656  16.827  0.5946  0.9399 -0.0254
 4123SOL     OW23827   0.202   4.283   5.794 -0.2309 -0.2746 -0.3236
 4123SOL    HW123828   0.271   4.314   5.736 -0.6964  1.7957  0.2511
 4123SOL    HW223829   0.247   4.247   5.871 -0.4928 -0.0460 -0.0662
 4124SOL     OW23830   2.454   2.728   3.995 -0.3464  0.1674 -0.3725
 4124SOL    HW123831   2.370   2.750   3.955 -2.0037  0.5358  3.3574
 4124SOL    HW223832   2.463   2.805   4.051  2.5811  1.0312 -1.9992
 4125SOL     OW23833   3.970   2.157   8.011 -0.1893  0.1740 -0.7832
 4125SOL    HW123834   4.049   2.114   8.046  0.6625 -0.1608 -3.1043
 4125SOL    HW223835   3.919   2.191   8.085  1.9745 -0.7835  1.1594
 4126SOL     OW23836   0.693   2.421   3.473 -0.3387 -0.2716 -0.0902
 4126SOL    HW123837   0.612   2.449   3.429  0.7107 -0.0412 -1.8483
 4126SOL    HW223838   0.654   2.346   3.517  1.2720  0.0734  1.9047
 4127SOL     OW23839   0.214   4.533   8.121  0.8826  0.1440  0.0068
 4127SOL    HW123840   0.230   4.614   8.072 -1.4113  0.9655  0.6134
 4127SOL    HW223841   0.287   4.478   8.091 -0.6848 -1.9159 -0.0841
 4128SOL     OW23842   4.665   3.977   8.795  0.4428  0.2563  0.3681
 4128SOL    HW123843   4.575   4.007   8.811 -0.0697 -2.3327  2.3825
 4128SOL    HW223844   4.665   3.920   8.872  0.0344 -1.6495 -1.0461
 4129SOL     OW23845   1.873   4.171   1.138 -0.6830  0.0054 -0.4320
 4129SOL    HW123846   1.930   4.101   1.105 -2.7128 -1.4914 -0.7250
 4129SOL    HW223847   1.931   4.240   1.169  0.5411 -0.8350 -0.8299
 4130SOL     OW23848   1.313   1.212  13.326  0.9754 -0.1467  0.0799
 4130SOL    HW123849   1.249   1.254  13.268 -0.1603 -3.3886 -1.0227
 4130SOL    HW223850   1.382   1.278  13.316  4.2009 -3.6224 -0.6102
 4131SOL     OW23851   0.587   1.480   7.229 -0.0015  0.5310  0.1013
 4131SOL    HW123852   0.508   1.479   7.175  0.3955 -0.0022 -0.4660
 4131SOL    HW223853   0.564   1.546   7.294 -2.6382 -0.3103  0.0107
 4132SOL     OW23854   2.017   2.251   9.405  0.3988 -0.0319 -0.0882
 4132SOL    HW123855   1.939   2.301   9.383 -0.3871 -1.2129 -0.0086
 4132SOL    HW223856   2.045   2.296   9.484 -0.2037  1.6700 -0.8621
 4133SOL     OW23857   2.648   3.685   1.899 -0.2000 -0.4863 -0.6214
 4133SOL    HW123858   2.554   3.699   1.896  0.2442  2.3037 -1.2595
 4133SOL    HW223859   2.651   3.618   1.830  0.5216 -0.2806 -0.7937
 4134SOL     OW23860   1.958   0.730   6.514  0.1619 -0.1281  0.0537
 4134SOL    HW123861   1.971   0.749   6.421 -0.9045  1.0432  0.1431
 4134SOL    HW223862   1.870   0.693   6.511  0.2513 -0.4426  1.3256
 4135SOL     OW23863   3.146   4.010   8.959  0.0981  0.1388 -0.0849
 4135SOL    HW123864   3.104   4.011   8.873 -2.0949 -0.8719  0.9650
 4135SOL    HW223865   3.221   4.067   8.949 -0.0356 -0.0976 -2.4334
 4136SOL     OW23866   1.035   2.882   4.616 -0.8752 -0.2042  0.2128
 4136SOL    HW123867   0.993   2.823   4.678 -0.5471  0.7744  1.3770
 4136SOL    HW223868   1.044   2.826   4.539  0.5176  0.0922  0.1568
 4137SOL     OW23869   4.000   2.016   0.613  0.3190 -0.5086  0.3469
 4137SOL    HW123870   4.013   2.102   0.654 -1.8978 -0.0893  0.1937
 4137SOL    HW223871   4.051   2.018   0.533 -1.3858 -0.7353 -0.7507
 4138SOL     OW23872   2.110   3.763   3.332 -0.0353 -0.5046  0.2929
 4138SOL    HW123873   2.123   3.731   3.243 -1.1457  0.1597 -0.1066
 4138SOL    HW223874   2.017   3.783   3.322  0.1196 -0.4833 -1.0878
 4139SOL     OW23875   2.230   2.663   2.628  0.1905  0.4436  0.4122
 4139SOL    HW123876   2.256   2.662   2.720  2.1832 -1.4431 -0.1649
 4139SOL    HW223877   2.141   2.697   2.639 -0.5700 -0.8772 -1.7847
 4140SOL     OW23878   0.984   0.694   5.920  0.0638  0.3174  0.4157
 4140SOL    HW123879   1.024   0.614   5.955  0.7670  0.5479  0.1350
 4140SOL    HW223880   1.033   0.762   5.967  1.3583  0.2393 -0.8191
 4141SOL     OW23881   1.156   3.860  15.567 -0.2466 -0.2399  0.2461
 4141SOL    HW123882   1.170   3.913  15.646 -2.0532  0.2976  0.2208
 4141SOL    HW223883   1.214   3.787  15.588 -0.2882  0.2311  2.0000
 4142SOL     OW23884   2.919   0.567   5.126 -0.8193  0.1944 -0.1291
 4142SOL    HW123885   2.845   0.604   5.078 -1.7157  1.0358  1.9035
 4142SOL    HW223886   2.913   0.614   5.209 -2.2852  0.5082 -0.4157
 4143SOL     OW23887   0.868   1.380   4.231  0.5320 -0.5407 -0.2573
 4143SOL    HW123888   0.818   1.299   4.244 -1.1005  0.6399  0.7946
 4143SOL    HW223889   0.931   1.384   4.303  1.0162 -0.3130 -0.6969
 4144SOL     OW23890   0.024   4.305   4.808  0.6392  0.4755 -0.6755
 4144SOL    HW123891   4.655   4.309   4.842  0.2159  2.0306 -1.9947
 4144SOL    HW223892   0.057   4.216   4.824  1.3271  0.6755 -1.0069
 4145SOL     OW23893   4.325   3.754   3.588 -0.0934  0.6164 -0.0565
 4145SOL    HW123894   4.243   3.723   3.627 -1.1892  1.6259 -1.5720
 4145SOL    HW223895   4.396   3.722   3.645 -1.5137 -1.7458  0.3927
 4146SOL     OW23896   0.197   2.905   8.846 -0.2227  0.0405  0.1231
 4146SOL    HW123897   0.198   2.843   8.919 -0.5579 -0.0722  0.0293
 4146SOL    HW223898   0.104   2.910   8.827 -0.1014  0.8467 -0.2470
 4147SOL     OW23899   4.652   2.367   0.112 -1.0134  0.6833  0.6475
 4147SOL    HW123900   4.629   2.417   0.033  0.2818  2.2446  1.2795
 4147SOL    HW223901   4.585   2.406   0.168 -2.4231 -1.7803  0.6844
 4148SOL     OW23902   4.710   4.674   0.376  0.0484 -0.1719 -0.8050
 4148SOL    HW123903   4.669   4.673   0.463  1.6067 -0.4604 -0.0868
 4148SOL    HW223904   4.642   0.002   0.330 -1.2021  2.5903  3.8847
 4149SOL     OW23905   3.175   4.373   0.595 -0.6630 -0.0204 -0.4053
 4149SOL    HW123906   3.204   4.339   0.510  0.2327 -1.7005  0.5801
 4149SOL    HW223907   3.187   4.468   0.585  0.7050 -0.3295 -1.6125
 4150SOL     OW23908   2.638   0.783   6.612  0.2171  0.3527  0.2932
 4150SOL    HW123909   2.591   0.701   6.594 -2.2901  1.5393  1.4397
 4150SOL    HW223910   2.730   0.769   6.592  0.4818  1.9505  0.3688
 4151SOL     OW23911   0.096   4.281   4.355 -0.1233  0.4487 -0.6479
 4151SOL    HW123912   0.175   4.254   4.309  0.1579  1.2147 -0.6093
 4151SOL    HW223913   0.137   4.332   4.425  2.0286 -0.8731 -0.9593
 4152SOL     OW23914   3.305   2.060   8.238  0.2694 -0.3312 -0.3026
 4152SOL    HW123915   3.370   2.128   8.257  1.7431 -1.4477 -1.2617
 4152SOL    HW223916   3.240   2.120   8.202  0.3355  0.2912  0.6167
 4153SOL     OW23917   2.519   4.146  14.024 -0.0074  0.1225  0.1965
 4153SOL    HW123918   2.579   4.101  13.965  0.8674  1.8625 -0.2326
 4153SOL    HW223919   2.469   4.202  13.965 -0.2848  0.9751  1.2367
 4154SOL     OW23920   2.010   3.282   0.276 -0.1265  0.3681 -0.5317
 4154SOL    HW123921   2.051   3.344   0.216  0.1679  1.0493  0.3748
 4154SOL    HW223922   2.052   3.311   0.358  1.3787  1.4792 -1.7034
 4155SOL     OW23923   1.274   1.795   4.260 -0.1670 -0.2220  0.2253
 4155SOL    HW123924   1.263   1.701   4.267  1.5881 -0.5773 -2.0154
 4155SOL    HW223925   1.363   1.801   4.226  0.6692 -2.0490  2.1061
 4156SOL     OW23926   1.063   1.147   3.684  0.7573 -0.1525  0.0340
 4156SOL    HW123927   1.017   1.139   3.601 -0.9321 -1.1345  1.0434
 4156SOL    HW223928   1.151   1.164   3.652  0.2776  0.5395 -0.9083
 4157SOL     OW23929   0.850   0.503   4.882  0.6612  0.4662 -0.9552
 4157SOL    HW123930   0.880   0.437   4.820  0.2027  0.8784 -1.6222
 4157SOL    HW223931   0.755   0.500   4.867  0.3689 -0.7273  1.0881
 4158SOL     OW23932   3.406   2.059   7.224 -0.7676  0.8096  0.6621
 4158SOL    HW123933   3.428   2.084   7.135  1.9191 -0.3969  0.9755
 4158SOL    HW223934   3.493   2.031   7.254 -0.4840 -0.8937 -1.7355
 4159SOL     OW23935   4.379   1.721   6.832  0.5986  0.0682  0.2964
 4159SOL    HW123936   4.348   1.754   6.917  1.6592  2.3786 -0.2089
 4159SOL    HW223937   4.465   1.764   6.832  1.3610 -1.4813 -1.1812
 4160SOL     OW23938   3.778   3.124   7.064 -0.0433 -0.1977 -0.0629
 4160SOL    HW123939   3.853   3.161   7.110 -0.2251  2.1685 -1.6515
 4160SOL    HW223940   3.708   3.110   7.128  0.9770  1.0798  1.3389
 4161SOL     OW23941   3.243   1.116   1.689 -0.2312  0.5860 -0.3728
 4161SOL    HW123942   3.303   1.134   1.616  0.6675 -1.4086 -0.1116
 4161SOL    HW223943   3.188   1.194   1.697  0.6872  1.3536 -1.5044
 4162SOL     OW23944   4.275   0.755   3.372  0.3792  0.1309  0.3223
 4162SOL    HW123945   4.190   0.743   3.328 -1.3098 -0.6033  3.7939
 4162SOL    HW223946   4.276   0.676   3.426 -2.6780  0.6470  1.1417
 4163SOL     OW23947   0.338   2.659   4.701  0.1147  0.4297  0.6035
 4163SOL    HW123948   0.319   2.750   4.725  0.7577  0.7660 -0.1936
 4163SOL    HW223949   0.367   2.626   4.786 -0.4084  0.3166  0.7376
 4164SOL     OW23950   2.868   2.166   1.244 -0.3319  0.0924 -0.1460
 4164SOL    HW123951   2.802   2.097   1.251  2.6694 -2.6507  1.4254
 4164SOL    HW223952   2.827   2.248   1.269  1.9440  1.0962  0.3140
 4165SOL     OW23953   0.153   4.149  10.016  0.2782 -0.0084 -0.3733
 4165SOL    HW123954   0.121   4.234  10.045  1.9309  1.1680 -1.9431
 4165SOL    HW223955   0.121   4.141   9.926 -1.5849 -3.9073  0.6478
 4166SOL     OW23956   1.219   2.664  13.088  0.0318 -0.1941 -0.1396
 4166SOL    HW123957   1.272   2.680  13.166  1.1395  1.9939 -1.3455
 4166SOL    HW223958   1.281   2.669  13.015 -0.6533 -2.1945 -0.8666
 4167SOL     OW23959   3.197   4.591   3.979  0.2740  0.3234 -0.4017
 4167SOL    HW123960   3.274   4.578   3.924 -0.5748 -2.7352 -0.9081
 4167SOL    HW223961   3.186   4.502   4.014  0.3831  1.1757  1.7937
 4168SOL     OW23962   0.294   0.650  17.655  0.1529  0.2889  0.6244
 4168SOL    HW123963   0.237   0.675   0.042 -0.6337  2.8084 -0.8673
 4168SOL    HW223964   0.270   0.561  17.629 -1.8139  1.3502 -1.1339
 4169SOL     OW23965   3.811   2.247  17.013 -0.0222  0.2871  0.0214
 4169SOL    HW123966   3.725   2.279  16.984 -0.6411 -0.0737  1.4906
 4169SOL    HW223967   3.871   2.321  17.011 -0.5152  0.6501 -1.5281
 4170SOL     OW23968   3.853   2.077   1.991 -0.4127 -0.0491  0.0743
 4170SOL    HW123969   3.890   2.037   2.069  1.1669 -0.0622 -0.6852
 4170SOL    HW223970   3.772   2.027   1.981  0.2142 -1.3685  1.7236
 4171SOL     OW23971   3.323   4.492   7.033 -0.2651  0.0601  1.1222
 4171SOL    HW123972   3.364   4.578   7.031  1.2596 -0.6707  1.4447
 4171SOL    HW223973   3.254   4.504   6.968  0.0721  1.3364  0.9947
 4172SOL     OW23974   0.891   0.870   7.725 -0.4698  0.2935  0.1661
 4172SOL    HW123975   0.865   0.834   7.640 -0.8366  0.3002  0.2744
 4172SOL    HW223976   0.936   0.953   7.707  1.9057 -1.0339  0.0583
 4173SOL     OW23977   0.871   0.725   2.540  0.4164  0.1864 -0.5118
 4173SOL    HW123978   0.815   0.766   2.607  3.5679  1.8660  1.0672
 4173SOL    HW223979   0.806   0.662   2.509  0.0492 -0.0079  0.6513
 4174SOL     OW23980   2.871   2.167   4.500  0.3954  0.2027 -0.4421
 4174SOL    HW123981   2.864   2.101   4.431  2.3837 -1.1249  0.6155
 4174SOL    HW223982   2.914   2.226   4.439 -1.5322  1.3024 -0.7469
 4175SOL     OW23983   1.837   3.262   4.431  0.3561 -0.1139 -0.9496
 4175SOL    HW123984   1.760   3.301   4.389  1.2181  0.7165 -1.7487
 4175SOL    HW223985   1.780   3.224   4.498  1.3207  0.4054  0.1651
 4176SOL     OW23986   2.820   3.999   9.724 -0.3172 -0.1713  0.3092
 4176SOL    HW123987   2.835   3.908   9.698  2.5184  0.8313 -1.5336
 4176SOL    HW223988   2.725   3.999   9.719 -0.3910  3.3000  1.6469
 4177SOL     OW23989   2.583   2.067   4.505 -0.5309  0.6988 -0.4089
 4177SOL    HW123990   2.570   2.019   4.423 -1.5390 -2.3694  1.5749
 4177SOL    HW223991   2.677   2.083   4.498 -1.3638  4.9197 -2.4547
 4178SOL     OW23992   3.665   3.970   1.386  0.3922 -0.4401  0.1566
 4178SOL    HW123993   3.575   4.000   1.401 -0.0109 -0.9684 -1.2457
 4178SOL    HW223994   3.688   4.017   1.306 -0.8150  2.0976  1.2957
 4179SOL     OW23995   4.401   1.874  12.816 -0.3247 -0.2738  0.2739
 4179SOL    HW123996   4.315   1.839  12.840 -1.3189  2.0887  0.1863
 4179SOL    HW223997   4.377   1.921  12.737  1.7283  0.6639  0.2036
 4180SOL     OW23998   4.638   4.574   4.255 -0.1984  0.2103  0.5572
 4180SOL    HW123999   4.705   4.506   4.251 -0.8691 -0.3943 -0.4309
 4180SOL    HW224000   4.651   4.594   4.348  0.2259  2.1657  0.0750
 4181SOL     OW24001   4.025   1.276  10.813  0.4076 -0.1381  0.4872
 4181SOL    HW124002   3.970   1.354  10.813  0.0475 -0.4010 -0.3375
 4181SOL    HW224003   4.045   1.267  10.720  0.1590 -2.7421  0.6849
 4182SOL     OW24004   2.922   3.443   9.461  0.1758  0.9581 -0.0687
 4182SOL    HW124005   2.904   3.349   9.449  1.0310  0.5300  1.8721
 4182SOL    HW224006   2.925   3.462   9.555 -1.4574  3.0806 -0.4591
 4183SOL     OW24007   4.181   1.171   7.830  0.1345  0.1387 -0.4310
 4183SOL    HW124008   4.091   1.139   7.841 -0.6539  2.2559 -0.5293
 4183SOL    HW224009   4.229   1.091   7.811 -0.3677 -0.4692  0.9165
 4184SOL     OW24010   2.679   4.340   5.649 -0.0221 -0.0900  0.1630
 4184SOL    HW124011   2.687   4.320   5.742 -2.4406 -0.6077  0.2408
 4184SOL    HW224012   2.587   4.365   5.650 -0.2144 -0.6901 -2.8594
 4185SOL     OW24013   3.377   2.097   4.395 -0.4472  0.0589  0.4048
 4185SOL    HW124014   3.399   2.183   4.432 -0.0500  0.0207  0.2467
 4185SOL    HW224015   3.401   2.044   4.471 -2.2253  0.3147  1.1613
 4186SOL     OW24016   1.429   1.324  16.361 -0.3196  0.0204  0.1095
 4186SOL    HW124017   1.521   1.295  16.360 -0.3572 -0.0972  0.0934
 4186SOL    HW224018   1.403   1.346  16.272  0.9925  3.2874  0.5430
 4187SOL     OW24019   3.762   1.878   9.064 -0.4321 -0.4361  0.6731
 4187SOL    HW124020   3.693   1.890   9.129  1.6105 -0.5682  2.8871
 4187SOL    HW224021   3.753   1.960   9.015 -3.0085 -2.4021 -2.1205
 4188SOL     OW24022   2.002   3.956   5.059 -0.4059  0.3605 -0.5395
 4188SOL    HW124023   1.911   3.987   5.061  0.3581  2.4497  1.5046
 4188SOL    HW224024   2.008   3.934   4.966  0.6786  1.2603 -0.6846
 4189SOL     OW24025   1.708   3.276  10.176 -0.0739  0.2489 -0.1254
 4189SOL    HW124026   1.673   3.189  10.154 -1.8488  0.6986  0.9334
 4189SOL    HW224027   1.787   3.266  10.123 -0.2614 -1.4644 -0.0840
 4190SOL     OW24028   0.384   4.069  10.749 -0.5467  0.5849 -0.2125
 4190SOL    HW124029   0.310   4.063  10.809 -0.4240 -0.4976 -0.1824
 4190SOL    HW224030   0.404   4.161  10.765  0.0129 -0.2903  4.1196
 4191SOL     OW24031   3.640   0.556   6.534 -0.3982 -0.2447 -0.4634
 4191SOL    HW124032   3.639   0.649   6.512  0.7226  0.0913  0.9502
 4191SOL    HW224033   3.722   0.528   6.495 -0.2772  1.3802 -1.3733
 4192SOL     OW24034   3.440   2.599  10.611  0.3589 -0.1611 -0.3753
 4192SOL    HW124035   3.446   2.509  10.581 -1.1405  0.0028 -1.1636
 4192SOL    HW224036   3.517   2.640  10.571  0.6257 -0.2611  0.0380
 4193SOL     OW24037   2.311   1.452   6.496 -0.3312 -0.0762 -0.0447
 4193SOL    HW124038   2.365   1.472   6.573 -0.1479 -1.2748  0.1382
 4193SOL    HW224039   2.347   1.369   6.467 -0.4796 -0.6944  1.5462
 4194SOL     OW24040   1.224   2.057   4.783 -0.3112  0.1242  0.0007
 4194SOL    HW124041   1.283   1.998   4.831  0.8396 -1.6614 -3.6501
 4194SOL    HW224042   1.258   2.145   4.799 -3.3343  1.3902 -0.4456
 4195SOL     OW24043   2.273   2.475   4.475  0.3775  0.2563  0.4496
 4195SOL    HW124044   2.283   2.396   4.423 -2.3376 -0.8750  1.6208
 4195SOL    HW224045   2.329   2.535   4.427  0.9360 -0.8855 -0.3240
 4196SOL     OW24046   2.747   2.990   2.101  0.2702  0.7440 -0.0468
 4196SOL    HW124047   2.763   3.029   2.015 -0.9207  0.0950 -0.5646
 4196SOL    HW224048   2.671   3.043   2.125 -1.3904 -1.1114 -1.1955
 4197SOL     OW24049   3.486   1.869  13.267  0.4669  0.5811  0.1566
 4197SOL    HW124050   3.417   1.899  13.326  0.8037  1.2331  0.2226
 4197SOL    HW224051   3.537   1.810  13.321  0.6410 -0.4865 -1.1759
 4198SOL     OW24052   1.374   0.347   7.017  0.0970  0.1567  0.2809
 4198SOL    HW124053   1.310   0.317   7.082 -0.6898 -0.4422 -0.7807
 4198SOL    HW224054   1.313   0.401   6.967 -0.0370  0.7539  1.0924
 4199SOL     OW24055   1.616   2.139  12.828 -0.1632  0.1531 -0.2898
 4199SOL    HW124056   1.621   2.082  12.905  0.4457 -0.1224 -0.5319
 4199SOL    HW224057   1.603   2.230  12.856 -0.9808  0.0532 -0.3433
 4200SOL     OW24058   0.483   3.930  14.779 -0.1329 -0.4177 -0.0780
 4200SOL    HW124059   0.482   4.009  14.725  0.3364 -2.0818 -2.5372
 4200SOL    HW224060   0.497   3.862  14.713  1.9822 -0.9826  0.9697
 4201SOL     OW24061   4.301   0.572   0.442 -0.4263 -0.2731  0.4872
 4201SOL    HW124062   4.356   0.547   0.368  0.1349 -1.4527  1.3232
 4201SOL    HW224063   4.309   0.668   0.445  0.8909 -0.3978  0.9420
 4202SOL     OW24064   3.795   1.820   7.468  0.5825  0.5160 -0.0936
 4202SOL    HW124065   3.813   1.858   7.554  2.4895  2.1242 -1.2066
 4202SOL    HW224066   3.707   1.852   7.451  0.3312 -0.6513 -0.9556
 4203SOL     OW24067   0.047   3.956   0.930  0.2350 -0.2390  0.2669
 4203SOL    HW124068   0.133   3.953   0.973  0.8249 -1.0477 -0.9487
 4203SOL    HW224069   0.045   4.044   0.892  2.0442 -1.4234 -2.5899
 4204SOL     OW24070   0.431   2.560   3.317 -0.2273 -0.1665 -0.6451
 4204SOL    HW124071   0.357   2.541   3.375 -1.1111  1.5707 -1.2269
 4204SOL    HW224072   0.450   2.645   3.356  0.3036 -1.2030  1.3482
 4205SOL     OW24073   3.486   4.159  10.181  0.6355  0.2156  0.3927
 4205SOL    HW124074   3.570   4.161  10.226  0.8223  0.0874  0.0415
 4205SOL    HW224075   3.428   4.127  10.251 -0.3684 -0.1646 -0.6197
 4206SOL     OW24076   2.893   1.329   1.915  0.0828  0.3646 -0.0796
 4206SOL    HW124077   2.819   1.381   1.945  0.0085 -0.8430  1.8084
 4206SOL    HW224078   2.837   1.265   1.870  0.4170  0.8769 -1.2320
 4207SOL     OW24079   0.082   1.305   8.591 -0.3283 -0.3696 -0.2243
 4207SOL    HW124080   0.010   1.248   8.563  0.2112 -1.0337 -0.2648
 4207SOL    HW224081   0.058   1.392   8.560 -1.0863 -0.8785 -1.0602
 4208SOL     OW24082   4.600   3.250   5.039 -0.0681  0.1176  0.0707
 4208SOL    HW124083   4.565   3.275   5.125 -1.1790  1.1558 -0.6803
 4208SOL    HW224084   4.634   3.162   5.058  0.7394  1.1050  3.2311
 4209SOL     OW24085   4.329   3.369   1.883  0.4301  0.1078  0.9455
 4209SOL    HW124086   4.251   3.321   1.909  1.8860 -2.2071  1.0465
 4209SOL    HW224087   4.346   3.414   1.966  0.5468  0.8461  0.5268
 4210SOL     OW24088   3.778   0.264   8.853  0.1976  0.1145  0.5310
 4210SOL    HW124089   3.695   0.285   8.894 -0.3929  2.4634 -1.9109
 4210SOL    HW224090   3.773   0.300   8.764  1.4557 -1.5361 -0.2146
 4211SOL     OW24091   0.898   2.157  13.028  0.4546  0.3091  1.0246
 4211SOL    HW124092   0.922   2.065  13.026 -1.5921 -0.1826 -1.1251
 4211SOL    HW224093   0.894   2.173  12.934  1.9523  2.1442  1.2729
 4212SOL     OW24094   0.027   1.236   7.504 -0.2541 -0.2928 -0.1371
 4212SOL    HW124095   0.058   1.170   7.442  0.5874 -0.3793  0.3877
 4212SOL    HW224096   0.061   1.317   7.466  1.3063 -0.2533  1.3937
 4213SOL     OW24097   0.076   1.959   8.060 -0.2700  0.0442  0.5405
 4213SOL    HW124098   0.132   1.981   7.986 -0.3399  2.8675  1.3585
 4213SOL    HW224099   0.094   2.022   8.129 -0.2360 -0.1550  0.7147
 4214SOL     OW24100   2.123   0.419  11.706  0.1220 -0.9107  0.6917
 4214SOL    HW124101   2.096   0.329  11.688 -1.6818 -0.1735 -0.3439
 4214SOL    HW224102   2.217   0.420  11.689  0.1526  1.0667  0.9441
 4215SOL     OW24103   3.620   3.458  13.464  0.1215 -0.1810  0.5488
 4215SOL    HW124104   3.574   3.439  13.382  1.0517 -0.6073  0.1256
 4215SOL    HW224105   3.688   3.391  13.454 -0.5751 -0.9275  0.7485
 4216SOL     OW24106   0.782   4.131   3.441 -0.1554 -0.4386  0.1787
 4216SOL    HW124107   0.758   4.160   3.529  1.3282 -0.1002  0.4741
 4216SOL    HW224108   0.705   4.150   3.389  0.8796  1.9863 -0.4334
 4217SOL     OW24109   0.841   2.267   6.058 -0.1219  0.2989  0.2360
 4217SOL    HW124110   0.857   2.180   6.023  0.9163 -0.0758  1.6269
 4217SOL    HW224111   0.795   2.312   5.987  1.2018  1.2671 -0.0139
 4218SOL     OW24112   0.418   3.074  14.354  0.8070 -0.0483 -0.2862
 4218SOL    HW124113   0.343   3.018  14.371  0.8956 -0.3585 -0.9151
 4218SOL    HW224114   0.382   3.153  14.314  0.3356  0.0138  0.2587
 4219SOL     OW24115   2.398   2.699   2.899 -0.2891 -1.0651  0.2426
 4219SOL    HW124116   2.484   2.673   2.867  0.2981  0.9163  0.1798
 4219SOL    HW224117   2.419   2.775   2.953 -0.9486  1.2672 -2.7651
 4220SOL     OW24118   4.391   4.254  17.043 -0.2175  0.3733 -0.2653
 4220SOL    HW124119   4.357   4.342  17.028 -2.6556 -0.6632 -0.8856
 4220SOL    HW224120   4.461   4.250  16.979 -0.2735  1.9237 -0.4063
 4221SOL     OW24121   0.279   0.158   7.550  0.4672 -0.1602  0.3263
 4221SOL    HW124122   0.318   0.073   7.571  0.7487  0.3621  1.8974
 4221SOL    HW224123   0.204   0.111   7.513  1.5819 -1.3831 -0.4190
 4222SOL     OW24124   2.101   0.891  11.068  0.1238 -0.2126  0.4144
 4222SOL    HW124125   2.047   0.904  11.146  2.1212  0.3048  1.6843
 4222SOL    HW224126   2.148   0.974  11.067 -1.5979  0.7866  1.8704
 4223SOL     OW24127   2.309   1.005   4.459  0.3094 -0.1188  0.2626
 4223SOL    HW124128   2.260   1.087   4.455  0.7582  0.0838 -1.1268
 4223SOL    HW224129   2.395   1.038   4.484  1.3355 -0.7779 -2.3435
 4224SOL     OW24130   2.164   3.174   9.726  0.3687 -0.6235  0.4344
 4224SOL    HW124131   2.112   3.131   9.793 -0.9558 -2.7449 -1.9401
 4224SOL    HW224132   2.252   3.155   9.759  1.5826  2.4285 -1.0133
 4225SOL     OW24133   2.308   0.230   8.918  0.3628 -0.5264 -0.1315
 4225SOL    HW124134   2.316   0.172   8.842  0.2318  0.6959 -1.0960
 4225SOL    HW224135   2.390   0.222   8.965 -0.4200  0.0907  1.3253
 4226SOL     OW24136   0.871   4.019  17.602 -0.1521  0.5629  0.4951
 4226SOL    HW124137   0.866   4.088  17.536  1.4601 -0.9823 -1.2507
 4226SOL    HW224138   0.905   4.058  17.683  0.3885  1.0967  0.0153
 4227SOL     OW24139   0.125   3.204   2.479  0.1396 -0.0293  0.0103
 4227SOL    HW124140   0.079   3.277   2.438  0.1908 -0.3921 -0.7062
 4227SOL    HW224141   0.124   3.232   2.570 -0.9320  0.4271 -0.1324
 4228SOL     OW24142   3.938   3.820  14.962 -0.6583 -0.2854 -0.2515
 4228SOL    HW124143   3.871   3.766  15.004 -0.1747 -2.2136 -1.9696
 4228SOL    HW224144   4.011   3.814  15.025  0.6940 -0.4049 -1.8282
 4229SOL     OW24145   0.843   2.794  15.718 -0.1713  0.4410 -0.1515
 4229SOL    HW124146   0.853   2.713  15.769 -0.3210 -0.5550 -1.7154
 4229SOL    HW224147   0.853   2.852  15.794  0.0571  1.1598 -0.7374
 4230SOL     OW24148   2.338   1.437  10.015  0.1034 -0.1280 -0.1687
 4230SOL    HW124149   2.418   1.481   9.988 -2.2575  4.1255 -0.2423
 4230SOL    HW224150   2.310   1.504  10.078  1.5784  0.8318 -0.5512
 4231SOL     OW24151   0.109   1.451   4.289 -0.4448 -0.3157 -0.0103
 4231SOL    HW124152   0.061   1.418   4.365 -1.0567 -0.3281 -0.4025
 4231SOL    HW224153   0.072   1.539   4.294 -0.5268 -0.3897  0.7408
 4232SOL     OW24154   2.645   0.093   6.686 -0.3595  0.1733 -0.6829
 4232SOL    HW124155   2.574   0.030   6.688 -0.9104  0.8468  1.1002
 4232SOL    HW224156   2.603   0.154   6.747  0.9835 -0.2983  0.7156
 4233SOL     OW24157   0.144   2.248   4.642  0.2196 -0.3485 -0.5389
 4233SOL    HW124158   0.171   2.161   4.615 -0.9918 -0.6881 -0.6503
 4233SOL    HW224159   0.143   2.243   4.738 -1.1859 -1.1065 -0.6026
 4234SOL     OW24160   0.624   3.363  16.794 -0.1643 -0.1745  0.7737
 4234SOL    HW124161   0.554   3.419  16.827 -0.3585 -1.1239  2.0034
 4234SOL    HW224162   0.576   3.308  16.732 -0.2685 -1.3195  1.8570
 4235SOL     OW24163   3.104   3.763   8.447 -0.7273 -0.9373 -0.0380
 4235SOL    HW124164   3.049   3.821   8.499  0.0325 -1.0506  0.9023
 4235SOL    HW224165   3.184   3.751   8.498 -0.7498 -2.6754 -0.4012
 4236SOL     OW24166   0.170   2.677   7.294  0.1511  0.1494 -0.4087
 4236SOL    HW124167   0.201   2.675   7.204 -1.6895  0.0246 -1.0424
 4236SOL    HW224168   0.214   2.601   7.331 -0.0406 -1.1037 -2.7834
 4237SOL     OW24169   3.199   2.604   5.158  0.1630  0.0523 -0.4354
 4237SOL    HW124170   3.224   2.597   5.066  1.4759 -2.1493  0.0844
 4237SOL    HW224171   3.291   2.617   5.183  0.1982  2.4901 -1.7729
 4238SOL     OW24172   3.183   2.712  17.109 -0.1496 -0.4633 -0.0896
 4238SOL    HW124173   3.179   2.763  17.190 -2.6387 -0.7726 -0.0157
 4238SOL    HW224174   3.093   2.701  17.079 -0.1014 -0.4560 -0.2361
 4239SOL     OW24175   2.082   1.798   4.433 -0.5777 -0.5705 -0.1170
 4239SOL    HW124176   2.169   1.818   4.399  0.5881 -0.8879  2.6640
 4239SOL    HW224177   2.042   1.771   4.351 -1.6737  1.1754 -0.1682
 4240SOL     OW24178   0.139   0.574  10.060  0.1426 -0.7006  0.3374
 4240SOL    HW124179   0.069   0.587  10.124  1.8000 -0.4980  2.1147
 4240SOL    HW224180   0.111   0.496  10.013 -0.0079 -0.3883 -0.0861
 4241SOL     OW24181   0.761   4.497  14.823 -0.1176  0.5908  0.4173
 4241SOL    HW124182   0.690   4.553  14.854 -1.1671 -1.4888  1.7693
 4241SOL    HW224183   0.835   4.517  14.880 -0.8166  0.0498  1.5161
 4242SOL     OW24184   3.873   4.201   5.615  0.2438  0.3838 -0.1240
 4242SOL    HW124185   3.854   4.292   5.590 -1.7405  0.5754  2.0922
 4242SOL    HW224186   3.808   4.148   5.570  0.7215 -1.4957  1.4048
 4243SOL     OW24187   0.319   4.179  11.139 -0.2234 -0.4024 -0.1513
 4243SOL    HW124188   0.415   4.176  11.140 -0.1604  1.8498 -0.8212
 4243SOL    HW224189   0.312   4.274  11.133 -1.2473 -0.3905  1.4085
 4244SOL     OW24190   2.407   3.705   6.486  0.0200  0.0770  0.1699
 4244SOL    HW124191   2.361   3.695   6.569 -0.3048  1.1042  0.1146
 4244SOL    HW224192   2.473   3.771   6.507  0.3427 -0.4826  0.9299
 4245SOL     OW24193   1.491   0.290   3.625 -0.3362  0.0002 -0.2729
 4245SOL    HW124194   1.465   0.230   3.555 -2.1975  0.1592  0.2867
 4245SOL    HW224195   1.583   0.306   3.603 -0.5613 -1.4985 -2.3148
 4246SOL     OW24196   0.544   2.595  17.387 -0.2659 -0.5012 -0.4210
 4246SOL    HW124197   0.551   2.500  17.385 -0.9041 -0.5803  1.1645
 4246SOL    HW224198   0.613   2.623  17.327  1.1158 -0.1572  1.3407
 4247SOL     OW24199   2.977   3.664   6.712  0.6087 -0.7030 -0.5249
 4247SOL    HW124200   2.997   3.758   6.710 -2.7156  0.0255  0.2008
 4247SOL    HW224201   2.930   3.652   6.630  0.6295 -0.7622 -0.5280
 4248SOL     OW24202   2.723   0.235   9.490 -0.3058  0.1673 -0.0605
 4248SOL    HW124203   2.720   0.261   9.582  1.7715  2.2774 -0.6063
 4248SOL    HW224204   2.801   0.277   9.454 -1.4762  1.9773 -0.4631
 4249SOL     OW24205   0.968   4.282   5.274  0.5907  0.0617  0.8198
 4249SOL    HW124206   0.922   4.270   5.357  0.2694  0.4881  0.7055
 4249SOL    HW224207   1.015   4.366   5.279 -1.1594  1.0341  0.8859
 4250SOL     OW24208   4.223   0.554   7.336  0.0510  0.1033 -0.1225
 4250SOL    HW124209   4.258   0.466   7.349  1.7909  1.0680  1.7341
 4250SOL    HW224210   4.184   0.561   7.423 -0.1933  0.0076 -0.2256
 4251SOL     OW24211   1.971   2.186   0.613  0.1834  0.3122  0.0291
 4251SOL    HW124212   2.039   2.218   0.672  0.6445  0.1732 -0.4294
 4251SOL    HW224213   1.909   2.257   0.629 -0.2370 -0.0750  0.1326
 4252SOL     OW24214   1.707   2.966   7.547 -0.4288  0.0743 -0.1248
 4252SOL    HW124215   1.770   2.987   7.615 -1.4920 -1.9481  1.4844
 4252SOL    HW224216   1.633   2.969   7.607  0.3754  1.1579  0.7912
 4253SOL     OW24217   4.114   2.947  16.800 -0.5068 -1.1796  0.1690
 4253SOL    HW124218   4.144   2.891  16.871  1.7667 -0.2701 -0.0775
 4253SOL    HW224219   4.191   3.002  16.781 -2.2172  1.3594  0.6352
 4254SOL     OW24220   2.348   4.582  11.904  0.0934 -0.0973 -0.1722
 4254SOL    HW124221   2.380   4.646  11.967 -2.2572  0.3087  0.6305
 4254SOL    HW224222   2.422   4.574  11.844 -0.4158 -0.7526 -0.7212
 4255SOL     OW24223   3.095   3.448   8.059  0.6974 -0.2910  0.7511
 4255SOL    HW124224   3.178   3.493   8.043 -0.3430  1.6925  0.9707
 4255SOL    HW224225   3.113   3.404   8.142  3.2016  0.2680  0.4960
 4256SOL     OW24226   1.972   2.558   2.942 -0.1100 -0.2758  0.2939
 4256SOL    HW124227   1.978   2.533   2.850 -1.3687 -0.7134  0.3357
 4256SOL    HW224228   2.050   2.515   2.979 -0.8784 -0.0121  2.2184
 4257SOL     OW24229   2.996   1.135   7.434  0.3359 -0.2019  0.3857
 4257SOL    HW124230   3.088   1.111   7.442  0.3596 -0.7196 -1.4155
 4257SOL    HW224231   2.950   1.051   7.427  0.2390 -0.2085  1.0323
 4258SOL     OW24232   0.356   1.830   6.368 -0.2042 -0.3689 -0.2973
 4258SOL    HW124233   0.346   1.738   6.346 -0.0069 -0.5575  0.3930
 4258SOL    HW224234   0.441   1.840   6.411 -1.4111 -0.2128  2.0469
 4259SOL     OW24235   3.850   1.804  10.295 -0.1581 -0.0807  0.2663
 4259SOL    HW124236   3.831   1.898  10.290 -0.6061 -0.2505 -1.1113
 4259SOL    HW224237   3.930   1.792  10.245  0.4086  0.8872  0.9519
 4260SOL     OW24238   3.139   0.899   7.123  0.2085  0.2156 -0.4828
 4260SOL    HW124239   3.160   0.965   7.057 -0.1776  0.4472 -0.3686
 4260SOL    HW224240   3.050   0.877   7.097  0.4894 -0.9663 -0.4356
 4261SOL     OW24241   4.608   1.483   2.862 -0.3697 -0.4426 -0.5255
 4261SOL    HW124242   4.571   1.424   2.796  1.6578 -0.7360 -1.3859
 4261SOL    HW224243   4.544   1.476   2.933  0.7407 -2.9206  0.2117
 4262SOL     OW24244   1.043   0.582   4.561 -0.1542  0.1066  0.3646
 4262SOL    HW124245   1.015   0.672   4.545 -1.6589 -0.7549 -2.0501
 4262SOL    HW224246   0.958   0.538   4.571 -0.1179 -0.0080  0.1785
 4263SOL     OW24247   1.458   0.173   6.080 -0.8847 -0.1703  0.1647
 4263SOL    HW124248   1.486   0.138   5.995  1.3436  1.3852  0.2479
 4263SOL    HW224249   1.364   0.166   6.064 -0.3878 -2.6430 -1.7541
 4264SOL     OW24250   1.075   4.662   6.231  0.7907  0.8078  0.1618
 4264SOL    HW124251   1.085   4.568   6.244  0.6818  0.4694 -2.1537
 4264SOL    HW224252   1.108   4.691   6.316  2.0138 -1.5682  0.4878
 4265SOL     OW24253   0.379   4.625   5.994  0.4130  0.3175  0.7650
 4265SOL    HW124254   0.404   4.570   5.920 -1.6081 -0.5437  0.7325
 4265SOL    HW224255   0.365   4.706   5.944  0.7409 -2.0362 -3.1853
 4266SOL     OW24256   0.864   0.767  13.586 -0.1337 -0.4472  0.0853
 4266SOL    HW124257   0.900   0.855  13.579 -0.0004 -0.6306 -1.5071
 4266SOL    HW224258   0.779   0.771  13.541  0.5214 -1.0648 -1.2053
 4267SOL     OW24259   1.744   2.572   1.630 -0.0428  0.1478  0.2610
 4267SOL    HW124260   1.706   2.515   1.697 -1.8798  1.1457  0.0722
 4267SOL    HW224261   1.674   2.556   1.566  0.9439 -1.3819 -0.4476
 4268SOL     OW24262   2.861   1.470   6.497 -0.2233 -0.0452  0.0405
 4268SOL    HW124263   2.817   1.457   6.581 -1.1478 -0.9934 -0.5881
 4268SOL    HW224264   2.902   1.556   6.510 -1.8897  0.8679 -0.7398
 4269SOL     OW24265   2.204   1.126   6.142 -0.3423 -0.0567 -0.4551
 4269SOL    HW124266   2.140   1.143   6.212 -0.6648  1.9391 -1.2374
 4269SOL    HW224267   2.275   1.184   6.168  0.1641 -1.6705  1.7580
 4270SOL     OW24268   0.182   2.575   1.618 -0.3689 -0.3630 -0.5393
 4270SOL    HW124269   0.253   2.630   1.584 -0.9922  0.0455 -1.1831
 4270SOL    HW224270   0.114   2.589   1.553  0.7757 -0.2707 -1.7102
 4271SOL     OW24271   1.495   1.824   6.568  0.1594 -0.2165  0.1979
 4271SOL    HW124272   1.512   1.788   6.481 -0.6345 -1.1695  0.4350
 4271SOL    HW224273   1.407   1.789   6.584  0.0587 -0.5425 -1.0889
 4272SOL     OW24274   3.207   0.387  16.605 -0.4411 -0.2952  0.0639
 4272SOL    HW124275   3.201   0.468  16.555 -0.0011 -1.3829 -1.7715
 4272SOL    HW224276   3.120   0.353  16.580  0.0891 -0.6345 -1.3283
 4273SOL     OW24277   1.369   0.954   7.132  0.2417 -0.4725  0.3759
 4273SOL    HW124278   1.320   0.871   7.133 -1.9769  0.8504  1.0753
 4273SOL    HW224279   1.295   1.010   7.156 -0.4192 -0.9037 -0.6209
 4274SOL     OW24280   4.299   4.687   9.036 -0.0021 -0.6285  0.6226
 4274SOL    HW124281   4.241   4.653   9.104 -1.8056 -0.1456 -0.6774
 4274SOL    HW224282   4.378   4.686   9.090  0.2059 -1.3719  0.3012
 4275SOL     OW24283   3.666   3.157   2.829  0.1752  0.5331 -0.0362
 4275SOL    HW124284   3.693   3.214   2.757 -0.5662 -0.3712 -1.0472
 4275SOL    HW224285   3.575   3.146   2.800 -0.3361  2.9467  0.6410
 4276SOL     OW24286   1.344   2.241   2.572  0.2550 -0.1252 -0.1861
 4276SOL    HW124287   1.347   2.290   2.654  1.0153 -0.0169 -0.2725
 4276SOL    HW224288   1.257   2.264   2.540  0.4166  0.6003 -0.0947
 4277SOL     OW24289   4.226   4.139  11.441  0.0137 -0.4006 -0.9883
 4277SOL    HW124290   4.313   4.101  11.454  0.4203  0.5822 -0.8583
 4277SOL    HW224291   4.174   4.060  11.452  0.2050 -0.3023  0.6747
 4278SOL     OW24292   0.030   4.716   7.455 -0.8242  0.3205 -0.6430
 4278SOL    HW124293   4.698   4.709   7.534  0.5753  0.7827  0.3274
 4278SOL    HW224294   4.701   0.033   7.383 -2.1740  0.2701  0.2725
 4279SOL     OW24295   2.948   1.302   5.386  0.2107 -0.5424  0.1825
 4279SOL    HW124296   3.017   1.240   5.409 -1.4227 -2.6235 -0.5587
 4279SOL    HW224297   2.873   1.246   5.370  0.8559 -1.3736  0.0595
 4280SOL     OW24298   1.148   4.298   8.256 -0.5959  0.1068 -0.0153
 4280SOL    HW124299   1.098   4.376   8.278 -1.1056 -0.4131  0.6869
 4280SOL    HW224300   1.188   4.327   8.174  0.8080 -0.5593  0.4270
 4281SOL     OW24301   4.221   0.201   2.326 -0.1251  0.1812 -0.2502
 4281SOL    HW124302   4.126   0.201   2.320 -0.0339  0.1408 -1.7475
 4281SOL    HW224303   4.230   0.106   2.315  1.5987  0.1830  1.1381
 4282SOL     OW24304   2.766   0.322  15.161  0.0642  0.1499  0.1635
 4282SOL    HW124305   2.746   0.350  15.250  0.8004 -2.3383  1.0929
 4282SOL    HW224306   2.713   0.385  15.111 -0.0597  0.4014  0.6054
 4283SOL     OW24307   3.985   1.514   0.588 -0.4924 -0.1751  0.0158
 4283SOL    HW124308   4.033   1.575   0.532  0.7828 -1.0990  0.1223
 4283SOL    HW224309   3.973   1.578   0.659 -0.9245 -1.4236  1.0576
 4284SOL     OW24310   1.030   3.036  11.744 -0.1922  0.1319 -0.0223
 4284SOL    HW124311   1.108   2.991  11.776  0.3493 -0.3370 -2.0051
 4284SOL    HW224312   0.964   3.022  11.812 -1.6687  0.1763 -1.4218
 4285SOL     OW24313   2.066   2.008   4.110 -0.4975 -0.6403  0.1292
 4285SOL    HW124314   2.045   2.021   4.018 -0.4629  2.4870  0.5424
 4285SOL    HW224315   2.139   1.947   4.103  0.4557  0.3488  1.3083
 4286SOL     OW24316   3.765   0.443   5.347  0.1226  0.0269  0.0145
 4286SOL    HW124317   3.780   0.445   5.442 -0.4355  2.1123  0.0459
 4286SOL    HW224318   3.690   0.501   5.336  0.2732  0.5547  1.7510
 4287SOL     OW24319   2.571   3.291   9.112  0.6321  0.0963 -0.7212
 4287SOL    HW124320   2.489   3.256   9.145  0.8262  0.9233  0.6629
 4287SOL    HW224321   2.625   3.213   9.094 -0.1744 -0.5404 -0.3764
 4288SOL     OW24322   1.126   3.535   7.090 -0.0478  0.1970  0.0025
 4288SOL    HW124323   1.113   3.615   7.140  3.7358  1.0876 -0.4412
 4288SOL    HW224324   1.036   3.531   7.059  0.2274  1.6944 -0.9400
 4289SOL     OW24325   3.240   1.488   6.980 -0.6510 -0.0378  0.1166
 4289SOL    HW124326   3.195   1.509   6.898 -1.5743 -3.0096 -0.1562
 4289SOL    HW224327   3.227   1.574   7.020  0.9212 -0.7991  2.2142
 4290SOL     OW24328   1.019   1.783   5.993 -0.3895 -0.1756 -0.1007
 4290SOL    HW124329   1.013   1.702   6.044 -0.1824 -0.2338 -0.1710
 4290SOL    HW224330   0.941   1.767   5.939 -0.3697  2.3108 -0.8621
 4291SOL     OW24331   0.277   1.864   3.041 -0.6351  0.2662 -0.8093
 4291SOL    HW124332   0.227   1.827   2.969 -0.2528  0.4632 -1.1768
 4291SOL    HW224333   0.296   1.784   3.089  0.3373 -0.6564 -2.7363
 4292SOL     OW24334   3.731   0.513  15.135 -0.3502 -0.3096  0.2406
 4292SOL    HW124335   3.645   0.544  15.107  0.4132  0.6613 -1.0417
 4292SOL    HW224336   3.708   0.430  15.175 -0.1970 -0.7758 -0.6451
 4293SOL     OW24337   2.120   2.948  13.832  0.1837 -0.0808 -0.4892
 4293SOL    HW124338   2.183   3.005  13.877  1.6916 -1.8721 -0.3081
 4293SOL    HW224339   2.069   3.018  13.792  0.4439 -0.6455 -1.8259
 4294SOL     OW24340   1.898   4.242   9.331 -0.1325 -0.4439 -0.1513
 4294SOL    HW124341   1.931   4.288   9.254  0.0649  0.5525  0.5348
 4294SOL    HW224342   1.964   4.269   9.395 -0.5024 -0.8095  0.3837
 4295SOL     OW24343   2.630   2.466  15.123  0.0382 -0.1085 -0.2448
 4295SOL    HW124344   2.611   2.382  15.082  3.6263 -1.7857  1.5417
 4295SOL    HW224345   2.697   2.495  15.061 -0.4588  1.1742 -0.1757
 4296SOL     OW24346   2.128   3.667  17.380  0.6104  0.1791 -0.0426
 4296SOL    HW124347   2.122   3.592  17.438 -1.1122  1.5181  1.5325
 4296SOL    HW224348   2.125   3.624  17.295 -0.7135 -2.0190  1.1216
 4297SOL     OW24349   1.153   1.808   9.824 -0.3740 -0.1341 -0.2794
 4297SOL    HW124350   1.080   1.761   9.784 -1.1132  0.6593  0.1501
 4297SOL    HW224351   1.117   1.885   9.867  1.8848  1.1669 -0.6907
 4298SOL     OW24352   1.945   3.743  17.587 -0.8089 -0.4639  0.3149
 4298SOL    HW124353   2.000   3.812  17.626 -0.4503  0.6475 -2.1189
 4298SOL    HW224354   1.974   3.748  17.495 -0.5822 -0.6961  0.3735
 4299SOL     OW24355   0.230   0.383   7.644 -0.3062 -0.1913 -0.1416
 4299SOL    HW124356   0.140   0.369   7.675 -1.6983 -0.0813 -4.1719
 4299SOL    HW224357   0.254   0.298   7.606 -0.8606 -0.1863 -0.5048
 4300SOL     OW24358   1.504   2.609   0.791 -0.0741 -0.2917 -0.0729
 4300SOL    HW124359   1.537   2.529   0.833 -0.6149 -0.4699  0.0063
 4300SOL    HW224360   1.518   2.597   0.697 -0.3101  2.4611 -0.4597
 4301SOL     OW24361   1.358   2.127   3.933  0.3638 -0.1163 -0.5202
 4301SOL    HW124362   1.343   2.149   3.841 -1.2236 -1.0990 -0.4949
 4301SOL    HW224363   1.269   2.103   3.961  0.6027 -1.0700 -0.5789
 4302SOL     OW24364   4.665   0.380  14.221 -0.2969  0.2312  0.3112
 4302SOL    HW124365   4.709   0.368  14.136 -1.3654  0.8110 -0.3316
 4302SOL    HW224366   4.633   0.469  14.206  0.5327  0.5092  0.1781
 4303SOL     OW24367   2.114   1.821   6.971  0.2381 -0.1433  0.3019
 4303SOL    HW124368   2.026   1.818   6.932 -0.1842  2.4111  1.0826
 4303SOL    HW224369   2.112   1.769   7.051 -3.3499 -0.7249 -0.1455
 4304SOL     OW24370   4.300   4.140   6.963  0.6432  0.2703  0.0257
 4304SOL    HW124371   4.225   4.099   6.920 -0.8306  3.6798 -0.6080
 4304SOL    HW224372   4.278   4.230   6.938 -2.3978 -1.0140 -1.8552
 4305SOL     OW24373   2.559   1.036   4.529 -0.5958  0.3458  0.1872
 4305SOL    HW124374   2.637   1.008   4.481 -0.3471 -0.6304  1.1361
 4305SOL    HW224375   2.594   1.044   4.618 -0.1179 -1.2687  0.1615
 4306SOL     OW24376   0.827   1.530   6.405  0.1104  0.2947  0.5387
 4306SOL    HW124377   0.823   1.476   6.484 -0.9447  1.1066  1.0501
 4306SOL    HW224378   0.811   1.470   6.333  0.0100  0.6581  0.2600
 4307SOL     OW24379   3.181   4.672   6.523 -0.2751  0.3734 -0.3344
 4307SOL    HW124380   3.174   4.589   6.477 -2.4014 -0.7844  2.1138
 4307SOL    HW224381   3.261   4.658   6.574  0.3905 -0.2931 -1.5705
 4308SOL     OW24382   3.992   2.258   8.483  0.7572 -0.8856 -0.4477
 4308SOL    HW124383   3.930   2.300   8.424  1.5931  1.6430  0.4795
 4308SOL    HW224384   3.932   2.222   8.548  0.8726  0.7616  0.5646
 4309SOL     OW24385   0.199   3.769   3.866  0.3961 -0.3580 -0.0239
 4309SOL    HW124386   0.190   3.687   3.818 -0.8323 -0.6528  0.7293
 4309SOL    HW224387   0.177   3.822   3.790 -0.2942  0.3260  0.6540
 4310SOL     OW24388   2.504   3.277   4.893 -0.6973  0.6183 -0.6003
 4310SOL    HW124389   2.593   3.257   4.922 -0.7811  1.6932  0.3992
 4310SOL    HW224390   2.500   3.372   4.890  0.4353  0.7148  0.9607
 4311SOL     OW24391   0.507   2.912   8.003  0.5957  0.1007 -0.3483
 4311SOL    HW124392   0.541   2.998   8.027  0.3051 -0.1821  1.0561
 4311SOL    HW224393   0.449   2.915   8.079  2.2937  1.6782  0.8683
 4312SOL     OW24394   4.506   0.713   3.803 -0.1959  0.6421  0.1678
 4312SOL    HW124395   4.535   0.684   3.889 -1.6061 -1.6691 -0.1549
 4312SOL    HW224396   4.504   0.807   3.821  1.1444  0.9449 -1.3177
 4313SOL     OW24397   1.351   4.438   2.743  0.3745 -0.2888 -0.4869
 4313SOL    HW124398   1.281   4.493   2.708  0.5117 -2.2633 -3.8843
 4313SOL    HW224399   1.321   4.413   2.830 -0.1261  0.6058 -0.4052
 4314SOL     OW24400   2.216   2.114   4.906 -0.2847 -0.4374 -0.0250
 4314SOL    HW124401   2.201   2.071   4.989  2.5037  0.1962  0.8223
 4314SOL    HW224402   2.253   2.046   4.850  0.6888 -0.1791  0.3036
 4315SOL     OW24403   3.843   4.383   6.441 -0.1168 -0.1810 -0.1528
 4315SOL    HW124404   3.923   4.341   6.411 -0.4148 -1.2738  0.5961
 4315SOL    HW224405   3.815   4.425   6.360 -0.2871  0.4975  0.2546
 4316SOL     OW24406   2.108   3.012  15.942  0.5755  0.3999 -0.5961
 4316SOL    HW124407   2.146   2.927  15.961  0.3165  0.5905  0.7211
 4316SOL    HW224408   2.182   3.068  15.964 -0.2129  0.9810  0.5422
 4317SOL     OW24409   4.641   0.042   3.562  1.0969  0.2834  0.1496
 4317SOL    HW124410   4.644   0.118   3.619  4.4321  0.1851  0.0999
 4317SOL    HW224411   4.576   4.706   3.603  0.5911  1.3857  0.8676
 4318SOL     OW24412   0.199   0.138   3.793  0.0587 -0.1792  0.6009
 4318SOL    HW124413   0.147   0.208   3.753  3.0368  1.6488 -0.1403
 4318SOL    HW224414   0.150   0.067   3.752  0.5352  1.0404 -2.1431
 4319SOL     OW24415   2.454   3.441   3.350 -0.3331 -0.6511 -0.2779
 4319SOL    HW124416   2.493   3.489   3.277  0.8724  1.4497  1.7545
 4319SOL    HW224417   2.434   3.355   3.311  0.4265 -0.2942 -1.4618
 4320SOL     OW24418   4.059   3.597   3.329 -0.2629 -0.3543  0.2749
 4320SOL    HW124419   3.996   3.593   3.401 -0.0566 -0.0539  0.4724
 4320SOL    HW224420   4.014   3.665   3.279 -1.4622  0.1896  2.0930
 4321SOL     OW24421   3.616   1.757   4.389  0.1744  0.3619 -0.3405
 4321SOL    HW124422   3.636   1.673   4.431 -1.0192 -0.0588 -0.6183
 4321SOL    HW224423   3.538   1.729   4.340 -3.5772  3.7652  3.7085
 4322SOL     OW24424   4.695   0.065   5.220  0.6114  0.1257  0.2107
 4322SOL    HW124425   0.019   0.118   5.155 -2.1418  1.4515 -0.5941
 4322SOL    HW224426   4.631   0.019   5.165 -2.2442  1.2595  2.5597
 4323SOL     OW24427   3.265   1.753  12.138  0.0155  0.3047  0.4463
 4323SOL    HW124428   3.209   1.686  12.177  1.2734 -1.2593 -0.4289
 4323SOL    HW224429   3.326   1.767  12.211  0.6969  0.7687 -0.2175
 4324SOL     OW24430   3.934   3.744  16.700 -0.4865  0.0880  0.4472
 4324SOL    HW124431   3.846   3.781  16.710 -0.2833  0.5583  0.4911
 4324SOL    HW224432   3.989   3.783  16.768  1.3417 -2.1749  0.2938
 4325SOL     OW24433   1.579   4.230   8.886 -0.1744  0.2265  0.3930
 4325SOL    HW124434   1.533   4.242   8.969 -1.3606  0.6155 -0.3227
 4325SOL    HW224435   1.616   4.318   8.882  1.1476 -0.4427 -2.5100
 4326SOL     OW24436   4.280   1.541  13.841 -0.3285 -0.4111  0.4396
 4326SOL    HW124437   4.220   1.492  13.897 -0.2302 -1.6159 -0.4992
 4326SOL    HW224438   4.303   1.618  13.894  0.4183  0.7166 -1.5291
 4327SOL     OW24439   4.518   0.716  10.419 -0.5160 -0.1755 -0.3284
 4327SOL    HW124440   4.539   0.730  10.511 -1.8740 -2.2083  0.2893
 4327SOL    HW224441   4.426   0.739  10.405 -0.7970 -1.6745 -0.9766
 4328SOL     OW24442   4.620   0.924   4.960 -0.1476  0.0219  0.3852
 4328SOL    HW124443   4.546   0.866   4.944 -2.8339  3.4846  0.1188
 4328SOL    HW224444   4.678   0.879   5.021  1.7246  1.2297 -0.5072
 4329SOL     OW24445   3.557   2.482  11.297  0.6241 -0.2921  0.7511
 4329SOL    HW124446   3.485   2.516  11.351 -0.2165 -0.4453 -0.2628
 4329SOL    HW224447   3.587   2.410  11.352 -0.3609 -1.7053 -0.5562
 4330SOL     OW24448   0.692   2.460  10.835  0.8209 -0.1557 -0.4443
 4330SOL    HW124449   0.749   2.535  10.823  0.5386  0.0177 -0.7163
 4330SOL    HW224450   0.627   2.499  10.893 -0.7279 -1.4057 -1.3284
 4331SOL     OW24451   4.669   3.236   7.919  0.2541 -0.0819  0.2311
 4331SOL    HW124452   4.701   3.316   7.961  1.6464 -0.1081 -0.7549
 4331SOL    HW224453   4.714   3.166   7.966  0.0646 -1.0724 -1.0518
 4332SOL     OW24454   2.171   0.984   8.787  0.0821  0.0741  1.0775
 4332SOL    HW124455   2.229   1.011   8.857  0.2474 -0.9122  1.3303
 4332SOL    HW224456   2.089   1.025   8.813 -0.3637 -0.7702  1.0307
 4333SOL     OW24457   0.025   1.761  13.690  0.2471  0.3210  0.5267
 4333SOL    HW124458   0.024   1.856  13.691 -1.8828  0.2930  0.2931
 4333SOL    HW224459   4.656   1.730  13.685 -0.1798  1.5208  0.9852
 4334SOL     OW24460   2.377   4.566   9.060 -0.5689 -0.1873 -0.4494
 4334SOL    HW124461   2.427   4.548   8.980  2.1417 -0.2031  1.2396
 4334SOL    HW224462   2.429   4.527   9.131  2.7168  0.9329 -2.2448
 4335SOL     OW24463   1.468   3.095   4.364  0.1179  0.4456 -0.0829
 4335SOL    HW124464   1.546   3.075   4.313  0.7959  0.3323  1.0239
 4335SOL    HW224465   1.422   3.140   4.292  0.7235  0.9624 -0.1446
 4336SOL     OW24466   3.356   1.700   4.219  0.2659 -0.2636  0.1363
 4336SOL    HW124467   3.265   1.705   4.190  0.1979  1.3822  0.6463
 4336SOL    HW224468   3.374   1.793   4.207  1.1484 -0.7905 -2.7810
 4337SOL     OW24469   4.584   0.699   0.678  0.3742  0.1754 -0.2304
 4337SOL    HW124470   4.490   0.699   0.660  0.1115 -2.3787  1.1521
 4337SOL    HW224471   4.599   0.793   0.690 -0.3638  0.4288 -1.3123
 4338SOL     OW24472   1.610   0.269  16.321 -0.2444 -0.1361  0.5760
 4338SOL    HW124473   1.574   0.292  16.407 -1.0577 -1.1158  0.5084
 4338SOL    HW224474   1.563   0.322  16.257  1.2794 -0.4094 -0.7733
 4339SOL     OW24475   3.654   3.265   6.160  0.2974  0.0996 -0.7604
 4339SOL    HW124476   3.583   3.327   6.174  1.5682  0.8462  2.5077
 4339SOL    HW224477   3.688   3.244   6.247 -0.3494 -0.3409 -0.6174
 4340SOL     OW24478   1.177   1.637   3.381 -0.2743 -0.1284  0.3361
 4340SOL    HW124479   1.266   1.632   3.415  0.8432 -0.5171 -2.6402
 4340SOL    HW224480   1.124   1.606   3.455 -1.0802 -1.9446 -0.9842
 4341SOL     OW24481   1.500   2.394  13.736  0.0121 -0.0866 -0.4712
 4341SOL    HW124482   1.527   2.388  13.827  1.0424 -0.4831 -0.8002
 4341SOL    HW224483   1.477   2.486  13.723 -1.1683 -0.1519  1.1983
 4342SOL     OW24484   0.091   0.204  12.135 -0.1588 -0.3689  0.6329
 4342SOL    HW124485   0.160   0.269  12.145  0.9561 -1.3588 -0.5714
 4342SOL    HW224486   0.070   0.223  12.044  1.8837  3.1046  0.8949
 4343SOL     OW24487   4.238   1.682  16.847  0.7976 -0.1784  0.6018
 4343SOL    HW124488   4.157   1.722  16.814  1.9742 -0.3554 -2.5648
 4343SOL    HW224489   4.255   1.732  16.927  2.0540  1.3694 -0.6387
 4344SOL     OW24490   2.068   1.152   3.032 -0.3141 -0.0585 -0.4294
 4344SOL    HW124491   2.014   1.160   2.953 -0.7670  0.5110 -0.0686
 4344SOL    HW224492   2.155   1.153   2.993  0.1539 -0.4027  0.6169
 4345SOL     OW24493   0.016   4.099   2.890 -0.3731  0.7107  0.6081
 4345SOL    HW124494   0.110   4.083   2.887 -0.6346 -0.2865 -2.4595
 4345SOL    HW224495   4.711   4.071   2.802 -2.3068  1.6302  0.8871
 4346SOL     OW24496   0.058   0.760   5.124  0.0067 -0.4174 -0.3150
 4346SOL    HW124497   0.114   0.686   5.100  0.8607 -0.1519  0.8595
 4346SOL    HW224498   4.702   0.711   5.155 -0.3023  0.2438 -0.0389
 4347SOL     OW24499   1.148   3.492   2.809 -0.1783  0.2689  0.2839
 4347SOL    HW124500   1.182   3.462   2.894  1.1487  1.0203  0.0037
 4347SOL    HW224501   1.075   3.552   2.827  2.2190  2.4846  2.5832
 4348SOL     OW24502   3.050   1.507   0.128  0.0950 -0.3231 -0.3987
 4348SOL    HW124503   3.042   1.485   0.221  1.1928  0.4765 -0.1117
 4348SOL    HW224504   2.988   1.454   0.077  0.7648 -1.3785 -0.1039
 4349SOL     OW24505   1.702   2.109  16.042 -0.8965 -0.4778  0.3202
 4349SOL    HW124506   1.783   2.072  16.077 -0.8757  1.3084  2.1535
 4349SOL    HW224507   1.636   2.054  16.083 -0.4286 -0.8472  0.5749
 4350SOL     OW24508   1.472   3.420   6.682 -0.1840  0.2675  0.1325
 4350SOL    HW124509   1.467   3.499   6.628 -0.4335  0.4510  0.4179
 4350SOL    HW224510   1.381   3.391   6.682 -0.5957  1.5548  0.1717
 4351SOL     OW24511   4.517   0.705   7.234 -0.4072 -0.1780 -0.7496
 4351SOL    HW124512   4.575   0.669   7.167  1.1182  1.1763 -0.1896
 4351SOL    HW224513   4.528   0.642   7.305  3.7932  1.3193 -0.0500
 4352SOL     OW24514   1.628   4.288   3.206  0.0146  0.3662 -0.0725
 4352SOL    HW124515   1.665   4.204   3.179  1.7471  0.9727  0.4377
 4352SOL    HW224516   1.633   4.344   3.128  2.4388  1.4102  0.8544
 4353SOL     OW24517   0.378   4.085   9.288 -0.2674 -0.0264 -0.3358
 4353SOL    HW124518   0.315   4.151   9.320  0.7223  0.7911 -0.0688
 4353SOL    HW224519   0.322   4.008   9.298  1.9256 -1.5490  0.0460
 4354SOL     OW24520   0.615   0.367   2.281  0.2393  0.1360 -0.7074
 4354SOL    HW124521   0.581   0.411   2.203 -1.0010 -3.9610 -2.4927
 4354SOL    HW224522   0.665   0.289   2.257 -3.2925 -2.3716  0.0894
 4355SOL     OW24523   4.021   1.625  12.632 -0.6916  0.4798  0.4777
 4355SOL    HW124524   4.088   1.673  12.681 -0.6799  1.4807 -0.5122
 4355SOL    HW224525   3.984   1.575  12.704  1.7699 -2.3419 -0.2396
 4356SOL     OW24526   3.756   0.142   6.602 -0.3482  0.0192 -0.0026
 4356SOL    HW124527   3.850   0.135   6.590 -0.1961 -1.1753  1.9848
 4356SOL    HW224528   3.736   0.230   6.571 -1.8743  0.2963  1.7638
 4357SOL     OW24529   2.996   2.020   8.724  0.5718 -0.9430  0.7516
 4357SOL    HW124530   2.950   2.006   8.806 -3.4837 -0.5886 -1.4589
 4357SOL    HW224531   2.940   1.974   8.661  0.6050 -0.9921  0.7582
 4358SOL     OW24532   4.249   1.246   6.670  0.7429  0.4528  0.3814
 4358SOL    HW124533   4.244   1.190   6.748 -0.9815  0.0534 -0.0096
 4358SOL    HW224534   4.260   1.335   6.703  2.5184  0.0371  0.8784
 4359SOL     OW24535   2.848   3.127  13.416 -0.2858  0.1801 -0.0143
 4359SOL    HW124536   2.789   3.115  13.341 -1.1531  0.7424  0.5780
 4359SOL    HW224537   2.872   3.219  13.408  2.2957 -0.4341  0.5792
 4360SOL     OW24538   3.963   3.075   1.157 -0.3857  0.0717 -0.3207
 4360SOL    HW124539   3.885   3.026   1.131  0.8833  0.2445 -4.3919
 4360SOL    HW224540   4.018   3.057   1.081 -3.3695  1.6141 -2.8388
 4361SOL     OW24541   0.462   0.054   2.907 -0.1070 -0.1088  0.3195
 4361SOL    HW124542   0.370   0.076   2.894  0.2086  0.5795 -0.7323
 4361SOL    HW224543   0.468   0.042   3.002 -0.4503 -1.0495  0.2245
 4362SOL     OW24544   4.173   0.587   9.051 -0.2252 -0.3989 -0.4265
 4362SOL    HW124545   4.161   0.633   9.134 -0.2623 -2.1463  0.5401
 4362SOL    HW224546   4.180   0.494   9.070 -0.1443 -0.2805  0.1325
 4363SOL     OW24547   3.804   0.585  14.387  0.0581 -0.9804  0.1517
 4363SOL    HW124548   3.862   0.524  14.434 -0.9746 -2.7226 -0.8459
 4363SOL    HW224549   3.857   0.664  14.399  0.3042 -1.2692  1.0281
 4364SOL     OW24550   3.790   3.096   7.991  0.1340  0.3070  0.0669
 4364SOL    HW124551   3.795   3.173   8.048  1.5537  0.3409 -0.1141
 4364SOL    HW224552   3.861   3.124   7.933  0.1110 -2.2846 -1.2167
 4365SOL     OW24553   2.215   3.252  15.532 -0.6012 -0.3737 -0.2598
 4365SOL    HW124554   2.295   3.215  15.569  0.5383  2.1292 -0.2123
 4365SOL    HW224555   2.149   3.196  15.575  0.6049 -0.8279  0.9900
 4366SOL     OW24556   2.357   1.561  11.017 -0.0080  0.5096 -0.2899
 4366SOL    HW124557   2.389   1.595  11.101  1.1950  0.0898 -0.5801
 4366SOL    HW224558   2.422   1.494  10.996  0.0633  0.6275 -0.4441
 4367SOL     OW24559   1.966   1.210   7.186 -0.6994 -0.0499 -0.1477
 4367SOL    HW124560   1.986   1.124   7.148  0.3736 -0.9304  2.4126
 4367SOL    HW224561   1.923   1.250   7.110 -2.9040 -0.1876  1.0252
 4368SOL     OW24562   1.071   3.116   4.115  0.4179  0.3821  0.1303
 4368SOL    HW124563   1.120   3.054   4.169 -2.0143 -1.9828 -0.3985
 4368SOL    HW224564   1.018   3.166   4.178  3.3738  3.6652  0.0183
 4369SOL     OW24565   0.160   1.742  13.457 -0.4810  0.1690  0.1034
 4369SOL    HW124566   0.123   1.730  13.545  0.7675  1.4993  0.8081
 4369SOL    HW224567   0.092   1.702  13.403 -2.3829  3.3177  0.1947
 4370SOL     OW24568   1.300   1.160  13.677  0.2635 -0.0415 -0.0818
 4370SOL    HW124569   1.298   1.241  13.727 -0.4686 -0.4535  0.5683
 4370SOL    HW224570   1.389   1.127  13.690  0.0306  0.0131  1.7772
 4371SOL     OW24571   3.457   3.367   5.535  0.0913  0.0002 -0.1260
 4371SOL    HW124572   3.519   3.379   5.606 -0.4163 -0.7137  0.4320
 4371SOL    HW224573   3.438   3.274   5.536 -1.5334  0.3345  0.0115
 4372SOL     OW24574   0.215   1.235   3.464  0.6938  0.4386  0.2820
 4372SOL    HW124575   0.206   1.221   3.370  2.5228 -0.4096  0.2379
 4372SOL    HW224576   0.177   1.323   3.472 -1.7031 -0.1945 -4.2473
 4373SOL     OW24577   4.087   4.198   5.446 -0.3624  0.1340  0.2588
 4373SOL    HW124578   3.997   4.187   5.476 -0.6511 -1.8317 -1.3916
 4373SOL    HW224579   4.118   4.288   5.461  1.3122 -0.2521 -0.9296
 4374SOL     OW24580   2.321   1.304   5.673  0.2964 -0.5144 -0.0964
 4374SOL    HW124581   2.264   1.326   5.599  0.6320  0.9235  0.0793
 4374SOL    HW224582   2.331   1.389   5.716 -0.8832  0.0548 -0.9553
 4375SOL     OW24583   0.778   1.426   7.901 -0.5102 -0.2775  0.0263
 4375SOL    HW124584   0.840   1.451   7.833 -0.2920  2.0405  1.0669
 4375SOL    HW224585   0.762   1.333   7.883  0.2711 -0.3140 -0.4892
 4376SOL     OW24586   0.341   1.422   5.822 -0.4363 -0.3824  0.3051
 4376SOL    HW124587   0.315   1.498   5.769 -4.6758 -1.0942  1.4442
 4376SOL    HW224588   0.389   1.369   5.758 -0.8252 -1.8336  1.2224
 4377SOL     OW24589   0.954   0.648   4.029 -0.0543 -0.7879  0.0690
 4377SOL    HW124590   0.953   0.729   3.978  1.7192 -1.0989 -0.4574
 4377SOL    HW224591   0.863   0.647   4.060  0.5623  2.3588  1.9183
 4378SOL     OW24592   3.170   1.205   5.151  0.6359  0.0727  0.0359
 4378SOL    HW124593   3.176   1.251   5.068 -0.2206  0.1839  0.0270
 4378SOL    HW224594   3.239   1.246   5.202 -0.1095  1.6169 -0.1836
 4379SOL     OW24595   2.570   3.972   7.604 -0.0411  0.1043  0.3629
 4379SOL    HW124596   2.572   3.893   7.659  2.1757 -1.3339 -1.7840
 4379SOL    HW224597   2.615   4.032   7.663  0.9162  0.1478 -0.4100
 4380SOL     OW24598   1.434   0.009   3.856 -0.6086  0.3727  0.2633
 4380SOL    HW124599   1.397   4.646   3.828  0.6570 -0.4162  0.9275
 4380SOL    HW224600   1.493   0.018   3.781 -1.0157  0.3605 -0.0592
 4381SOL     OW24601   4.663   0.809   2.366 -0.2435  0.2095  0.3127
 4381SOL    HW124602   4.606   0.746   2.412  0.0585 -0.1787  0.1543
 4381SOL    HW224603   0.029   0.772   2.381 -0.5836 -0.4803  0.6187
 4382SOL     OW24604   1.661   3.473   5.314 -0.1583 -0.2900  0.1610
 4382SOL    HW124605   1.584   3.463   5.258 -1.5368 -0.5902  2.1068
 4382SOL    HW224606   1.723   3.443   5.247 -1.0000  0.1160 -0.7796
 4383SOL     OW24607   1.768   0.189   5.726  0.4640  0.2525  0.1341
 4383SOL    HW124608   1.742   0.242   5.650 -0.8484  1.1037  1.1712
 4383SOL    HW224609   1.839   0.146   5.678  0.4490 -1.1417  1.3590
 4384SOL     OW24610   1.764   4.040   5.020 -0.1539 -0.0678  0.2982
 4384SOL    HW124611   1.700   4.105   4.991  0.6632 -0.4927 -2.4971
 4384SOL    HW224612   1.706   3.965   5.021  0.2448 -0.4032 -1.0213
 4385SOL     OW24613   2.476   3.718   7.470  0.1476 -0.0351 -0.1859
 4385SOL    HW124614   2.493   3.771   7.548  0.7547  0.0718 -0.3926
 4385SOL    HW224615   2.447   3.630   7.493 -1.3811  0.0716 -1.7265
 4386SOL     OW24616   4.477   3.080   0.188 -0.4397  0.1978  0.0096
 4386SOL    HW124617   4.461   2.986   0.182 -0.7080  0.2610 -0.2626
 4386SOL    HW224618   4.416   3.102   0.258  0.3964 -1.4960  1.2787
 4387SOL     OW24619   1.998   4.509   6.963 -0.6193  0.1211 -0.5792
 4387SOL    HW124620   2.063   4.458   7.012 -0.9173 -1.3756 -1.7224
 4387SOL    HW224621   1.915   4.469   6.989 -1.2139  0.9266 -1.2299
 4388SOL     OW24622   3.576   1.415   3.008 -0.1045  0.4124  0.5022
 4388SOL    HW124623   3.646   1.359   3.040  0.3637 -0.8475 -2.7778
 4388SOL    HW224624   3.619   1.497   2.983 -0.3560  0.6091  0.7055
 4389SOL     OW24625   2.557   1.033   7.356  0.1949  0.4255 -0.2881
 4389SOL    HW124626   2.576   0.999   7.268  1.9238 -1.4746  0.8132
 4389SOL    HW224627   2.600   0.964   7.407 -1.4904 -0.0626  0.4732
 4390SOL     OW24628   2.273   4.283  12.615  0.0952 -0.0694  0.5426
 4390SOL    HW124629   2.348   4.235  12.579  0.0740 -1.2544  2.0538
 4390SOL    HW224630   2.228   4.299  12.533 -1.0533 -1.3051  0.9322
 4391SOL     OW24631   4.547   2.161   4.973 -0.4399 -0.3459 -0.4479
 4391SOL    HW124632   4.572   2.075   4.939  0.4058 -0.8324  1.3719
 4391SOL    HW224633   4.559   2.147   5.067  1.6664 -2.0554 -0.9761
 4392SOL     OW24634   0.283   3.308   3.106  0.2094  0.1308 -0.8377
 4392SOL    HW124635   0.304   3.316   3.013 -0.2452 -0.3340 -0.9817
 4392SOL    HW224636   0.343   3.369   3.149 -0.2636  0.9337 -1.3131
 4393SOL     OW24637   1.258   0.745   2.950  0.0569 -0.0992 -0.3507
 4393SOL    HW124638   1.304   0.759   3.033 -1.0615  0.2566  0.2030
 4393SOL    HW224639   1.308   0.669   2.921  2.0220  1.7712 -1.9353
 4394SOL     OW24640   0.240   1.596   5.628 -0.1213 -0.1218  0.0863
 4394SOL    HW124641   0.227   1.573   5.536  1.5022 -2.5617  0.4841
 4394SOL    HW224642   0.222   1.690   5.623 -2.6554 -0.5005  1.9613
 4395SOL     OW24643   2.214   1.157  11.098  0.6795  0.5578  0.3074
 4395SOL    HW124644   2.124   1.174  11.070  1.1357  0.0334 -1.4753
 4395SOL    HW224645   2.225   1.219  11.170 -1.7602  1.5866 -0.2010
 4396SOL     OW24646   1.114   3.144   7.628 -0.1649  0.6828  0.2133
 4396SOL    HW124647   1.184   3.203   7.657 -0.7401  1.3408  0.2658
 4396SOL    HW224648   1.155   3.063   7.658 -0.8006  0.0844 -0.5432
 4397SOL     OW24649   0.331   4.041   6.371 -0.3516  0.4814 -0.4455
 4397SOL    HW124650   0.396   4.079   6.311  0.5642 -0.7318 -0.2300
 4397SOL    HW224651   0.348   3.947   6.371  2.0444  0.9184  0.8309
 4398SOL     OW24652   2.896   0.078  15.153  0.5908 -0.6174 -0.2555
 4398SOL    HW124653   2.867   0.169  15.147 -0.1923 -0.9015 -0.8724
 4398SOL    HW224654   2.869   0.042  15.237 -0.2048  0.0651 -0.2256
 4399SOL     OW24655   0.862   0.043   4.771  0.0298 -0.7443 -0.2305
 4399SOL    HW124656   0.819   4.697   4.717 -1.1217 -0.4724  0.3421
 4399SOL    HW224657   0.943   0.008   4.808  0.6639  2.1203  1.0984
 4400SOL     OW24658   1.940   1.486   5.592  0.4990 -0.4574  0.3521
 4400SOL    HW124659   1.942   1.548   5.520 -2.4680  0.5564  1.1353
 4400SOL    HW224660   1.975   1.406   5.551 -3.2624 -1.6777 -0.5304
 4401SOL     OW24661   0.294   1.871   4.976  0.1389 -0.0990  0.1848
 4401SOL    HW124662   0.327   1.798   5.028 -2.5957 -1.0819  0.5079
 4401SOL    HW224663   0.378   1.910   4.950  1.3489 -1.8432  1.4681
 4402SOL     OW24664   4.516   2.862   5.307 -0.3404 -0.3505  0.0066
 4402SOL    HW124665   4.512   2.766   5.308  0.4867 -0.4128 -2.5222
 4402SOL    HW224666   4.607   2.871   5.335 -0.8426  2.2623  0.7685
 4403SOL     OW24667   0.637   2.924   5.197  0.7159 -0.4558  0.3273
 4403SOL    HW124668   0.576   2.948   5.266  0.6373 -2.3424  0.9291
 4403SOL    HW224669   0.725   2.951   5.225  0.9589 -0.6056 -0.2815
 4404SOL     OW24670   2.422   3.717  17.298 -0.6059 -0.0217 -0.1843
 4404SOL    HW124671   2.326   3.714  17.291 -0.7263  0.6485  1.2200
 4404SOL    HW224672   2.437   3.796  17.350 -0.6509  2.0850 -3.3116
 4405SOL     OW24673   1.633   0.624   2.560  0.2381  0.7311 -0.2474
 4405SOL    HW124674   1.652   0.561   2.629 -1.4201  0.9186  0.3775
 4405SOL    HW224675   1.578   0.579   2.496  0.2729 -1.8554  1.5848
 4406SOL     OW24676   3.407   3.960   2.803 -0.0539  0.2122  0.0883
 4406SOL    HW124677   3.317   3.949   2.773  0.7978 -3.2797 -1.2180
 4406SOL    HW224678   3.392   3.994   2.892 -0.6386  0.1151  0.0298
 4407SOL     OW24679   4.572   3.642  12.507 -0.1025 -0.6777 -0.7102
 4407SOL    HW124680   4.481   3.649  12.481 -0.0211  0.1281 -0.7655
 4407SOL    HW224681   4.607   3.723  12.470 -1.3536 -0.8062 -2.1572
 4408SOL     OW24682   4.116   4.183   1.844  0.3012  0.0074 -1.0656
 4408SOL    HW124683   4.098   4.277   1.837 -2.5147 -0.4830 -0.3629
 4408SOL    HW224684   4.052   4.149   1.782 -2.9265 -0.2636  2.4466
 4409SOL     OW24685   0.073   0.862  11.286  0.1356 -0.1537 -0.1987
 4409SOL    HW124686   0.155   0.839  11.242  0.6095 -0.2667  0.7467
 4409SOL    HW224687   0.072   0.953  11.258 -0.8587 -0.5146 -1.3292
 4410SOL     OW24688   0.197   0.535  12.254 -0.3251  0.4654  0.0345
 4410SOL    HW124689   0.130   0.565  12.192 -0.5229  0.9899  0.4920
 4410SOL    HW224690   0.169   0.579  12.334 -1.0151  0.3810 -0.1587
 4411SOL     OW24691   3.815   1.606   0.308 -0.1230  0.2151 -0.2205
 4411SOL    HW124692   3.770   1.622   0.391  2.2766 -3.3556  1.7551
 4411SOL    HW224693   3.755   1.541   0.272  2.2392 -2.7118  1.2196
 4412SOL     OW24694   4.167   3.686   1.574  0.0951 -0.1231  0.4994
 4412SOL    HW124695   4.130   3.600   1.591 -2.1357  0.7348 -0.1092
 4412SOL    HW224696   4.092   3.745   1.579  0.1779  0.2099 -2.0978
 4413SOL     OW24697   3.971   0.831   8.100  0.1146 -0.0063  0.1094
 4413SOL    HW124698   3.967   0.912   8.050  0.7196 -0.1231 -0.1316
 4413SOL    HW224699   3.887   0.785   8.107  0.2888 -0.6750 -2.1234
 4414SOL     OW24700   3.906   3.617   8.037 -0.0098  0.1258  0.3056
 4414SOL    HW124701   3.832   3.628   7.977 -0.3226 -1.4473  0.4020
 4414SOL    HW224702   3.973   3.641   7.972 -0.2089 -1.4712 -0.4904
 4415SOL     OW24703   1.632   0.276   2.367  0.1387  0.2654  0.3207
 4415SOL    HW124704   1.725   0.299   2.372 -0.0277  0.7766  1.1625
 4415SOL    HW224705   1.611   0.265   2.460  0.1795  0.9059  0.4128
 4416SOL     OW24706   1.231   4.540   4.652  0.6611  0.7052 -0.1445
 4416SOL    HW124707   1.269   4.567   4.568  0.0674  1.2298 -0.2385
 4416SOL    HW224708   1.307   4.508   4.701  0.2800  0.3615  0.2236
 4417SOL     OW24709   1.607   0.954   4.005  0.8362 -0.1755 -0.5428
 4417SOL    HW124710   1.697   0.938   4.033  0.9776 -1.0006 -1.4862
 4417SOL    HW224711   1.625   1.021   3.939  1.8618 -2.2458 -2.3490
 4418SOL     OW24712   1.071   1.445   2.810 -0.6969 -0.1392 -0.2714
 4418SOL    HW124713   1.024   1.469   2.729 -1.2398 -1.1240 -0.2435
 4418SOL    HW224714   1.122   1.525   2.825  0.6281 -0.5779 -2.4438
 4419SOL     OW24715   3.433   3.538  11.398 -0.1254 -0.3597 -0.2438
 4419SOL    HW124716   3.478   3.550  11.481 -1.1808  1.1992  0.0967
 4419SOL    HW224717   3.502   3.560  11.335  0.3662 -1.5912 -0.1318
 4420SOL     OW24718   1.462   1.283   7.533  0.4309 -0.5917  0.6740
 4420SOL    HW124719   1.474   1.351   7.600  2.5724  0.0011 -0.3182
 4420SOL    HW224720   1.401   1.320   7.470  2.8198  2.3789  0.1246
 4421SOL     OW24721   0.684   4.541   1.725  0.1269  0.0698  0.1571
 4421SOL    HW124722   0.678   4.580   1.813 -2.0087  1.0177 -0.4214
 4421SOL    HW224723   0.606   4.487   1.731  1.2665 -1.8416 -2.6756
 4422SOL     OW24724   1.237   4.416   8.030 -0.1778  0.1330 -0.0377
 4422SOL    HW124725   1.329   4.418   8.002 -0.0081  0.9985  0.5813
 4422SOL    HW224726   1.209   4.344   7.974 -0.8860 -0.4990  1.1237
 4423SOL     OW24727   2.558   4.128   9.927 -0.3912 -0.6950 -0.2290
 4423SOL    HW124728   2.553   4.094   9.838  1.4666 -0.7796 -0.3103
 4423SOL    HW224729   2.487   4.077   9.963 -1.0771  1.2295  1.1548
 4424SOL     OW24730   3.915   0.880   6.747 -0.5920 -0.0293  0.2478
 4424SOL    HW124731   3.954   0.793   6.756 -1.9535 -0.5226  1.3253
 4424SOL    HW224732   3.835   0.864   6.797 -2.1402  2.4323 -1.4289
 4425SOL     OW24733   2.141   1.610   5.371 -0.0167 -0.2654  0.0066
 4425SOL    HW124734   2.226   1.598   5.412 -0.4486 -2.4705  0.2347
 4425SOL    HW224735   2.091   1.665   5.431 -0.7333 -1.8198  0.8247
 4426SOL     OW24736   4.498   0.223   8.980  0.1688  0.0373 -0.4977
 4426SOL    HW124737   4.587   0.257   8.967  0.5214 -0.7404 -0.1340
 4426SOL    HW224738   4.492   0.158   8.910 -0.6492  0.3437 -0.7158
 4427SOL     OW24739   1.398   1.981   8.144  0.0779  0.4919 -0.9465
 4427SOL    HW124740   1.431   2.005   8.057 -3.3314  3.0638 -1.5055
 4427SOL    HW224741   1.305   1.979   8.123 -0.9804  0.6315  3.7486
 4428SOL     OW24742   2.121   1.286   4.179 -0.0985 -0.1599 -0.0504
 4428SOL    HW124743   2.051   1.264   4.241  0.1234 -0.8023 -0.0352
 4428SOL    HW224744   2.072   1.278   4.097 -0.0160  0.2751 -0.1444
 4429SOL     OW24745   4.587   4.508  16.856 -0.0810  0.2306  0.1371
 4429SOL    HW124746   4.556   4.595  16.830 -2.0593 -0.7306 -0.7115
 4429SOL    HW224747   4.596   4.456  16.776  0.5312  0.9976 -0.2983
 4430SOL     OW24748   0.559   4.450   5.371 -0.0103  0.1555  0.3261
 4430SOL    HW124749   0.463   4.449   5.371  0.0054 -1.3941  0.8738
 4430SOL    HW224750   0.579   4.543   5.380 -0.3914  0.6301 -4.1295
 4431SOL     OW24751   2.455   0.239   6.790  0.2860  0.1719 -0.1335
 4431SOL    HW124752   2.382   0.237   6.728 -0.4453  2.9593  0.6179
 4431SOL    HW224753   2.419   0.269   6.874 -0.5335  0.1417 -0.4744
 4432SOL     OW24754   2.832   3.607   7.561 -0.3936 -0.1853 -0.0730
 4432SOL    HW124755   2.751   3.638   7.602 -1.0817  0.5964 -1.9924
 4432SOL    HW224756   2.800   3.594   7.471  2.1243  0.3950 -1.0350
 4433SOL     OW24757   1.677   4.010   2.872  0.4171 -0.3205  0.2484
 4433SOL    HW124758   1.666   4.100   2.839 -3.3430 -0.7954  0.2440
 4433SOL    HW224759   1.585   3.994   2.894  0.7608  0.7382  2.5058
 4434SOL     OW24760   0.537   2.057  11.341  0.1604  0.6636 -0.1990
 4434SOL    HW124761   0.583   2.129  11.383  0.6580  0.1273  0.1786
 4434SOL    HW224762   0.462   2.052  11.401 -1.1168  2.0928 -1.6610
 4435SOL     OW24763   2.223   0.629   6.456 -0.1060  0.3735  1.3064
 4435SOL    HW124764   2.236   0.570   6.530 -0.2262 -0.0951  0.9547
 4435SOL    HW224765   2.131   0.605   6.442 -0.2509  0.1606  2.6522
 4436SOL     OW24766   1.494   0.110   6.358 -0.6002  0.2257 -0.5462
 4436SOL    HW124767   1.460   0.022   6.372 -1.0292  0.5749  0.6513
 4436SOL    HW224768   1.491   0.110   6.263  1.6235 -0.6234 -0.6007
 4437SOL     OW24769   2.768   2.718   4.286 -0.1153  0.2028 -0.8332
 4437SOL    HW124770   2.823   2.740   4.361 -2.4777  1.4358  0.5362
 4437SOL    HW224771   2.686   2.757   4.319 -0.0901 -0.0722 -0.4423
 4438SOL     OW24772   3.489   4.534   3.567 -0.2177  0.0988  0.1172
 4438SOL    HW124773   3.410   4.587   3.575  0.1197  0.3446  1.8251
 4438SOL    HW224774   3.541   4.561   3.643 -1.6133  0.3351  0.9980
 4439SOL     OW24775   3.581   2.322   5.938  0.5383 -0.5604 -0.1531
 4439SOL    HW124776   3.622   2.377   5.871  1.0773 -1.1405 -0.2982
 4439SOL    HW224777   3.547   2.257   5.876 -0.2446  0.7007 -1.0551
 4440SOL     OW24778   3.972   2.380   4.355 -0.3657  0.5257 -0.3702
 4440SOL    HW124779   4.015   2.303   4.394 -0.9148  0.5719  0.3344
 4440SOL    HW224780   3.909   2.403   4.423  0.1190  1.6756 -0.3214
 4441SOL     OW24781   0.949   0.304  12.007 -0.6436  0.0955 -0.6019
 4441SOL    HW124782   0.952   0.253  12.088 -2.3202  1.7273  0.4877
 4441SOL    HW224783   0.875   0.256  11.971  0.2701 -0.9330 -1.1185
 4442SOL     OW24784   3.123   3.912  10.062 -0.7197 -0.8650 -0.2956
 4442SOL    HW124785   3.096   3.963   9.985 -1.3379 -1.5124 -0.5041
 4442SOL    HW224786   3.129   3.984  10.125  0.5748 -0.1885 -1.1773
 4443SOL     OW24787   1.058   0.712   4.961  0.4496  0.2200  0.3969
 4443SOL    HW124788   1.011   0.768   5.024  0.5039 -0.4857  1.0651
 4443SOL    HW224789   0.997   0.644   4.932  0.8510  0.2959 -0.6032
 4444SOL     OW24790   0.343   3.974  12.040  0.2975  0.1820 -0.4785
 4444SOL    HW124791   0.283   3.903  12.018 -1.8921  1.6999  0.4553
 4444SOL    HW224792   0.411   3.937  12.097 -0.6431 -0.1708  0.4297
 4445SOL     OW24793   4.071   2.514   5.892 -0.0322 -0.2456  0.5788
 4445SOL    HW124794   3.996   2.492   5.947 -0.5043 -0.6726 -0.2336
 4445SOL    HW224795   4.070   2.609   5.904 -1.3878 -0.1719 -0.1440
 4446SOL     OW24796   2.637   2.732   5.786 -0.0574  0.1185 -0.0030
 4446SOL    HW124797   2.673   2.649   5.753 -1.6736  0.0530 -1.5374
 4446SOL    HW224798   2.545   2.709   5.774  0.2023 -1.3034  0.6684
 4447SOL     OW24799   1.906   3.913   2.935 -0.5238 -0.4950 -0.6383
 4447SOL    HW124800   1.820   3.956   2.941 -1.1633 -1.7063 -0.9817
 4447SOL    HW224801   1.890   3.859   2.857  0.3166 -0.8343 -0.5731
 4448SOL     OW24802   0.380   3.458   8.383  0.2833 -0.1718 -0.3426
 4448SOL    HW124803   0.300   3.472   8.433 -0.5148 -0.7635 -1.4450
 4448SOL    HW224804   0.405   3.550   8.370  2.5136 -0.8043 -0.4986
 4449SOL     OW24805   1.500   1.403  10.007 -0.2303  0.9374 -0.0690
 4449SOL    HW124806   1.559   1.419  10.081  1.8568  0.0117 -1.5050
 4449SOL    HW224807   1.447   1.483  10.011  0.6655  1.5823 -0.9664
 4450SOL     OW24808   4.590   2.595   1.931 -0.1433  0.0623  0.4499
 4450SOL    HW124809   4.590   2.680   1.886 -0.1649  0.5326  1.3330
 4450SOL    HW224810   4.679   2.559   1.935  0.3814  1.1686 -1.0896
 4451SOL     OW24811   1.555   0.083   2.800 -0.2224  0.1766 -0.1284
 4451SOL    HW124812   1.597   0.169   2.792  1.8147 -0.6370  2.1258
 4451SOL    HW224813   1.532   0.060   2.710  1.9465 -0.9079 -0.4000
 4452SOL     OW24814   1.882   3.818   7.459 -0.5172  0.6029 -0.2664
 4452SOL    HW124815   1.961   3.766   7.444 -0.1031  0.4547  2.3495
 4452SOL    HW224816   1.908   3.899   7.503 -2.7514  0.3659  1.5093
 4453SOL     OW24817   2.833   0.735   4.570 -0.8025 -0.0899 -0.2139
 4453SOL    HW124818   2.911   0.679   4.562  0.3298  1.5185 -0.3075
 4453SOL    HW224819   2.769   0.682   4.521  0.0742 -1.9770  0.6891
 4454SOL     OW24820   4.221   2.386   5.707 -0.2729  0.6496 -0.2294
 4454SOL    HW124821   4.182   2.442   5.774  3.0428  0.6197  1.7105
 4454SOL    HW224822   4.142   2.343   5.672  0.2465 -0.2463 -0.3110
 4455SOL     OW24823   4.030   2.087  13.831 -0.3616  0.7749  0.5728
 4455SOL    HW124824   4.063   2.066  13.918 -0.6039 -1.6705  0.0773
 4455SOL    HW224825   4.011   2.181  13.833 -0.9581  0.6410  0.9784
 4456SOL     OW24826   4.441   1.330   9.466 -0.0002 -0.3460  0.1085
 4456SOL    HW124827   4.474   1.254   9.515  3.2090 -0.3349 -2.0500
 4456SOL    HW224828   4.509   1.397   9.473 -0.2244 -0.1455  0.3433
 4457SOL     OW24829   0.483   1.266   6.192 -0.2175 -0.3913 -0.6891
 4457SOL    HW124830   0.470   1.262   6.287  0.5908  0.5783 -0.5516
 4457SOL    HW224831   0.539   1.189   6.185  0.6491  0.0488  1.4068
 4458SOL     OW24832   0.798   2.329  16.917 -0.1333  0.1468 -0.0199
 4458SOL    HW124833   0.768   2.277  16.992 -2.2528  1.6865  0.1813
 4458SOL    HW224834   0.878   2.283  16.890  0.5687  0.9853  0.6181
 4459SOL     OW24835   4.259   4.700   7.966 -0.0517 -0.2633 -0.3474
 4459SOL    HW124836   4.240   4.606   7.965 -1.1188 -0.0451 -0.8159
 4459SOL    HW224837   4.354   4.692   7.971 -0.0119  0.2650 -0.2379
 4460SOL     OW24838   1.544   3.701   4.461 -1.0580 -0.0502  0.2696
 4460SOL    HW124839   1.496   3.640   4.517  0.1354  1.0383  2.4535
 4460SOL    HW224840   1.539   3.671   4.370 -0.4687 -0.5195  0.3889
 4461SOL     OW24841   3.840   1.445  10.790 -0.4928  0.4452 -0.1056
 4461SOL    HW124842   3.880   1.508  10.850  0.6494  0.4340 -0.8461
 4461SOL    HW224843   3.799   1.504  10.726  0.0147  3.0965  2.0033
 4462SOL     OW24844   3.400   1.632  11.574 -0.1576  0.3101  0.0870
 4462SOL    HW124845   3.338   1.600  11.508  0.2890  0.0015 -0.1851
 4462SOL    HW224846   3.430   1.545  11.600 -2.1737 -0.1109  1.0354
 4463SOL     OW24847   0.803   2.956  12.649 -0.2442 -0.1327 -0.1973
 4463SOL    HW124848   0.849   3.030  12.611  0.2209 -1.8402 -2.9682
 4463SOL    HW224849   0.860   2.928  12.720  0.8597 -1.0186 -1.4248
 4464SOL     OW24850   2.214   1.991   3.452 -0.0854  0.2673 -0.4695
 4464SOL    HW124851   2.180   2.029   3.533 -0.3665  0.3404 -0.6222
 4464SOL    HW224852   2.153   2.019   3.385 -0.7838  0.1098  0.1015
 4465SOL     OW24853   4.148   1.890   0.141  0.6079  0.2047  0.2319
 4465SOL    HW124854   4.238   1.882   0.173  1.6890 -3.1741 -3.7283
 4465SOL    HW224855   4.095   1.863   0.216 -0.1263  1.1033  0.0369
 4466SOL     OW24856   0.895   4.266   2.129 -0.1693  0.5569  0.1235
 4466SOL    HW124857   0.847   4.315   2.062 -1.4852  2.0965  2.1938
 4466SOL    HW224858   0.941   4.199   2.079  0.0191  1.2157 -0.5906
 4467SOL     OW24859   3.981   1.926   5.624  0.3276  0.9386 -0.4061
 4467SOL    HW124860   4.041   1.976   5.679  0.0833 -1.0799  1.6843
 4467SOL    HW224861   3.900   1.976   5.631  0.7102  1.3182  1.3164
 4468SOL     OW24862   3.480   3.475   8.266  0.0854  0.6002  0.3438
 4468SOL    HW124863   3.563   3.522   8.273 -0.7618  2.0394  0.6121
 4468SOL    HW224864   3.447   3.477   8.356 -0.4234 -2.8291  0.2256
 4469SOL     OW24865   4.645   3.657  17.464  0.4717  0.0273  0.5258
 4469SOL    HW124866   4.612   3.589  17.523  0.4799 -0.6389 -0.2477
 4469SOL    HW224867   4.720   3.613  17.426 -1.6079 -2.9247 -0.1744
 4470SOL     OW24868   2.782   2.417  17.160  0.1272 -0.1403  0.7322
 4470SOL    HW124869   2.827   2.430  17.243  0.0672 -1.0925  0.9140
 4470SOL    HW224870   2.837   2.470  17.102  2.2953 -1.7331  1.3370
 4471SOL     OW24871   0.557   2.487  16.247  0.3541 -0.9456 -0.3623
 4471SOL    HW124872   0.644   2.447  16.242  0.5993 -0.5866  0.8779
 4471SOL    HW224873   0.497   2.414  16.262 -0.5415  0.0409  0.9023
 4472SOL     OW24874   2.051   0.447   5.660 -0.9921  0.2375 -0.4603
 4472SOL    HW124875   2.025   0.439   5.752 -1.6149 -0.6439 -0.7220
 4472SOL    HW224876   2.012   0.535   5.657 -0.0706  0.4365 -6.5993
 4473SOL     OW24877   0.036   1.385  14.441  0.3088 -0.2625  0.5805
 4473SOL    HW124878   4.703   1.449  14.488 -1.6582 -3.0500  2.1398
 4473SOL    HW224879   4.719   1.301  14.467  1.4783 -0.7017  0.8631
 4474SOL     OW24880   1.244   4.161  10.185 -0.2435  0.1050 -0.6951
 4474SOL    HW124881   1.282   4.077  10.209  0.4875  0.7508  0.3819
 4474SOL    HW224882   1.294   4.221  10.240 -0.6047 -2.6357  2.6186
 4475SOL     OW24883   2.000   4.066   3.359  0.0492 -0.1757  0.3602
 4475SOL    HW124884   1.996   3.982   3.313 -1.5516  0.0275  0.1325
 4475SOL    HW224885   2.090   4.083   3.388  0.9601  0.3018 -2.7115
 4476SOL     OW24886   1.530   1.283   6.711 -0.5405  0.1668  0.0491
 4476SOL    HW124887   1.566   1.196   6.697 -0.1425  0.5478 -1.3018
 4476SOL    HW224888   1.485   1.296   6.627  1.2730  0.9490 -0.8062
 4477SOL     OW24889   0.661   0.321  12.262 -0.0463 -0.2937 -0.0502
 4477SOL    HW124890   0.581   0.269  12.253 -0.3894  0.4949 -1.5184
 4477SOL    HW224891   0.621   0.407  12.272  1.8510  0.0637  4.5240
 4478SOL     OW24892   2.098   3.112  11.285  0.1303  0.0490  0.8140
 4478SOL    HW124893   2.018   3.088  11.239  0.3834 -0.1264  0.4704
 4478SOL    HW224894   2.108   3.205  11.266 -0.1682 -0.2467 -0.7614
 4479SOL     OW24895   0.333   0.049   5.201 -0.5315  0.0053  0.1695
 4479SOL    HW124896   0.252   0.098   5.215  1.6316  3.4612  0.7290
 4479SOL    HW224897   0.398   0.114   5.230  0.5357 -0.7665 -0.5046
 4480SOL     OW24898   0.037   4.569   3.410  0.0599 -0.0268  0.8983
 4480SOL    HW124899   0.096   4.637   3.376 -0.9098 -0.4784 -1.6854
 4480SOL    HW224900   4.704   4.628   3.463 -0.2743 -0.3037  0.8635
 4481SOL     OW24901   0.777   3.168   4.283  0.2007 -0.7649  0.1515
 4481SOL    HW124902   0.820   3.119   4.353 -0.4160  1.2096  1.9408
 4481SOL    HW224903   0.688   3.134   4.288 -0.0582  0.0143  0.9207
 4482SOL     OW24904   4.098   2.336   3.908  0.1935  0.5358  0.0101
 4482SOL    HW124905   4.129   2.411   3.858 -0.7128 -0.0981 -1.5162
 4482SOL    HW224906   4.132   2.268   3.850 -2.6385 -0.5715 -0.3708
 4483SOL     OW24907   3.902   1.024   7.921  0.4676 -0.5261  0.3978
 4483SOL    HW124908   3.849   1.030   7.841  0.2044  2.2102  0.7745
 4483SOL    HW224909   3.852   1.088   7.972 -0.3070  0.2671 -1.3488
 4484SOL     OW24910   2.904   0.855   6.547 -0.7229 -0.4338 -0.5363
 4484SOL    HW124911   2.940   0.936   6.585  1.1634 -2.8222  2.7589
 4484SOL    HW224912   2.988   0.832   6.507  0.1344  2.2288 -0.2455
 4485SOL     OW24913   1.871   4.636   1.923  0.5207  0.6676 -0.3279
 4485SOL    HW124914   1.827   4.565   1.876  1.6108 -0.9077  1.0366
 4485SOL    HW224915   1.795   4.675   1.966 -0.1322  1.0078 -1.7852
 4486SOL     OW24916   3.051   4.012  10.900 -0.0441 -0.6350  0.1370
 4486SOL    HW124917   3.105   4.035  10.976  2.3963  0.1385 -1.8188
 4486SOL    HW224918   3.110   3.987  10.829  0.7441 -2.0867  1.3003
 4487SOL     OW24919   2.788   4.471   7.889  0.0860 -0.5076  0.1732
 4487SOL    HW124920   2.855   4.540   7.886 -1.3237  0.9224  1.1990
 4487SOL    HW224921   2.775   4.459   7.794 -2.4190 -1.0153  0.5612
 4488SOL     OW24922   4.001   1.836   2.909  0.0288  0.1690  0.6900
 4488SOL    HW124923   3.989   1.750   2.869  0.2593  0.0482  0.8845
 4488SOL    HW224924   4.058   1.885   2.849 -0.1129 -2.3610 -1.5287
 4489SOL     OW24925   2.127   3.600   2.263 -0.5962 -0.1306  0.5320
 4489SOL    HW124926   2.155   3.574   2.350  0.7492  0.6005  0.3216
 4489SOL    HW224927   2.107   3.514   2.226 -1.1344 -0.5414  1.7820
 4490SOL     OW24928   1.689   2.839  15.317  0.3811 -0.2234 -0.0646
 4490SOL    HW124929   1.616   2.882  15.362  2.4765  3.1577  0.0103
 4490SOL    HW224930   1.721   2.912  15.264 -2.5210  2.4168  1.7921
 4491SOL     OW24931   0.617   1.044   2.565 -0.9915 -0.0333  0.2226
 4491SOL    HW124932   0.577   1.112   2.619 -0.1350  0.7936 -0.1852
 4491SOL    HW224933   0.616   0.965   2.619  0.4153 -1.1950 -1.4386
 4492SOL     OW24934   1.334   2.572   6.085 -0.0815  0.1935  0.0169
 4492SOL    HW124935   1.336   2.661   6.049  1.2252  1.1052  2.3284
 4492SOL    HW224936   1.259   2.537   6.037  0.6608 -1.7581  0.2903
 4493SOL     OW24937   4.007   2.274   5.578  0.3612 -0.2665  0.0238
 4493SOL    HW124938   3.989   2.265   5.485 -0.0900  0.0407  0.0799
 4493SOL    HW224939   3.922   2.243   5.611  0.2197 -0.1970 -0.2785
 4494SOL     OW24940   0.021   1.415   7.132 -0.6967 -0.2897  0.0925
 4494SOL    HW124941   4.663   1.450   7.172 -0.3273 -1.5772  1.9531
 4494SOL    HW224942   0.061   1.500   7.111 -0.4838 -0.6218 -0.8154
 4495SOL     OW24943   3.018   4.653   6.154  0.0385 -0.0902  0.3635
 4495SOL    HW124944   2.977   0.014   6.180  1.9613  0.3580  1.9215
 4495SOL    HW224945   3.091   4.683   6.100 -1.1889 -1.7402 -2.2479
 4496SOL     OW24946   2.768   3.512   9.083 -0.7239 -0.1572  0.2499
 4496SOL    HW124947   2.682   3.547   9.107 -0.0552 -0.2562  2.7967
 4496SOL    HW224948   2.753   3.418   9.073  0.1882  0.0688 -3.1975
 4497SOL     OW24949   1.339   3.164   3.887 -0.1704 -0.1299  0.8241
 4497SOL    HW124950   1.356   3.250   3.927 -0.3381 -1.5214  3.9152
 4497SOL    HW224951   1.422   3.170   3.839 -0.2656 -2.9623  0.3332
 4498SOL     OW24952   1.235   3.401  16.312 -0.0817  0.5669 -0.1768
 4498SOL    HW124953   1.171   3.422  16.244 -1.1991  0.4168  0.8276
 4498SOL    HW224954   1.186   3.337  16.364 -1.0714  0.8036 -0.8252
 4499SOL     OW24955   3.913   2.644  10.207  0.1536 -0.5442  0.0959
 4499SOL    HW124956   3.887   2.596  10.285  0.5872  0.5639  0.9283
 4499SOL    HW224957   4.008   2.637  10.204  0.3074  1.2901  0.2794
 4500SOL     OW24958   2.041   0.657   3.271 -0.0789  0.0647  0.1703
 4500SOL    HW124959   1.999   0.684   3.353 -0.2288 -0.3012  0.2111
 4500SOL    HW224960   2.042   0.739   3.222 -2.1154  0.3121  0.5405
 4501SOL     OW24961   0.310   3.484   4.355  0.0829  0.3111 -0.0767
 4501SOL    HW124962   0.396   3.446   4.369  0.0694  0.3651  0.1586
 4501SOL    HW224963   0.268   3.487   4.441  1.5965  2.2655  0.5924
 4502SOL     OW24964   2.025   4.638   3.742 -0.2470 -0.4272  0.1519
 4502SOL    HW124965   2.037   0.010   3.723 -0.4787 -0.5454 -0.5930
 4502SOL    HW224966   2.110   4.616   3.779 -1.2074 -2.7206  1.0100
 4503SOL     OW24967   1.210   1.699   9.348 -0.4241 -0.6616 -0.1155
 4503SOL    HW124968   1.201   1.612   9.307  1.9051 -0.2322 -1.5677
 4503SOL    HW224969   1.201   1.754   9.270 -1.9080 -0.7350  0.0188
 4504SOL     OW24970   0.233   2.457   7.591 -0.6993  0.0310 -0.1754
 4504SOL    HW124971   0.170   2.438   7.661 -0.0803  1.2126  0.6965
 4504SOL    HW224972   0.285   2.519   7.642 -1.3428  2.0061 -1.9059
 4505SOL     OW24973   4.473   2.666   4.774 -0.0439  0.3026  0.8449
 4505SOL    HW124974   4.428   2.663   4.859  0.7319 -2.2171  1.1567
 4505SOL    HW224975   4.518   2.751   4.771  0.4925 -0.1149 -2.2223
 4506SOL     OW24976   4.360   0.842  10.029  0.2602 -0.5040 -0.0084
 4506SOL    HW124977   4.316   0.927  10.033  0.2725 -0.4694 -0.6590
 4506SOL    HW224978   4.437   0.868  10.079 -1.5338  0.3116  2.3614
 4507SOL     OW24979   2.559   0.438  10.504  0.1565  0.1980 -0.3648
 4507SOL    HW124980   2.470   0.430  10.539 -0.4452 -1.1153 -2.2164
 4507SOL    HW224981   2.591   0.348  10.511  2.3992  1.0989  1.1051
 4508SOL     OW24982   2.920   2.281  16.890 -0.1586  0.1761 -0.2052
 4508SOL    HW124983   2.913   2.265  16.795 -0.4310 -1.4236  0.0904
 4508SOL    HW224984   2.828   2.288  16.913 -0.0979  0.2767  0.0053
 4509SOL     OW24985   2.918   4.165   1.662  0.0581 -0.5019 -0.3062
 4509SOL    HW124986   2.946   4.145   1.752  2.3464  0.5238 -0.7944
 4509SOL    HW224987   2.825   4.182   1.679  0.0170 -0.8926 -0.1319
 4510SOL     OW24988   0.532   2.710  16.367 -0.0992 -0.7434  0.7407
 4510SOL    HW124989   0.542   2.628  16.319  0.3708 -0.6168  0.6192
 4510SOL    HW224990   0.620   2.720  16.404  0.0801 -1.3284  0.4685
 4511SOL     OW24991   4.500   0.385   5.114  0.0207  0.0149  0.5904
 4511SOL    HW124992   4.479   0.329   5.188  1.0949  0.7331  1.4321
 4511SOL    HW224993   4.452   0.343   5.043 -1.2016  0.7540  0.9615
 4512SOL     OW24994   0.146   1.805   4.757  0.4753  0.4435 -0.0595
 4512SOL    HW124995   0.191   1.827   4.839  1.2328 -4.1468  0.7476
 4512SOL    HW224996   0.087   1.880   4.752  0.8325  0.5449 -2.4070
 4513SOL     OW24997   1.084   3.326  11.682 -0.3381 -0.4344 -0.9162
 4513SOL    HW124998   1.174   3.292  11.686  0.1154  1.3214  3.4954
 4513SOL    HW224999   1.043   3.241  11.697 -1.3653  0.1218 -0.5862
 4514SOL     OW25000   0.475   4.346  16.092  0.6461  0.1600 -0.0310
 4514SOL    HW125001   0.507   4.343  16.002  0.6859  1.3211 -0.0510
 4514SOL    HW225002   0.520   4.271  16.130  1.8340 -0.3086 -2.3112
 4515SOL     OW25003   2.964   0.430  10.931  0.0970 -0.8241  0.7178
 4515SOL    HW125004   2.935   0.371  11.000  1.0372  0.2039  1.9776
 4515SOL    HW225005   2.971   0.512  10.979 -2.8673  0.7390 -1.4713
 4516SOL     OW25006   2.134   4.166  13.772  0.4582  0.5095  0.2016
 4516SOL    HW125007   2.103   4.197  13.687  0.5107 -0.7360 -0.2794
 4516SOL    HW225008   2.047   4.153  13.809 -0.2517  0.2197 -1.5608
 4517SOL     OW25009   2.239   3.982   2.246  0.1681 -0.3815  0.0694
 4517SOL    HW125010   2.206   4.071   2.235 -1.3491 -0.9511  0.0160
 4517SOL    HW225011   2.287   3.991   2.328  0.8610  1.6589 -0.5681
 4518SOL     OW25012   4.117   3.030  12.383 -0.0988  0.2571 -0.0124
 4518SOL    HW125013   4.063   2.952  12.367 -0.1415  0.3008 -0.0767
 4518SOL    HW225014   4.170   2.986  12.450  1.6183  2.5679  0.1219
 4519SOL     OW25015   2.433   4.673   2.940 -0.2789  0.1728 -0.0415
 4519SOL    HW125016   2.368   4.654   2.872 -0.7394 -1.0948  0.7560
 4519SOL    HW225017   2.511   4.631   2.905  2.5138  3.4529  2.1978
 4520SOL     OW25018   0.347   4.608   0.894  0.3560 -0.1199  0.0312
 4520SOL    HW125019   0.405   4.538   0.923 -0.2248 -0.7964 -0.4321
 4520SOL    HW225020   0.400   4.688   0.893 -1.3862  1.0967  2.5425
 4521SOL     OW25021   3.840   3.975  10.111 -0.4146  0.3586 -0.1131
 4521SOL    HW125022   3.790   3.894  10.099  1.4895 -0.6075 -1.4262
 4521SOL    HW225023   3.810   4.008  10.196  2.5326  1.6091  0.4359
 4522SOL     OW25024   3.997   3.451  10.546  0.5922  0.5580 -0.6565
 4522SOL    HW125025   3.909   3.429  10.577  1.9564  0.2132  2.9022
 4522SOL    HW225026   4.006   3.393  10.470 -1.4365  1.8701 -1.9014
 4523SOL     OW25027   2.264   4.332   6.192  0.0178  0.2924 -0.3254
 4523SOL    HW125028   2.320   4.278   6.135 -1.0718 -0.2804 -0.8405
 4523SOL    HW225029   2.312   4.326   6.274  0.2569  0.5707 -0.4427
 4524SOL     OW25030   1.109   4.017   2.287 -0.4555  0.4951  0.3720
 4524SOL    HW125031   1.158   3.962   2.226 -2.0482  0.0848 -0.5290
 4524SOL    HW225032   1.127   4.105   2.254  1.4974  0.0801  0.3256
 4525SOL     OW25033   1.056   0.347  10.959  0.2550  0.2871 -0.2121
 4525SOL    HW125034   1.122   0.413  10.936  0.1619  0.4769  0.0588
 4525SOL    HW225035   1.052   0.355  11.055  0.7291  0.6789 -0.2244
 4526SOL     OW25036   4.620   4.372   2.432 -0.0780 -0.2329 -0.6267
 4526SOL    HW125037   4.698   4.394   2.483  0.0731 -0.2709 -0.8436
 4526SOL    HW225038   4.604   4.279   2.448  0.7680 -0.1276  0.8345
 4527SOL     OW25039   4.693   1.691   4.344 -1.0357  0.0073  0.0975
 4527SOL    HW125040   0.006   1.777   4.367  1.5657 -0.8876 -0.3910
 4527SOL    HW225041   4.642   1.714   4.267 -0.1516  1.9850  0.0952
 4528SOL     OW25042   1.960   1.070   8.953  0.0622 -0.0928 -0.5108
 4528SOL    HW125043   1.909   1.146   8.982  0.5973  0.2304 -0.4281
 4528SOL    HW225044   1.954   1.010   9.027 -0.1823 -0.1185 -0.5507
 4529SOL     OW25045   4.516   4.475   1.501 -0.3620 -0.1867  0.7619
 4529SOL    HW125046   4.496   4.508   1.413  2.6250 -1.4178 -0.3743
 4529SOL    HW225047   4.429   4.464   1.540 -1.1977  0.6905 -0.8257
 4530SOL     OW25048   3.120   1.157  12.958 -0.4338 -0.2510 -0.4325
 4530SOL    HW125049   3.085   1.074  12.989  1.0042 -0.9480 -0.6697
 4530SOL    HW225050   3.114   1.199  13.044  1.2656  0.6487 -0.7441
 4531SOL     OW25051   2.290   2.154   0.369 -0.3307 -0.6585  0.0108
 4531SOL    HW125052   2.198   2.180   0.361  0.1589  1.4190  1.2488
 4531SOL    HW225053   2.290   2.067   0.330  2.2853 -0.1785 -1.0567
 4532SOL     OW25054   2.622   4.430   2.398  0.0828 -0.4661 -0.2803
 4532SOL    HW125055   2.529   4.409   2.398 -0.2805  1.1834  0.2583
 4532SOL    HW225056   2.625   4.515   2.355 -0.8162  0.1689  0.9098
 4533SOL     OW25057   3.539   0.455   1.295  0.0884  0.2520 -0.3564
 4533SOL    HW125058   3.509   0.367   1.320  0.7590 -0.1025 -0.8035
 4533SOL    HW225059   3.608   0.421   1.239 -1.9377 -0.7204 -2.2485
 4534SOL     OW25060   1.417   1.415  17.069 -0.0298  0.0578  0.0491
 4534SOL    HW125061   1.462   1.441  16.989 -0.6998  1.5078  0.1308
 4534SOL    HW225062   1.476   1.347  17.100 -3.1927 -2.0777  1.3900
 4535SOL     OW25063   3.144   2.131   5.741 -0.0390 -0.8795  0.3870
 4535SOL    HW125064   3.053   2.143   5.770 -0.2234 -0.7955 -0.2389
 4535SOL    HW225065   3.124   2.140   5.648 -0.3980  2.5364  0.7980
 4536SOL     OW25066   2.113   2.296   0.108  0.0771  0.1103  0.3587
 4536SOL    HW125067   2.071   2.290   0.193  0.1388  0.0253  0.3835
 4536SOL    HW225068   2.085   2.216   0.063 -3.1237 -0.9928  4.3934
 4537SOL     OW25069   4.397   1.384   7.919 -0.0400  0.7181  0.1637
 4537SOL    HW125070   4.360   1.330   7.850 -2.6360  1.9055  0.5843
 4537SOL    HW225071   4.475   1.332   7.937  0.6272  2.3824  2.1717
 4538SOL     OW25072   2.374   2.113  12.429  0.8447 -0.4442  0.1568
 4538SOL    HW125073   2.416   2.193  12.462  1.0075 -0.4336 -0.0802
 4538SOL    HW225074   2.446   2.062  12.394 -1.5587 -1.6899 -2.9054
 4539SOL     OW25075   1.891   0.848   6.768  0.2160  0.7105 -0.2921
 4539SOL    HW125076   1.896   0.798   6.687  2.4750  1.6083 -0.6918
 4539SOL    HW225077   1.847   0.778   6.818  0.1718  1.8326  1.2641
 4540SOL     OW25078   3.833   2.053   5.249 -0.3538  0.0569 -0.3505
 4540SOL    HW125079   3.848   2.146   5.269  1.4127 -0.5976  1.3904
 4540SOL    HW225080   3.748   2.040   5.292  0.1597  1.7799  1.2442
 4541SOL     OW25081   3.899   4.591  10.051  0.5009 -0.4115 -0.4899
 4541SOL    HW125082   3.977   4.634  10.015  0.5980  1.1481  1.5901
 4541SOL    HW225083   3.939   4.509  10.079  2.1020  0.0654 -1.3443
 4542SOL     OW25084   0.616   4.290   4.146  0.0447 -0.0647  0.2471
 4542SOL    HW125085   0.577   4.340   4.217  0.6880 -0.6552  1.0147
 4542SOL    HW225086   0.638   4.211   4.196 -3.2725 -0.8995  0.4140
 4543SOL     OW25087   2.991   4.690  15.971 -0.2630  0.4059 -0.3217
 4543SOL    HW125088   2.987   4.639  15.890 -1.3136  0.0319 -0.0362
 4543SOL    HW225089   2.898   4.693  15.995 -0.0692  1.3079  0.3290
 4544SOL     OW25090   2.180   2.749  15.931  0.0176 -0.1606 -0.5390
 4544SOL    HW125091   2.105   2.737  15.874 -1.3814  1.5112  0.9708
 4544SOL    HW225092   2.237   2.681  15.895 -1.0722  0.0953 -2.7425
 4545SOL     OW25093   0.081   4.346  11.474  0.3604 -0.0553 -0.1936
 4545SOL    HW125094   0.177   4.351  11.478  0.3749 -0.2761 -0.2904
 4545SOL    HW225095   0.054   4.304  11.556 -2.6805 -0.3002 -1.3401
 4546SOL     OW25096   0.695   1.393   0.266  0.3174 -0.2409  0.1553
 4546SOL    HW125097   0.684   1.437   0.350 -1.0345 -0.5526  0.1419
 4546SOL    HW225098   0.651   1.310   0.287  0.2048 -0.2034  0.0662
 4547SOL     OW25099   3.914   0.523   1.162  1.1295 -0.6151  0.2393
 4547SOL    HW125100   3.948   0.580   1.093 -1.7799  0.2484 -0.5059
 4547SOL    HW225101   3.959   0.551   1.241  0.0198  1.3042  0.1802
 4548SOL     OW25102   3.361   4.153   0.708 -0.1072 -0.1182  0.3858
 4548SOL    HW125103   3.342   4.247   0.708  2.3061  0.3667 -0.4125
 4548SOL    HW225104   3.285   4.108   0.746 -0.5794  0.3595 -0.0013
 4549SOL     OW25105   3.719   0.345   1.111 -0.0436  0.0102 -0.4451
 4549SOL    HW125106   3.796   0.400   1.121  0.4534 -0.5250 -1.3159
 4549SOL    HW225107   3.717   0.302   1.025 -1.4652  0.2051 -0.5047
 4550SOL     OW25108   1.191   0.835  15.491 -0.3587  0.4874  0.1953
 4550SOL    HW125109   1.240   0.911  15.457  3.9350 -1.5823  1.7238
 4550SOL    HW225110   1.104   0.873  15.503 -0.3131  0.3672  0.9359
 4551SOL     OW25111   3.123   3.178   7.892 -0.1306  0.1080  0.3238
 4551SOL    HW125112   3.208   3.163   7.933  2.0874 -1.0752 -4.7279
 4551SOL    HW225113   3.104   3.263   7.933  2.2108  0.2566  1.0891
 4552SOL     OW25114   4.225   0.795  10.331 -0.0533 -0.1515  0.7598
 4552SOL    HW125115   4.180   0.866  10.286 -0.4036 -1.6356 -1.2330
 4552SOL    HW225116   4.232   0.819  10.424  2.3787  0.3672  0.4491
 4553SOL     OW25117   4.522   1.198   1.505 -0.2823  0.4488 -0.4501
 4553SOL    HW125118   4.594   1.161   1.455  0.3447 -0.4253  1.0805
 4553SOL    HW225119   4.509   1.280   1.458 -2.5728  1.0345  1.2124
 4554SOL     OW25120   1.178   0.148   5.035  0.4482 -0.5459  0.0661
 4554SOL    HW125121   1.251   0.207   5.016 -0.6479  0.0129 -2.3060
 4554SOL    HW225122   1.160   0.087   4.964 -0.8957 -0.1762  0.0902
 4555SOL     OW25123   1.192   1.324   8.540 -0.2440  0.0493 -0.1749
 4555SOL    HW125124   1.242   1.277   8.473  1.7280 -0.9809  2.0094
 4555SOL    HW225125   1.238   1.407   8.526 -0.4604  0.3539  0.9923
 4556SOL     OW25126   4.634   0.223  12.361 -0.1017 -1.1267 -0.3979
 4556SOL    HW125127   0.006   0.242  12.375 -0.6034  1.8571 -1.1151
 4556SOL    HW225128   4.635   0.184  12.273 -1.9722  1.0618 -1.3765
 4557SOL     OW25129   4.617   2.216   1.545 -0.0182 -0.2642 -0.3683
 4557SOL    HW125130   4.522   2.225   1.542  0.0079  0.4943  0.9247
 4557SOL    HW225131   4.633   2.122   1.548  0.3198 -0.1744  0.6530
 4558SOL     OW25132   3.865   2.467  15.828  0.6383  0.8621  0.3811
 4558SOL    HW125133   3.879   2.549  15.874 -0.7059  1.7003 -0.6796
 4558SOL    HW225134   3.769   2.470  15.830  0.6352  1.2897 -0.4906
 4559SOL     OW25135   0.023   4.186   6.082 -0.0983  0.1708 -0.5268
 4559SOL    HW125136   0.089   4.117   6.070 -0.1880 -0.5079  2.8948
 4559SOL    HW225137   0.073   4.265   6.059  1.3447 -0.6014 -0.0689
 4560SOL     OW25138   3.850   2.330   5.303  0.3662 -0.1499  0.1349
 4560SOL    HW125139   3.829   2.334   5.210  1.1460 -2.0887 -0.1384
 4560SOL    HW225140   3.868   2.423   5.316 -2.4583  0.0663  2.5207
 4561SOL     OW25141   3.562   2.752   4.792  0.1180  0.5802  0.0433
 4561SOL    HW125142   3.467   2.763   4.792  0.0029 -0.4219 -0.2742
 4561SOL    HW225143   3.583   2.832   4.744  0.6338  1.3294  1.5173
 4562SOL     OW25144   0.762   4.294   5.466 -0.5992 -0.0947  0.1354
 4562SOL    HW125145   0.735   4.202   5.465  1.3099 -0.6427 -0.0416
 4562SOL    HW225146   0.680   4.343   5.452 -0.1924  1.0687  1.8159
 4563SOL     OW25147   0.401   1.262   5.601  0.1776  0.2005 -0.3389
 4563SOL    HW125148   0.331   1.258   5.536 -0.8636  1.3352  0.6881
 4563SOL    HW225149   0.435   1.173   5.591  0.0597  0.3597 -2.1669
 4564SOL     OW25150   2.750   4.652   5.205 -0.0606 -0.3870  0.2224
 4564SOL    HW125151   2.692   4.711   5.255  0.0308  1.4224 -1.8316
 4564SOL    HW225152   2.737   4.701   5.124  0.8194 -0.3813  0.0878
 4565SOL     OW25153   1.035   2.908  13.166  0.0361 -0.3229  0.1595
 4565SOL    HW125154   1.126   2.882  13.173  0.2820  0.6211  0.5598
 4565SOL    HW225155   0.993   2.845  13.225  1.5232 -0.6425  0.8832
 4566SOL     OW25156   0.834   2.143   3.557 -0.4348 -0.2964 -0.6966
 4566SOL    HW125157   0.835   2.050   3.531  0.2641 -1.0478  2.0488
 4566SOL    HW225158   0.741   2.146   3.532 -0.8765 -2.6691  0.6510
 4567SOL     OW25159   0.666   2.760   9.106  0.3890  0.3098  0.1429
 4567SOL    HW125160   0.619   2.676   9.108 -0.2223  0.5778 -3.0459
 4567SOL    HW225161   0.628   2.801   9.184 -2.8506 -1.6308 -0.4178
 4568SOL     OW25162   1.847   1.665   5.963  0.3718  0.0369  0.2448
 4568SOL    HW125163   1.756   1.637   5.969  0.2247  0.8147  1.6365
 4568SOL    HW225164   1.887   1.591   5.916  1.1085 -0.3448  1.4820
 4569SOL     OW25165   0.097   0.403   0.171 -0.1939  0.4762 -0.6234
 4569SOL    HW125166   0.025   0.396   0.109  1.3891 -2.1485 -2.1689
 4569SOL    HW225167   0.145   0.322   0.154  2.0450  1.1978  2.2516
 4570SOL     OW25168   4.512   2.600   8.025 -0.1429  0.1314 -0.1105
 4570SOL    HW125169   4.493   2.635   8.112 -0.7835 -1.6190  0.4535
 4570SOL    HW225170   4.553   2.514   8.034 -1.2494 -0.5635 -1.6805
 4571SOL     OW25171   2.468   4.025   8.243  0.1131 -0.3090 -0.1223
 4571SOL    HW125172   2.398   3.966   8.215 -0.5546  0.5939 -0.3477
 4571SOL    HW225173   2.537   3.960   8.235  2.4767  2.2256 -0.2674
 4572SOL     OW25174   3.818   2.980  14.150  0.3123  0.4946  0.1864
 4572SOL    HW125175   3.865   2.987  14.234 -0.1668  0.0244  0.4959
 4572SOL    HW225176   3.749   3.043  14.167 -0.6233 -1.0132  2.0339
 4573SOL     OW25177   0.885   3.746   5.060  0.3881 -0.4583  0.0993
 4573SOL    HW125178   0.830   3.805   5.112 -0.7842 -0.6326 -0.9588
 4573SOL    HW225179   0.964   3.796   5.040  0.9426 -1.4460 -0.1960
 4574SOL     OW25180   3.327   1.300   3.663 -0.0054 -0.1052 -0.0934
 4574SOL    HW125181   3.368   1.265   3.584  1.4689 -0.5551  0.8716
 4574SOL    HW225182   3.253   1.239   3.670  0.7810 -0.8617  1.7275
 4575SOL     OW25183   0.887   3.221   3.113 -0.0586  0.5961  0.7496
 4575SOL    HW125184   0.795   3.198   3.102 -0.3643  1.7141  1.0192
 4575SOL    HW225185   0.875   3.250   3.203 -0.1250  2.5048  0.1108
 4576SOL     OW25186   1.862   2.270  13.563  0.1826  0.4437  0.1345
 4576SOL    HW125187   1.866   2.245  13.470 -5.0363 -0.9089  0.2887
 4576SOL    HW225188   1.890   2.362  13.562  0.1772  0.4424 -0.4450
 4577SOL     OW25189   1.435   1.226   5.920  0.3994 -0.2818  0.4033
 4577SOL    HW125190   1.349   1.268   5.922  0.7925  0.4925  1.2071
 4577SOL    HW225191   1.433   1.171   5.842  2.2486  1.3830 -0.7876
 4578SOL     OW25192   0.555   4.491   6.174 -0.5196 -0.1768  0.1857
 4578SOL    HW125193   0.636   4.542   6.175 -0.2289 -0.6248 -0.4940
 4578SOL    HW225194   0.489   4.553   6.144 -1.2957 -0.1252  2.0060
 4579SOL     OW25195   2.435   1.931   4.934  0.0745  0.4435  0.2654
 4579SOL    HW125196   2.482   1.925   5.018 -0.8919 -0.3996  0.7360
 4579SOL    HW225197   2.493   1.919   4.859 -0.5887  1.7151 -0.4546
 4580SOL     OW25198   4.343   4.181  11.048 -0.2794  0.3899  0.1277
 4580SOL    HW125199   4.330   4.111  11.112 -0.3751  1.2851  1.0800
 4580SOL    HW225200   4.437   4.166  11.045  0.1407  3.3575 -1.0944
 4581SOL     OW25201   0.767   3.125  12.407  0.2469 -0.3815 -0.0210
 4581SOL    HW125202   0.712   3.202  12.418 -1.1320 -1.2568 -0.6496
 4581SOL    HW225203   0.844   3.135  12.462  1.1893 -2.8009 -0.8769
 4582SOL     OW25204   3.071   0.524  15.392 -0.3228 -0.6501 -0.5381
 4582SOL    HW125205   3.058   0.562  15.479 -0.6359  0.2488 -0.9734
 4582SOL    HW225206   3.059   0.599  15.334 -0.6659  0.6288  1.2006
 4583SOL     OW25207   0.518   3.253   5.352  0.3749 -0.1591  0.0888
 4583SOL    HW125208   0.452   3.224   5.290  0.8129 -0.3843 -0.2749
 4583SOL    HW225209   0.596   3.207   5.321  2.0532  2.1639  0.8541
 4584SOL     OW25210   1.289   0.210   9.302 -0.0447  1.1758  0.4501
 4584SOL    HW125211   1.286   0.250   9.389 -3.3656  0.4266  0.6874
 4584SOL    HW225212   1.217   0.261   9.264 -0.9427 -1.6354 -1.7158
 4585SOL     OW25213   0.394   1.156   3.650  0.3182  0.3218  0.2918
 4585SOL    HW125214   0.401   1.242   3.693 -1.9311  1.1112 -0.9671
 4585SOL    HW225215   0.355   1.190   3.570 -1.1258  1.1690  1.3368
 4586SOL     OW25216   2.598   2.714   0.600  1.0563 -0.0328  0.1490
 4586SOL    HW125217   2.598   2.634   0.548 -1.8703  1.5596 -2.2934
 4586SOL    HW225218   2.570   2.672   0.681 -0.7625  1.6483  0.4118
 4587SOL     OW25219   0.964   0.380   2.495  0.3047  0.0491 -0.1698
 4587SOL    HW125220   1.044   0.418   2.533  0.3608  0.4622 -0.6983
 4587SOL    HW225221   1.005   0.330   2.424 -1.4637  0.0777 -1.1911
 4588SOL     OW25222   0.976   2.752   6.689  0.4898  0.0310 -0.4743
 4588SOL    HW125223   0.892   2.707   6.693 -0.0919  1.2131  0.5960
 4588SOL    HW225224   0.971   2.786   6.600 -2.4101 -1.2921 -0.8064
 4589SOL     OW25225   2.379   0.899   7.138 -0.0536 -0.3078 -0.0744
 4589SOL    HW125226   2.306   0.840   7.116  0.0081 -0.4504  0.1093
 4589SOL    HW225227   2.446   0.839   7.169  1.6051  0.7377 -1.5953
 4590SOL     OW25228   0.424   2.959   4.055  0.1123 -0.4982  0.5670
 4590SOL    HW125229   0.507   2.911   4.058  0.9003  0.8421  0.1656
 4590SOL    HW225230   0.371   2.907   3.995 -0.1498  0.0100  0.3612
 4591SOL     OW25231   2.549   2.360   6.896  0.6108  0.0545 -0.5392
 4591SOL    HW125232   2.470   2.309   6.917  0.1317  0.7432 -0.6717
 4591SOL    HW225233   2.531   2.393   6.808 -1.3298 -4.5810 -1.8868
 4592SOL     OW25234   1.342   3.782   4.813 -0.0579 -0.1368  0.0007
 4592SOL    HW125235   1.373   3.832   4.888  0.6130 -1.9950  0.9612
 4592SOL    HW225236   1.378   3.833   4.740  0.0975  1.8530  1.4477
 4593SOL     OW25237   4.442   3.468   7.580 -0.1484  0.3300  0.0847
 4593SOL    HW125238   4.377   3.407   7.616  1.5334 -0.1781  2.2516
 4593SOL    HW225239   4.518   3.413   7.594 -1.9887 -2.4924 -1.0064
 4594SOL     OW25240   2.095   1.445   9.409  0.2257  0.0443 -0.3962
 4594SOL    HW125241   2.073   1.375   9.347  1.2570  0.7553 -1.5649
 4594SOL    HW225242   2.145   1.388   9.468 -1.7433  0.1200  1.3405
 4595SOL     OW25243   3.344   1.806   9.248 -0.4003 -0.6041 -0.1334
 4595SOL    HW125244   3.369   1.720   9.214  0.8561 -0.9337  1.6158
 4595SOL    HW225245   3.249   1.802   9.249 -0.4477  0.4839 -0.5325
 4596SOL     OW25246   3.014   3.247   1.712 -0.0892  0.1819 -0.0691
 4596SOL    HW125247   2.930   3.292   1.696  0.6801  0.9376 -1.9861
 4596SOL    HW225248   2.986   3.157   1.730  0.4747 -0.2952 -1.6389
 4597SOL     OW25249   1.586   0.197   6.674  0.3667  0.9015 -0.3902
 4597SOL    HW125250   1.620   0.287   6.682  2.3389  0.0967  0.2997
 4597SOL    HW225251   1.497   0.205   6.706  0.2123 -0.5885 -0.4516
 4598SOL     OW25252   0.880   3.900   1.961 -0.1754  0.1380 -0.6205
 4598SOL    HW125253   0.903   3.827   2.018 -1.8414 -0.8625 -1.2379
 4598SOL    HW225254   0.808   3.860   1.913 -0.0940  2.4544 -2.6604
 4599SOL     OW25255   1.457   1.378   2.091  0.2932 -0.0673  0.0894
 4599SOL    HW125256   1.487   1.462   2.125 -0.0340 -0.7747  2.1583
 4599SOL    HW225257   1.429   1.410   2.005 -1.3737 -0.2608  0.5502
 4600SOL     OW25258   1.058   4.663  16.606 -0.7178  0.6256 -0.1082
 4600SOL    HW125259   1.030   4.721  16.677 -0.7297  1.0984 -0.4983
 4600SOL    HW225260   1.152   4.671  16.620 -0.8353  1.8786 -0.0871
 4601SOL     OW25261   2.137   3.225   6.745  0.2119 -0.5113  0.1941
 4601SOL    HW125262   2.044   3.230   6.769 -0.1070 -2.3871 -0.6269
 4601SOL    HW225263   2.156   3.309   6.703  2.4767 -0.3754  1.5105
 4602SOL     OW25264   3.780   4.105   1.156  0.2255  0.4398 -0.9758
 4602SOL    HW125265   3.754   4.099   1.064 -0.5199 -1.4479 -0.6531
 4602SOL    HW225266   3.833   4.184   1.147  1.5577 -0.3579 -0.0047
 4603SOL     OW25267   3.726   4.206   8.295 -0.4719  0.0526  0.5031
 4603SOL    HW125268   3.695   4.179   8.209  0.1556  0.0797  0.2667
 4603SOL    HW225269   3.802   4.260   8.272 -1.4309  0.6642 -1.2460
 4604SOL     OW25270   1.975   2.656   1.778  0.1011  0.1389 -0.1255
 4604SOL    HW125271   1.907   2.634   1.715  1.9160 -0.3357 -1.9546
 4604SOL    HW225272   1.943   2.600   1.849 -0.1970  0.7107  0.1880
 4605SOL     OW25273   4.111   0.082   6.902 -0.0301  0.4403 -0.9036
 4605SOL    HW125274   4.091   0.126   6.985  0.6832 -1.4941  0.2970
 4605SOL    HW225275   4.091   4.714   6.931 -0.8927  0.6962 -0.6951
 4606SOL     OW25276   0.682   3.604  11.632 -0.7996  0.3677  0.0447
 4606SOL    HW125277   0.690   3.680  11.575 -0.2159 -0.1632 -0.5883
 4606SOL    HW225278   0.613   3.556  11.587 -0.0508  1.0345 -1.7827
 4607SOL     OW25279   0.389   2.175   4.000 -0.1282  0.2946  0.3937
 4607SOL    HW125280   0.410   2.133   3.917  0.6909 -1.0025  1.2675
 4607SOL    HW225281   0.293   2.173   4.001 -0.1900  1.7171 -1.7649
 4608SOL     OW25282   4.666   1.781   7.850 -0.0598 -0.2646 -0.2351
 4608SOL    HW125283   4.636   1.871   7.864 -0.8470 -0.5760  0.0969
 4608SOL    HW225284   4.701   1.773   7.762 -1.0438  2.5641 -0.8887
 4609SOL     OW25285   0.983   3.246   5.397 -0.5787  0.3849 -0.0497
 4609SOL    HW125286   1.075   3.251   5.370 -0.6470 -2.4806 -0.7861
 4609SOL    HW225287   0.987   3.261   5.492  2.3221 -1.1755  0.0714
 4610SOL     OW25288   0.470   4.608  10.270 -0.3096 -0.2814  0.1435
 4610SOL    HW125289   0.474   4.587  10.176  0.2514 -0.0393  0.1143
 4610SOL    HW225290   0.558   4.639  10.289 -0.2733 -1.0840  1.2581
 4611SOL     OW25291   1.190   3.310   5.685 -0.3658  0.2478  0.1684
 4611SOL    HW125292   1.208   3.404   5.677  2.0411 -0.2544 -0.1007
 4611SOL    HW225293   1.250   3.281   5.617  2.9657  1.8111  2.4608
 4612SOL     OW25294   0.934   3.240   5.687  0.3540 -0.0896 -0.3868
 4612SOL    HW125295   0.923   3.145   5.694 -0.5930  0.0836  0.4254
 4612SOL    HW225296   1.026   3.262   5.703  0.3244 -1.5954  1.8272
 4613SOL     OW25297   2.497   0.815   8.150  0.6953 -0.4286 -0.1648
 4613SOL    HW125298   2.437   0.826   8.076 -0.3845 -0.4919  0.7050
 4613SOL    HW225299   2.500   0.904   8.185 -2.2875 -0.3509 -0.0784
 4614SOL     OW25300   4.293   2.944   3.318  0.8680  0.2685 -0.7123
 4614SOL    HW125301   4.383   2.938   3.288  1.7103  1.4374  1.5632
 4614SOL    HW225302   4.269   3.023   3.269  1.7156 -0.4287 -2.2369
 4615SOL     OW25303   0.892   0.731   6.549  0.0936 -0.7328 -0.0725
 4615SOL    HW125304   0.965   0.741   6.487  0.5741 -1.0539  0.4403
 4615SOL    HW225305   0.854   0.651   6.514 -1.6205 -0.8634  2.0864
 4616SOL     OW25306   2.340   1.162   2.576 -0.4388  0.3008  0.5713
 4616SOL    HW125307   2.359   1.250   2.544  2.1817  0.0144  1.3077
 4616SOL    HW225308   2.250   1.173   2.606 -1.2005  0.2611 -1.7024
 4617SOL     OW25309   0.542   0.359   5.642  0.4429 -0.4585  0.4960
 4617SOL    HW125310   0.520   0.273   5.679 -1.4217  0.0208  0.4689
 4617SOL    HW225311   0.627   0.340   5.602  0.1153  2.0582 -1.3421
 4618SOL     OW25312   4.594   3.711  16.697  0.1221 -0.2696 -0.0828
 4618SOL    HW125313   4.690   3.717  16.707  0.1209  0.1477 -0.3309
 4618SOL    HW225314   4.585   3.668  16.612  0.0645 -0.4996  0.0392
 4619SOL     OW25315   0.519   1.657   8.204 -0.3524  0.4076  0.5633
 4619SOL    HW125316   0.595   1.599   8.202 -0.7120  0.0720 -2.8675
 4619SOL    HW225317   0.562   1.735   8.240 -2.2647  2.9449 -2.7086
 4620SOL     OW25318   0.532   4.198  15.302 -0.9580  0.0202  0.2551
 4620SOL    HW125319   0.521   4.171  15.211 -0.9631  1.1541 -0.0748
 4620SOL    HW225320   0.616   4.243  15.292 -0.5193 -0.8218  0.1711
 4621SOL     OW25321   1.319   0.634   5.053 -0.3600 -0.0004  0.4927
 4621SOL    HW125322   1.244   0.655   4.997  0.2506 -2.6484 -1.3173
 4621SOL    HW225323   1.372   0.711   5.037 -1.9389  0.7765 -0.9505
 4622SOL     OW25324   3.840   3.304  10.897  0.0593  0.6076  0.2747
 4622SOL    HW125325   3.817   3.373  10.959  0.3494 -1.3027  2.4953
 4622SOL    HW225326   3.820   3.230  10.954 -1.6247  0.2167 -0.8225
 4623SOL     OW25327   3.639   2.796   0.652  0.1839 -1.0135  0.1831
 4623SOL    HW125328   3.599   2.874   0.615 -0.4376 -0.9279  1.0272
 4623SOL    HW225329   3.719   2.831   0.691  1.2131 -0.9387 -2.0309
 4624SOL     OW25330   4.346   4.334  13.744 -0.6303 -0.1806 -0.1588
 4624SOL    HW125331   4.408   4.262  13.757 -0.5220 -0.0365  0.1185
 4624SOL    HW225332   4.402   4.403  13.779 -1.3443 -0.4416  1.4987
 4625SOL     OW25333   4.575   0.530  12.799 -0.0486 -0.0824 -0.2600
 4625SOL    HW125334   4.544   0.447  12.762  1.7609 -0.1506 -1.6259
 4625SOL    HW225335   4.547   0.582  12.724  0.2621  2.3182  1.3169
 4626SOL     OW25336   0.290   4.264   2.461  0.1698 -0.0856  0.1739
 4626SOL    HW125337   0.313   4.202   2.530 -1.2650 -0.7898  0.0077
 4626SOL    HW225338   0.227   4.319   2.508 -0.1789 -0.2221 -0.1423
 4627SOL     OW25339   4.692   0.507  16.566 -0.0338  0.0775 -0.3398
 4627SOL    HW125340   4.658   0.597  16.567 -0.4486 -0.0776 -0.6778
 4627SOL    HW225341   4.707   0.505  16.472 -1.9642 -1.4835 -0.6120
 4628SOL     OW25342   3.995   2.659   6.594  0.0355 -0.1735 -0.2334
 4628SOL    HW125343   3.981   2.572   6.631 -1.3773  1.0188  2.0443
 4628SOL    HW225344   3.921   2.690   6.646  0.3341 -1.6343  1.0857
 4629SOL     OW25345   3.121   4.034   0.836  0.1591  0.1108  0.2401
 4629SOL    HW125346   3.047   4.056   0.780  1.3774  1.2073 -0.9420
 4629SOL    HW225347   3.089   4.030   0.926  2.8991 -0.5565  1.1815
 4630SOL     OW25348   4.473   3.498   4.273  0.3806  0.5468  0.7390
 4630SOL    HW125349   4.386   3.520   4.239 -0.1592 -0.3560  1.5578
 4630SOL    HW225350   4.523   3.471   4.196  1.9981  3.6902  0.6870
 4631SOL     OW25351   2.949   2.034   2.493 -0.5383 -0.0476 -0.1958
 4631SOL    HW125352   2.960   2.108   2.433 -0.9169  1.7979  2.0150
 4631SOL    HW225353   2.877   1.996   2.442  0.0971  0.7679 -1.7137
 4632SOL     OW25354   3.877   4.096   2.367 -0.6528 -0.1671 -0.5164
 4632SOL    HW125355   3.867   4.001   2.365 -0.8829 -0.1380 -0.7828
 4632SOL    HW225356   3.789   4.130   2.388  0.4863  0.7755  2.7421
 4633SOL     OW25357   0.059   2.656   5.989  0.5553  0.1244 -0.1051
 4633SOL    HW125358   0.095   2.684   6.074 -1.2557  2.2413 -0.0527
 4633SOL    HW225359   0.092   2.567   5.979  1.6692  0.5241  0.0001
 4634SOL     OW25360   2.770   2.944  10.967 -0.2675 -0.2713  0.1806
 4634SOL    HW125361   2.840   2.988  11.014 -2.0898  0.3227  2.3310
 4634SOL    HW225362   2.729   3.012  10.913  0.4143 -1.3064 -1.6166
 4635SOL     OW25363   4.693   1.845   7.224  0.4739 -0.0971  0.2003
 4635SOL    HW125364   0.040   1.907   7.250 -1.0771  1.6575  0.0863
 4635SOL    HW225365   4.613   1.879   7.265 -0.1847  0.6149 -1.6566
 4636SOL     OW25366   0.142   0.343   5.970  0.2496 -0.2750  0.4799
 4636SOL    HW125367   0.156   0.359   6.063 -0.2852  1.1454  0.3134
 4636SOL    HW225368   0.098   0.423   5.943 -0.1164 -0.1640  1.4039
 4637SOL     OW25369   3.919   0.371   3.419 -0.0982  0.0543 -0.0169
 4637SOL    HW125370   3.953   0.433   3.354 -0.6861  2.0743  1.6237
 4637SOL    HW225371   3.839   0.416   3.444 -0.5437 -1.5964  1.5072
 4638SOL     OW25372   0.502   2.236   6.684 -0.0866 -0.3244  0.4790
 4638SOL    HW125373   0.568   2.290   6.641  1.3721 -3.8090 -1.6100
 4638SOL    HW225374   0.484   2.295   6.757  1.7346  1.9829 -0.9456
 4639SOL     OW25375   1.416   0.768   7.985  0.6988  0.7402 -0.0223
 4639SOL    HW125376   1.391   0.744   7.896  0.2857 -1.2082  0.6193
 4639SOL    HW225377   1.372   0.849   8.008  2.8814  1.2776  2.2722
 4640SOL     OW25378   3.770   1.045   7.122  0.1958 -0.1370 -0.0617
 4640SOL    HW125379   3.861   1.042   7.153  0.0160 -0.3739  0.4280
 4640SOL    HW225380   3.738   1.131   7.151 -1.2710 -0.6908 -0.0630
 4641SOL     OW25381   2.248   2.882   3.918  0.0668 -0.4678  0.0649
 4641SOL    HW125382   2.186   2.953   3.932  0.0363 -0.5116  0.1537
 4641SOL    HW225383   2.301   2.918   3.848  2.8937  0.4975  2.7082
 4642SOL     OW25384   3.747   4.505   3.200 -0.7604 -0.2386 -0.0091
 4642SOL    HW125385   3.759   4.491   3.294  1.5041 -1.6634 -0.5005
 4642SOL    HW225386   3.706   4.422   3.176  0.2626 -1.4261  2.4097
 4643SOL     OW25387   4.596   4.634   9.024 -0.2894  0.2307  0.1661
 4643SOL    HW125388   4.542   4.569   9.068  0.1454 -0.8133 -0.8654
 4643SOL    HW225389   4.657   4.590   8.966 -2.9235 -2.7247 -0.3367
 4644SOL     OW25390   0.583   1.887   8.840 -0.0233 -0.3630 -0.7703
 4644SOL    HW125391   0.656   1.834   8.871 -0.6011 -0.3028  0.6985
 4644SOL    HW225392   0.628   1.969   8.816  0.0761 -0.1875  0.0182
 4645SOL     OW25393   3.011   0.983   8.596 -0.5510 -0.6007 -0.4082
 4645SOL    HW125394   3.097   0.979   8.639 -0.7426  1.9305  0.1784
 4645SOL    HW225395   2.970   0.910   8.643  1.7207 -0.8254  1.2688
 4646SOL     OW25396   0.698   4.673   6.452 -0.6148 -0.1591  0.5055
 4646SOL    HW125397   0.753   4.677   6.530 -1.0715  0.3112  0.8063
 4646SOL    HW225398   0.606   4.692   6.470 -1.1410 -2.4486  0.2068
 4647SOL     OW25399   2.598   2.506   8.160 -0.5658 -0.1654  0.1148
 4647SOL    HW125400   2.680   2.555   8.160 -1.7328  1.7795  3.2991
 4647SOL    HW225401   2.553   2.555   8.091  0.2726  0.5514  0.0693
 4648SOL     OW25402   1.820   2.235   8.903  0.0390 -0.0205 -0.4340
 4648SOL    HW125403   1.863   2.207   8.984 -1.7995 -1.9471 -0.1532
 4648SOL    HW225404   1.823   2.327   8.929  1.6853 -0.3154  0.4564
 4649SOL     OW25405   0.240   3.634   2.423 -0.5526  0.4559  0.2605
 4649SOL    HW125406   0.277   3.555   2.382  0.2330 -1.0146  3.7613
 4649SOL    HW225407   0.164   3.646   2.366 -0.0202  0.9316 -0.3438
 4650SOL     OW25408   0.841   3.595   4.311 -0.4393 -0.4603  0.9346
 4650SOL    HW125409   0.841   3.528   4.243 -0.5576 -0.1589  0.6399
 4650SOL    HW225410   0.833   3.674   4.258  0.6924 -0.7260  0.3649
 4651SOL     OW25411   4.182   2.190   4.127  0.0059  0.3725 -0.0553
 4651SOL    HW125412   4.140   2.105   4.115 -2.5011  1.5103  0.7384
 4651SOL    HW225413   4.160   2.234   4.045  0.3767 -1.9582 -1.3940
 4652SOL     OW25414   1.833   3.031   5.950  0.6719  0.1027 -0.1405
 4652SOL    HW125415   1.813   3.124   5.943 -2.5385 -0.7398 -2.3025
 4652SOL    HW225416   1.797   3.010   5.864 -0.6972 -1.5517  0.8391
 4653SOL     OW25417   4.618   0.718   4.513  0.0674 -0.6504 -0.0324
 4653SOL    HW125418   4.525   0.710   4.491  0.2957  2.1999 -2.1143
 4653SOL    HW225419   4.609   0.699   4.606  0.5778 -0.9076 -0.0383
 4654SOL     OW25420   0.722   4.234   9.845  0.1668  0.4313  0.2166
 4654SOL    HW125421   0.686   4.163   9.792 -2.3986  1.1615  0.9768
 4654SOL    HW225422   0.803   4.197   9.880  1.0516  0.6881 -1.5540
 4655SOL     OW25423   1.998   1.538   7.632 -0.0003  0.0691  0.0440
 4655SOL    HW125424   1.989   1.481   7.556 -1.0762 -2.8212  2.3362
 4655SOL    HW225425   1.908   1.546   7.661  0.0543 -0.4963  0.3882
 4656SOL     OW25426   0.104   0.439   7.238  0.4044 -0.5363  0.1092
 4656SOL    HW125427   0.028   0.432   7.296 -0.5466 -0.2661 -1.1023
 4656SOL    HW225428   0.156   0.508   7.279 -1.2451  0.6291  0.2179
 4657SOL     OW25429   3.218   2.932  16.449 -0.5067  0.2490 -0.2300
 4657SOL    HW125430   3.274   2.889  16.513  0.0729  0.4147 -0.6284
 4657SOL    HW225431   3.203   3.010  16.503 -0.8110 -0.8451  1.2737
 4658SOL     OW25432   4.611   3.423   5.534 -0.0520  0.5565  0.3810
 4658SOL    HW125433   4.680   3.366   5.501 -0.6974 -0.8515  1.4323
 4658SOL    HW225434   4.625   3.424   5.629 -0.0420 -0.4209  0.3908
 4659SOL     OW25435   4.672   4.011  14.356  0.2810  0.0660  0.1333
 4659SOL    HW125436   0.044   3.996  14.336 -0.5671 -3.0264 -1.5311
 4659SOL    HW225437   4.681   4.106  14.358  1.2308 -0.0107 -0.4569
 4660SOL     OW25438   0.852   1.119   2.657  0.2110  0.6107 -0.0561
 4660SOL    HW125439   0.772   1.092   2.612  0.6094 -0.9698  0.1881
 4660SOL    HW225440   0.907   1.118   2.579  1.3506 -0.9700  0.7654
 4661SOL     OW25441   4.178   1.648   0.436  0.0764 -0.9112  0.0017
 4661SOL    HW125442   4.153   1.695   0.357  1.0783  0.0095  0.2380
 4661SOL    HW225443   4.267   1.630   0.405  0.0130 -1.5695  0.1985
 4662SOL     OW25444   4.383   3.209  12.595  0.8040  0.7373 -0.2949
 4662SOL    HW125445   4.364   3.118  12.571  2.8440 -0.0646  1.1468
 4662SOL    HW225446   4.342   3.214  12.681 -0.5426  1.8249 -1.0038
 4663SOL     OW25447   2.112   3.385   3.155  0.1548 -0.5595  0.2985
 4663SOL    HW125448   2.020   3.380   3.128  0.2772 -1.2749  0.0103
 4663SOL    HW225449   2.151   3.385   3.068 -0.9159 -2.8718 -0.2000
 4664SOL     OW25450   3.495   2.197  11.410  0.1190  0.0287 -0.2729
 4664SOL    HW125451   3.407   2.206  11.445  0.1754 -0.3071 -0.0433
 4664SOL    HW225452   3.487   2.138  11.335 -0.3986 -1.5780  1.0575
 4665SOL     OW25453   0.084   3.298   3.883 -0.1588  0.1803 -0.2866
 4665SOL    HW125454   0.023   3.353   3.931  2.9904  1.8568  1.7503
 4665SOL    HW225455   0.146   3.361   3.848  1.0640 -1.5072 -1.1947
 4666SOL     OW25456   0.653   1.723  11.119  0.5354 -0.5126 -0.3097
 4666SOL    HW125457   0.641   1.661  11.191 -0.6529  1.1076  0.8816
 4666SOL    HW225458   0.682   1.799  11.168  0.1551 -0.3653 -0.3090
 4667SOL     OW25459   2.123   1.244  11.572 -0.3726  0.2441 -0.2686
 4667SOL    HW125460   2.169   1.268  11.653 -0.0715  1.5971 -0.8254
 4667SOL    HW225461   2.051   1.199  11.616  1.3599 -1.5795  0.7338
 4668SOL     OW25462   2.168   3.888   6.671  0.8245 -0.2056  0.4061
 4668SOL    HW125463   2.144   3.834   6.596 -0.6199  0.3360  0.4907
 4668SOL    HW225464   2.152   3.974   6.632 -0.8936 -0.9139 -0.4509
 4669SOL     OW25465   4.231   4.443   6.063 -0.1392 -0.6655 -0.3105
 4669SOL    HW125466   4.223   4.371   6.125  0.5716 -0.0416  0.4997
 4669SOL    HW225467   4.322   4.430   6.037 -0.0150  1.0299 -0.7394
 4670SOL     OW25468   3.225   3.122   4.384 -0.7578  0.3039  0.2815
 4670SOL    HW125469   3.171   3.155   4.456 -0.8115 -1.3263  0.9933
 4670SOL    HW225470   3.208   3.193   4.322 -0.9006  0.7902  0.8801
 4671SOL     OW25471   0.488   4.304   4.700 -0.8115  0.2868  0.1332
 4671SOL    HW125472   0.578   4.317   4.728 -0.2855  1.6763 -2.2556
 4671SOL    HW225473   0.486   4.311   4.605  0.9849  0.0018  0.0768
 4672SOL     OW25474   3.940   3.768   2.418 -0.3908 -0.4688  0.0405
 4672SOL    HW125475   3.863   3.720   2.389  0.1466  1.1806 -4.1127
 4672SOL    HW225476   3.977   3.710   2.484 -0.2045 -3.1350 -2.3663
 4673SOL     OW25477   1.469   0.700  17.064 -0.2655 -0.1458 -0.0717
 4673SOL    HW125478   1.392   0.655  17.028  0.4684 -1.5662  0.1352
 4673SOL    HW225479   1.535   0.636  17.039 -0.3984 -0.5913  0.7219
 4674SOL     OW25480   4.133   0.173   7.470 -0.3136  0.8568 -0.2681
 4674SOL    HW125481   4.132   0.156   7.564  1.3491 -0.5525 -0.4892
 4674SOL    HW225482   4.213   0.220   7.446 -0.2640 -0.2425 -2.2554
 4675SOL     OW25483   1.326   3.663   3.490 -0.5905  0.3814  0.1286
 4675SOL    HW125484   1.343   3.637   3.400  0.7648 -2.0489  1.1008
 4675SOL    HW225485   1.408   3.645   3.536 -0.8367  1.8016  1.1289
 4676SOL     OW25486   3.830   2.463  10.407  0.0805 -0.4802  0.3243
 4676SOL    HW125487   3.795   2.376  10.426 -0.0296 -0.5786 -0.3423
 4676SOL    HW225488   3.751   2.513  10.430  0.9684  0.5456  1.1565
 4677SOL     OW25489   4.582   1.387  10.333 -0.2707 -0.4149  0.0741
 4677SOL    HW125490   4.658   1.336  10.361  0.2586  1.4033  2.0340
 4677SOL    HW225491   4.558   1.335  10.257 -0.3731  2.4090 -1.8319
 4678SOL     OW25492   4.056   4.680  17.681  0.2793 -0.4961 -0.3781
 4678SOL    HW125493   4.121   4.697  17.612 -1.2208  1.5529 -1.3093
 4678SOL    HW225494   4.109   4.695   0.072 -1.0833 -1.4954  0.7431
 4679SOL     OW25495   4.073   2.562   2.194 -0.0406 -0.4506  0.0862
 4679SOL    HW125496   4.162   2.582   2.222 -1.0094  0.4318  2.5373
 4679SOL    HW225497   4.078   2.590   2.103 -0.9702 -0.2618  0.0948
 4680SOL     OW25498   4.083   1.324   0.252  0.0609 -0.0650 -0.2227
 4680SOL    HW125499   4.050   1.413   0.257 -1.5501 -0.7885  2.0839
 4680SOL    HW225500   4.007   1.272   0.278  0.5424 -0.5036  0.3041
 4681SOL     OW25501   0.632   4.533  11.642 -0.2766 -0.5835 -0.1337
 4681SOL    HW125502   0.635   4.629  11.652  0.4463 -0.2715 -3.0740
 4681SOL    HW225503   0.574   4.535  11.566 -0.8303  1.8146  0.3431
 4682SOL     OW25504   1.327   3.241   6.504 -0.1362 -0.0910 -0.0395
 4682SOL    HW125505   1.243   3.284   6.487 -0.0429  0.7866  1.6669
 4682SOL    HW225506   1.381   3.250   6.426 -0.4958  0.2372 -0.2497
 4683SOL     OW25507   1.424   1.816   3.961  0.5526 -0.7010  0.2407
 4683SOL    HW125508   1.428   1.739   3.904 -3.7683 -1.4257  0.8992
 4683SOL    HW225509   1.331   1.831   3.976  0.7740 -0.5400  1.4937
 4684SOL     OW25510   1.096   1.871   1.692 -0.1181  0.2779  0.4495
 4684SOL    HW125511   1.065   1.957   1.663  3.5919  1.7835  0.9839
 4684SOL    HW225512   1.170   1.870   1.632 -0.6018  0.6509 -0.1511
 4685SOL     OW25513   4.695   3.946   4.055  0.2820  0.8014 -0.9468
 4685SOL    HW125514   4.646   3.985   3.983  2.7440  0.7196 -2.6151
 4685SOL    HW225515   4.696   3.855   4.025 -1.5350  0.5555 -0.3261
 4686SOL     OW25516   3.057   4.036   5.065  0.2172  0.1921 -0.0374
 4686SOL    HW125517   3.023   4.046   4.976  2.4947 -2.4606 -1.2007
 4686SOL    HW225518   3.008   4.103   5.113 -1.5817 -2.1632  1.4064
 4687SOL     OW25519   1.398   1.319   5.542  0.1940 -0.2889  0.1555
 4687SOL    HW125520   1.444   1.399   5.515 -1.7337  0.8384  0.1768
 4687SOL    HW225521   1.308   1.352   5.539 -0.0580 -1.1066 -1.1844
 4688SOL     OW25522   2.221   0.252   8.514 -0.2605 -0.0713  0.4924
 4688SOL    HW125523   2.249   0.292   8.432 -0.6084 -0.4084  0.2144
 4688SOL    HW225524   2.131   0.281   8.532 -0.6063 -0.1571 -1.1301
 4689SOL     OW25525   3.449   2.145   2.809  0.4565  0.0034 -0.0120
 4689SOL    HW125526   3.355   2.132   2.823  0.6559 -1.1236  0.3017
 4689SOL    HW225527   3.492   2.154   2.894 -0.9803  1.1955  0.5956
 4690SOL     OW25528   4.310   1.622   6.214  0.3207 -0.4058  0.1506
 4690SOL    HW125529   4.380   1.623   6.280 -0.4911 -0.6783  1.0083
 4690SOL    HW225530   4.240   1.653   6.270 -1.6924 -1.9625 -1.5103
 4691SOL     OW25531   3.903   0.936   3.259 -0.4051  0.1467  0.6511
 4691SOL    HW125532   3.843   0.920   3.186 -1.4323 -3.7141  2.3657
 4691SOL    HW225533   3.946   0.851   3.256 -2.0206 -0.5446 -2.9389
 4692SOL     OW25534   2.703   1.334  11.305 -0.3274  0.0246  0.3414
 4692SOL    HW125535   2.613   1.360  11.286 -0.1196  1.5875  1.4170
 4692SOL    HW225536   2.695   1.239  11.312 -2.4473  0.1944  0.2655
 4693SOL     OW25537   4.238   3.132   8.971 -0.2392  0.2036  0.4102
 4693SOL    HW125538   4.308   3.196   8.962  0.8357 -1.1004 -0.5400
 4693SOL    HW225539   4.203   3.157   9.056 -0.6468 -0.1175  0.3385
 4694SOL     OW25540   2.264   3.266   5.672 -0.5725  0.1260  0.0010
 4694SOL    HW125541   2.291   3.358   5.672  0.0939 -0.0578  3.3733
 4694SOL    HW225542   2.171   3.269   5.652 -0.6488 -1.8301  0.1185
 4695SOL     OW25543   4.679   2.563   3.806 -0.5394 -0.1095 -0.9350
 4695SOL    HW125544   0.010   2.571   3.727  1.6411 -0.4757  0.4652
 4695SOL    HW225545   0.009   2.602   3.877  1.5597 -0.8256 -2.0420
 4696SOL     OW25546   4.561   2.346   4.015 -0.3306 -0.1543  0.4258
 4696SOL    HW125547   4.578   2.353   4.110 -0.4314  0.8531  0.3732
 4696SOL    HW225548   4.541   2.440   4.011 -2.2363 -0.6332 -1.0725
 4697SOL     OW25549   2.267   3.757   6.946  0.1905  0.1916  0.0701
 4697SOL    HW125550   2.210   3.784   6.874  0.7828 -0.6744 -0.7278
 4697SOL    HW225551   2.198   3.746   7.011  0.5292  0.5614  0.4926
 4698SOL     OW25552   3.972   3.123  10.505 -0.4617 -0.3160  0.0525
 4698SOL    HW125553   4.048   3.108  10.562  1.5844  0.2628 -2.4994
 4698SOL    HW225554   4.005   3.194  10.450  1.4689  0.4353  2.1571
 4699SOL     OW25555   3.284   1.462  12.542 -0.2853  0.6333 -0.0066
 4699SOL    HW125556   3.233   1.423  12.613 -0.2552  2.6571  1.1202
 4699SOL    HW225557   3.330   1.538  12.578 -0.8087  0.6632  0.5967
 4700SOL     OW25558   2.360   1.308  12.305  0.1488  0.2669 -0.8830
 4700SOL    HW125559   2.314   1.230  12.274 -2.3318  1.3874 -0.0228
 4700SOL    HW225560   2.434   1.273  12.355  0.1480 -0.2664 -1.2497
 4701SOL     OW25561   1.259   4.094  14.543  0.0890 -0.0558 -0.0043
 4701SOL    HW125562   1.238   4.043  14.465  1.5685  0.4956 -0.7675
 4701SOL    HW225563   1.215   4.174  14.513 -0.9305 -1.5254 -2.4697
 4702SOL     OW25564   4.343   0.011  17.049 -0.6058 -0.2169 -0.1880
 4702SOL    HW125565   4.268   0.067  17.030 -0.3747  0.0524 -0.3031
 4702SOL    HW225566   4.410   0.074  17.077 -0.1037 -0.6071 -0.5166
 4703SOL     OW25567   2.049   0.029   0.343  0.1714  0.4427 -0.5007
 4703SOL    HW125568   2.052   0.086   0.265  1.4192  0.0387 -0.7546
 4703SOL    HW225569   1.954   0.023   0.351  0.4312 -2.5362  0.1900
 4704SOL     OW25570   1.192   4.363   4.185  0.1221  0.9395 -0.2927
 4704SOL    HW125571   1.275   4.359   4.137  0.6006 -1.9369  0.7391
 4704SOL    HW225572   1.224   4.340   4.273  1.8295  1.6878 -0.7231
 4705SOL     OW25573   2.454   0.408   3.968  0.3884 -0.2605  0.5532
 4705SOL    HW125574   2.402   0.346   4.019 -0.3110 -1.1430 -1.2141
 4705SOL    HW225575   2.496   0.340   3.915  0.3907 -0.0496  0.2891
 4706SOL     OW25576   4.576   2.849   0.363 -0.2028 -0.1104 -0.6280
 4706SOL    HW125577   4.608   2.781   0.421 -1.5337 -0.3628 -0.1978
 4706SOL    HW225578   4.623   2.818   0.285  0.5311  2.4752 -1.2339
 4707SOL     OW25579   1.803   4.396   0.918  0.4447  0.0251  0.4011
 4707SOL    HW125580   1.818   4.307   0.950 -1.0434  0.1456  1.4094
 4707SOL    HW225581   1.744   4.434   0.983 -0.2876 -1.4358  0.5883
 4708SOL     OW25582   0.355   4.329  11.559  0.1449  0.2178 -0.4550
 4708SOL    HW125583   0.417   4.393  11.523  1.3697 -0.6877  0.0471
 4708SOL    HW225584   0.408   4.288  11.627  1.0284 -0.9269 -1.8456
 4709SOL     OW25585   3.095   3.806  12.904  0.4071  0.3963  0.4596
 4709SOL    HW125586   3.004   3.795  12.876  0.6676 -0.9172  0.1505
 4709SOL    HW225587   3.085   3.899  12.925 -2.6947  0.2614 -0.3528
 4710SOL     OW25588   1.003   1.973   6.826 -0.5198  0.2758 -0.7110
 4710SOL    HW125589   0.958   2.057   6.838  0.7276  0.8791 -0.2527
 4710SOL    HW225590   1.095   1.996   6.838 -0.1550 -0.9359 -1.2462
 4711SOL     OW25591   3.551   3.106   7.617 -0.2868  0.5238  0.0588
 4711SOL    HW125592   3.510   3.038   7.564  2.0319  0.5376 -1.7357
 4711SOL    HW225593   3.640   3.113   7.583 -0.7785  0.7859 -1.1616
 4712SOL     OW25594   2.088   4.611   1.405  0.7352  0.0190 -0.2071
 4712SOL    HW125595   2.013   4.664   1.433 -0.8669 -2.2577 -0.1802
 4712SOL    HW225596   2.042   4.537   1.366  0.0821  0.0352  0.5380
 4713SOL     OW25597   2.015   4.032   8.895  0.5495  0.1256 -0.3340
 4713SOL    HW125598   1.959   4.056   8.968  1.0236 -0.2435  0.1533
 4713SOL    HW225599   2.091   4.007   8.948  0.6924  1.5762  0.1413
 4714SOL     OW25600   2.879   4.204   2.245  0.8656  0.1689 -0.2343
 4714SOL    HW125601   2.816   4.188   2.315 -0.4158  2.6144 -0.8272
 4714SOL    HW225602   2.941   4.265   2.287  2.3476 -0.5646 -1.3409
 4715SOL     OW25603   2.896   4.624   3.616 -0.7548  0.5103  0.0130
 4715SOL    HW125604   2.819   4.590   3.660 -2.4998  2.7263 -1.3333
 4715SOL    HW225605   2.945   4.678   3.678  0.6800  0.4124 -1.0171
 4716SOL     OW25606   1.967   0.331   1.947  0.2602  0.2382 -0.3672
 4716SOL    HW125607   1.904   0.377   1.892 -1.2108 -0.1624  0.9680
 4716SOL    HW225608   1.944   0.239   1.934  1.9069 -0.1663 -0.3801
 4717SOL     OW25609   2.760   2.844   9.217 -0.1122 -0.4337 -0.1459
 4717SOL    HW125610   2.831   2.876   9.273 -2.5336  1.2111  2.0210
 4717SOL    HW225611   2.774   2.750   9.227 -0.7565 -0.7528 -2.3608
 4718SOL     OW25612   3.033   3.263   9.018 -0.3362  0.0763 -0.5446
 4718SOL    HW125613   2.983   3.303   8.947  0.6437 -0.0794 -1.3120
 4718SOL    HW225614   3.103   3.324   9.040 -0.2355  0.2252 -1.3001
 4719SOL     OW25615   0.376   3.761  10.321  0.2651 -0.5112  0.5809
 4719SOL    HW125616   0.394   3.814  10.399 -2.7139  0.4645  0.6018
 4719SOL    HW225617   0.359   3.834  10.261 -0.3115 -0.1099  1.2362
 4720SOL     OW25618   3.792   2.496   7.611 -0.3217 -0.2928  0.3927
 4720SOL    HW125619   3.833   2.431   7.554  0.6742  0.6731  0.0080
 4720SOL    HW225620   3.810   2.460   7.697 -0.6320 -0.8407  0.2297
 4721SOL     OW25621   4.489   3.139   1.411  0.0673  0.4052  0.9735
 4721SOL    HW125622   4.403   3.113   1.445 -0.7770  0.0476 -1.4569
 4721SOL    HW225623   4.543   3.082   1.467 -2.2008 -2.1166  0.5961
 4722SOL     OW25624   3.342   1.037   4.075 -0.6262 -0.5943 -0.3170
 4722SOL    HW125625   3.396   0.985   4.134 -3.3089 -2.8227  0.1640
 4722SOL    HW225626   3.321   1.118   4.122  2.0260  0.3797 -0.7984
 4723SOL     OW25627   0.659   3.057   4.780 -0.0777 -0.3085 -0.6088
 4723SOL    HW125628   0.601   3.131   4.794  1.3996  0.7964 -0.2773
 4723SOL    HW225629   0.745   3.098   4.774 -0.3189  0.0775 -1.3267
 4724SOL     OW25630   1.148   1.680   2.872 -0.2098 -0.4365 -0.5816
 4724SOL    HW125631   1.170   1.773   2.880 -0.5603 -0.6299  2.7649
 4724SOL    HW225632   1.207   1.642   2.938 -0.6133  0.3860  0.2631
 4725SOL     OW25633   4.044   2.521   7.199 -0.3798 -0.0775 -0.1257
 4725SOL    HW125634   4.043   2.427   7.184 -0.8649 -0.2843  1.1799
 4725SOL    HW225635   3.969   2.557   7.152 -0.4429 -0.9352 -0.6819
 4726SOL     OW25636   1.958   2.476  14.196 -0.7105  0.0060  0.2965
 4726SOL    HW125637   1.980   2.480  14.289  0.0341  0.4844  0.1076
 4726SOL    HW225638   2.045   2.461  14.159  0.0866  0.1149  2.1406
 4727SOL     OW25639   1.126   3.024   3.676  0.4975 -0.2300 -0.0514
 4727SOL    HW125640   1.181   2.947   3.663 -0.3879 -0.7173 -0.8921
 4727SOL    HW225641   1.110   3.045   3.584  1.4158  0.9080  0.0509
 4728SOL     OW25642   0.190   2.700  12.407  0.3415 -0.3037 -0.0199
 4728SOL    HW125643   0.128   2.756  12.453 -0.5332 -0.9489 -0.3894
 4728SOL    HW225644   0.149   2.703  12.320  0.3502  4.3750  0.1286
 4729SOL     OW25645   4.675   3.065   2.864 -0.2966 -0.2556 -0.1632
 4729SOL    HW125646   4.681   3.160   2.873 -1.8681 -0.0420 -1.4972
 4729SOL    HW225647   0.011   3.038   2.792 -2.2038 -0.3191 -1.6195
 4730SOL     OW25648   1.207   3.883   8.218 -0.1487 -0.3940 -0.1344
 4730SOL    HW125649   1.185   3.801   8.263  1.5950 -0.3377  0.8022
 4730SOL    HW225650   1.121   3.907   8.183  0.1547  0.5884 -0.2145
 4731SOL     OW25651   3.146   2.629   8.010  0.1790 -0.5957  0.0117
 4731SOL    HW125652   3.151   2.577   8.090  3.1230  0.2304  0.3720
 4731SOL    HW225653   3.138   2.719   8.041  0.3379  0.4810 -2.9743
 4732SOL     OW25654   1.334   4.103  16.246  0.0290 -0.0744  0.0959
 4732SOL    HW125655   1.425   4.097  16.216  0.3343  0.1161  0.9798
 4732SOL    HW225656   1.332   4.047  16.324 -1.4264 -1.1910 -0.7332
 4733SOL     OW25657   0.891   1.187   4.635 -0.2231  0.0065  0.3385
 4733SOL    HW125658   0.829   1.114   4.638  0.8347 -0.8816  0.5654
 4733SOL    HW225659   0.843   1.257   4.680  2.1143  1.6577  0.2330
 4734SOL     OW25660   3.012   4.035   8.732 -0.2063  0.2231 -0.1266
 4734SOL    HW125661   3.078   4.090   8.688 -0.5100  2.5649  2.3832
 4734SOL    HW225662   2.965   3.992   8.660  1.1514  0.5243 -1.2130
 4735SOL     OW25663   1.325   3.598   5.951  0.2971 -0.0270 -0.0087
 4735SOL    HW125664   1.400   3.580   5.895 -0.4588 -2.3371 -0.2909
 4735SOL    HW225665   1.255   3.607   5.886  2.8135 -0.8517 -2.8077
 4736SOL     OW25666   0.816   0.385  17.605 -0.0894  0.6578  0.7732
 4736SOL    HW125667   0.787   0.431  17.526 -1.4948  1.4697  1.7870
 4736SOL    HW225668   0.858   0.305  17.573 -0.7441  0.9468 -0.8246
 4737SOL     OW25669   4.618   1.234  17.272 -0.1849 -0.0024 -0.0579
 4737SOL    HW125670   4.570   1.152  17.259  0.8703 -0.6242 -0.1117
 4737SOL    HW225671   4.607   1.285  17.192 -0.5446  1.2263  0.7683
 4738SOL     OW25672   0.077   0.113   2.445  0.2901  0.7889 -0.3579
 4738SOL    HW125673   4.717   0.062   2.449  1.4312 -1.0886 -1.1564
 4738SOL    HW225674   0.121   0.072   2.519 -0.1360 -0.9204 -1.0412
 4739SOL     OW25675   1.906   3.235  13.171  0.4939 -0.0898  0.0852
 4739SOL    HW125676   1.948   3.288  13.103  0.6784 -2.0350 -1.3123
 4739SOL    HW225677   1.953   3.266  13.249 -0.9840  2.6332 -0.1038
 4740SOL     OW25678   2.325   4.049   6.832  0.3041  0.3325 -0.3887
 4740SOL    HW125679   2.262   3.990   6.791 -1.2743  1.5382  0.2922
 4740SOL    HW225680   2.394   3.989   6.861 -0.6167 -0.3570  0.3703
 4741SOL     OW25681   3.304   2.791   2.805  0.8537  0.5705  0.2198
 4741SOL    HW125682   3.220   2.835   2.813  1.5525  1.8904  0.2091
 4741SOL    HW225683   3.289   2.730   2.732 -0.2807  0.9926  0.1080
 4742SOL     OW25684   4.244   2.413   7.610 -0.4771 -0.0237  0.3516
 4742SOL    HW125685   4.164   2.432   7.561  0.3914  0.6281 -0.8147
 4742SOL    HW225686   4.288   2.496   7.593 -2.2929  0.9688  0.4380
 4743SOL     OW25687   1.010   4.299  10.066 -0.1086  0.6766  0.1412
 4743SOL    HW125688   0.940   4.284  10.129  0.3860 -0.2839  0.4517
 4743SOL    HW225689   1.089   4.285  10.117 -0.2747  1.2624  0.5700
 4744SOL     OW25690   4.662   3.551   3.569 -0.4209 -0.1029  0.3032
 4744SOL    HW125691   4.619   3.619   3.621  0.0895 -0.3222  1.0156
 4744SOL    HW225692   4.692   3.608   3.498 -2.6357 -0.2214 -0.7175
 4745SOL     OW25693   1.400   4.170   7.010  0.5417 -0.1148  0.0199
 4745SOL    HW125694   1.346   4.236   7.054  0.6924 -1.1261  1.7437
 4745SOL    HW225695   1.487   4.198   7.036  0.5037  2.2668 -2.4458
 4746SOL     OW25696   3.790   4.529   5.162 -0.4361  0.4386 -0.2482
 4746SOL    HW125697   3.850   4.459   5.136 -2.2957 -0.7171 -1.4127
 4746SOL    HW225698   3.820   4.558   5.248  0.2433  2.5343 -1.1856
 4747SOL     OW25699   0.517   0.417   9.106 -0.3989  0.4376  0.0621
 4747SOL    HW125700   0.568   0.466   9.170  0.7318 -1.1127  0.3406
 4747SOL    HW225701   0.432   0.405   9.148 -0.0660 -3.8553 -0.5640
 4748SOL     OW25702   1.197   3.035  10.047 -0.3852  0.3871  0.0815
 4748SOL    HW125703   1.244   2.951  10.044 -0.4734  0.3585 -0.4673
 4748SOL    HW225704   1.257   3.103  10.017  0.3925  0.1342  1.0435
 4749SOL     OW25705   3.911   0.119   0.147 -0.2387  0.2031 -0.3874
 4749SOL    HW125706   3.910   0.055   0.218  2.0286  1.3666  0.7031
 4749SOL    HW225707   3.942   0.067   0.074 -2.4127  1.2937 -2.0776
 4750SOL     OW25708   3.913   4.607   1.508  0.6523  0.0430  0.2480
 4750SOL    HW125709   3.819   4.625   1.513  0.3327 -1.4733 -0.4027
 4750SOL    HW225710   3.943   4.666   1.578 -0.9478  1.2045 -0.0390
 4751SOL     OW25711   3.369   4.174   8.958 -1.0199  0.1716  0.0141
 4751SOL    HW125712   3.452   4.196   9.000 -0.8715 -1.0308  0.3546
 4751SOL    HW225713   3.390   4.186   8.866 -0.9274 -0.7421 -0.0875
 4752SOL     OW25714   2.107   0.576   2.414  0.0202  0.2576  0.2156
 4752SOL    HW125715   2.102   0.622   2.330 -2.3183  0.5944  0.5312
 4752SOL    HW225716   2.201   0.592   2.422  0.1268  0.2105 -0.9401
 4753SOL     OW25717   0.254   4.543   6.527 -0.4694 -1.0935  0.5667
 4753SOL    HW125718   0.172   4.549   6.575 -0.3513 -1.7767  0.8609
 4753SOL    HW225719   0.269   4.448   6.528  1.2219 -0.8393 -0.5752
 4754SOL     OW25720   0.747   1.165   7.940  0.0282 -0.1866  0.1366
 4754SOL    HW125721   0.728   1.075   7.915  2.9054 -1.3336  2.0520
 4754SOL    HW225722   0.841   1.157   7.951 -0.0835 -1.1758  0.3447
 4755SOL     OW25723   1.354   2.551  15.060  0.4619 -0.4412  0.4124
 4755SOL    HW125724   1.331   2.483  14.996  0.0867  1.6863 -1.7331
 4755SOL    HW225725   1.346   2.631  15.008  1.1352 -1.3324 -1.0824
 4756SOL     OW25726   0.897   1.251   1.701 -0.0006 -0.0197 -0.2880
 4756SOL    HW125727   0.903   1.170   1.650 -0.1085 -0.1099 -0.1592
 4756SOL    HW225728   0.801   1.254   1.705  0.0413  0.5744  0.2730
 4757SOL     OW25729   1.919   2.395   6.506 -0.5482 -0.1315 -0.0776
 4757SOL    HW125730   1.910   2.300   6.500  1.1187 -0.4126  2.0265
 4757SOL    HW225731   2.004   2.401   6.551 -1.3425 -1.8589  1.6413
 4758SOL     OW25732   2.115   3.977   5.317 -0.3091  0.2863  0.1747
 4758SOL    HW125733   2.032   3.993   5.362 -1.7407  3.8302 -3.7176
 4758SOL    HW225734   2.089   4.000   5.228  1.2571 -0.2297 -0.4159
 4759SOL     OW25735   4.492   0.251   6.537  0.1782 -0.0060  0.3442
 4759SOL    HW125736   4.476   0.244   6.443 -1.0332  1.2594  0.4571
 4759SOL    HW225737   4.576   0.205   6.540  0.5082  0.6514  1.2323
 4760SOL     OW25738   4.082   3.214  12.193  0.2938 -0.2905  0.2819
 4760SOL    HW125739   4.097   3.150  12.263  2.3160 -1.5566 -1.3097
 4760SOL    HW225740   4.102   3.159  12.116 -1.2204 -0.7897  0.2423
 4761SOL     OW25741   4.586   0.782   6.438 -0.6575  0.4275  0.1941
 4761SOL    HW125742   4.672   0.741   6.432  0.7606  3.1397  2.2572
 4761SOL    HW225743   4.584   0.811   6.347  1.8111 -0.4670 -0.1417
 4762SOL     OW25744   4.582   4.707   2.454 -0.0292  0.5902 -0.4065
 4762SOL    HW125745   4.544   4.621   2.469 -0.5356  0.6264 -1.4382
 4762SOL    HW225746   4.502   0.033   2.429 -0.1026  0.2705 -0.7599
 4763SOL     OW25747   3.520   0.617   7.427  0.0500 -0.1975  0.0628
 4763SOL    HW125748   3.446   0.581   7.377  1.1336  0.2881 -1.9073
 4763SOL    HW225749   3.530   0.701   7.382 -1.6592 -0.8225 -1.5082
 4764SOL     OW25750   3.160   2.778   6.754 -0.6488  0.5221  0.1768
 4764SOL    HW125751   3.075   2.804   6.719  0.1920  1.0811 -1.4509
 4764SOL    HW225752   3.137   2.706   6.813  0.5834 -2.2372 -2.7225
 4765SOL     OW25753   0.599   0.423   2.738  0.3533  0.3673  0.1599
 4765SOL    HW125754   0.681   0.473   2.745  1.6324 -1.6088 -0.7082
 4765SOL    HW225755   0.606   0.414   2.643 -3.9831 -2.6233  0.1617
 4766SOL     OW25756   0.753   2.364   5.832 -0.3544 -0.3400 -0.2645
 4766SOL    HW125757   0.841   2.376   5.796  0.1632  0.1373  1.1653
 4766SOL    HW225758   0.707   2.429   5.779  0.1008 -2.1815 -2.9134
 4767SOL     OW25759   3.556   4.475   0.556 -0.6067 -0.4222 -0.1307
 4767SOL    HW125760   3.488   4.480   0.623 -1.5002  0.1230 -1.0908
 4767SOL    HW225761   3.529   4.402   0.500 -1.5057  0.6500 -1.0966
 4768SOL     OW25762   1.808   0.440   7.925 -0.0780 -0.3404  0.0367
 4768SOL    HW125763   1.729   0.454   7.977  1.1137  2.2339  1.1530
 4768SOL    HW225764   1.788   0.351   7.895 -1.9370  0.0649  0.0531
 4769SOL     OW25765   0.125   4.569   2.238 -0.1698  0.3226 -0.2868
 4769SOL    HW125766   0.083   4.652   2.214  0.1258  0.1474 -1.4078
 4769SOL    HW225767   0.050   4.519   2.271  0.3660 -0.3596 -0.1097
 4770SOL     OW25768   0.359   0.370   2.873 -0.1100 -0.2991  0.0833
 4770SOL    HW125769   0.450   0.346   2.855 -0.4702 -0.4274 -1.5689
 4770SOL    HW225770   0.346   0.325   2.957 -0.5840 -1.8570 -0.8311
 4771SOL     OW25771   3.778   3.824   6.378  0.4216 -0.0019 -0.0307
 4771SOL    HW125772   3.750   3.903   6.424 -1.9677 -1.0404  0.3030
 4771SOL    HW225773   3.735   3.839   6.294 -0.4885  0.2816  0.4939
 4772SOL     OW25774   1.387   1.090   5.687 -0.6267  0.2582  0.1199
 4772SOL    HW125775   1.429   1.158   5.634 -0.2400 -0.1725 -0.1200
 4772SOL    HW225776   1.298   1.124   5.687 -0.6566  0.1795  0.1971
 4773SOL     OW25777   1.079   3.932   8.727 -0.6947  0.2179  0.0606
 4773SOL    HW125778   1.063   3.954   8.635 -1.9251  0.8970  0.4398
 4773SOL    HW225779   1.008   3.982   8.766  0.6016 -0.0535  2.7978
 4774SOL     OW25780   2.330   2.945   4.526 -0.4276 -0.0435  0.3659
 4774SOL    HW125781   2.341   3.036   4.554  0.5446  0.6415 -2.2332
 4774SOL    HW225782   2.358   2.909   4.610  1.5845 -0.5984 -0.5523
 4775SOL     OW25783   1.475   1.879   9.265  0.4879  0.2561  0.6759
 4775SOL    HW125784   1.452   1.835   9.347 -0.8007  1.1109  0.7771
 4775SOL    HW225785   1.392   1.925   9.251 -0.3876 -2.0805 -1.7519
 4776SOL     OW25786   0.312   1.274   2.572 -0.0167  0.0829 -0.5780
 4776SOL    HW125787   0.357   1.351   2.537 -1.9672  1.8887  0.8751
 4776SOL    HW225788   0.381   1.252   2.634  0.3180  3.2366  0.1399
 4777SOL     OW25789   3.913   0.474   8.004  0.0482 -0.3973 -0.0209
 4777SOL    HW125790   3.925   0.568   8.011 -1.1181 -0.1895 -0.7213
 4777SOL    HW225791   3.825   0.462   7.968  0.4200 -1.8525 -0.4844
 4778SOL     OW25792   3.221   3.785   6.952 -0.1857 -1.0836 -0.2330
 4778SOL    HW125793   3.293   3.848   6.945 -0.6418 -0.3846  1.4292
 4778SOL    HW225794   3.197   3.792   7.044 -1.6412 -2.9892 -0.4685
 4779SOL     OW25795   3.154   1.814   3.244  0.1949  0.1269 -0.1142
 4779SOL    HW125796   3.197   1.804   3.159  0.8316 -1.9982  0.4649
 4779SOL    HW225797   3.197   1.890   3.284  1.6837 -0.1255 -1.2042
 4780SOL     OW25798   2.187   1.404   6.999 -0.2059  0.0207 -0.0124
 4780SOL    HW125799   2.191   1.316   7.037 -2.3625  0.3457  0.9392
 4780SOL    HW225800   2.098   1.404   6.963  0.2240  2.9118 -1.0722
 4781SOL     OW25801   1.880   0.449   6.212  0.0018 -0.1137 -0.2216
 4781SOL    HW125802   1.930   0.378   6.252 -2.0915  0.2590  2.9986
 4781SOL    HW225803   1.796   0.439   6.257 -0.2310 -1.4621 -0.9381
 4782SOL     OW25804   1.388   1.307   8.965  0.2705  0.1015  1.1670
 4782SOL    HW125805   1.448   1.276   9.033 -0.8220 -1.3421  1.4604
 4782SOL    HW225806   1.426   1.276   8.883 -0.7578 -2.0340  1.5026
 4783SOL     OW25807   4.262   0.707   6.809 -0.4492  0.6366  0.2409
 4783SOL    HW125808   4.312   0.652   6.749 -2.5043 -0.7428 -0.2099
 4783SOL    HW225809   4.177   0.663   6.816  0.7839 -1.6593  0.8533
 4784SOL     OW25810   3.371   1.233   1.470  0.4281  0.1295 -0.3125
 4784SOL    HW125811   3.338   1.313   1.430 -1.0480  0.0240  0.7034
 4784SOL    HW225812   3.466   1.237   1.458  0.4271 -0.9597 -0.6890
 4785SOL     OW25813   3.968   1.183   0.767  0.4580  0.4957  0.6075
 4785SOL    HW125814   3.912   1.208   0.693 -0.9013 -0.2256  1.3825
 4785SOL    HW225815   3.959   1.255   0.828  1.5485  2.6756 -1.8258
 4786SOL     OW25816   2.395   2.570  15.226 -0.6765 -0.0934 -0.4096
 4786SOL    HW125817   2.475   2.548  15.180  0.8121 -0.1953  2.2109
 4786SOL    HW225818   2.341   2.492  15.211 -0.4197  0.3603 -3.6632
 4787SOL     OW25819   2.247   0.753   8.517 -0.7017 -0.2426 -0.2051
 4787SOL    HW125820   2.275   0.731   8.428 -1.3529 -1.0029 -0.2287
 4787SOL    HW225821   2.225   0.665   8.546 -0.1611 -0.0611  0.7399
 4788SOL     OW25822   2.515   3.392   1.959 -0.0924 -0.2323 -0.1736
 4788SOL    HW125823   2.515   3.339   1.879  3.2938 -0.3532 -0.0928
 4788SOL    HW225824   2.425   3.423   1.956  0.2539  1.1781  3.8293
 4789SOL     OW25825   2.969   1.799  12.340  0.3921 -0.3156 -0.2910
 4789SOL    HW125826   2.880   1.769  12.324  0.4677  0.3015 -1.8515
 4789SOL    HW225827   2.985   1.869  12.277 -1.2121  0.7081  0.4377
 4790SOL     OW25828   0.669   1.657   8.470 -0.7715 -0.4687  0.1853
 4790SOL    HW125829   0.720   1.588   8.428  0.8581  0.8296  0.0589
 4790SOL    HW225830   0.588   1.615   8.500 -2.3167  0.8113 -2.2531
 4791SOL     OW25831   0.693   4.153  12.346 -0.3596  0.1511 -0.6562
 4791SOL    HW125832   0.645   4.232  12.323 -2.9013 -1.5574 -1.2788
 4791SOL    HW225833   0.757   4.143  12.277  1.2223 -1.8524  1.0895
 4792SOL     OW25834   4.038   2.760   6.975  0.3196 -0.1526 -0.3740
 4792SOL    HW125835   4.055   2.790   7.064 -0.3489  1.7452 -0.8942
 4792SOL    HW225836   3.963   2.701   6.986  0.0383  0.4192  0.7113
 4793SOL     OW25837   4.383   3.212   5.523  0.6452 -0.4109  0.3037
 4793SOL    HW125838   4.291   3.185   5.524  0.6151 -0.3317 -0.8496
 4793SOL    HW225839   4.375   3.304   5.549  1.3661 -0.5890  1.1649
 4794SOL     OW25840   2.478   2.712   1.162 -0.1311  0.3692  0.6327
 4794SOL    HW125841   2.459   2.619   1.174  2.2612 -0.1162  0.6902
 4794SOL    HW225842   2.560   2.726   1.208  1.6961  0.2849 -2.5861
 4795SOL     OW25843   1.448   3.887   8.037 -0.0944  0.1587  0.1006
 4795SOL    HW125844   1.516   3.855   8.096  1.6176  0.9465 -1.4400
 4795SOL    HW225845   1.373   3.865   8.092 -0.8945  1.2583 -0.5650
 4796SOL     OW25846   1.478   3.435  14.957  0.4788 -0.2717 -0.1496
 4796SOL    HW125847   1.489   3.392  14.873  0.8241 -0.0584 -0.2120
 4796SOL    HW225848   1.402   3.489  14.934  1.6324  1.1289 -0.6879
 4797SOL     OW25849   1.345   3.917   7.058 -0.2695 -0.7337  0.2568
 4797SOL    HW125850   1.425   3.884   7.099  0.5794 -0.4978 -1.2063
 4797SOL    HW225851   1.361   4.009   7.037  3.1103 -1.1595  0.9683
 4798SOL     OW25852   2.384   2.411   6.466  0.9064  0.3545 -0.3016
 4798SOL    HW125853   2.310   2.367   6.424 -0.2627  2.8340 -0.8220
 4798SOL    HW225854   2.346   2.497   6.484  0.2870  0.0236 -0.0209
 4799SOL     OW25855   4.291   0.157   0.629 -0.2526  0.3254 -0.3694
 4799SOL    HW125856   4.326   0.235   0.672 -0.1650  0.8449 -1.3892
 4799SOL    HW225857   4.223   0.188   0.569 -0.9259 -0.1497  0.1525
 4800SOL     OW25858   1.904   1.779   4.224  0.1424 -0.0499  0.0128
 4800SOL    HW125859   1.877   1.856   4.274  2.5375  2.1756 -2.1389
 4800SOL    HW225860   1.822   1.735   4.200  0.5155  0.0294 -1.3916
 4801SOL     OW25861   1.799   2.389   8.037  0.2675  0.6146 -0.0271
 4801SOL    HW125862   1.782   2.358   7.948  1.8230 -1.3688  0.3776
 4801SOL    HW225863   1.885   2.428   8.021  1.1725 -1.1292  0.6697
 4802SOL     OW25864   2.975   3.874   8.197 -0.2185  0.1088 -0.2045
 4802SOL    HW125865   3.002   3.821   8.122  0.6274  3.5038 -2.2720
 4802SOL    HW225866   3.002   3.812   8.264  1.3783  0.4197 -0.5610
 4803SOL     OW25867   2.347   4.629   6.340  0.4874 -0.3696  0.0696
 4803SOL    HW125868   2.278   4.683   6.303  0.5454 -1.1807 -1.2289
 4803SOL    HW225869   2.353   4.677   6.422  0.3973 -0.2335 -0.0039
 4804SOL     OW25870   3.347   4.556   1.391 -0.5993  0.3115 -0.1269
 4804SOL    HW125871   3.359   4.504   1.470 -1.6499  0.5612  0.1839
 4804SOL    HW225872   3.373   4.640   1.427  2.2624 -0.0554 -1.3345
 4805SOL     OW25873   3.271   1.115   7.488  0.9155  0.3815  0.2585
 4805SOL    HW125874   3.279   1.190   7.429  0.0365  0.1883 -0.1107
 4805SOL    HW225875   3.361   1.085   7.477  0.3954 -0.6979 -1.0915
 4806SOL     OW25876   1.802   3.087  15.501 -0.0752 -0.2491 -0.4416
 4806SOL    HW125877   1.804   3.069  15.407 -0.2710 -1.3742 -0.2302
 4806SOL    HW225878   1.890   3.066  15.533  0.4378  1.1791 -0.9238
 4807SOL     OW25879   0.953   1.935   7.292 -0.1146  0.4915  0.1082
 4807SOL    HW125880   1.032   1.947   7.345 -0.2703  1.1666  0.1814
 4807SOL    HW225881   0.927   1.847   7.320 -1.1129  0.8802  0.4018
 4808SOL     OW25882   4.228   1.530   2.667 -0.1286 -0.0487 -0.0714
 4808SOL    HW125883   4.233   1.618   2.631  3.0402 -0.3059 -0.2150
 4808SOL    HW225884   4.273   1.489   2.593 -2.2646 -1.8653 -0.3929
 4809SOL     OW25885   4.304   3.980   6.189  0.2532  0.5153  0.1993
 4809SOL    HW125886   4.308   3.939   6.102 -0.9876  2.7804 -0.8982
 4809SOL    HW225887   4.361   3.918   6.235  0.8016  1.1989  0.4438
 4810SOL     OW25888   4.249   4.600   4.597 -0.1957  0.2939 -0.8805
 4810SOL    HW125889   4.286   4.635   4.516 -0.4273 -1.8054 -1.8971
 4810SOL    HW225890   4.317   4.537   4.622 -0.3782  0.1159 -0.8310
 4811SOL     OW25891   3.828   2.239   8.224  0.4857 -0.1336  0.1879
 4811SOL    HW125892   3.733   2.232   8.235  0.3872 -1.3727 -1.6115
 4811SOL    HW225893   3.858   2.166   8.279  2.5575 -0.8924 -1.9696
 4812SOL     OW25894   0.127   0.648   8.371  0.3610  0.3966 -0.1030
 4812SOL    HW125895   0.132   0.742   8.388 -0.4637  0.2251  1.0690
 4812SOL    HW225896   0.220   0.625   8.374 -0.2203 -1.8557  0.5741
 4813SOL     OW25897   1.000   0.130   0.005 -0.1502  0.2691 -0.3253
 4813SOL    HW125898   0.960   0.130   0.092 -0.5417 -2.2982 -0.5091
 4813SOL    HW225899   1.091   0.157   0.017 -0.3421  1.1215 -0.7571
 4814SOL     OW25900   0.722   0.462   7.074 -0.1751 -0.1295 -0.2025
 4814SOL    HW125901   0.749   0.373   7.099 -0.1957 -0.1523 -0.2605
 4814SOL    HW225902   0.693   0.442   6.985 -2.2689  1.0004  0.2378
 4815SOL     OW25903   3.047   2.232  12.462  0.5320  0.0405  0.0502
 4815SOL    HW125904   3.118   2.243  12.399  1.2847  1.3264  1.1221
 4815SOL    HW225905   3.054   2.137  12.469 -0.3877 -0.0425 -0.1472
 4816SOL     OW25906   1.740   2.302   5.044  0.2043  0.4445 -0.1649
 4816SOL    HW125907   1.794   2.380   5.058 -0.8039  0.9446  0.8621
 4816SOL    HW225908   1.802   2.236   5.013  1.5968  1.5603  0.2671
 4817SOL     OW25909   0.467   2.594  15.042  0.2454  0.2265 -0.0447
 4817SOL    HW125910   0.510   2.555  15.118 -1.0008  2.1507  1.6237
 4817SOL    HW225911   0.537   2.596  14.976 -0.2641  0.3635 -0.5781
 4818SOL     OW25912   3.994   3.166  17.087  0.2835  0.2121  0.1345
 4818SOL    HW125913   3.977   3.259  17.102 -1.2154 -0.1164  0.4830
 4818SOL    HW225914   3.941   3.141  17.012  1.6585 -4.5771  0.7226
 4819SOL     OW25915   0.468   4.534  16.297  0.2124 -0.4788  0.1590
 4819SOL    HW125916   0.377   4.557  16.275 -0.4405 -1.5243  1.7950
 4819SOL    HW225917   0.492   4.493  16.215 -0.0031 -2.2144  0.9713
 4820SOL     OW25918   1.580   4.510   0.318 -0.0156 -0.1838 -0.4526
 4820SOL    HW125919   1.653   4.549   0.366 -0.1190 -1.1314  0.4863
 4820SOL    HW225920   1.614   4.429   0.282 -1.5645 -0.5549 -1.0736
 4821SOL     OW25921   3.336   4.151   9.764  0.0107  0.2540 -0.0556
 4821SOL    HW125922   3.340   4.235   9.718 -2.5244  0.3484 -0.0835
 4821SOL    HW225923   3.396   4.159   9.839  2.5542 -0.7663 -1.9900
 4822SOL     OW25924   3.062   3.184   0.027 -1.0609 -0.4101 -0.5477
 4822SOL    HW125925   3.113   3.105   0.044 -0.8290 -0.0057  0.6063
 4822SOL    HW225926   2.974   3.150   0.011 -0.6378 -2.0632  0.6715
 4823SOL     OW25927   1.109   4.552   7.302  0.4206 -0.2400  0.7803
 4823SOL    HW125928   1.157   4.526   7.223  1.5898  0.9629  1.0992
 4823SOL    HW225929   1.024   4.515   7.276 -1.3632  3.5616  1.2503
 4824SOL     OW25930   0.854   3.795  15.394 -0.4211 -0.3214 -0.2349
 4824SOL    HW125931   0.848   3.750  15.310  2.0484 -0.4123 -0.3533
 4824SOL    HW225932   0.775   3.849  15.399  0.4778  0.6651  3.4589
 4825SOL     OW25933   1.081   1.892  10.996  0.3042  0.2701  0.0490
 4825SOL    HW125934   1.098   1.966  10.938  1.8961  0.8377  1.2448
 4825SOL    HW225935   1.162   1.841  10.998  0.1010 -0.0514  0.2414
 4826SOL     OW25936   3.666   2.475   9.462 -0.2296 -0.0098 -0.5312
 4826SOL    HW125937   3.739   2.511   9.514  1.2540 -1.0232 -1.9227
 4826SOL    HW225938   3.635   2.399   9.511 -0.8103  1.3954  1.3035
 4827SOL     OW25939   1.658   1.468   8.116 -0.4021 -0.2461 -0.0871
 4827SOL    HW125940   1.736   1.500   8.070 -0.1891  0.2613  0.6287
 4827SOL    HW225941   1.615   1.548   8.145  0.2338 -0.3267  1.0888
 4828SOL     OW25942   2.485   1.743   0.192  0.1960 -0.2649 -0.6702
 4828SOL    HW125943   2.527   1.771   0.111  2.5293 -1.3547  0.1717
 4828SOL    HW225944   2.425   1.673   0.168  0.8840 -0.7132 -1.0712
 4829SOL     OW25945   1.468   4.561   8.652 -0.0260  0.4314 -0.3011
 4829SOL    HW125946   1.415   4.482   8.639  3.1865 -1.6990 -0.5772
 4829SOL    HW225947   1.428   4.591   8.734 -1.0385 -1.8483  0.0691
 4830SOL     OW25948   0.700   0.851   4.164  0.1541 -0.1587 -0.0702
 4830SOL    HW125949   0.630   0.831   4.102  0.2940  2.6933 -1.1656
 4830SOL    HW225950   0.664   0.853   4.253 -2.3272  1.6365 -1.1112
 4831SOL     OW25951   0.464   2.981   7.522  0.0076  0.4149  0.1506
 4831SOL    HW125952   0.552   2.948   7.540 -1.0886 -1.8171  1.4955
 4831SOL    HW225953   0.434   2.893   7.497 -0.5921  0.6798 -0.0656
 4832SOL     OW25954   2.143   0.868   6.064 -0.4782 -0.3672  0.3395
 4832SOL    HW125955   2.228   0.828   6.048  0.3825  1.5479  0.0933
 4832SOL    HW225956   2.172   0.957   6.086  0.5057 -0.6478  0.1563
 4833SOL     OW25957   1.045   4.712   5.845  0.0636  0.1653  0.2950
 4833SOL    HW125958   1.086   0.044   5.777 -0.1143  0.8410  0.7225
 4833SOL    HW225959   0.965   4.692   5.796 -0.2048  1.9943 -0.0050
 4834SOL     OW25960   3.038   2.827   7.592 -0.0448 -0.0959 -0.3736
 4834SOL    HW125961   3.025   2.915   7.556  2.1197  0.2000 -0.4391
 4834SOL    HW225962   3.115   2.843   7.647  0.1734 -3.2591  0.2236
 4835SOL     OW25963   2.162   2.276   0.795  0.4558 -0.1584 -0.5341
 4835SOL    HW125964   2.140   2.330   0.871  2.0755  1.4099 -1.1684
 4835SOL    HW225965   2.242   2.244   0.835  0.0186  0.7942  1.1148
 4836SOL     OW25966   3.491   3.935   8.725  0.1603 -0.3729 -0.0402
 4836SOL    HW125967   3.499   4.013   8.779 -0.5050 -2.9601  3.7795
 4836SOL    HW225968   3.521   3.967   8.639 -1.6113  2.1572  0.2967
 4837SOL     OW25969   1.961   0.139   2.235 -0.5519  0.0695 -0.7613
 4837SOL    HW125970   1.922   0.216   2.274  2.3535  1.7445 -1.1597
 4837SOL    HW225971   1.925   0.155   2.148 -2.4316  0.2550  0.0660
 4838SOL     OW25972   4.178   3.080   7.924 -0.1275 -0.0408 -0.4938
 4838SOL    HW125973   4.095   3.042   7.895 -1.0214  1.9110 -0.5005
 4838SOL    HW225974   4.224   2.999   7.948  1.6401  1.2429  0.3999
 4839SOL     OW25975   2.815   1.178   2.290  0.5050  0.4175  0.3074
 4839SOL    HW125976   2.883   1.244   2.306 -0.1301  1.2608 -0.4130
 4839SOL    HW225977   2.843   1.108   2.348  2.0399 -0.0756 -1.0499
 4840SOL     OW25978   3.277   2.007   8.829 -0.1001  0.1066 -0.3847
 4840SOL    HW125979   3.195   1.963   8.804 -0.1630 -0.5644  1.0006
 4840SOL    HW225980   3.272   2.003   8.924 -1.0256 -0.8358 -0.4727
 4841SOL     OW25981   2.749   3.583  17.121 -0.5449 -0.8178 -0.0734
 4841SOL    HW125982   2.824   3.559  17.176 -0.1114  2.2769  0.6428
 4841SOL    HW225983   2.736   3.508  17.063 -0.8999  0.6252 -1.8373
 4842SOL     OW25984   2.612   2.646   6.169 -0.1220 -0.4554  0.4790
 4842SOL    HW125985   2.600   2.570   6.112 -0.3494 -0.9967  1.2478
 4842SOL    HW225986   2.521   2.672   6.180  0.5174  0.6128  3.1970
 4843SOL     OW25987   1.383   2.854  12.525  0.0419  0.5001  0.0100
 4843SOL    HW125988   1.473   2.825  12.506 -0.5613 -0.4760 -1.4069
 4843SOL    HW225989   1.362   2.896  12.442  0.7528  1.4754  0.3267
 4844SOL     OW25990   1.461   2.277   3.412 -0.6584  0.0729 -0.0751
 4844SOL    HW125991   1.515   2.234   3.346  1.9295  0.6285  1.6523
 4844SOL    HW225992   1.380   2.294   3.364 -0.2112 -1.3611 -1.3372
 4845SOL     OW25993   3.851   3.584   1.795  0.0466 -0.0567  0.4868
 4845SOL    HW125994   3.919   3.568   1.860 -0.2669 -2.1479  0.3009
 4845SOL    HW225995   3.886   3.533   1.722 -0.8426  1.9367 -1.3482
 4846SOL     OW25996   0.571   4.463   7.573  0.2243  0.3422 -0.4206
 4846SOL    HW125997   0.493   4.516   7.554  0.1066 -0.3567 -1.8412
 4846SOL    HW225998   0.534   4.376   7.559  0.5756  0.2530 -0.7615
 4847SOL     OW25999   1.372   2.975   0.266  0.3841 -0.0773  1.0304
 4847SOL    HW126000   1.412   3.060   0.281  0.6659  0.1993 -1.2786
 4847SOL    HW226001   1.414   2.927   0.337 -0.3431 -0.5721  1.1251
 4848SOL     OW26002   4.024   0.284   5.986 -0.2520  0.3758 -0.2079
 4848SOL    HW126003   3.944   0.321   5.949 -0.4340  1.5223  1.3520
 4848SOL    HW226004   4.019   0.190   5.967 -2.3602  0.2864  0.7344
 4849SOL     OW26005   0.449   4.406   1.791 -0.1399 -0.0735  0.7544
 4849SOL    HW126006   0.377   4.451   1.837  0.6558  1.2936  0.6821
 4849SOL    HW226007   0.458   4.328   1.845  1.1426 -0.6270 -0.2804
 4850SOL     OW26008   2.253   1.960   2.685  0.4137 -0.7009 -0.6482
 4850SOL    HW126009   2.207   1.999   2.761 -0.3026 -1.2649 -0.7909
 4850SOL    HW226010   2.344   1.951   2.711 -0.6853 -1.9114  2.8764
 4851SOL     OW26011   3.781   2.150   5.577 -0.7936  0.5101 -0.1076
 4851SOL    HW126012   3.716   2.187   5.517  0.8089  1.6044 -1.1518
 4851SOL    HW226013   3.726   2.086   5.623  1.7946 -1.9296 -0.3945
 4852SOL     OW26014   0.411   0.538  14.091  0.0292  0.4519  0.2919
 4852SOL    HW126015   0.433   0.446  14.079 -0.7794  0.1009  1.5411
 4852SOL    HW226016   0.424   0.580  14.005 -1.6739 -1.2521 -0.7876
 4853SOL     OW26017   1.049   1.689   8.334  0.6967  0.4738 -0.1750
 4853SOL    HW126018   1.049   1.739   8.416  0.2467  0.0828  0.0678
 4853SOL    HW226019   0.982   1.625   8.360  0.1094  1.3963  0.5810
 4854SOL     OW26020   1.443   0.877  13.248  0.5202  0.7240  0.2403
 4854SOL    HW126021   1.509   0.945  13.233  0.0097  1.4249  1.1176
 4854SOL    HW226022   1.377   0.932  13.291 -0.5838  0.2012 -0.7969
 4855SOL     OW26023   0.378   2.876  14.904 -0.1252  0.3475 -0.0692
 4855SOL    HW126024   0.433   2.815  14.855 -0.4105  1.2918 -1.5779
 4855SOL    HW226025   0.384   2.956  14.851 -0.9218  0.1515 -0.4596
 4856SOL     OW26026   2.618   1.642   2.932 -0.2143 -0.6128  0.1903
 4856SOL    HW126027   2.618   1.586   2.855 -2.1451  0.1657 -0.3921
 4856SOL    HW226028   2.712   1.648   2.947 -0.2630  0.1649  0.1927
 4857SOL     OW26029   2.788   2.619  15.339 -0.5356 -0.3334 -0.1933
 4857SOL    HW126030   2.719   2.669  15.382 -0.6927  0.5631 -1.4759
 4857SOL    HW226031   2.732   2.571  15.278 -0.8815  1.3862 -1.2179
 4858SOL     OW26032   4.618   2.759   8.287  0.2954  0.1370  0.0391
 4858SOL    HW126033   4.649   2.669   8.287  1.5450  0.5634  0.1025
 4858SOL    HW226034   4.556   2.765   8.359 -0.6879 -0.9826 -0.7265
 4859SOL     OW26035   1.376   3.260   9.980  0.2470 -0.4990 -0.0423
 4859SOL    HW126036   1.449   3.239  10.039  0.9867  0.6525 -0.5514
 4859SOL    HW226037   1.403   3.349   9.957  0.8838 -0.4972  0.6994
 4860SOL     OW26038   1.279   3.819   6.813 -0.1615  0.0484 -0.2321
 4860SOL    HW126039   1.193   3.777   6.805  0.6718 -1.7638  0.3856
 4860SOL    HW226040   1.278   3.848   6.905 -0.7107 -1.6178  0.2861
 4861SOL     OW26041   3.071   2.416  14.285 -0.3172 -0.0727  0.1335
 4861SOL    HW126042   3.128   2.366  14.344  0.6365  0.8509  0.0034
 4861SOL    HW226043   3.126   2.439  14.210 -0.6304  1.2862  0.3267
 4862SOL     OW26044   2.970   4.046   9.375  0.2924 -0.0303 -0.1131
 4862SOL    HW126045   3.057   4.065   9.339  1.3210 -1.2349  1.7551
 4862SOL    HW226046   2.991   4.061   9.467  1.3192  0.9545 -0.5088
 4863SOL     OW26047   1.823   2.143   6.584  0.1417 -0.5642  0.2550
 4863SOL    HW126048   1.793   2.096   6.506  0.9832 -1.4452  0.4439
 4863SOL    HW226049   1.820   2.078   6.655  1.7499 -1.4873 -0.5188
 4864SOL     OW26050   3.022   2.399   5.229  0.0479  0.0180 -0.3932
 4864SOL    HW126051   3.085   2.364   5.292  1.5834  3.3997 -0.0032
 4864SOL    HW226052   3.083   2.470   5.207  1.0209 -1.1762 -1.4711
 4865SOL     OW26053   4.085   2.526   2.486  0.1054  0.4720 -0.4519
 4865SOL    HW126054   4.090   2.532   2.581 -0.3223  0.0006 -0.3973
 4865SOL    HW226055   3.997   2.554   2.461  0.4501  0.1554 -2.0702
 4866SOL     OW26056   2.950   2.313   7.696 -0.2800 -0.1210 -0.0375
 4866SOL    HW126057   3.025   2.372   7.707 -0.5674 -0.0902  1.8560
 4866SOL    HW226058   2.902   2.310   7.779  0.5258 -1.6465  0.3931
 4867SOL     OW26059   3.896   1.910   5.965 -0.3213  0.0300  0.3198
 4867SOL    HW126060   3.838   1.918   5.889  0.4064  1.6241 -0.0769
 4867SOL    HW226061   3.899   1.815   5.977  1.3363  0.1933  1.1650
 4868SOL     OW26062   2.236   1.484   7.760  0.1484  0.6922 -0.3158
 4868SOL    HW126063   2.259   1.394   7.738 -1.8684 -0.2221  1.3867
 4868SOL    HW226064   2.155   1.495   7.710  0.7901 -0.4379 -1.6063
 4869SOL     OW26065   4.448   3.236  16.094 -0.2760 -0.1294 -0.1586
 4869SOL    HW126066   4.422   3.155  16.138 -0.3937 -0.1295 -0.2284
 4869SOL    HW226067   4.428   3.222  16.002  1.3758  2.1257 -0.8682
 4870SOL     OW26068   3.409   1.957   4.163  0.5691 -0.3093 -0.1459
 4870SOL    HW126069   3.408   2.019   4.236 -0.6795 -1.2793  0.6591
 4870SOL    HW226070   3.352   1.986   4.092 -2.3045 -0.5564  2.0413
 4871SOL     OW26071   0.689   4.278   8.642 -0.3654 -0.5185  0.7564
 4871SOL    HW126072   0.708   4.269   8.735  1.3835  0.4690  0.4738
 4871SOL    HW226073   0.600   4.314   8.644  0.0367  0.5994 -1.6891
 4872SOL     OW26074   4.510   3.068   2.475 -0.2949 -0.1681 -0.2365
 4872SOL    HW126075   4.484   2.998   2.415 -3.0333 -0.1805  0.9917
 4872SOL    HW226076   4.547   3.135   2.417 -1.6034 -0.2450 -1.1598
 4873SOL     OW26077   1.224   0.655   3.754 -0.4605  0.0858  0.0099
 4873SOL    HW126078   1.162   0.726   3.770 -1.1722 -0.4004 -0.6329
 4873SOL    HW226079   1.296   0.668   3.816 -1.7616  2.2356  1.0635
 4874SOL     OW26080   3.296   0.184   6.349 -0.0098  0.2806 -0.1741
 4874SOL    HW126081   3.249   0.148   6.424  2.0576  1.7523  1.8508
 4874SOL    HW226082   3.362   0.229   6.403  0.6120  0.8544 -1.4243
 4875SOL     OW26083   1.142   3.953   5.981  0.1238 -0.3033 -0.1138
 4875SOL    HW126084   1.171   3.938   5.891  1.2799  1.6283 -0.0661
 4875SOL    HW226085   1.090   3.877   6.009  0.8746 -0.7571  0.0404
 4876SOL     OW26086   4.525   2.834   2.977  0.3737 -0.0546  0.5412
 4876SOL    HW126087   4.569   2.910   2.937  0.5403 -1.5418 -2.0739
 4876SOL    HW226088   4.538   2.772   2.906 -2.3518  1.3565 -1.1787
 4877SOL     OW26089   3.501   0.253   7.401 -0.0578  0.1890 -0.0258
 4877SOL    HW126090   3.418   0.272   7.358 -0.2460  1.2425  0.7919
 4877SOL    HW226091   3.472   0.217   7.485  1.5960  0.6785  0.7629
 4878SOL     OW26092   1.505   4.002   7.333 -0.0712 -0.1096 -0.0180
 4878SOL    HW126093   1.419   3.959   7.333  0.1062 -0.4717  0.7247
 4878SOL    HW226094   1.502   4.063   7.406 -0.2853  2.3970 -2.1270
 4879SOL     OW26095   3.300   2.723   7.126 -0.1396 -0.3991  0.2532
 4879SOL    HW126096   3.265   2.636   7.147  1.3501 -0.5728  1.9773
 4879SOL    HW226097   3.244   2.744   7.051  0.4211  1.2694  0.3233
 4880SOL     OW26098   0.597   2.657   8.035 -0.1395 -0.3669 -0.1699
 4880SOL    HW126099   0.579   2.751   8.032 -2.7686 -0.8778 -0.3270
 4880SOL    HW226100   0.685   2.653   7.996  0.1101  0.4843  0.3008
 4881SOL     OW26101   3.876   4.524   3.985 -0.1847  0.4150 -0.0636
 4881SOL    HW126102   3.944   4.546   3.922 -0.0090  1.6705  0.5736
 4881SOL    HW226103   3.834   4.610   3.987 -1.8880 -0.4033 -0.6418
 4882SOL     OW26104   0.562   3.346   9.475  0.1192  0.4116 -0.2836
 4882SOL    HW126105   0.601   3.261   9.456 -1.2062 -0.7969  2.3277
 4882SOL    HW226106   0.556   3.372   9.384 -0.9196  0.1603 -0.2893
 4883SOL     OW26107   3.214   4.409   3.231 -0.2506 -0.2447  0.0320
 4883SOL    HW126108   3.230   4.496   3.268  0.1582 -0.5939  0.6964
 4883SOL    HW226109   3.278   4.364   3.287  1.1818  1.2632 -0.3578
 4884SOL     OW26110   1.092   2.722   6.941 -0.0262 -0.8821 -0.2011
 4884SOL    HW126111   1.173   2.755   6.903  0.6343 -1.4190  0.7402
 4884SOL    HW226112   1.034   2.727   6.865  0.2575 -2.9055 -0.5499
 4885SOL     OW26113   0.834   0.735  15.986 -0.5256 -0.4409 -0.1842
 4885SOL    HW126114   0.911   0.792  15.993 -0.0091 -1.3854  1.6305
 4885SOL    HW226115   0.831   0.697  16.073  0.5898  1.4555  0.6909
 4886SOL     OW26116   3.220   3.197   3.021  0.2915  0.6439  0.1898
 4886SOL    HW126117   3.167   3.190   2.942 -0.0407 -2.0628  0.6396
 4886SOL    HW226118   3.304   3.194   2.976  1.3999  1.0960  2.2441
 4887SOL     OW26119   1.205   1.960   6.580  0.0284 -0.8737 -0.5391
 4887SOL    HW126120   1.208   1.955   6.484  1.6637  0.4138 -0.5680
 4887SOL    HW226121   1.192   1.871   6.611 -2.1208 -0.5031 -0.4337
 4888SOL     OW26122   1.721   2.688   5.287 -0.3546  0.5423 -0.1337
 4888SOL    HW126123   1.776   2.676   5.210 -0.3399  0.0634 -0.0527
 4888SOL    HW226124   1.673   2.606   5.274 -1.7270  0.7139  3.8249
 4889SOL     OW26125   4.315   1.633  14.563 -0.4722  0.2226 -0.0214
 4889SOL    HW126126   4.238   1.577  14.573 -0.1280  0.0186  1.4593
 4889SOL    HW226127   4.263   1.713  14.555 -0.3375  0.2234 -0.9095
 4890SOL     OW26128   1.685   2.677   1.946  0.0338 -0.1727 -0.0617
 4890SOL    HW126129   1.714   2.589   1.923  0.4109 -0.0486 -0.0578
 4890SOL    HW226130   1.631   2.695   1.869 -0.2100  1.4271  0.4728
 4891SOL     OW26131   4.653   1.095   2.446  0.4837  0.6487  0.0374
 4891SOL    HW126132   4.614   1.008   2.437  2.4003 -0.0049 -1.9290
 4891SOL    HW226133   0.016   1.071   2.484  0.3959 -0.6181 -0.5873
 4892SOL     OW26134   4.351   1.874   7.058 -0.7256 -0.4000  0.4489
 4892SOL    HW126135   4.320   1.815   7.127  0.1093 -0.2722  0.9359
 4892SOL    HW226136   4.412   1.929   7.108  0.3004 -0.2952 -0.9311
 4893SOL     OW26137   3.977   1.574   7.327  0.3235 -0.3097 -0.2214
 4893SOL    HW126138   3.989   1.652   7.380  0.7627 -0.5281  0.0040
 4893SOL    HW226139   4.055   1.524   7.350  0.2719 -1.1660 -1.8906
 4894SOL     OW26140   3.136   2.517   6.058 -0.3002  0.3608 -0.1628
 4894SOL    HW126141   3.054   2.468   6.056 -0.4751  0.6544 -0.1720
 4894SOL    HW226142   3.134   2.562   5.974  0.7835 -0.1356 -0.4463
 4895SOL     OW26143   0.193   3.854   8.376 -0.0047  0.0768  0.8310
 4895SOL    HW126144   0.173   3.799   8.452 -1.0249  0.4345  0.8269
 4895SOL    HW226145   0.266   3.906   8.409 -0.4596  2.0412 -1.3441
 4896SOL     OW26146   3.087   4.706   8.808  0.4998  0.1705 -0.1648
 4896SOL    HW126147   3.050   4.618   8.809  0.4687  0.2278  2.3560
 4896SOL    HW226148   3.114   4.704   8.716 -1.4086  2.3276 -0.7635
 4897SOL     OW26149   2.958   1.233  15.640 -0.1120  0.6256  0.2604
 4897SOL    HW126150   2.978   1.209  15.549  2.1870  1.4406  0.5526
 4897SOL    HW226151   2.999   1.318  15.654  2.5536 -0.6049 -0.0766
 4898SOL     OW26152   1.718   2.336   2.614  0.4396 -0.3064  0.6979
 4898SOL    HW126153   1.746   2.309   2.527  0.4025  1.8893  0.0126
 4898SOL    HW226154   1.650   2.401   2.597 -0.4769 -1.9038 -1.8679
 4899SOL     OW26155   3.703   0.306   4.080  0.2934 -0.0281 -0.0802
 4899SOL    HW126156   3.609   0.302   4.065  0.2757  1.7118 -0.4702
 4899SOL    HW226157   3.721   0.346   4.165  0.4175  0.7780 -0.4892
 4900SOL     OW26158   0.776   3.588   0.062  0.5982  0.5224  0.5652
 4900SOL    HW126159   0.684   3.599   0.036  0.8423  1.2771 -0.0162
 4900SOL    HW226160   0.798   3.547  17.664  0.9005  1.7634  0.0327
 4901SOL     OW26161   2.768   2.616   8.763 -0.0863 -0.0682  0.5236
 4901SOL    HW126162   2.855   2.650   8.787 -1.0620  1.4447  1.8452
 4901SOL    HW226163   2.709   2.690   8.774  1.3975  1.0127  1.3312
 4902SOL     OW26164   1.532   1.772   5.945 -0.1153 -0.5522 -0.2165
 4902SOL    HW126165   1.519   1.693   5.892  0.1824 -1.2011  0.6894
 4902SOL    HW226166   1.446   1.814   5.952 -0.3762 -0.6776 -2.6045
 4903SOL     OW26167   2.156   4.179  10.823 -0.4732 -0.1132  0.2856
 4903SOL    HW126168   2.161   4.247  10.890 -1.2660 -0.7040  0.9440
 4903SOL    HW226169   2.247   4.152  10.833 -0.8849 -1.8293 -0.4977
 4904SOL     OW26170   3.984   0.496   3.144  0.2035 -0.4398 -0.4647
 4904SOL    HW126171   4.013   0.587   3.151  0.9403 -0.7182  0.1291
 4904SOL    HW226172   4.039   0.468   3.071 -0.2084 -0.0033 -0.9495
 4905SOL     OW26173   4.309   3.664  16.958 -0.1147  0.0919 -0.0749
 4905SOL    HW126174   4.332   3.610  16.883 -0.5738  1.8984 -1.5211
 4905SOL    HW226175   4.334   3.602  17.027  1.4345 -0.8418 -1.4877
 4906SOL     OW26176   0.479   2.113   7.568 -0.3317  0.2018 -0.4132
 4906SOL    HW126177   0.564   2.070   7.560  0.3238  1.1613  1.2670
 4906SOL    HW226178   0.516   2.189   7.612  0.1902 -1.1931  1.5825
 4907SOL     OW26179   2.186   1.316   5.126  0.0153 -0.5370 -0.2396
 4907SOL    HW126180   2.224   1.403   5.112  0.9634 -1.2579 -2.2671
 4907SOL    HW226181   2.202   1.285   5.037  1.0000  2.4527 -1.1197
 4908SOL     OW26182   4.611   2.871   8.818 -0.2336  0.2846 -0.2274
 4908SOL    HW126183   4.565   2.872   8.902 -1.8295 -0.6661 -1.0815
 4908SOL    HW226184   4.621   2.777   8.801 -0.3249  0.2363 -0.0139
 4909SOL     OW26185   0.171   2.435   3.383  0.1072 -0.0540  0.3062
 4909SOL    HW126186   0.141   2.412   3.295  1.1165 -1.0603  0.2234
 4909SOL    HW226187   0.164   2.354   3.433 -0.0968  0.1500  0.6133
 4910SOL     OW26188   0.754   3.226   0.093  0.2916  0.9022 -0.4569
 4910SOL    HW126189   0.795   3.265   0.170  1.7830  1.1664 -1.3671
 4910SOL    HW226190   0.721   3.298   0.040  0.6528  0.9488 -0.6211
 4911SOL     OW26191   4.619   2.042   5.745 -0.0570 -0.6010  0.8475
 4911SOL    HW126192   4.615   2.026   5.839 -0.3217  1.7568  1.2510
 4911SOL    HW226193   4.578   2.129   5.742  0.1451 -0.5264  0.0466
 4912SOL     OW26194   0.056   2.448   2.717 -0.0868 -0.3730  0.0769
 4912SOL    HW126195   4.720   2.372   2.725  0.2585 -0.5803  0.5637
 4912SOL    HW226196   0.067   2.449   2.622 -1.7537 -1.0991 -0.1263
 4913SOL     OW26197   0.825   2.795   8.323  0.0799 -0.1071  0.0878
 4913SOL    HW126198   0.832   2.842   8.240  3.8134 -0.2612  0.3183
 4913SOL    HW226199   0.731   2.776   8.330  0.0677 -0.9222 -2.3270
 4914SOL     OW26200   0.981   0.483   8.297  0.2305  0.4120  0.3229
 4914SOL    HW126201   0.917   0.546   8.266 -0.6264 -0.0352  1.1756
 4914SOL    HW226202   0.968   0.488   8.391 -0.8074 -1.5170  0.2883
 4915SOL     OW26203   3.100   0.626  12.633  0.2337  0.1849 -0.8436
 4915SOL    HW126204   3.014   0.623  12.591 -0.4697 -0.3730  0.6317
 4915SOL    HW226205   3.077   0.690  12.701 -0.6615 -2.4801  1.3790
 4916SOL     OW26206   3.145   1.683   2.213  0.0750 -0.4123  0.1827
 4916SOL    HW126207   3.125   1.613   2.151  2.3771  0.1843 -1.2338
 4916SOL    HW226208   3.217   1.646   2.264  0.5656 -1.4314 -1.2210
 4917SOL     OW26209   0.159   0.503  17.293 -0.1455  0.4582  0.5061
 4917SOL    HW126210   0.238   0.453  17.316 -0.2312  0.7955  1.5386
 4917SOL    HW226211   0.195   0.572  17.237  1.0992  0.3116  1.1127
 4918SOL     OW26212   0.556   1.937   2.697 -0.0201  0.2469  0.0818
 4918SOL    HW126213   0.576   2.019   2.652 -0.4519  1.6002  2.3576
 4918SOL    HW226214   0.537   1.957   2.788 -2.2492 -0.1873 -0.2941
 4919SOL     OW26215   3.263   3.857   3.503  0.2300 -0.5008  0.1608
 4919SOL    HW126216   3.191   3.890   3.450  0.9338  0.6958 -0.0495
 4919SOL    HW226217   3.248   3.922   3.572 -0.5642 -1.2585  0.7001
 4920SOL     OW26218   3.944   3.596   3.949  0.5357  0.8519  0.1738
 4920SOL    HW126219   3.851   3.578   3.930  1.2703 -4.0556  1.2860
 4920SOL    HW226220   3.943   3.664   4.016 -1.0231 -0.3323  1.3415
 4921SOL     OW26221   4.321   0.511   8.126  0.7001 -0.0975 -0.1975
 4921SOL    HW126222   4.395   0.564   8.095 -0.5946  1.6256 -0.3961
 4921SOL    HW226223   4.369   0.430   8.142  1.7156 -0.1979 -3.6894
 4922SOL     OW26224   4.351   1.440   2.173  0.0651  0.5407  1.0948
 4922SOL    HW126225   4.393   1.356   2.154  2.0514  1.5002  1.2307
 4922SOL    HW226226   4.385   1.486   2.097 -0.5211 -0.9158 -0.0574
 4923SOL     OW26227   1.862   1.271   1.815  0.3335  0.1268  0.0919
 4923SOL    HW126228   1.785   1.328   1.812  0.2452  0.1322  2.2994
 4923SOL    HW226229   1.899   1.293   1.901 -2.9249 -0.1299  1.5738
 4924SOL     OW26230   3.501   4.195   3.316 -0.8236  0.0435  0.1390
 4924SOL    HW126231   3.414   4.162   3.339 -0.4770 -2.4486 -2.2140
 4924SOL    HW226232   3.540   4.187   3.402 -1.5862  0.5074  0.5338
 4925SOL     OW26233   2.501   2.888   5.224 -0.2309  0.0411 -0.1325
 4925SOL    HW126234   2.513   2.938   5.305 -0.1895 -1.6425  0.8774
 4925SOL    HW226235   2.474   2.955   5.161  0.8868 -0.6483 -1.3568
 4926SOL     OW26236   3.873   2.305  17.387 -0.0629  0.0260  0.8444
 4926SOL    HW126237   3.837   2.273  17.469  1.5429 -0.8695  1.2064
 4926SOL    HW226238   3.954   2.254  17.375  0.3617  0.6128  1.2249
 4927SOL     OW26239   2.528   0.804   8.788  0.4031  0.0917 -0.0695
 4927SOL    HW126240   2.496   0.742   8.722  2.1218  0.6084 -1.3917
 4927SOL    HW226241   2.499   0.768   8.872 -0.6733  1.2001  0.0471
 4928SOL     OW26242   2.367   2.067   0.014 -0.0745 -0.0829 -0.0152
 4928SOL    HW126243   2.445   2.050   0.066 -1.1791  0.0447  1.6936
 4928SOL    HW226244   2.297   2.043   0.075  1.3158 -2.3363  0.7009
 4929SOL     OW26245   2.901   4.708   7.322  0.0746  0.5381  0.2950
 4929SOL    HW126246   2.930   0.037   7.246 -1.1037  2.8632  1.3752
 4929SOL    HW226247   2.957   4.632   7.305 -1.9568 -1.6229  3.3329
 4930SOL     OW26248   2.762   3.024  13.656 -0.3331 -0.1979  0.2655
 4930SOL    HW126249   2.771   3.077  13.734 -3.8561 -0.7322  1.0323
 4930SOL    HW226250   2.799   3.083  13.591 -0.4837 -0.8781 -0.4433
 4931SOL     OW26251   3.967   3.416  17.198  0.3840 -0.3136  0.0659
 4931SOL    HW126252   3.963   3.474  17.274 -1.2869  0.1041 -0.3509
 4931SOL    HW226253   3.956   3.486  17.134 -1.2017 -1.0921 -0.5174
 4932SOL     OW26254   1.908   1.933   4.623  0.2075 -0.0636  0.6132
 4932SOL    HW126255   1.905   1.945   4.528 -0.9336  0.3804  0.7105
 4932SOL    HW226256   1.817   1.953   4.642  0.7730  2.5883  0.4297
 4933SOL     OW26257   2.275   0.459  12.414  0.1503 -0.0581  0.2336
 4933SOL    HW126258   2.218   0.383  12.405  0.2115 -0.2342  1.3786
 4933SOL    HW226259   2.314   0.448  12.327  0.0445  0.0424  0.1743
 4934SOL     OW26260   4.356   2.323   1.562 -0.5128 -0.3695 -0.1608
 4934SOL    HW126261   4.287   2.285   1.617  0.4688 -3.9633 -1.3746
 4934SOL    HW226262   4.409   2.372   1.625  1.1183 -2.4125  0.0480
 4935SOL     OW26263   4.717   4.006   7.959 -0.2736 -0.4963  0.5901
 4935SOL    HW126264   4.628   4.040   7.962  0.6836  2.1689 -1.9311
 4935SOL    HW226265   4.716   3.976   8.050  1.0551  2.4301  1.5663
 4936SOL     OW26266   0.472   3.045   4.551  0.0924 -0.4156 -0.0868
 4936SOL    HW126267   0.413   2.983   4.594  0.9033 -0.6716  0.6674
 4936SOL    HW226268   0.545   3.040   4.613  0.0865  0.4699 -0.0137
 4937SOL     OW26269   3.041   1.985   6.321  0.0608  0.0889  0.3899
 4937SOL    HW126270   3.000   2.042   6.255  0.9865  0.5982  0.2604
 4937SOL    HW226271   3.093   2.049   6.370  0.5324  0.3420 -0.4358
 4938SOL     OW26272   0.131   4.675  12.705 -0.0296  0.3669  0.0397
 4938SOL    HW126273   0.092   0.037  12.678 -0.5969 -0.0355 -0.3963
 4938SOL    HW226274   0.222   4.704  12.703 -0.0454  0.4741  0.9370
 4939SOL     OW26275   4.423   0.136   2.644  0.3161 -0.3533  0.6716
 4939SOL    HW126276   4.429   0.056   2.593  1.7994  0.5536 -0.5838
 4939SOL    HW226277   4.498   0.119   2.700  0.9642  0.0945 -0.0603
 4940SOL     OW26278   4.275   1.493   1.486 -0.6606  0.1766  0.0026
 4940SOL    HW126279   4.336   1.465   1.418 -2.4166 -0.6251 -1.2350
 4940SOL    HW226280   4.224   1.560   1.442 -0.2800  1.2115  1.1281
 4941SOL     OW26281   1.071   1.629   5.023 -0.0999  0.2241  0.6720
 4941SOL    HW126282   1.129   1.688   4.974 -0.4491 -0.0918 -0.1212
 4941SOL    HW226283   0.993   1.645   4.970 -0.2816 -2.8042  0.0578
 4942SOL     OW26284   0.378   2.034  17.325  0.0061  0.0943 -0.2394
 4942SOL    HW126285   0.465   2.030  17.364 -0.8055  0.2600  1.5911
 4942SOL    HW226286   0.398   2.009  17.235 -0.6100 -0.9122 -0.0989
 4943SOL     OW26287   2.321   0.925   8.003  0.2282  0.2018 -0.0822
 4943SOL    HW126288   2.247   0.934   8.062 -0.0885 -1.4109 -0.2434
 4943SOL    HW226289   2.350   1.016   7.992  2.2848 -0.0792  3.0490
 4944SOL     OW26290   3.963   1.915   8.795  0.5604  0.5950 -0.9459
 4944SOL    HW126291   3.923   2.000   8.814  0.7201  0.1849  1.2356
 4944SOL    HW226292   3.957   1.859   8.872 -1.7804  0.7705 -1.0018
 4945SOL     OW26293   1.163   1.000  13.087 -0.0891 -0.0300  0.3247
 4945SOL    HW126294   1.173   1.095  13.083  0.5752 -0.0787  0.8187
 4945SOL    HW226295   1.118   0.996  13.171  1.4179  3.2207  1.2935
 4946SOL     OW26296   2.331   4.012   6.386 -0.0680  0.4410  0.1003
 4946SOL    HW126297   2.261   4.041   6.445  0.1377  1.9744 -0.4181
 4946SOL    HW226298   2.292   3.989   6.302 -2.3604 -2.4084  1.9297
 4947SOL     OW26299   1.335   2.621   2.175 -0.2622  0.6376  0.0301
 4947SOL    HW126300   1.307   2.531   2.159 -0.0850  1.0537 -2.6653
 4947SOL    HW226301   1.289   2.661   2.100 -1.9452  0.0237  0.7276
 4948SOL     OW26302   2.186   0.342   5.451 -0.0998  0.5391 -0.9662
 4948SOL    HW126303   2.142   0.376   5.373 -1.2279 -0.4873 -0.7731
 4948SOL    HW226304   2.135   0.383   5.521 -0.2402 -1.6401  0.2021
 4949SOL     OW26305   1.757   3.029  16.864 -0.4372 -0.0300 -0.8831
 4949SOL    HW126306   1.789   3.039  16.954 -0.4925 -0.8275 -0.7735
 4949SOL    HW226307   1.720   3.116  16.852  1.3244  0.5384 -2.2928
 4950SOL     OW26308   1.907   1.249   6.694 -0.2655 -0.2242  0.0618
 4950SOL    HW126309   1.951   1.164   6.685  1.9203  1.0398 -1.0535
 4950SOL    HW226310   1.816   1.225   6.674 -0.1946  1.1597 -1.9699
 4951SOL     OW26311   3.106   0.897  12.499 -0.3711 -0.3227  0.2841
 4951SOL    HW126312   3.193   0.895  12.539 -1.0805 -2.6496  1.7113
 4951SOL    HW226313   3.117   0.989  12.474  2.7456 -0.6726  0.4678
 4952SOL     OW26314   2.457   3.055   2.226 -0.0598 -0.2920 -0.5265
 4952SOL    HW126315   2.415   3.138   2.248  0.0167 -0.9913  2.2993
 4952SOL    HW226316   2.398   3.027   2.156 -1.4156  0.3199  0.3517
 4953SOL     OW26317   4.537   0.827   3.304  0.1736 -0.3934  0.1507
 4953SOL    HW126318   4.565   0.828   3.396  1.2387  0.9167 -0.1887
 4953SOL    HW226319   4.443   0.809   3.312  0.4260 -2.3246 -1.2540
 4954SOL     OW26320   2.802   0.667   2.761  0.4837  0.0826  0.2524
 4954SOL    HW126321   2.796   0.719   2.841 -1.2406  1.0867 -0.5357
 4954SOL    HW226322   2.858   0.724   2.709 -0.5361  1.6030  0.8326
 4955SOL     OW26323   3.597   0.682  16.463  0.3581  0.3868 -0.0445
 4955SOL    HW126324   3.572   0.702  16.373 -0.1046  0.3608  0.0802
 4955SOL    HW226325   3.607   0.587  16.453  2.5120  0.5105  0.9641
 4956SOL     OW26326   4.070   1.324   7.489  0.1648 -0.0753 -0.8443
 4956SOL    HW126327   4.036   1.244   7.448 -1.5854  0.1163  0.2412
 4956SOL    HW226328   4.006   1.352   7.554  0.7962  0.5225 -0.4794
 4957SOL     OW26329   4.433   1.126   7.178  0.2576  0.2655  0.4093
 4957SOL    HW126330   4.524   1.124   7.149  1.0494  0.2403  2.9023
 4957SOL    HW226331   4.383   1.160   7.104 -0.5852  1.8200  1.7067
 4958SOL     OW26332   0.092   1.007  16.863 -0.1302  0.1807 -0.3865
 4958SOL    HW126333   0.127   1.030  16.950 -2.1555 -0.8346  0.6945
 4958SOL    HW226334   4.718   1.016  16.872  0.1894  0.2096  3.2220
 4959SOL     OW26335   2.957   1.742  14.038  0.1405 -0.2518 -1.0528
 4959SOL    HW126336   2.869   1.714  14.015 -0.7753  2.0154 -0.3920
 4959SOL    HW226337   2.963   1.832  14.005  0.3737  0.2075  0.2220
 4960SOL     OW26338   4.197   3.085  11.838 -0.3394  0.3907  0.2303
 4960SOL    HW126339   4.250   3.102  11.916  0.3952 -2.1689  0.2943
 4960SOL    HW226340   4.266   3.093  11.772  0.0242  1.1820  0.7152
 4961SOL     OW26341   0.644   1.939   3.222  0.2649  0.1046  0.7519
 4961SOL    HW126342   0.674   1.861   3.176  2.3937  0.0914  2.1783
 4961SOL    HW226343   0.591   1.992   3.162  1.5424 -0.9091 -1.2681
 4962SOL     OW26344   3.176   2.697   9.821 -0.0217 -0.0984 -0.1759
 4962SOL    HW126345   3.242   2.667   9.759  0.4811  1.2858 -0.3089
 4962SOL    HW226346   3.145   2.777   9.779 -1.2254 -0.0185  0.8519
 4963SOL     OW26347   3.644   0.162   7.157 -0.2351 -0.1279 -0.9617
 4963SOL    HW126348   3.694   0.087   7.189 -0.5799 -0.0400 -0.2352
 4963SOL    HW226349   3.577   0.169   7.225  0.7204 -1.6251  0.1348
 4964SOL     OW26350   3.350   2.832   4.242 -0.3766 -0.1481 -0.7746
 4964SOL    HW126351   3.280   2.855   4.181 -2.2465  1.6199  2.0796
 4964SOL    HW226352   3.424   2.826   4.181 -0.4223 -1.9982 -0.6341
 4965SOL     OW26353   3.774   3.617  13.732  0.2346  0.2323 -0.6297
 4965SOL    HW126354   3.868   3.625  13.749  0.3413  0.5495 -1.4076
 4965SOL    HW226355   3.765   3.524  13.753  2.0925  0.2024 -0.0084
 4966SOL     OW26356   4.658   0.011   1.294 -0.0020 -0.2621 -0.1070
 4966SOL    HW126357   0.021   4.686   1.291  0.4746  0.5745  0.2376
 4966SOL    HW226358   4.659   0.072   1.368  2.1982  0.3982 -0.6915
 4967SOL     OW26359   0.703   2.297   7.092 -0.4484  0.0300  0.0241
 4967SOL    HW126360   0.779   2.290   7.033  1.0557  0.7524  1.8692
 4967SOL    HW226361   0.693   2.221   7.149 -1.6143 -0.4643 -0.8297
 4968SOL     OW26362   3.501   2.906  11.789  0.0687 -0.1112 -0.2063
 4968SOL    HW126363   3.446   2.857  11.850 -0.9326 -0.8846 -1.7421
 4968SOL    HW226364   3.479   2.999  11.790  0.6628  0.0300  0.0877
 4969SOL     OW26365   1.686   0.752  14.600 -0.3774 -0.2131  0.0599
 4969SOL    HW126366   1.631   0.725  14.674 -0.6436  1.5110  0.5043
 4969SOL    HW226367   1.748   0.680  14.597 -2.0020 -1.7189  2.0106
 4970SOL     OW26368   2.904   3.363   1.149  0.1792 -0.5049  0.1608
 4970SOL    HW126369   2.874   3.420   1.078 -0.2310  0.8279  1.4003
 4970SOL    HW226370   2.878   3.277   1.115  0.2654 -0.9872  1.3208
 4971SOL     OW26371   2.976   2.803   4.480  1.0797  0.8087 -0.0242
 4971SOL    HW126372   3.000   2.719   4.442  2.5266  1.7554 -1.1910
 4971SOL    HW226373   3.056   2.837   4.520  2.5145  0.4706 -2.6386
 4972SOL     OW26374   0.506   0.499   5.989 -0.0399  0.2896  0.5441
 4972SOL    HW126375   0.578   0.555   5.958  0.0528  0.2647  0.7133
 4972SOL    HW226376   0.449   0.548   6.047 -3.3499 -2.8391 -0.1027
 4973SOL     OW26377   1.345   3.906   3.944 -0.2515 -0.0314 -0.5146
 4973SOL    HW126378   1.260   3.942   3.917 -0.3783 -1.1437 -1.6105
 4973SOL    HW226379   1.409   3.973   3.921 -0.1495  0.2750  0.6707
 4974SOL     OW26380   2.950   2.717   3.563  0.0145  0.0260  0.1031
 4974SOL    HW126381   2.949   2.636   3.512 -1.5227 -0.6650  1.2505
 4974SOL    HW226382   3.043   2.718   3.586 -0.2998 -1.4913  1.4185
 4975SOL     OW26383   2.745   0.277  16.730 -0.2248  0.1336  0.3628
 4975SOL    HW126384   2.703   0.352  16.773 -0.3347  1.0296 -1.3230
 4975SOL    HW226385   2.800   0.265  16.807 -1.3352  3.1441  1.6543
 4976SOL     OW26386   2.398   1.248   6.342  0.3621 -0.1512  0.2921
 4976SOL    HW126387   2.432   1.159   6.351 -2.1286 -1.0821  0.4275
 4976SOL    HW226388   2.477   1.296   6.318  0.6569 -1.4383 -1.2894
 4977SOL     OW26389   2.363   0.009  17.623  0.0048  0.3290  0.1753
 4977SOL    HW126390   2.348   0.044  17.535 -0.8671 -0.3745  0.0454
 4977SOL    HW226391   2.439   4.674  17.607  1.3275  1.7030  1.6962
 4978SOL     OW26392   0.884   3.477  16.306  0.2172  0.9345  0.0290
 4978SOL    HW126393   0.805   3.497  16.357 -0.2346  0.3625 -0.4507
 4978SOL    HW226394   0.857   3.488  16.215 -1.4413 -1.9536  0.1735
 4979SOL     OW26395   0.071   0.567   6.620  0.3220 -0.5048  0.1634
 4979SOL    HW126396   0.096   0.475   6.627  0.7511 -0.5904 -2.4838
 4979SOL    HW226397   0.056   0.577   6.526  2.0661  0.9663  0.0454
 4980SOL     OW26398   2.864   3.387  13.335  0.3335 -0.2757  0.2466
 4980SOL    HW126399   2.816   3.461  13.299  0.7020 -0.1775 -0.0323
 4980SOL    HW226400   2.912   3.364  13.256  1.1065 -0.0004  0.6385
 4981SOL     OW26401   2.637   1.842   8.924  0.2990  0.2948  0.1904
 4981SOL    HW126402   2.586   1.762   8.938  0.6512 -0.1886 -1.2229
 4981SOL    HW226403   2.568   1.897   8.886  1.2660  1.2031 -0.2381
 4982SOL     OW26404   3.712   4.645   1.056 -0.2657 -0.2657  0.1013
 4982SOL    HW126405   3.787   4.691   1.094 -3.4494  3.2379  2.1906
 4982SOL    HW226406   3.640   4.685   1.105 -0.5984 -0.8769  0.1114
 4983SOL     OW26407   1.242   3.688   5.231  0.2101  0.2079 -0.5964
 4983SOL    HW126408   1.311   3.624   5.221 -0.8387 -1.0365  0.1440
 4983SOL    HW226409   1.165   3.632   5.225 -1.2390  2.1480 -0.3873
 4984SOL     OW26410   0.493   0.690   7.469  0.0090  0.2568  0.0138
 4984SOL    HW126411   0.492   0.734   7.554  0.0919  1.8631 -0.8319
 4984SOL    HW226412   0.529   0.765   7.423  1.1871 -0.4045 -0.1432
 4985SOL     OW26413   2.962   2.652   7.394 -0.4507 -0.3110 -0.2130
 4985SOL    HW126414   3.011   2.712   7.450 -2.2249  1.2686 -0.3540
 4985SOL    HW226415   2.906   2.711   7.343 -0.8720  0.4515  1.1471
 4986SOL     OW26416   2.927   1.580   5.435  1.0583  0.0423  0.4197
 4986SOL    HW126417   2.888   1.529   5.506  1.1079  0.4145  0.7137
 4986SOL    HW226418   2.985   1.513   5.398 -0.0710 -0.9004  0.3388
 4987SOL     OW26419   4.217   0.191   8.265 -0.3873  0.3645 -0.5864
 4987SOL    HW126420   4.307   0.221   8.255 -0.6667  1.1439 -0.7765
 4987SOL    HW226421   4.214   0.149   8.351  0.3946  1.0916 -0.2012
 4988SOL     OW26422   1.219   4.413   7.082 -0.0785  0.0823 -0.1480
 4988SOL    HW126423   1.137   4.369   7.063 -0.1553 -0.2591  1.0021
 4988SOL    HW226424   1.252   4.434   6.994  0.3620 -0.0426 -0.0135
 4989SOL     OW26425   2.717   1.609   9.296  0.0192 -0.3256  0.1415
 4989SOL    HW126426   2.668   1.532   9.266  0.5930 -0.3333 -0.7769
 4989SOL    HW226427   2.663   1.679   9.259 -0.3492 -0.0856  1.1441
 4990SOL     OW26428   4.273   4.176   2.554 -0.1338 -0.2998  0.2608
 4990SOL    HW126429   4.252   4.181   2.461  0.3475 -0.6007  0.1391
 4990SOL    HW226430   4.314   4.262   2.562  0.1259 -0.6159  2.4684
 4991SOL     OW26431   0.008   0.803  16.608  0.7697  0.3086  0.2227
 4991SOL    HW126432   0.055   0.798  16.525  1.4676  0.5041  0.6046
 4991SOL    HW226433   0.042   0.886  16.643  1.5659 -0.4573  1.2768
 4992SOL     OW26434   1.279   1.574   8.429 -0.2349 -0.1778  0.0706
 4992SOL    HW126435   1.196   1.616   8.409 -0.9517 -0.8181  1.7293
 4992SOL    HW226436   1.331   1.647   8.463 -2.8364  1.5180  0.3436
 4993SOL     OW26437   1.204   3.500   9.248 -0.5352  0.5758 -0.1856
 4993SOL    HW126438   1.145   3.544   9.309  0.4753  2.1745 -0.3573
 4993SOL    HW226439   1.294   3.514   9.278 -1.1145  3.0095  0.3840
 4994SOL     OW26440   3.040   0.729   9.146  0.2880 -0.4221  0.2198
 4994SOL    HW126441   3.119   0.703   9.193 -0.9509 -1.4306  1.7187
 4994SOL    HW226442   2.994   0.762   9.223  0.1348  2.2996 -1.0672
 4995SOL     OW26443   3.170   2.941   4.015 -0.1198 -1.0572 -0.1213
 4995SOL    HW126444   3.246   2.967   3.963 -2.1759 -1.4600 -3.3334
 4995SOL    HW226445   3.111   3.017   4.010 -0.3948 -1.3217 -0.8745
 4996SOL     OW26446   0.041   3.883  10.104  0.2364 -0.3581 -0.3363
 4996SOL    HW126447   0.099   3.952  10.071  0.2702 -0.3684 -0.2983
 4996SOL    HW226448   4.676   3.921  10.086 -1.0905 -2.8618  0.6947
 4997SOL     OW26449   3.713   2.682  12.421 -0.1733  0.2094  0.2591
 4997SOL    HW126450   3.683   2.773  12.423  0.4067  0.4100 -0.2763
 4997SOL    HW226451   3.623   2.651  12.429 -0.4337  1.4895  2.2151
 4998SOL     OW26452   1.884   3.720  15.580  0.3867 -0.3881 -0.4402
 4998SOL    HW126453   1.904   3.627  15.570  0.2328 -0.6991  2.0560
 4998SOL    HW226454   1.897   3.754  15.492 -3.4553 -0.4553 -1.0388
 4999SOL     OW26455   1.338   4.408   1.329 -0.1446 -0.0070 -0.5436
 4999SOL    HW126456   1.367   4.495   1.356 -0.1525 -0.0197 -0.4948
 4999SOL    HW226457   1.388   4.356   1.392  0.5200  1.8383  0.4407
 5000SOL     OW26458   0.204   3.592  11.306 -0.0362  0.2097 -0.1565
 5000SOL    HW126459   0.180   3.615  11.216  0.7106 -0.3036 -0.4870
 5000SOL    HW226460   0.270   3.527  11.284  0.7248  1.1594 -0.6888
 5001SOL     OW26461   1.282   4.155  16.619  0.7740 -0.2288  0.2660
 5001SOL    HW126462   1.315   4.231  16.571 -0.5472 -0.3142 -0.7863
 5001SOL    HW226463   1.189   4.175  16.631  0.8360 -0.1737  0.6366
 5002SOL     OW26464   3.624   1.717  13.436  0.0244 -0.7381  0.4758
 5002SOL    HW126465   3.596   1.652  13.500  0.2372 -1.8256 -0.5444
 5002SOL    HW226466   3.679   1.653  13.391  0.2065  0.1574 -0.5607
 5003SOL     OW26467   2.724   0.694  12.162 -0.4202  0.2437  0.3382
 5003SOL    HW126468   2.817   0.694  12.136  0.3055  0.6777  2.9208
 5003SOL    HW226469   2.700   0.628  12.097 -0.5706 -0.5818  1.2215
 5004SOL     OW26470   3.538   4.247   0.378  0.6339  0.5642 -0.2718
 5004SOL    HW126471   3.624   4.260   0.339  1.1054 -0.2471  0.4799
 5004SOL    HW226472   3.483   4.279   0.307  0.8922 -1.5821 -1.4427
 5005SOL     OW26473   2.555   0.018  14.400  0.0012 -0.6577  0.3368
 5005SOL    HW126474   2.477   4.686  14.382 -1.1864  2.1880 -2.9266
 5005SOL    HW226475   2.517   0.101  14.372  2.0480 -0.0894 -0.8034
 5006SOL     OW26476   1.303   1.577   6.901  0.2190  0.5206  0.6701
 5006SOL    HW126477   1.252   1.603   6.978 -0.0042 -1.7867  1.3165
 5006SOL    HW226478   1.327   1.493   6.941  0.3197  0.4966  0.5574
 5007SOL     OW26479   1.180   4.143   7.586 -0.0947 -0.1514  0.3917
 5007SOL    HW126480   1.153   4.059   7.623  0.3178 -0.0338  0.9618
 5007SOL    HW226481   1.123   4.144   7.509  0.1823 -0.2633  0.1859
 5008SOL     OW26482   4.574   4.013  15.266  0.2120  0.2925  0.1735
 5008SOL    HW126483   4.600   3.984  15.179  1.7373  0.3771  0.6012
 5008SOL    HW226484   4.619   4.097  15.275  1.3071 -0.3260  0.5155
 5009SOL     OW26485   3.475   4.554   3.878 -0.4587  0.0281  0.1464
 5009SOL    HW126486   3.485   4.576   3.971 -1.6016  0.0909  0.2585
 5009SOL    HW226487   3.559   4.589   3.847 -0.5594  0.0696 -0.0769
 5010SOL     OW26488   1.482   2.172   8.910  0.2443  0.4218  0.3917
 5010SOL    HW126489   1.473   2.227   8.832  1.3403  2.8220  1.9501
 5010SOL    HW226490   1.398   2.127   8.915  1.4348 -1.8159 -0.0536
 5011SOL     OW26491   4.342   4.438   7.370 -0.4029  0.8817  0.0020
 5011SOL    HW126492   4.400   4.450   7.295 -1.1910  1.4326 -0.5194
 5011SOL    HW226493   4.321   4.525   7.404 -3.6640  0.9327 -2.1128
 5012SOL     OW26494   1.758   1.826   7.166 -0.7306  0.2338  0.0837
 5012SOL    HW126495   1.818   1.753   7.150  0.2786  1.3270 -1.0742
 5012SOL    HW226496   1.748   1.859   7.077 -0.2727  0.6435  0.1853
 5013SOL     OW26497   1.075   2.650   2.637 -0.0676 -0.0033 -0.6110
 5013SOL    HW126498   1.101   2.725   2.584 -0.4841  1.8228  1.7829
 5013SOL    HW226499   1.113   2.581   2.583  0.6664  1.0738 -1.4694
 5014SOL     OW26500   4.201   4.342   7.712  0.3410 -0.1865  0.7733
 5014SOL    HW126501   4.267   4.360   7.779 -0.6145 -0.9408  1.9088
 5014SOL    HW226502   4.252   4.282   7.657 -2.4026 -0.2403 -1.7304
 5015SOL     OW26503   3.765   3.486   3.177  0.3325  0.0094 -0.0792
 5015SOL    HW126504   3.757   3.578   3.150  0.7938  0.2025  0.4312
 5015SOL    HW226505   3.677   3.468   3.208  0.0202 -1.4523 -1.8875
 5016SOL     OW26506   3.496   2.491   8.066  0.4209 -0.1075 -0.5353
 5016SOL    HW126507   3.569   2.547   8.037  1.0822 -0.0828  1.1698
 5016SOL    HW226508   3.434   2.547   8.112  0.8074  0.1878 -0.3653
 5017SOL     OW26509   1.050   0.455   3.829 -0.0090  0.0960 -0.1035
 5017SOL    HW126510   1.140   0.486   3.843  0.0946 -0.2729  0.0414
 5017SOL    HW226511   0.995   0.513   3.882  2.1163  1.9336  0.1287
 5018SOL     OW26512   3.367   0.070   7.600  0.2649  0.0090 -0.6993
 5018SOL    HW126513   3.426   0.004   7.634  0.7256 -1.0100 -3.4977
 5018SOL    HW226514   3.281   0.027   7.604  0.8965 -1.3591 -2.2907
 5019SOL     OW26515   0.789   4.249  15.275 -0.0329 -0.3917  0.0115
 5019SOL    HW126516   0.824   4.176  15.224  0.1278 -2.0908  2.5421
 5019SOL    HW226517   0.860   4.266  15.338 -0.1669  0.0579  0.0457
 5020SOL     OW26518   3.906   3.574   0.674 -0.1556 -0.0360  0.0294
 5020SOL    HW126519   3.973   3.532   0.620  1.4447  0.0674  1.9537
 5020SOL    HW226520   3.951   3.587   0.758  0.6185 -1.7363 -0.1261
 5021SOL     OW26521   4.470   3.996  17.592  0.5362 -0.4999 -0.4118
 5021SOL    HW126522   4.562   3.976  17.576  0.9589 -0.7693  2.4066
 5021SOL    HW226523   4.447   3.905  17.611 -0.7006 -0.2175 -0.5762
 5022SOL     OW26524   4.113   0.900   2.252 -0.0541  0.1769  0.4028
 5022SOL    HW126525   4.062   0.898   2.333 -1.4400  0.0972 -0.4698
 5022SOL    HW226526   4.054   0.863   2.187  0.7365 -2.0250  0.9660
 5023SOL     OW26527   0.010   0.376   2.444  1.1868 -0.0563 -0.2362
 5023SOL    HW126528   0.077   0.383   2.511 -0.0763  0.3238  0.9790
 5023SOL    HW226529   0.002   0.283   2.422  0.9654  0.0896 -0.7877
 5024SOL     OW26530   1.444   2.356   8.721  0.7396 -0.2801 -0.0369
 5024SOL    HW126531   1.499   2.414   8.668  1.0626 -0.4183  0.1519
 5024SOL    HW226532   1.408   2.422   8.781 -0.9452  0.2360 -1.5934
 5025SOL     OW26533   1.873   3.491   8.350  0.2373  0.3947 -0.1213
 5025SOL    HW126534   1.825   3.413   8.376 -0.1567  0.2371 -1.3102
 5025SOL    HW226535   1.819   3.547   8.405 -0.5749 -0.2685 -0.2571
 5026SOL     OW26536   2.902   2.032   0.424 -0.3997 -0.0012  0.1599
 5026SOL    HW126537   2.861   1.960   0.376  0.6191 -0.8339  0.5281
 5026SOL    HW226538   2.892   2.001   0.514 -1.1087  1.5031  0.6021
 5027SOL     OW26539   3.431   0.392  15.865  0.6275  0.2165 -0.1745
 5027SOL    HW126540   3.390   0.414  15.781 -1.0956  2.5758  1.2818
 5027SOL    HW226541   3.389   0.458  15.921 -0.8058 -0.4023 -0.5347
 5028SOL     OW26542   2.944   0.746   3.794  0.2890 -0.1066 -0.1337
 5028SOL    HW126543   2.887   0.671   3.808 -1.5179  0.9527 -1.7646
 5028SOL    HW226544   2.957   0.758   3.700 -0.7976 -0.8609 -0.3691
 5029SOL     OW26545   0.721   2.002  14.457 -0.3556  0.1057  0.6598
 5029SOL    HW126546   0.792   2.037  14.404  1.4417 -0.5598  2.6503
 5029SOL    HW226547   0.642   2.001  14.402 -0.6368 -1.8671  1.1001
 5030SOL     OW26548   3.104   0.172   3.237  0.0042  0.2925  0.2647
 5030SOL    HW126549   3.058   0.153   3.155 -1.2293  2.8200  0.3667
 5030SOL    HW226550   3.144   0.090   3.267 -0.8091 -0.1450  0.1628
 5031SOL     OW26551   3.584   2.481   4.042 -0.1107  0.1405  0.3349
 5031SOL    HW126552   3.507   2.425   4.052  1.1691 -1.6511  0.1325
 5031SOL    HW226553   3.640   2.442   4.110  1.7329  1.2679 -0.5288
 5032SOL     OW26554   1.183   0.180   2.716  0.0939  0.1581  0.1691
 5032SOL    HW126555   1.215   0.226   2.639  0.6551 -2.8289 -1.3639
 5032SOL    HW226556   1.209   0.233   2.792 -1.2642  2.8745 -1.2651
 5033SOL     OW26557   0.834   4.696   5.344 -0.5713  0.2167  0.2246
 5033SOL    HW126558   0.884   4.617   5.322  1.4253  1.0735  1.8041
 5033SOL    HW226559   0.891   0.046   5.315  1.0810 -1.0240  0.4142
 5034SOL     OW26560   2.776   2.473   3.828  0.4984 -0.6048  0.2737
 5034SOL    HW126561   2.707   2.413   3.803  1.2666 -0.8038 -1.3382
 5034SOL    HW226562   2.764   2.548   3.770 -2.3436  0.2143  1.9038
 5035SOL     OW26563   1.768   1.070  11.923  0.1616  0.2263  0.3723
 5035SOL    HW126564   1.761   0.981  11.887 -0.2162 -0.6789  2.6708
 5035SOL    HW226565   1.717   1.059  12.003  2.2510  0.7725  1.7483
 5036SOL     OW26566   0.586   3.545  16.523 -0.4944 -0.5449 -0.8410
 5036SOL    HW126567   0.594   3.464  16.573 -2.2192  1.1004  2.0685
 5036SOL    HW226568   0.617   3.610  16.586 -2.0344  0.7170 -1.3967
 5037SOL     OW26569   1.590   2.210   9.138 -0.1052 -0.0600  0.8350
 5037SOL    HW126570   1.553   2.197   9.051  1.7744 -1.4346  0.2359
 5037SOL    HW226571   1.531   2.148   9.182 -4.9604  2.9297 -1.5349
 5038SOL     OW26572   4.255   2.505   6.502  0.8070 -0.0865 -0.0100
 5038SOL    HW126573   4.174   2.557   6.498 -0.0664 -1.6085 -1.9538
 5038SOL    HW226574   4.239   2.457   6.583 -0.1355 -0.3051 -0.3231
 5039SOL     OW26575   0.931   2.864   6.437 -0.9525  0.3485 -0.6266
 5039SOL    HW126576   0.931   2.776   6.399 -1.1764  0.6247 -1.2642
 5039SOL    HW226577   0.864   2.916   6.392 -1.3815 -0.7334 -1.2370
 5040SOL     OW26578   3.149   3.844   3.807 -0.0144 -0.1086 -0.0923
 5040SOL    HW126579   3.164   3.841   3.902  1.5586 -0.1256 -0.3331
 5040SOL    HW226580   3.089   3.918   3.816 -0.0538 -0.1420 -0.0821
 5041SOL     OW26581   0.558   1.674  10.863  0.6052 -0.0998  0.1236
 5041SOL    HW126582   0.592   1.729  10.792 -0.7115  1.9113  1.0595
 5041SOL    HW226583   0.598   1.702  10.945  0.5001  0.5006 -0.0354
 5042SOL     OW26584   4.567   3.240  13.629  0.3312  0.0018  0.2489
 5042SOL    HW126585   4.505   3.298  13.673  1.0401  0.3897  0.7544
 5042SOL    HW226586   4.636   3.234  13.696  1.6436 -0.6276 -1.1717
 5043SOL     OW26587   3.362   2.109   6.611 -0.0632  0.2607 -0.1066
 5043SOL    HW126588   3.318   2.165   6.548 -1.4689 -0.6285  0.0856
 5043SOL    HW226589   3.385   2.031   6.560 -0.1413  1.0691 -1.3757
 5044SOL     OW26590   0.196   0.875   0.860  0.4064 -0.4848 -0.5912
 5044SOL    HW126591   0.225   0.958   0.822 -1.8958  0.4664 -0.3043
 5044SOL    HW226592   0.193   0.814   0.785  3.0586 -0.9300 -0.3160
 5045SOL     OW26593   4.546   3.497   0.535  0.0393 -0.5287  0.3154
 5045SOL    HW126594   4.565   3.539   0.619  0.7782 -1.4151  0.5842
 5045SOL    HW226595   4.618   3.537   0.487 -1.1689  2.5147  1.0211
 5046SOL     OW26596   1.413   1.227   2.659 -0.0695  0.5283  0.1013
 5046SOL    HW126597   1.447   1.158   2.601 -0.6486  0.9101 -0.6897
 5046SOL    HW226598   1.372   1.282   2.592  1.1492  0.5509 -0.6267
 5047SOL     OW26599   2.913   3.107   7.247  0.0091  0.2997  0.2339
 5047SOL    HW126600   2.823   3.140   7.246 -0.1567 -0.1803 -0.6570
 5047SOL    HW226601   2.956   3.175   7.299  1.0012 -0.8229  0.8815
 5048SOL     OW26602   4.706   3.074   0.466 -0.5575  0.2632  0.1420
 5048SOL    HW126603   0.002   3.016   0.540 -0.5812  2.5759  2.0024
 5048SOL    HW226604   4.620   3.035   0.449 -0.6464  0.3401  0.3996
 5049SOL     OW26605   2.883   2.489  17.646  0.1314  0.0998  0.1378
 5049SOL    HW126606   2.820   2.425  17.678 -1.2907  0.5377 -1.7926
 5049SOL    HW226607   2.869   2.561   0.020  2.2568  0.6111  0.0142
 5050SOL     OW26608   4.297   4.452  11.008 -0.1371 -0.2933  0.1941
 5050SOL    HW126609   4.213   4.459  11.053  2.1448 -1.0379  4.5073
 5050SOL    HW226610   4.319   4.363  11.033 -2.9103 -0.7344  1.1127
 5051SOL     OW26611   1.390   2.994  13.932 -0.7179  0.1906 -0.3732
 5051SOL    HW126612   1.417   3.007  14.023  2.5147  3.2400 -1.7585
 5051SOL    HW226613   1.361   2.906  13.955 -0.9225  0.2993 -0.2158
 5052SOL     OW26614   4.030   0.789   4.832 -0.1307  0.1390 -0.5477
 5052SOL    HW126615   4.056   0.734   4.758  0.9388  0.7008 -0.6021
 5052SOL    HW226616   4.108   0.775   4.887 -1.2386  0.1956  1.0376
 5053SOL     OW26617   0.377   0.635   7.186 -0.5263  0.1840  0.0439
 5053SOL    HW126618   0.445   0.697   7.157 -0.9250 -0.3737 -2.0500
 5053SOL    HW226619   0.296   0.685   7.178 -0.3395  1.2199  4.5766
 5054SOL     OW26620   1.979   4.272   3.700  0.0020  0.4080 -0.2254
 5054SOL    HW126621   1.958   4.359   3.668 -0.8679 -0.0147 -0.8017
 5054SOL    HW226622   1.911   4.260   3.766 -1.9493  1.4669 -2.0300
 5055SOL     OW26623   1.116   0.776   4.264 -0.1105 -0.2462 -0.2696
 5055SOL    HW126624   1.077   0.699   4.223 -2.6747 -0.0867  1.8621
 5055SOL    HW226625   1.152   0.831   4.195  0.7021 -1.1730 -0.5847
 5056SOL     OW26626   4.063   1.421   5.656  0.4335  0.1622  0.3634
 5056SOL    HW126627   4.004   1.492   5.681 -0.5073 -0.6188  0.3169
 5056SOL    HW226628   4.037   1.411   5.565  0.7356  1.8874  0.0827
 5057SOL     OW26629   3.115   1.368   9.300  0.3790  0.0017  0.0125
 5057SOL    HW126630   3.096   1.277   9.277  2.6385  0.0438 -1.8982
 5057SOL    HW226631   3.124   1.412   9.216 -0.6744  2.5517  1.2316
 5058SOL     OW26632   1.684   4.490   1.677 -0.3184  0.6554 -0.4643
 5058SOL    HW126633   1.654   4.477   1.587  0.9035 -0.1383 -0.7508
 5058SOL    HW226634   1.775   4.463   1.672 -0.0256  1.7147 -0.8364
 5059SOL     OW26635   0.295   1.698   8.071 -0.3013  0.3017 -0.1271
 5059SOL    HW126636   0.321   1.644   7.996  2.8926 -0.1556  1.3012
 5059SOL    HW226637   0.371   1.695   8.129 -0.2489 -1.6989 -0.2898
 5060SOL     OW26638   1.869   3.609   5.562 -0.2371 -0.4349 -0.3560
 5060SOL    HW126639   1.803   3.540   5.563  2.5767 -3.1451  1.5232
 5060SOL    HW226640   1.824   3.678   5.609  0.2302 -0.0695 -0.4424
 5061SOL     OW26641   4.190   2.233   2.727  0.4397 -0.2346  0.4511
 5061SOL    HW126642   4.206   2.248   2.820  0.9380  0.3297  0.2730
 5061SOL    HW226643   4.105   2.276   2.714  0.4439 -0.5367 -0.5726
 5062SOL     OW26644   1.914   1.664   4.676  0.5134 -0.3969  0.2804
 5062SOL    HW126645   1.929   1.758   4.676  0.2146 -0.3432  1.7544
 5062SOL    HW226646   1.916   1.660   4.581  2.0420 -0.1805  0.3081
 5063SOL     OW26647   3.402   4.182   7.381 -0.0497  0.3286  0.2020
 5063SOL    HW126648   3.440   4.212   7.463  0.9121 -3.3501  1.0782
 5063SOL    HW226649   3.422   4.263   7.333 -0.6050  0.7996  0.7642
 5064SOL     OW26650   3.244   0.100   4.100  0.1835 -0.0066 -0.6622
 5064SOL    HW126651   3.175   0.121   4.162  0.4711 -1.0190 -0.0163
 5064SOL    HW226652   3.233   0.009   4.075 -0.1920 -0.3496  0.7941
 5065SOL     OW26653   3.325   0.526  16.085 -0.1932  0.0235 -0.0204
 5065SOL    HW126654   3.270   0.460  16.127  0.8251 -1.8856 -1.7160
 5065SOL    HW226655   3.262   0.583  16.040  1.2339  0.9447 -0.8178
 5066SOL     OW26656   2.683   1.427   7.975  0.3148  0.3195  0.1876
 5066SOL    HW126657   2.711   1.479   7.900  0.7395 -2.1880 -1.4212
 5066SOL    HW226658   2.709   1.487   8.044  1.9092 -0.5933  0.3823
 5067SOL     OW26659   2.370   1.823   1.398 -0.5751  0.8179  0.0477
 5067SOL    HW126660   2.297   1.846   1.341 -0.5641  1.8038  0.4318
 5067SOL    HW226661   2.448   1.819   1.343  0.9691  1.7133  2.1948
 5068SOL     OW26662   4.484   0.674  12.571 -0.1317  0.2191 -0.0067
 5068SOL    HW126663   4.443   0.730  12.505 -0.3814  1.2128  0.9805
 5068SOL    HW226664   4.516   0.609  12.510 -0.7509 -0.0112 -0.0828
 5069SOL     OW26665   4.320   0.294   4.598  0.2117  0.4015 -0.2874
 5069SOL    HW126666   4.262   0.311   4.672  0.0030  0.4656 -0.4678
 5069SOL    HW226667   4.254   0.284   4.530  1.4577 -0.9318 -1.3212
 5070SOL     OW26668   4.614   2.653   3.280  0.0789  0.1430 -0.1005
 5070SOL    HW126669   4.620   2.743   3.314  0.9620 -0.0176  0.1613
 5070SOL    HW226670   4.545   2.669   3.216 -1.0076  0.9399  1.2666
 5071SOL     OW26671   0.992   4.083   7.215 -0.5539 -0.3340 -0.3311
 5071SOL    HW126672   0.930   4.125   7.274  1.7468  2.6239 -0.0443
 5071SOL    HW226673   0.979   4.116   7.126 -0.5692 -0.3422 -0.3319
 5072SOL     OW26674   3.393   1.625   6.600  0.7652  0.4709  0.0117
 5072SOL    HW126675   3.488   1.622   6.611  0.5935 -2.3803  0.5497
 5072SOL    HW226676   3.384   1.643   6.506 -2.0560 -0.0076  0.1674
 5073SOL     OW26677   4.616   2.897   7.101  0.4704  0.3303  0.5042
 5073SOL    HW126678   4.651   2.943   7.177 -1.0134  0.1614  1.2941
 5073SOL    HW226679   4.537   2.949   7.084  1.0417  1.3384  0.9014
 5074SOL     OW26680   0.838   3.597  10.982  0.3350  0.0957  0.0364
 5074SOL    HW126681   0.785   3.659  11.031  2.6303 -0.4702  3.2253
 5074SOL    HW226682   0.921   3.644  10.990  0.5115 -0.5284  1.9583
 5075SOL     OW26683   4.103   4.598   6.291 -0.1915  0.0724 -0.9549
 5075SOL    HW126684   4.102   4.523   6.232 -3.2270 -0.5812 -0.0651
 5075SOL    HW226685   4.191   4.630   6.268 -0.4288  2.0858  0.9187
 5076SOL     OW26686   1.314   3.574   8.121 -0.0909  0.7190 -0.0127
 5076SOL    HW126687   1.363   3.576   8.203  1.5237 -1.9820 -0.9131
 5076SOL    HW226688   1.306   3.481   8.102 -2.1403  0.9912 -0.4655
 5077SOL     OW26689   3.161   1.421   8.685  0.5321 -0.3672  0.1268
 5077SOL    HW126690   3.255   1.419   8.703  0.7277 -0.8717 -0.9346
 5077SOL    HW226691   3.135   1.504   8.723 -0.4441 -0.0860 -1.1371
 5078SOL     OW26692   0.319   3.792   1.676 -0.2454 -0.9661  0.5833
 5078SOL    HW126693   0.408   3.758   1.674  0.1157  0.1183 -1.2761
 5078SOL    HW226694   0.276   3.757   1.598  0.2302  1.7751 -0.9133
 5079SOL     OW26695   0.758   1.940   2.291  0.1046 -0.7240  0.0133
 5079SOL    HW126696   0.727   1.880   2.223 -0.2468  2.1609 -2.3763
 5079SOL    HW226697   0.836   1.980   2.252  1.7726 -2.6208  1.4757
 5080SOL     OW26698   4.107   0.117   7.196  1.1688  0.2421 -0.0482
 5080SOL    HW126699   4.196   0.124   7.230  1.3008  0.7002 -0.4766
 5080SOL    HW226700   4.068   0.186   7.250 -0.6657  1.4105 -2.8207
 5081SOL     OW26701   4.699   3.135   8.242  0.1338 -0.0550 -0.1190
 5081SOL    HW126702   0.009   3.168   8.326 -0.0630 -3.3884  1.2692
 5081SOL    HW226703   0.060   3.109   8.199  0.4224  1.1922 -0.3040
 5082SOL     OW26704   1.394   0.619  12.454 -0.6041  0.6057  0.3106
 5082SOL    HW126705   1.352   0.557  12.394  0.2131  1.1768 -0.8405
 5082SOL    HW226706   1.402   0.695  12.397 -0.2674 -0.1981 -0.7171
 5083SOL     OW26707   4.212   1.793   4.959 -0.0709 -0.6909  0.6900
 5083SOL    HW126708   4.222   1.874   5.010 -1.4515 -1.2698  1.8800
 5083SOL    HW226709   4.304   1.778   4.941 -0.4664  0.1390 -2.1537
 5084SOL     OW26710   0.181   3.503  17.670  0.0137  0.2113  0.1087
 5084SOL    HW126711   0.197   3.451  17.592 -2.2868 -0.1591 -0.0969
 5084SOL    HW226712   0.226   3.583  17.640 -0.8293  0.0606 -1.5480
 5085SOL     OW26713   4.107   3.628  13.765 -0.7263 -0.3146  0.1555
 5085SOL    HW126714   4.113   3.723  13.755  2.1417 -0.4854  0.3090
 5085SOL    HW226715   4.146   3.613  13.851  2.9271  0.0175 -1.4710
 5086SOL     OW26716   4.643   2.036  16.473  0.1202 -0.3245  0.5250
 5086SOL    HW126717   0.010   2.029  16.435 -0.8488  2.7761 -2.3160
 5086SOL    HW226718   4.647   2.120  16.518  0.9451  0.5533 -1.1553
 5087SOL     OW26719   4.095   3.118   3.897  0.3767  0.1334 -0.1782
 5087SOL    HW126720   4.040   3.074   3.962  0.2454 -0.4472 -0.6724
 5087SOL    HW226721   4.134   3.041   3.855  0.0685 -0.4752  0.6610
 5088SOL     OW26722   3.444   0.445   2.418 -0.0211 -0.6493 -0.4340
 5088SOL    HW126723   3.381   0.507   2.454 -1.7699 -2.5700 -0.1929
 5088SOL    HW226724   3.386   0.372   2.397  0.6188 -1.1914 -0.3201
 5089SOL     OW26725   0.643   2.944   6.663 -0.6168 -0.1755  0.2235
 5089SOL    HW126726   0.633   2.999   6.741 -2.8112 -2.5247  1.6102
 5089SOL    HW226727   0.737   2.951   6.646 -0.8179  0.0625 -0.7564
 5090SOL     OW26728   1.164   4.171  15.373  0.4364  0.7579  0.1522
 5090SOL    HW126729   1.107   4.248  15.365  1.7899  1.4693 -2.7568
 5090SOL    HW226730   1.212   4.168  15.290 -1.7130  0.3112 -1.0793
 5091SOL     OW26731   1.070   0.774   8.191 -0.1155  0.3311  0.3387
 5091SOL    HW126732   1.071   0.709   8.121  1.4466  0.7607 -0.0263
 5091SOL    HW226733   1.144   0.832   8.173  0.4715 -0.9459 -1.3805
 5092SOL     OW26734   0.290   1.515   0.377  0.4101 -0.3816 -0.4706
 5092SOL    HW126735   0.227   1.576   0.415  1.2660 -0.7276  1.4689
 5092SOL    HW226736   0.366   1.546   0.427 -0.3453 -2.1270  1.7438
 5093SOL     OW26737   3.282   2.146  13.278  0.4992 -0.2852  0.6147
 5093SOL    HW126738   3.283   2.069  13.334 -1.3269  0.1028  1.2021
 5093SOL    HW226739   3.189   2.167  13.291  1.4078  2.9226  1.8530
 5094SOL     OW26740   0.635   2.073  10.690  0.5580 -0.4779 -0.4037
 5094SOL    HW126741   0.575   1.999  10.696  2.0962 -1.6773  0.1644
 5094SOL    HW226742   0.584   2.146  10.726  0.8364  0.1063 -1.1859
 5095SOL     OW26743   0.325   0.936  12.634  0.5554  0.4476 -0.2641
 5095SOL    HW126744   0.289   0.853  12.667 -0.6872  1.4091  0.7698
 5095SOL    HW226745   0.413   0.938  12.671  1.5367 -0.7779 -2.5068
 5096SOL     OW26746   2.927   4.083  10.509  0.4145 -0.0325  0.1095
 5096SOL    HW126747   2.977   4.093  10.428 -1.3789 -0.2850 -1.0091
 5096SOL    HW226748   2.837   4.075  10.479  0.5398 -1.0703 -0.0026
 5097SOL     OW26749   0.105   4.427   7.634  0.9884 -0.0037  1.1909
 5097SOL    HW126750   0.058   4.411   7.553  0.6780 -0.9192  1.5537
 5097SOL    HW226751   0.098   4.349   7.688 -0.6906  0.2457  1.3314
 5098SOL     OW26752   1.867   2.552   2.173  0.2378  0.6825 -0.0571
 5098SOL    HW126753   1.954   2.528   2.204  0.4088  0.3647 -0.7897
 5098SOL    HW226754   1.869   2.511   2.087 -1.7874  0.1566  0.1468
 5099SOL     OW26755   0.461   4.143  15.786  0.4271 -0.4098 -1.2551
 5099SOL    HW126756   0.378   4.171  15.747 -0.1470 -0.3797 -0.0012
 5099SOL    HW226757   0.443   4.050  15.796  1.9194 -0.4526  1.1895
 5100SOL     OW26758   0.118   0.353   1.151  0.5876 -0.4280  0.3495
 5100SOL    HW126759   0.202   0.324   1.118 -0.3877 -2.2639 -0.4906
 5100SOL    HW226760   0.083   0.282   1.205 -1.0340 -0.9251 -1.3204
 5101SOL     OW26761   3.803   3.287   8.379 -0.0212  0.0032 -0.7398
 5101SOL    HW126762   3.777   3.284   8.287  1.4717 -0.0672 -1.1603
 5101SOL    HW226763   3.765   3.210   8.422  0.6995  1.0258  1.7192
 5102SOL     OW26764   2.742   0.747   5.775  0.1480  0.0306  0.4712
 5102SOL    HW126765   2.728   0.714   5.864  0.0596 -1.0489  0.0597
 5102SOL    HW226766   2.651   0.750   5.745  0.6107  1.4562 -0.7959
 5103SOL     OW26767   3.431   2.062   2.334  0.3435 -0.0491  0.1172
 5103SOL    HW126768   3.415   2.063   2.239  1.7233  2.7203 -0.0910
 5103SOL    HW226769   3.457   1.971   2.349 -1.1924 -1.2434 -4.3200
 5104SOL     OW26770   2.081   4.679   7.557 -0.5330 -0.1459  0.5342
 5104SOL    HW126771   2.054   4.673   7.648 -0.9170 -4.1405  0.1764
 5104SOL    HW226772   2.058   0.046   7.528  1.1110 -0.2016 -0.9449
 5105SOL     OW26773   2.573   2.124   7.436 -0.1353  0.1806  0.1625
 5105SOL    HW126774   2.611   2.159   7.517 -2.1604 -0.2464  1.2957
 5105SOL    HW226775   2.627   2.048   7.413 -1.3164 -0.0802 -1.7400
 5106SOL     OW26776   2.921   0.563   2.532 -0.2681  0.3940  0.8320
 5106SOL    HW126777   3.015   0.551   2.531 -0.2292  0.7118  0.0453
 5106SOL    HW226778   2.900   0.619   2.457 -0.8603 -3.2671 -1.7485
 5107SOL     OW26779   0.744   3.341   2.284 -0.1847  0.3913  0.6866
 5107SOL    HW126780   0.782   3.256   2.261 -1.3356 -0.4844  2.0745
 5107SOL    HW226781   0.687   3.355   2.208 -0.6151 -4.0647  0.1962
 5108SOL     OW26782   4.720   1.363  12.422 -0.1038  0.4329  0.1125
 5108SOL    HW126783   0.048   1.281  12.427 -0.3366  0.1963 -1.5677
 5108SOL    HW226784   0.025   1.397  12.508  2.0639  0.5115 -0.5755
 5109SOL     OW26785   4.404   1.151   0.734  0.1897 -0.2030 -0.4353
 5109SOL    HW126786   4.329   1.097   0.709 -2.6885  3.3034  0.6085
 5109SOL    HW226787   4.461   1.088   0.777  1.4762  1.3529  0.1461
 5110SOL     OW26788   4.154   3.595   6.899 -0.2662  0.9951 -0.2881
 5110SOL    HW126789   4.196   3.681   6.898 -0.6774  1.1998  0.2023
 5110SOL    HW226790   4.123   3.596   6.989  0.6715  0.9314  0.0417
 5111SOL     OW26791   0.129   1.563   2.353 -0.3132  0.2231 -0.2645
 5111SOL    HW126792   0.135   1.573   2.258 -0.5255  2.7778  0.0089
 5111SOL    HW226793   0.100   1.471   2.359  0.5990  0.0558  1.4832
 5112SOL     OW26794   2.312   0.830  15.148 -0.4550 -0.4626  0.4134
 5112SOL    HW126795   2.393   0.880  15.153 -1.6629  1.2444  2.8978
 5112SOL    HW226796   2.352   0.745  15.130  2.2152  0.6662  1.0147
 5113SOL     OW26797   2.035   3.877   4.780 -0.2991 -0.3663  0.5247
 5113SOL    HW126798   2.052   3.791   4.819 -2.6244 -1.0686 -0.0255
 5113SOL    HW226799   2.127   3.897   4.762 -0.3442  0.6874  1.4893
 5114SOL     OW26800   3.613   4.575   8.144  0.4524 -0.1737 -0.3199
 5114SOL    HW126801   3.690   4.630   8.160  0.8676 -0.5565 -1.0143
 5114SOL    HW226802   3.651   4.536   8.066 -0.0566 -1.2462 -0.0248
 5115SOL     OW26803   1.065   4.506   3.099  0.2293 -0.3690  0.2676
 5115SOL    HW126804   1.030   4.480   3.014  0.3783 -2.8525  0.9491
 5115SOL    HW226805   0.992   4.554   3.138 -1.4107 -1.9617 -0.8397
 5116SOL     OW26806   0.230   0.030   3.276 -0.2833  0.7571  0.7468
 5116SOL    HW126807   0.260   0.027   3.367  1.6648  3.3167  0.1977
 5116SOL    HW226808   0.295   4.696   3.234 -1.3821  0.3129 -0.3826
 5117SOL     OW26809   2.565   0.070   1.735  0.4791 -0.1429 -0.1680
 5117SOL    HW126810   2.477   0.096   1.707  1.1168 -0.4101 -2.3833
 5117SOL    HW226811   2.566   4.695   1.734 -0.1402 -0.1332 -1.6748
 5118SOL     OW26812   2.131   3.983  15.532 -0.3037  0.7000 -0.0957
 5118SOL    HW126813   2.196   4.022  15.474 -0.6573  0.6554 -0.5265
 5118SOL    HW226814   2.064   3.949  15.473  0.7462 -0.2620 -0.7313
 5119SOL     OW26815   4.291   4.609   0.636 -0.7555 -0.3304 -0.5786
 5119SOL    HW126816   4.298   4.705   0.630 -2.1746 -0.1234  1.1240
 5119SOL    HW226817   4.206   4.594   0.677  0.5479 -1.4655  1.7144
 5120SOL     OW26818   3.080   0.809  11.600  0.1852 -0.0536 -0.0963
 5120SOL    HW126819   3.036   0.732  11.635  0.8199 -0.8802 -1.1089
 5120SOL    HW226820   3.036   0.823  11.516 -1.9815  0.3329  1.1151
 5121SOL     OW26821   1.440   3.972   4.626 -0.5367  0.3757  0.0755
 5121SOL    HW126822   1.439   3.978   4.531  0.9407 -0.7157 -0.0152
 5121SOL    HW226823   1.369   4.033   4.642 -0.9691  0.0906 -0.7640
 5122SOL     OW26824   2.004   2.663   3.321 -0.2013  0.5446 -0.0885
 5122SOL    HW126825   2.050   2.697   3.245  0.9768 -0.9336 -0.0369
 5122SOL    HW226826   1.921   2.711   3.311 -1.8643 -2.0284  1.3711
 5123SOL     OW26827   4.343   3.487   0.820  0.3414 -0.2721 -0.2139
 5123SOL    HW126828   4.307   3.426   0.755 -0.8169 -0.5094  0.6587
 5123SOL    HW226829   4.344   3.431   0.897  0.1810  2.4410  1.7372
 5124SOL     OW26830   4.697   3.291   4.787  0.0941  0.0422 -0.3300
 5124SOL    HW126831   4.660   3.261   4.870  1.1319 -1.6163 -0.4670
 5124SOL    HW226832   4.641   3.237   4.732  0.1265 -1.4889  1.1674
 5125SOL     OW26833   4.526   2.371   1.303  0.0259  0.2727  0.6518
 5125SOL    HW126834   4.451   2.317   1.326  0.2598  0.9135  2.9082
 5125SOL    HW226835   4.577   2.364   1.384  0.6983 -1.1334  0.1002
 5126SOL     OW26836   1.692   1.277   1.064 -0.1776  0.6681  0.2555
 5126SOL    HW126837   1.672   1.227   0.984  1.3731  1.2255 -0.4697
 5126SOL    HW226838   1.751   1.346   1.034 -0.7966  0.4694 -1.4759
 5127SOL     OW26839   1.355   2.925   8.004 -0.2223  0.0661  0.0146
 5127SOL    HW126840   1.318   2.842   8.031 -2.3849  1.1566  0.3509
 5127SOL    HW226841   1.427   2.938   8.066  1.5861  0.4453 -2.1336
 5128SOL     OW26842   3.855   1.795   1.766 -0.2103 -0.1910 -0.5397
 5128SOL    HW126843   3.935   1.748   1.739 -1.6968 -2.0095 -1.7608
 5128SOL    HW226844   3.796   1.732   1.725 -2.0793  1.1545  0.0743
 5129SOL     OW26845   4.428   0.345   2.923  0.4733  0.6592  0.4039
 5129SOL    HW126846   4.495   0.399   2.963  0.5237  2.1381 -1.6623
 5129SOL    HW226847   4.436   0.365   2.830 -2.6401  0.0413 -0.0101
 5130SOL     OW26848   1.374   2.699   4.637  0.2114 -0.4676  0.2201
 5130SOL    HW126849   1.306   2.656   4.585  0.9903 -1.6561  0.2067
 5130SOL    HW226850   1.438   2.629   4.629 -0.6249 -0.8870 -2.9197
 5131SOL     OW26851   4.177   1.192  11.790  0.1093 -0.4175  0.1243
 5131SOL    HW126852   4.131   1.233  11.718  0.1470  1.9384  1.4391
 5131SOL    HW226853   4.133   1.107  11.792 -0.0145 -0.3409  0.6523
 5132SOL     OW26854   2.726   1.151   7.967 -0.2925  0.0810 -0.1302
 5132SOL    HW126855   2.707   1.128   8.058  1.2599  1.2706  0.5099
 5132SOL    HW226856   2.707   1.245   7.959 -2.1294 -0.5600 -3.2316
 5133SOL     OW26857   4.525   4.312   7.568 -0.0925  0.5035  0.0076
 5133SOL    HW126858   4.458   4.342   7.507 -0.5541 -0.9991 -0.2290
 5133SOL    HW226859   4.532   4.389   7.625 -0.6441  1.0774 -0.6974
 5134SOL     OW26860   2.043   3.686   3.587 -0.4506 -0.2557 -0.2546
 5134SOL    HW126861   2.071   3.673   3.496  1.1766  2.9383 -0.2317
 5134SOL    HW226862   2.107   3.638   3.640  1.3947  2.7981  0.3040
 5135SOL     OW26863   0.434   1.100   3.970  0.0971 -0.5298  0.4288
 5135SOL    HW126864   0.399   1.115   3.882  0.7399  0.5656  0.3588
 5135SOL    HW226865   0.506   1.163   3.969 -1.3315  1.1202  0.7693
 5136SOL     OW26866   0.110   0.917   8.397 -0.5016  0.0226  0.0535
 5136SOL    HW126867   0.140   1.004   8.425  0.2034 -0.0246 -0.5708
 5136SOL    HW226868   0.090   0.928   8.304 -3.0547  0.6562  0.6951
 5137SOL     OW26869   3.801   3.856   8.433  0.1553 -0.1332 -0.1615
 5137SOL    HW126870   3.866   3.885   8.498 -0.1406  1.5728 -0.6135
 5137SOL    HW226871   3.722   3.902   8.463  0.6606  0.3337  0.4590
 5138SOL     OW26872   3.022   1.386   4.852 -0.6419  0.2248  0.8356
 5138SOL    HW126873   3.005   1.426   4.766 -0.8107 -1.4771  0.0742
 5138SOL    HW226874   3.104   1.427   4.880  0.3635 -0.6203 -0.8956
 5139SOL     OW26875   3.753   2.594  11.635  0.2174  0.7554 -0.0598
 5139SOL    HW126876   3.718   2.681  11.616 -0.1719  0.1870 -1.8606
 5139SOL    HW226877   3.846   2.614  11.624  0.6326 -1.0409  0.1324
 5140SOL     OW26878   2.012   0.116   5.316  0.3032 -0.1904  0.4264
 5140SOL    HW126879   1.980   0.205   5.301 -0.2998 -0.9955 -2.9859
 5140SOL    HW226880   2.016   0.086   5.225 -0.5141  0.3480  0.2135
 5141SOL     OW26881   2.139   4.642   6.729  0.4733  0.1868  0.2335
 5141SOL    HW126882   2.233   4.658   6.741  0.4496 -0.8903  1.8921
 5141SOL    HW226883   2.116   4.590   6.806 -2.0328  1.6365  0.4666
 5142SOL     OW26884   4.282   1.591   8.312 -0.3050  0.0537 -0.0582
 5142SOL    HW126885   4.290   1.611   8.219 -1.7590 -0.0345 -0.1954
 5142SOL    HW226886   4.236   1.507   8.305  1.0364 -0.7515  0.6379
 5143SOL     OW26887   2.698   0.009  15.981 -0.1855 -0.7247 -0.1368
 5143SOL    HW126888   2.615   0.054  15.969 -0.1231  0.2454  3.1686
 5143SOL    HW226889   2.703   0.024  16.075 -2.5237  1.0345 -0.2924
 5144SOL     OW26890   4.128   3.197  11.034  0.3611  0.0119  0.1388
 5144SOL    HW126891   4.099   3.259  10.967 -0.5385  1.9736  2.3326
 5144SOL    HW226892   4.044   3.177  11.076  0.7398 -0.1835  0.8187
 5145SOL     OW26893   2.644   1.756  13.109  0.8841  0.2279 -0.1442
 5145SOL    HW126894   2.666   1.789  13.022  0.9141 -0.7433 -0.5037
 5145SOL    HW226895   2.707   1.684  13.110  1.8919  1.1291  1.5922
 5146SOL     OW26896   4.193   0.220  12.932  0.1216 -0.1313 -0.8770
 5146SOL    HW126897   4.178   0.244  13.024  3.6431  0.0757 -0.3797
 5146SOL    HW226898   4.241   0.294  12.896  1.0095 -1.6561 -2.7629
 5147SOL     OW26899   3.492   3.553   2.055 -0.4356  0.3531 -0.5571
 5147SOL    HW126900   3.441   3.503   1.992 -0.4543  0.2156 -0.4336
 5147SOL    HW226901   3.503   3.485   2.122  1.0727  0.2864 -0.8745
 5148SOL     OW26902   0.877   3.007   2.368  0.0980  0.0490  0.1026
 5148SOL    HW126903   0.933   3.058   2.427  0.6758 -0.0494 -0.3663
 5148SOL    HW226904   0.863   2.939   2.434  1.4226  1.0403  1.4052
 5149SOL     OW26905   1.240   2.801   1.421  0.4747  0.4662  0.3420
 5149SOL    HW126906   1.181   2.782   1.348  0.4101  1.9687  0.0191
 5149SOL    HW226907   1.303   2.731   1.403 -0.9411 -0.9340  0.8156
 5150SOL     OW26908   4.170   1.390   8.727  0.4492 -0.1433  0.3089
 5150SOL    HW126909   4.156   1.472   8.774 -2.5241 -0.5387  0.0780
 5150SOL    HW226910   4.084   1.383   8.687  0.4845  0.0070  0.2085
 5151SOL     OW26911   2.845   3.920   5.691 -0.7004 -0.3721  0.2330
 5151SOL    HW126912   2.775   3.961   5.741  1.0632  0.6516  1.8557
 5151SOL    HW226913   2.849   3.986   5.621 -2.9147 -0.0311  0.4493
 5152SOL     OW26914   2.685   1.512   1.996  0.8783 -0.3351  0.0731
 5152SOL    HW126915   2.619   1.443   2.000  0.6232 -0.0538  0.6854
 5152SOL    HW226916   2.638   1.595   2.003 -0.5404 -1.2028  0.8067
 5153SOL     OW26917   1.200   0.368   3.285 -0.0896  0.0330  0.0856
 5153SOL    HW126918   1.190   0.400   3.374 -2.8118  0.0330 -0.2350
 5153SOL    HW226919   1.215   0.273   3.292  1.6381  0.3559  0.7795
 5154SOL     OW26920   2.289   3.829  10.972 -0.1267 -0.1502  0.4754
 5154SOL    HW126921   2.362   3.846  10.913 -1.1135  1.4118 -0.2949
 5154SOL    HW226922   2.327   3.757  11.023  0.3012 -1.5209 -1.7886
 5155SOL     OW26923   3.037   4.104   1.909  0.1637  0.5040  0.5394
 5155SOL    HW126924   3.062   4.016   1.881  0.5360  0.3070  1.4952
 5155SOL    HW226925   3.076   4.110   1.997  0.9579  1.8131  0.1017
 5156SOL     OW26926   2.554   1.067   8.830  0.0847 -0.4764 -0.4044
 5156SOL    HW126927   2.548   0.975   8.804 -0.3669 -0.4212 -0.5030
 5156SOL    HW226928   2.639   1.063   8.873 -0.4311 -0.7850  0.5709
 5157SOL     OW26929   2.591   3.018  10.607 -0.1442  0.4247 -0.3104
 5157SOL    HW126930   2.610   3.070  10.685 -0.8085  3.0534 -1.8709
 5157SOL    HW226931   2.649   3.070  10.551  0.4142 -0.1711 -0.2781
 5158SOL     OW26932   3.706   0.241   0.871 -0.1690  0.2278  0.5379
 5158SOL    HW126933   3.635   0.176   0.881 -1.2002  1.2033 -0.4412
 5158SOL    HW226934   3.740   0.206   0.788 -0.8630 -0.3693  0.5000
 5159SOL     OW26935   2.498   2.791   9.123 -0.0026 -0.8719 -0.1795
 5159SOL    HW126936   2.582   2.786   9.168 -0.5111 -1.2765  0.7117
 5159SOL    HW226937   2.499   2.885   9.108 -1.8958 -1.0511 -1.4585
 5160SOL     OW26938   0.085   4.380   1.869 -0.9780  0.2668 -0.3363
 5160SOL    HW126939   0.125   4.460   1.904 -1.1300  0.8892 -1.5846
 5160SOL    HW226940   0.122   4.321   1.934 -1.6784  0.9260  0.6619
 5161SOL     OW26941   1.862   1.736   5.439  0.0010 -0.3948 -0.3079
 5161SOL    HW126942   1.769   1.757   5.438 -0.3685 -1.9889  0.1044
 5161SOL    HW226943   1.878   1.774   5.352  2.3875 -2.0822 -0.5893
 5162SOL     OW26944   1.880   0.479   3.454 -0.1924 -0.6901  0.7312
 5162SOL    HW126945   1.794   0.513   3.478  0.0465  1.1321 -1.0273
 5162SOL    HW226946   1.940   0.522   3.516  1.9034  0.3991 -2.0565
 5163SOL     OW26947   3.781   0.825   4.917  1.0118  0.2734 -0.5025
 5163SOL    HW126948   3.816   0.900   4.964  1.0447 -1.0483  1.5816
 5163SOL    HW226949   3.867   0.792   4.890  0.8009 -0.5221 -0.2073
 5164SOL     OW26950   2.633   4.370   3.306 -0.5123  0.3994 -0.1151
 5164SOL    HW126951   2.697   4.310   3.269 -0.9321  0.6805 -1.3107
 5164SOL    HW226952   2.640   4.438   3.239 -0.8309  0.8560  0.3133
 5165SOL     OW26953   2.992   3.016  14.319 -0.0679 -0.5487  0.1251
 5165SOL    HW126954   2.946   3.093  14.352 -0.1150 -0.1996 -0.7546
 5165SOL    HW226955   2.913   2.962  14.311  1.4026 -2.5624 -0.7672
 5166SOL     OW26956   0.004   1.456   6.110 -0.0124 -0.0005  0.0691
 5166SOL    HW126957   4.719   1.540   6.066 -0.2728  0.5435  1.1324
 5166SOL    HW226958   0.098   1.453   6.132 -0.1202 -1.2878  0.3482
 5167SOL     OW26959   4.062   1.367   8.002 -0.6344 -0.8045  0.9087
 5167SOL    HW126960   4.104   1.308   7.939  0.8761  1.2895 -0.0632
 5167SOL    HW226961   3.979   1.385   7.958  0.0886 -0.4023 -0.3034
 5168SOL     OW26962   1.490   3.199   0.323 -0.7010 -0.5147  0.3704
 5168SOL    HW126963   1.482   3.264   0.253 -0.6758 -0.3491  0.5222
 5168SOL    HW226964   1.561   3.218   0.383 -1.2191  2.7254 -0.0517
 5169SOL     OW26965   4.174   0.645   2.369  0.1274  0.3409 -0.1383
 5169SOL    HW126966   4.202   0.699   2.295  1.5622  0.8375  0.7740
 5169SOL    HW226967   4.089   0.620   2.333  0.0396 -0.6162  0.7313
 5170SOL     OW26968   1.470   3.996   5.312 -0.5493 -0.5014  0.2533
 5170SOL    HW126969   1.438   4.074   5.358  0.5381  0.1362 -0.0815
 5170SOL    HW226970   1.409   3.932   5.349 -0.7930 -0.8202 -0.6999
 5171SOL     OW26971   2.399   1.298   5.338 -0.1704  0.3270 -0.2783
 5171SOL    HW126972   2.455   1.295   5.261 -1.6813  2.5892 -1.4665
 5171SOL    HW226973   2.318   1.286   5.289 -1.4543 -0.6104  2.0563
 5172SOL     OW26974   4.018   2.591   6.261 -0.3619  0.3395 -0.0007
 5172SOL    HW126975   3.970   2.665   6.299 -1.7006  0.2931 -1.5505
 5172SOL    HW226976   3.996   2.524   6.325  0.4436  0.5944  0.5269
 5173SOL     OW26977   2.188   0.986  11.468 -0.3816  0.4296 -0.2327
 5173SOL    HW126978   2.189   1.069  11.515  1.0402 -0.4839  1.3401
 5173SOL    HW226979   2.122   1.000  11.400 -0.0715  0.9167 -0.4379
 5174SOL     OW26980   3.246   2.582   2.623  0.1525 -1.0774 -0.5528
 5174SOL    HW126981   3.158   2.544   2.627 -0.2612 -0.2398 -1.6115
 5174SOL    HW226982   3.293   2.509   2.582  1.5955  0.1066 -0.9826
 5175SOL     OW26983   3.453   4.327   9.940  0.2583  0.3698 -0.4967
 5175SOL    HW126984   3.536   4.366   9.915 -0.4712  2.1125 -0.2476
 5175SOL    HW226985   3.488   4.271  10.009 -2.0657 -3.1327 -2.1693
 5176SOL     OW26986   2.640   4.003   0.790 -0.1672  0.5443  0.2338
 5176SOL    HW126987   2.721   3.963   0.759  0.5935  1.9809  0.3437
 5176SOL    HW226988   2.577   3.942   0.752 -1.2397  0.7506  1.6995
 5177SOL     OW26989   0.722   0.673  17.438 -0.2933 -0.2834  0.4043
 5177SOL    HW126990   0.751   0.763  17.443 -0.9283  0.0596 -1.8146
 5177SOL    HW226991   0.634   0.670  17.399  0.5440 -0.5388 -1.4951
 5178SOL     OW26992   2.996   1.092   6.647 -0.0932  0.0991 -0.0009
 5178SOL    HW126993   3.072   1.111   6.592  1.0453  0.7836  1.8073
 5178SOL    HW226994   2.953   1.177   6.641 -1.5838 -0.8786 -2.9520
 5179SOL     OW26995   3.982   4.292   2.085  0.1590 -0.0954 -0.7355
 5179SOL    HW126996   4.012   4.232   2.017 -2.4748 -1.1038 -1.0148
 5179SOL    HW226997   3.929   4.349   2.030 -1.1529 -0.8996 -0.3126
 5180SOL     OW26998   1.423   4.076   0.431  0.3333 -0.6211  0.6359
 5180SOL    HW126999   1.493   4.140   0.427  0.2859 -0.4396  2.5077
 5180SOL    HW227000   1.364   4.111   0.498  1.1776 -0.7568  1.4514
 5181SOL     OW27001   0.457   1.507   1.282  0.4798  1.2382  0.0799
 5181SOL    HW127002   0.415   1.495   1.367 -0.1361  1.7264 -0.1528
 5181SOL    HW227003   0.387   1.489   1.220  2.6096 -1.9964 -1.3865
 5182SOL     OW27004   2.414   0.242  13.185  0.6788  0.0061 -0.5229
 5182SOL    HW127005   2.500   0.225  13.224  0.7420  2.6652  0.5293
 5182SOL    HW227006   2.387   0.151  13.173  0.4772 -0.0291  0.1790
 5183SOL     OW27007   3.159   3.992  10.661  0.0461 -0.7468 -0.5772
 5183SOL    HW127008   3.075   3.989  10.614 -0.1628  2.3332 -0.3783
 5183SOL    HW227009   3.233   3.990  10.599  1.0397  0.0485  0.5991
 5184SOL     OW27010   0.734   3.664   4.770  0.7850 -0.2515  0.4541
 5184SOL    HW127011   0.641   3.643   4.774  0.9161 -0.9292 -0.0235
 5184SOL    HW227012   0.754   3.713   4.850  2.1889 -0.6639  0.3585
 5185SOL     OW27013   0.503   3.452   2.958 -0.2213 -0.6264 -0.2485
 5185SOL    HW127014   0.599   3.447   2.964 -0.1762 -0.0922 -0.5010
 5185SOL    HW227015   0.489   3.547   2.954 -0.0732 -0.5681  0.7140
 5186SOL     OW27016   2.438   1.452   8.796  0.4662  0.3225  0.2016
 5186SOL    HW127017   2.532   1.433   8.804  0.8773  1.2029 -2.5525
 5186SOL    HW227018   2.402   1.373   8.757 -2.7206  1.7437  0.2218
 5187SOL     OW27019   0.631   2.482  13.405  0.2245  0.1987  0.0263
 5187SOL    HW127020   0.563   2.443  13.350  0.5026 -1.0203  0.5553
 5187SOL    HW227021   0.589   2.550  13.457  0.6564  1.0279 -0.6984
 5188SOL     OW27022   2.723   0.363   5.590  0.1425 -0.5877 -0.1960
 5188SOL    HW127023   2.638   0.354   5.548  0.3961  2.9859 -1.4858
 5188SOL    HW227024   2.723   0.279   5.636 -0.0063  0.2541  1.3183
 5189SOL     OW27025   3.836   0.630  10.622  0.4842  0.0713  0.0920
 5189SOL    HW127026   3.755   0.674  10.598  0.3590 -0.4559 -0.4410
 5189SOL    HW227027   3.854   0.655  10.712 -1.0005  0.7778  0.1877
 5190SOL     OW27028   4.495   4.139  16.768  0.4692 -0.4713 -0.0064
 5190SOL    HW127029   4.404   4.169  16.760  1.1044  1.6309  0.6603
 5190SOL    HW227030   4.487   4.054  16.811  1.5008 -0.1197  0.8731
 5191SOL     OW27031   1.692   2.075   6.021  0.0070 -0.8312 -0.3056
 5191SOL    HW127032   1.597   2.075   6.013 -0.1304 -2.3363  1.1847
 5191SOL    HW227033   1.712   2.073   6.115  2.3606 -0.4060 -0.7820
 5192SOL     OW27034   0.487   3.818  10.020 -0.3680  0.2924  0.2273
 5192SOL    HW127035   0.423   3.870  10.068 -1.5197  0.1696 -1.1902
 5192SOL    HW227036   0.565   3.838  10.073  0.4809  1.2102 -1.3528
 5193SOL     OW27037   0.231   2.876   1.565 -0.3020 -0.6041  0.0844
 5193SOL    HW127038   0.262   2.906   1.480  0.6723  0.0469  0.6770
 5193SOL    HW227039   0.196   2.957   1.602  1.9656  0.7687 -0.7982
 5194SOL     OW27040   2.058   1.591  10.073  0.0564 -0.0824  0.3518
 5194SOL    HW127041   2.078   1.499  10.092 -2.8831 -0.4433  1.7619
 5194SOL    HW227042   2.138   1.641  10.090 -0.1174 -0.3643  2.0643
 5195SOL     OW27043   3.839   2.304   3.955 -0.0056 -0.1360  0.2926
 5195SOL    HW127044   3.840   2.399   3.951  1.2292 -0.1353  0.5448
 5195SOL    HW227045   3.933   2.293   3.940 -0.3306 -1.3227 -0.8926
 5196SOL     OW27046   1.035   2.005   8.661 -0.0725  0.4424 -0.6357
 5196SOL    HW127047   0.986   2.087   8.667  1.5994  1.4033 -0.0956
 5196SOL    HW227048   0.971   1.936   8.639  2.5027 -1.6662 -1.5655
 5197SOL     OW27049   3.946   3.509   1.310 -0.5211 -0.3990 -0.3975
 5197SOL    HW127050   4.025   3.531   1.261  0.9487 -1.5021  1.4844
 5197SOL    HW227051   3.894   3.588   1.294  2.6171  1.6377 -0.4615
 5198SOL     OW27052   0.894   1.411   8.160 -0.0470 -0.2472 -0.3521
 5198SOL    HW127053   0.923   1.455   8.080 -0.6030 -0.6452 -0.7772
 5198SOL    HW227054   0.811   1.377   8.125 -0.4469  0.9808 -0.5873
 5199SOL     OW27055   4.139   0.374   0.971  0.6746  0.5302  0.2327
 5199SOL    HW127056   4.118   0.425   0.892  2.1843 -0.6035 -0.9063
 5199SOL    HW227057   4.144   0.285   0.937 -0.3744  1.0319 -1.2426
 5200SOL     OW27058   2.934   2.817   7.036  0.2005  0.1887  0.1384
 5200SOL    HW127059   2.990   2.894   7.024  1.4342 -0.3571  2.4285
 5200SOL    HW227060   2.884   2.828   6.955  1.7257 -2.7338 -1.2060
 5201SOL     OW27061   1.361   2.571   8.871  0.1545  0.5267  0.1024
 5201SOL    HW127062   1.277   2.617   8.875 -0.9253 -1.3651 -1.1592
 5201SOL    HW227063   1.411   2.637   8.920  1.5691 -2.2743  2.4331
 5202SOL     OW27064   3.610   1.810  16.999  0.0633  0.4793  0.0345
 5202SOL    HW127065   3.583   1.847  16.915 -1.4391 -1.0335 -0.1505
 5202SOL    HW227066   3.547   1.853  17.057  0.2986 -0.4438  1.0001
 5203SOL     OW27067   2.766   3.225   4.946  0.3140 -0.0713 -0.2967
 5203SOL    HW127068   2.790   3.282   4.872  1.6481 -0.7191 -0.3721
 5203SOL    HW227069   2.807   3.274   5.018  1.4295  0.4943 -1.3131
 5204SOL     OW27070   0.296   1.585   2.098  0.1441  0.4371  0.1643
 5204SOL    HW127071   0.227   1.598   2.034 -0.2935  2.2418  1.0134
 5204SOL    HW227072   0.301   1.489   2.101  2.2697  0.5745  1.4115
 5205SOL     OW27073   2.025   2.830   0.263  0.4917 -0.2155  0.0317
 5205SOL    HW127074   2.106   2.857   0.307  1.0199 -1.4057 -0.2067
 5205SOL    HW227075   1.970   2.906   0.278  0.5734  0.3954 -2.7796
 5206SOL     OW27076   4.069   3.862  16.920  0.6114  0.5888  0.6706
 5206SOL    HW127077   4.118   3.923  16.866 -0.4610  2.1124  1.4152
 5206SOL    HW227078   4.141   3.803  16.942  1.2298  0.9980 -0.2421
 5207SOL     OW27079   3.200   0.195   4.845  0.1467  0.0194  0.5721
 5207SOL    HW127080   3.158   0.112   4.822  1.8015  0.2552 -3.2820
 5207SOL    HW227081   3.132   0.234   4.900 -0.4744  0.8707 -0.8284
 5208SOL     OW27082   3.999   3.528  11.872  0.8993  0.1833 -0.4195
 5208SOL    HW127083   4.023   3.618  11.848  0.2404  0.6888  0.7869
 5208SOL    HW227084   4.078   3.481  11.844  0.6856 -0.3075 -0.1920
 5209SOL     OW27085   1.741   0.536  16.856  0.1751  0.0667  0.1879
 5209SOL    HW127086   1.670   0.552  16.795  0.2041 -0.8463 -0.0938
 5209SOL    HW227087   1.815   0.517  16.798  0.3240 -0.6742  0.6176
 5210SOL     OW27088   3.169   1.494   2.921  0.3005 -0.1917 -0.5008
 5210SOL    HW127089   3.203   1.451   3.000 -1.6954  0.5411  0.7654
 5210SOL    HW227090   3.078   1.477   2.946  1.0810 -1.7006  1.3572
 5211SOL     OW27091   4.185   3.556  16.027 -0.0563 -0.1007 -0.5627
 5211SOL    HW127092   4.188   3.478  15.972 -3.3238 -0.2921 -0.4574
 5211SOL    HW227093   4.273   3.567  16.061 -0.2504  2.2982 -0.8175
 5212SOL     OW27094   1.572   3.326  17.323  0.2766  0.3476 -0.3952
 5212SOL    HW127095   1.572   3.281  17.407 -1.0378 -0.8925 -1.0657
 5212SOL    HW227096   1.535   3.409  17.353 -0.9375  0.5627 -2.4681
 5213SOL     OW27097   4.301   4.418   3.733 -0.8677  0.4738 -0.0503
 5213SOL    HW127098   4.272   4.479   3.800 -3.5286 -0.9755  0.1138
 5213SOL    HW227099   4.218   4.395   3.691 -0.3147  2.5376 -2.2552
 5214SOL     OW27100   1.343   1.281   9.497  0.0496  0.3390  0.1973
 5214SOL    HW127101   1.311   1.340   9.566 -1.7452 -0.1221 -0.2390
 5214SOL    HW227102   1.313   1.325   9.418  2.4855  1.5078 -0.0807
 5215SOL     OW27103   3.235   2.376  15.875 -0.3415 -0.1125  0.4795
 5215SOL    HW127104   3.298   2.310  15.906  0.2988  1.1998  1.9752
 5215SOL    HW227105   3.195   2.401  15.958  2.5257  0.1491  1.7939
 5216SOL     OW27106   1.249   4.474   5.983 -0.0356 -0.1481  0.4919
 5216SOL    HW127107   1.203   4.404   5.936 -0.5918  0.3565  0.2949
 5216SOL    HW227108   1.176   4.508   6.034  0.2854  1.7441 -0.3061
 5217SOL     OW27109   1.137   2.440   5.930  0.6035  0.0411  0.5490
 5217SOL    HW127110   1.063   2.406   5.880  2.0000 -1.4945 -0.4851
 5217SOL    HW227111   1.189   2.409   5.855  1.4940 -0.0136  1.1892
 5218SOL     OW27112   4.717   0.909   7.859 -0.7121  0.5781 -0.0090
 5218SOL    HW127113   4.632   0.942   7.829 -0.8196 -0.0828 -0.4426
 5218SOL    HW227114   0.042   0.918   7.775  1.2464  1.8159  1.1909
 5219SOL     OW27115   0.325   4.202   1.137  0.1161  0.1643  1.2389
 5219SOL    HW127116   0.324   4.117   1.095  2.1029  0.9581 -0.3746
 5219SOL    HW227117   0.234   4.215   1.166 -0.8661  0.4244 -2.0191
 5220SOL     OW27118   4.642   0.480   2.988  0.9034  0.5334  0.3840
 5220SOL    HW127119   4.661   0.563   3.031  0.7337  0.3731  0.7651
 5220SOL    HW227120   4.675   0.493   2.899  1.1814  2.3473  0.7524
 5221SOL     OW27121   0.462   0.890   1.968  0.1088  0.1359 -0.0688
 5221SOL    HW127122   0.530   0.878   2.035 -1.0916 -0.5162  1.0183
 5221SOL    HW227123   0.496   0.956   1.907 -4.1304  2.6746  0.3048
 5222SOL     OW27124   0.183   1.986   7.336 -0.0912  0.3012 -0.2196
 5222SOL    HW127125   0.169   2.079   7.352 -0.6064  0.2921 -0.6107
 5222SOL    HW227126   0.221   1.963   7.421  1.3374 -1.4753 -1.3318
 5223SOL     OW27127   3.478   4.294   4.048 -0.4058 -0.0247 -0.6298
 5223SOL    HW127128   3.574   4.291   4.054 -0.5154 -3.9808 -1.0685
 5223SOL    HW227129   3.469   4.385   4.079  0.4371 -0.1140 -0.1071
 5224SOL     OW27130   4.687   4.436   5.716 -0.1097  0.0518 -0.6920
 5224SOL    HW127131   0.037   4.373   5.729  0.4771  0.7046 -0.7164
 5224SOL    HW227132   0.008   4.519   5.740  0.0102 -0.0977 -0.3894
 5225SOL     OW27133   3.284   2.201   6.843  0.2487 -0.1368  0.3082
 5225SOL    HW127134   3.194   2.234   6.843  0.8236  1.4537  1.3172
 5225SOL    HW227135   3.310   2.176   6.755 -0.2365  0.8340 -0.1087
 5226SOL     OW27136   0.217   1.634   3.174 -0.1661  0.0156  0.2361
 5226SOL    HW127137   0.305   1.595   3.176 -0.2705 -0.3506 -1.9469
 5226SOL    HW227138   0.187   1.574   3.106 -0.4682  0.5629 -0.1099
 5227SOL     OW27139   4.026   2.603   7.784 -0.4297 -0.2518 -1.1620
 5227SOL    HW127140   3.970   2.533   7.749 -0.4886 -0.8532  0.1447
 5227SOL    HW227141   4.046   2.577   7.873  1.5791 -0.6215 -1.7370
 5228SOL     OW27142   2.096   1.565   3.235  0.6712  0.2383  0.0933
 5228SOL    HW127143   2.093   1.592   3.327 -1.9430  1.3314 -0.3157
 5228SOL    HW227144   2.127   1.475   3.247 -1.3404 -0.2258  1.7698
 5229SOL     OW27145   0.401   2.236  13.939  0.0986  0.2647 -0.2630
 5229SOL    HW127146   0.357   2.173  13.995 -0.8415  2.1815  1.1477
 5229SOL    HW227147   0.494   2.219  13.957  0.1389  2.3183  1.5169
 5230SOL     OW27148   0.219   4.310  13.519  0.0653 -0.4636 -0.1069
 5230SOL    HW127149   0.215   4.404  13.539  2.5042 -0.2431 -0.6273
 5230SOL    HW227150   0.288   4.328  13.455 -1.6118 -0.4757 -1.9120
 5231SOL     OW27151   2.959   1.670  14.730  0.5022  0.2097 -0.0631
 5231SOL    HW127152   2.888   1.616  14.763  1.8033 -1.0032  0.7360
 5231SOL    HW227153   3.027   1.607  14.752 -0.5639  0.0572  2.7160
 5232SOL     OW27154   1.720   2.936   3.627  0.3336  0.1317  0.0291
 5232SOL    HW127155   1.715   2.852   3.673  0.1230  1.3406  2.1743
 5232SOL    HW227156   1.812   2.939   3.603  0.2687 -0.0988 -0.2491
 5233SOL     OW27157   1.772   4.663  13.858  0.0296  0.4365 -0.2401
 5233SOL    HW127158   1.863   4.633  13.856 -0.0122  0.2495  0.9390
 5233SOL    HW227159   1.784   0.023  13.808  1.4789 -0.3309 -1.1454
 5234SOL     OW27160   2.789   2.422   7.373  0.2065 -0.2220  0.8275
 5234SOL    HW127161   2.764   2.384   7.457  2.0664  0.5580  1.7256
 5234SOL    HW227162   2.858   2.487   7.384  0.0632  0.2306 -0.9678
 5235SOL     OW27163   3.359   4.378   1.608  0.0056 -0.4104 -0.1394
 5235SOL    HW127164   3.304   4.357   1.684  1.2170  0.2765  0.9253
 5235SOL    HW227165   3.397   4.291   1.595 -1.8196 -1.0691 -1.0005
 5236SOL     OW27166   4.340   1.536   5.602 -0.7428 -0.2695  0.3834
 5236SOL    HW127167   4.252   1.525   5.638 -0.9231  0.7476  0.2470
 5236SOL    HW227168   4.371   1.625   5.587  0.5316 -0.7908 -0.0128
 5237SOL     OW27169   2.965   3.111   9.830 -0.5678 -0.0852 -0.2405
 5237SOL    HW127170   2.955   3.205   9.838  0.7919  0.2200 -2.0318
 5237SOL    HW227171   2.981   3.078   9.919  0.2133  0.8442 -0.0357
 5238SOL     OW27172   0.367   2.073   6.188  0.2204 -0.4947  0.6658
 5238SOL    HW127173   0.379   2.002   6.251 -1.3798 -0.8155  0.5934
 5238SOL    HW227174   0.300   2.039   6.130 -0.3944  1.0052  0.4976
 5239SOL     OW27175   0.515   3.561   0.008  0.3144  0.5013 -0.5234
 5239SOL    HW127176   0.464   3.560   0.089  0.2834 -2.9264 -0.5736
 5239SOL    HW227177   0.459   3.621  17.645 -0.6251  0.8201  0.9156
 5240SOL     OW27178   4.157   0.684   6.426  0.1984  0.1735 -0.0031
 5240SOL    HW127179   4.233   0.653   6.475  1.4571  2.0867 -0.7563
 5240SOL    HW227180   4.175   0.777   6.430  0.5664  0.1590 -1.1813
 5241SOL     OW27181   2.596   1.479   3.609  0.3338  0.0658  0.1771
 5241SOL    HW127182   2.598   1.424   3.688  0.0185  0.1112  0.2145
 5241SOL    HW227183   2.505   1.464   3.582  0.0600 -1.7427  2.1030
 5242SOL     OW27184   2.374   3.855   5.837  0.2121  0.0841 -0.0019
 5242SOL    HW127185   2.317   3.820   5.768 -0.3761  1.6306 -0.3062
 5242SOL    HW227186   2.460   3.826   5.807  0.4559  0.1570  0.6414
 5243SOL     OW27187   3.588   2.769   7.106  0.1691 -0.3634 -0.3567
 5243SOL    HW127188   3.495   2.780   7.126  0.1162 -0.7629 -0.3898
 5243SOL    HW227189   3.579   2.757   7.012  1.8679  2.5701 -0.8878
 5244SOL     OW27190   0.906   2.744   4.844 -0.4818 -0.3023  0.1176
 5244SOL    HW127191   0.911   2.808   4.915  1.8631  1.8113 -1.9262
 5244SOL    HW227192   0.819   2.765   4.810 -0.2857  2.6261  1.4107
 5245SOL     OW27193   0.123   1.954   6.440 -0.0388  0.3861 -0.4357
 5245SOL    HW127194   0.199   1.900   6.419 -1.8489 -1.8267 -1.2919
 5245SOL    HW227195   0.172   2.020   6.490  1.3414 -0.9786  0.0175
 5246SOL     OW27196   4.628   0.409   0.476 -0.6776  0.1834  0.2549
 5246SOL    HW127197   0.002   0.396   0.468 -0.6501  0.3618  0.2743
 5246SOL    HW227198   4.628   0.455   0.560  1.9747  1.9882 -0.7317
 5247SOL     OW27199   3.873   0.188  11.328  0.3032  0.2999  0.2417
 5247SOL    HW127200   3.945   0.176  11.266 -0.0398  1.0361 -0.3011
 5247SOL    HW227201   3.891   0.276  11.362  2.4988 -0.3981  0.8696
 5248SOL     OW27202   2.156   3.482   0.986  0.1714  0.0761  0.2314
 5248SOL    HW127203   2.203   3.467   1.069  0.8635  0.8264 -0.0267
 5248SOL    HW227204   2.073   3.439   1.008  0.4487 -0.0862  0.9776
 5249SOL     OW27205   0.694   0.682   0.031 -0.7595  0.1518  0.1377
 5249SOL    HW127206   0.733   0.678  17.630  1.6937 -0.0061  1.2421
 5249SOL    HW227207   0.691   0.591   0.062  0.9340  0.8838  2.4407
 5250SOL     OW27208   1.670   4.358   3.906  0.7345 -0.0779  0.0398
 5250SOL    HW127209   1.630   4.444   3.891  1.9436  0.6305  0.9145
 5250SOL    HW227210   1.727   4.374   3.981 -1.6687  0.1316  1.8286
 5251SOL     OW27211   3.389   0.325   3.614 -0.1403  0.0740  0.0358
 5251SOL    HW127212   3.427   0.275   3.687  1.1166  1.2438  0.1912
 5251SOL    HW227213   3.438   0.300   3.535  0.8905  1.7247  0.1582
 5252SOL     OW27214   2.285   3.018   6.896 -0.0697  0.2773 -0.8255
 5252SOL    HW127215   2.265   2.932   6.860  0.3900 -0.5149  0.8329
 5252SOL    HW227216   2.233   3.078   6.841  2.8876  2.6209 -1.1061
 5253SOL     OW27217   1.624   2.337   7.299 -0.3282  0.3392  0.2713
 5253SOL    HW127218   1.713   2.351   7.268  0.3422  1.1839  2.5728
 5253SOL    HW227219   1.572   2.371   7.226  0.1904  1.8516  0.6065
 5254SOL     OW27220   2.068   0.668  11.500 -0.3245  0.2728 -0.3560
 5254SOL    HW127221   2.086   0.761  11.488 -0.0199  0.7010  3.2034
 5254SOL    HW227222   2.009   0.666  11.576 -0.7472  0.5107 -0.6804
 5255SOL     OW27223   4.382   1.857   0.287 -0.4191 -0.2003  0.5758
 5255SOL    HW127224   4.435   1.827   0.213  0.2881  0.2228  0.9011
 5255SOL    HW227225   4.437   1.841   0.364 -0.5324 -0.5355  0.5874
 5256SOL     OW27226   0.623   3.512  10.850  0.8077  0.0700 -0.1130
 5256SOL    HW127227   0.701   3.549  10.891  0.9061  0.5913 -0.7740
 5256SOL    HW227228   0.654   3.426  10.821 -1.8024 -0.0471 -2.6046
 5257SOL     OW27229   3.944   0.442  10.937 -0.7464 -0.3792 -0.2980
 5257SOL    HW127230   3.968   0.425  10.846 -2.1608 -2.2938 -0.2992
 5257SOL    HW227231   3.859   0.482  10.920  1.0311  3.5078 -0.1371
 5258SOL     OW27232   4.664   0.046   4.061  0.4729  0.1780  0.2052
 5258SOL    HW127233   4.690   0.014   3.975  0.6907 -0.9644  0.6858
 5258SOL    HW227234   4.685   4.693   4.118  1.1195  0.5994  0.5234
 5259SOL     OW27235   0.768   1.466   2.082 -0.8439 -0.3373 -0.0058
 5259SOL    HW127236   0.742   1.468   1.989  0.9012 -1.5298 -0.5286
 5259SOL    HW227237   0.848   1.413   2.072 -0.5126  0.4108 -1.3891
 5260SOL     OW27238   1.503   0.590   4.150 -0.5677  0.1407  0.0267
 5260SOL    HW127239   1.538   0.616   4.236 -1.7520 -0.0566  0.5598
 5260SOL    HW227240   1.517   0.496   4.162 -0.2544  0.0470 -1.0321
 5261SOL     OW27241   1.751   1.515   4.089  0.0513  0.2715  0.2272
 5261SOL    HW127242   1.685   1.446   4.089 -1.0587  1.3386  0.3482
 5261SOL    HW227243   1.721   1.575   4.021 -1.3914 -1.2882 -0.5218
 5262SOL     OW27244   3.088   1.851   5.188  0.3281  0.2637 -0.5534
 5262SOL    HW127245   3.094   1.946   5.181 -2.8279  0.4620 -0.7531
 5262SOL    HW227246   3.158   1.834   5.251 -1.5123 -3.3213  0.5190
 5263SOL     OW27247   1.037   2.238  16.850 -0.3460  0.4481  0.3032
 5263SOL    HW127248   1.116   2.215  16.899  0.7768  1.0010 -1.2472
 5263SOL    HW227249   0.995   2.152  16.844 -0.1217  0.2289  2.1312
 5264SOL     OW27250   3.158   0.096   5.991 -0.0651  0.2918 -0.5722
 5264SOL    HW127251   3.217   0.165   6.022 -1.2527  2.0130 -2.1157
 5264SOL    HW227252   3.125   0.136   5.911 -0.7561 -0.6533 -0.7639
 5265SOL     OW27253   4.512   1.034   9.423  0.6353  0.3488  0.2266
 5265SOL    HW127254   4.542   1.110   9.373 -0.9465 -0.3645 -1.8257
 5265SOL    HW227255   4.546   0.958   9.375 -0.2598 -1.0798  1.8457
 5266SOL     OW27256   2.851   3.926   8.541  0.1899  0.0955  0.0430
 5266SOL    HW127257   2.792   3.856   8.516  1.3393 -0.6250 -0.6500
 5266SOL    HW227258   2.838   3.995   8.476  0.5937  0.1178 -0.0167
 5267SOL     OW27259   1.207   4.110   4.671  0.3142  0.1803 -0.1805
 5267SOL    HW127260   1.213   4.184   4.731  0.0452 -0.2489  0.3714
 5267SOL    HW227261   1.137   4.056   4.709 -3.1825  2.3336 -3.5912
 5268SOL     OW27262   0.702   4.503   1.999  0.5914 -0.3008 -0.4486
 5268SOL    HW127263   0.649   4.554   2.059  0.7716  0.0307 -0.5725
 5268SOL    HW227264   0.659   4.418   1.999  0.9980 -0.5135 -1.5329
 5269SOL     OW27265   0.806   0.430   6.183  0.8073 -0.4175 -0.1891
 5269SOL    HW127266   0.808   0.495   6.253 -3.1760 -1.7355  1.1568
 5269SOL    HW227267   0.762   0.361   6.233  2.5366 -0.1049  1.7864
 5270SOL     OW27268   0.821   4.397  16.706 -0.1353 -0.1863  0.3460
 5270SOL    HW127269   0.884   4.464  16.680  1.4068 -1.4726  0.8135
 5270SOL    HW227270   0.865   4.313  16.695 -2.6786 -1.2461 -1.7161
 5271SOL     OW27271   4.553   1.085  16.850 -0.4366 -0.0066  0.0611
 5271SOL    HW127272   4.518   1.147  16.915 -0.9062 -0.8786  0.6382
 5271SOL    HW227273   4.557   1.145  16.776 -0.7628  0.0968  0.1240
 5272SOL     OW27274   4.426   1.037  14.738 -0.1054  0.3645 -0.0510
 5272SOL    HW127275   4.342   1.014  14.777  0.0942  2.4358  1.5917
 5272SOL    HW227276   4.488   0.982  14.787  0.8698  0.7460 -0.8544
 5273SOL     OW27277   0.056   3.128  15.728 -0.1649 -0.3551  0.0161
 5273SOL    HW127278   0.055   3.177  15.811 -1.3146 -0.2042 -0.0855
 5273SOL    HW227279   0.028   3.038  15.746 -0.3488 -0.4705 -0.8773
 5274SOL     OW27280   1.482   1.748  17.295 -0.0545 -0.4114 -0.3707
 5274SOL    HW127281   1.403   1.768  17.246 -0.2813 -3.3090 -1.2064
 5274SOL    HW227282   1.544   1.804  17.247  0.0335  0.1308  0.3784
 5275SOL     OW27283   4.330   1.562   3.404 -0.0340 -0.0649 -0.5894
 5275SOL    HW127284   4.356   1.471   3.392 -0.0312 -0.1835  0.3870
 5275SOL    HW227285   4.237   1.555   3.427  0.4028  0.2629  1.2046
 5276SOL     OW27286   1.835   1.143  10.129 -0.7119 -0.1243 -0.1290
 5276SOL    HW127287   1.826   1.048  10.138  0.0687  0.1614  3.8991
 5276SOL    HW227288   1.781   1.168  10.054 -0.0573  0.5482 -0.3739
 5277SOL     OW27289   3.377   2.998   8.450  0.2039  0.2166 -0.0704
 5277SOL    HW127290   3.315   2.979   8.378  3.3427 -5.4400 -1.2814
 5277SOL    HW227291   3.347   3.079   8.491  0.3494  1.0685 -1.6214
 5278SOL     OW27292   0.157   3.282   2.746 -0.4810 -0.2862  0.3491
 5278SOL    HW127293   0.122   3.367   2.773 -0.7930 -0.1756 -0.4042
 5278SOL    HW227294   0.248   3.302   2.723 -0.0947 -0.1838  1.9635
 5279SOL     OW27295   3.429   4.402   4.441 -0.3437  0.5381 -0.5337
 5279SOL    HW127296   3.384   4.321   4.466  1.7339 -0.2932  0.4478
 5279SOL    HW227297   3.518   4.374   4.460 -1.0584 -0.4802  1.3925
 5280SOL     OW27298   4.250   0.045   3.632 -0.1880 -0.7281 -0.1037
 5280SOL    HW127299   4.222   0.132   3.603 -1.0567  0.1401  3.3411
 5280SOL    HW227300   4.244   4.719   3.549  0.5731 -0.2788 -0.4065
 5281SOL     OW27301   2.209   1.219   4.853 -0.4347 -0.0451 -0.0983
 5281SOL    HW127302   2.242   1.187   4.769  0.4488  0.7567 -0.0561
 5281SOL    HW227303   2.153   1.292   4.827 -0.8433 -0.1247  0.5434
 5282SOL     OW27304   0.825   1.873   8.128  0.1403  0.4907 -0.0043
 5282SOL    HW127305   0.813   1.843   8.219  1.2351 -0.0777 -0.0462
 5282SOL    HW227306   0.916   1.849   8.112 -0.2666 -0.5339 -0.7937
 5283SOL     OW27307   1.357   0.825   3.196  0.7340  0.3381  0.0270
 5283SOL    HW127308   1.443   0.825   3.239  0.2780  0.0707  0.9487
 5283SOL    HW227309   1.346   0.920   3.184  1.5274  0.8279  3.2185
 5284SOL     OW27310   1.901   2.789  14.979 -0.0000  0.2228 -0.2218
 5284SOL    HW127311   1.818   2.837  14.983  1.7559  3.3518 -1.3777
 5284SOL    HW227312   1.867   2.711  14.935 -0.7926  0.8113 -0.6528
 5285SOL     OW27313   1.600   0.524  13.941  0.2415 -0.1722 -0.1161
 5285SOL    HW127314   1.640   0.562  13.863 -0.4413  1.0047  0.0938
 5285SOL    HW227315   1.508   0.550  13.939  0.9776  2.4710  0.3898
 5286SOL     OW27316   1.009   1.519   6.045 -0.2029  0.0776  0.2255
 5286SOL    HW127317   0.987   1.467   5.968 -2.6309  2.3420 -0.6116
 5286SOL    HW227318   0.961   1.463   6.107 -0.2259 -0.0981  0.0486
 5287SOL     OW27319   4.220   3.272  16.721 -0.1014  0.1535  0.0946
 5287SOL    HW127320   4.174   3.300  16.642 -0.6355 -0.3796  0.2197
 5287SOL    HW227321   4.207   3.178  16.709 -0.2667  0.1491  0.3004
 5288SOL     OW27322   2.700   4.344   4.886  0.6226 -0.2213 -0.1998
 5288SOL    HW127323   2.619   4.338   4.938  0.0915 -0.7284 -1.0940
 5288SOL    HW227324   2.666   4.327   4.798  0.3273  0.2446 -0.1797
 5289SOL     OW27325   0.307   2.913  12.243  0.1727  0.1838  0.1878
 5289SOL    HW127326   0.342   3.000  12.222 -0.9356  0.7127  0.4783
 5289SOL    HW227327   0.214   2.937  12.243 -0.2902 -1.6235  0.5589
 5290SOL     OW27328   3.134   1.147   8.439 -0.1937 -0.7118  0.2245
 5290SOL    HW127329   3.080   1.091   8.495  1.2213 -0.7551  1.5403
 5290SOL    HW227330   3.106   1.131   8.349 -1.3000  3.7486 -0.2185
 5291SOL     OW27331   4.481   2.392  17.134  0.5751  0.6593  0.3687
 5291SOL    HW127332   4.566   2.431  17.115  0.2662  0.6038 -1.1487
 5291SOL    HW227333   4.504   2.340  17.211 -2.4888 -0.7294  0.3308
 5292SOL     OW27334   1.015   1.706   6.345 -0.0474  0.2787 -0.0838
 5292SOL    HW127335   0.990   1.761   6.419 -0.4445 -0.6186  0.4551
 5292SOL    HW227336   0.974   1.622   6.368  1.6380  0.3725  3.1670
 5293SOL     OW27337   3.411   2.598   7.746  0.5385  1.0221 -0.5614
 5293SOL    HW127338   3.325   2.570   7.776 -0.5196  2.8464 -1.9461
 5293SOL    HW227339   3.416   2.579   7.653 -0.9180 -0.8954 -0.2527
 5294SOL     OW27340   1.585   3.511  12.910  0.7561 -0.1993 -0.4985
 5294SOL    HW127341   1.520   3.582  12.912 -1.3972 -2.1439 -0.9621
 5294SOL    HW227342   1.612   3.532  12.999  0.3557 -1.0775 -0.1737
 5295SOL     OW27343   2.761   0.832  17.223 -0.2478  0.0843  0.0402
 5295SOL    HW127344   2.850   0.857  17.249 -0.2877 -0.3111  0.5451
 5295SOL    HW227345   2.766   0.757  17.164 -2.6928  0.7178 -0.9779
 5296SOL     OW27346   3.385   1.103  12.860  0.0662 -0.5661 -0.2337
 5296SOL    HW127347   3.320   1.101  12.930 -0.0315 -1.3465 -0.3537
 5296SOL    HW227348   3.326   1.109  12.785  0.5974 -2.4371 -0.7874
 5297SOL     OW27349   3.614   1.964   7.852 -0.2213 -0.5890 -0.4873
 5297SOL    HW127350   3.621   2.052   7.815  0.8388 -0.6355 -0.3901
 5297SOL    HW227351   3.588   1.986   7.942  1.6814 -0.2068 -0.0381
 5298SOL     OW27352   1.906   2.951  16.178  0.3349  0.3904  0.4021
 5298SOL    HW127353   1.953   2.956  16.095 -1.4019 -1.4519 -0.6787
 5298SOL    HW227354   1.933   3.037  16.212 -0.0768  1.0851 -1.0617
 5299SOL     OW27355   0.835   2.439   4.485 -0.4500 -0.2327 -0.0641
 5299SOL    HW127356   0.773   2.512   4.479 -1.1998 -0.8955 -0.4306
 5299SOL    HW227357   0.841   2.411   4.394 -0.1417  0.9483 -0.4039
 5300SOL     OW27358   4.215   1.167   4.722 -0.4435 -0.4269 -0.1151
 5300SOL    HW127359   4.195   1.128   4.637 -1.6114  1.3107 -0.6377
 5300SOL    HW227360   4.239   1.087   4.768  0.2401  0.6319  1.3693
 5301SOL     OW27361   0.075   0.516   8.656  0.6680  0.0786 -0.2622
 5301SOL    HW127362   0.170   0.502   8.655  0.6957  0.1615  1.6816
 5301SOL    HW227363   0.075   0.612   8.659  0.5827  0.0868 -0.5327
 5302SOL     OW27364   3.237   2.773   3.403  0.3680  0.1006 -0.0308
 5302SOL    HW127365   3.169   2.706   3.393  0.6194 -0.0311 -0.8174
 5302SOL    HW227366   3.280   2.731   3.478 -0.7671 -0.1426  0.4788
 5303SOL     OW27367   0.707   1.236   3.596 -0.2282  0.0468  0.2099
 5303SOL    HW127368   0.632   1.178   3.584 -2.2691  2.5961  0.6587
 5303SOL    HW227369   0.689   1.304   3.531 -1.1903 -1.5629 -1.2078
 5304SOL     OW27370   2.220   3.870  17.190  0.0112 -0.0580 -0.0085
 5304SOL    HW127371   2.146   3.864  17.130 -1.9025  0.9041  2.2165
 5304SOL    HW227372   2.176   3.858  17.275 -1.7875 -1.1033 -1.0791
 5305SOL     OW27373   0.806   2.863  16.751  0.9030  0.4143 -0.2433
 5305SOL    HW127374   0.830   2.853  16.843 -0.9434 -0.7102  0.1082
 5305SOL    HW227375   0.830   2.777  16.717 -0.4400  0.3839 -1.0928
 5306SOL     OW27376   4.215   3.522   8.639  0.3536 -0.3388 -0.3603
 5306SOL    HW127377   4.139   3.580   8.645 -1.4786 -2.9905  2.0121
 5306SOL    HW227378   4.182   3.457   8.576 -2.7417 -0.1547  1.0665
 5307SOL     OW27379   2.407   1.093   3.681  0.3362  0.0594  0.0741
 5307SOL    HW127380   2.459   1.172   3.693 -0.0317  0.5555 -1.6031
 5307SOL    HW227381   2.474   1.031   3.711 -0.0960 -0.5869 -0.2788
 5308SOL     OW27382   0.974   1.768   4.441 -0.3439  0.4762 -0.3119
 5308SOL    HW127383   0.905   1.834   4.431 -1.1554 -0.3224 -0.0037
 5308SOL    HW227384   1.052   1.823   4.444  0.7208 -1.1809  2.9608
 5309SOL     OW27385   4.520   4.714  12.479  0.1998 -0.2255 -0.4137
 5309SOL    HW127386   4.577   0.069  12.467  2.1507 -1.4101  1.3425
 5309SOL    HW227387   4.563   4.657  12.415  0.3445 -1.6651  0.9629
 5310SOL     OW27388   3.706   4.672   2.877 -0.0088 -0.5615  0.2365
 5310SOL    HW127389   3.748   0.007   2.942  2.1774 -0.0645 -1.6033
 5310SOL    HW227390   3.696   0.016   2.807 -1.0789  0.8952  1.7399
 5311SOL     OW27391   3.084   1.672   8.774 -0.1050  0.1582  0.4221
 5311SOL    HW127392   3.070   1.751   8.827 -0.2675 -0.7691  1.7544
 5311SOL    HW227393   3.142   1.702   8.704 -2.7497  0.8360 -1.4692
 5312SOL     OW27394   4.322   0.451  13.660  0.2947 -0.3572 -0.1165
 5312SOL    HW127395   4.273   0.369  13.652 -0.1689  0.0691 -1.7543
 5312SOL    HW227396   4.285   0.515  13.599  1.6004 -0.2746 -0.8463
 5313SOL     OW27397   2.602   1.847   3.156  0.0070  0.1568  0.2719
 5313SOL    HW127398   2.624   1.777   3.218  1.4998  1.2581  0.9726
 5313SOL    HW227399   2.660   1.832   3.082  0.5810  0.2637  0.7005
 5314SOL     OW27400   2.748   1.510  13.044  0.8268 -0.2409  0.3590
 5314SOL    HW127401   2.752   1.418  13.019 -1.2546  0.2321 -1.6825
 5314SOL    HW227402   2.808   1.546  12.979  1.8773 -0.6927  1.0678
 5315SOL     OW27403   3.198   3.813   4.063  0.3147  0.0761 -0.0179
 5315SOL    HW127404   3.282   3.775   4.088  1.4985  1.5353 -1.7648
 5315SOL    HW227405   3.152   3.810   4.147 -0.1674 -2.1863 -0.3572
 5316SOL     OW27406   0.116   0.301   4.746  0.9433  0.2662  0.0847
 5316SOL    HW127407   0.152   0.244   4.679  0.9460 -1.2597  1.3948
 5316SOL    HW227408   0.027   0.323   4.718  0.7262 -2.8965 -1.6312
 5317SOL     OW27409   1.856   3.665   6.375  0.4936  0.3744 -0.2490
 5317SOL    HW127410   1.766   3.668   6.408 -0.2347 -1.9996 -2.0024
 5317SOL    HW227411   1.843   3.729   6.306  0.9579 -0.7583 -1.3884
 5318SOL     OW27412   1.357   3.164  12.559  0.0592  0.3638 -0.1792
 5318SOL    HW127413   1.342   3.235  12.495  2.2456  1.3567  0.4275
 5318SOL    HW227414   1.426   3.206  12.610 -0.2381 -0.5707  0.9745
 5319SOL     OW27415   3.385   1.148   2.014 -0.1196 -0.0825  0.7416
 5319SOL    HW127416   3.352   1.084   1.951 -0.9553  0.9270  0.1455
 5319SOL    HW227417   3.318   1.141   2.081 -2.1003 -1.7124 -1.4231
 5320SOL     OW27418   1.172   2.502  13.365  0.5701 -0.2803 -0.1324
 5320SOL    HW127419   1.210   2.466  13.445 -1.0221 -2.3382 -0.3060
 5320SOL    HW227420   1.096   2.445  13.348 -1.4099  1.8002  1.7307
 5321SOL     OW27421   0.618   1.806   6.768 -0.4993 -0.1149  0.4039
 5321SOL    HW127422   0.591   1.889   6.807  0.8035 -0.3907  1.8615
 5321SOL    HW227423   0.681   1.833   6.701  0.0669  0.4404  1.1614
 5322SOL     OW27424   1.596   2.073   2.739 -0.0738  0.2074  0.3692
 5322SOL    HW127425   1.538   2.084   2.814 -3.0564  0.4757 -1.9565
 5322SOL    HW227426   1.588   2.156   2.691 -0.9614 -1.2103 -1.9210
 5323SOL     OW27427   3.642   1.178   4.750 -0.4095  0.1900  0.1503
 5323SOL    HW127428   3.639   1.207   4.659  1.5824 -0.5480 -0.1687
 5323SOL    HW227429   3.736   1.190   4.767 -0.4178 -0.2695  0.5428
 5324SOL     OW27430   2.401   1.566   4.099  0.6780  0.9682  0.0667
 5324SOL    HW127431   2.336   1.562   4.029 -0.8537 -1.2071  1.6064
 5324SOL    HW227432   2.487   1.557   4.058 -0.7563  1.4652 -3.0273
 5325SOL     OW27433   2.382   1.531  10.577 -0.3542 -0.1067 -0.2549
 5325SOL    HW127434   2.423   1.618  10.572 -2.0899  0.5629 -2.4312
 5325SOL    HW227435   2.387   1.505  10.485  0.8149 -0.2533 -0.1563
 5326SOL     OW27436   0.113   0.404  10.477  0.1663  0.1539  0.1210
 5326SOL    HW127437   0.054   0.464  10.433 -0.9529 -1.3846 -0.4773
 5326SOL    HW227438   0.067   0.324  10.451  0.1596  0.4699 -0.8359
 5327SOL     OW27439   3.618   1.832   2.415 -0.3404 -0.1447 -0.5860
 5327SOL    HW127440   3.638   1.756   2.360  1.2744 -1.0970  1.3429
 5327SOL    HW227441   3.706   1.853   2.447 -1.4975  2.5904  0.8432
 5328SOL     OW27442   2.628   3.843   6.533  0.3959  0.6490  0.1004
 5328SOL    HW127443   2.707   3.891   6.506 -0.3578  2.4163  1.0469
 5328SOL    HW227444   2.650   3.843   6.626 -1.2483 -2.1186  0.5136
 5329SOL     OW27445   1.463   2.757   2.632 -0.0982 -0.1404  0.4867
 5329SOL    HW127446   1.408   2.699   2.578  0.6774 -1.5205  1.1833
 5329SOL    HW227447   1.509   2.692   2.685 -0.9486  0.4775  1.9779
 5330SOL     OW27448   4.431   0.482   0.927 -0.9443  0.5307  0.3811
 5330SOL    HW127449   4.439   0.555   0.989  0.7460  1.3746 -0.8137
 5330SOL    HW227450   4.344   0.456   0.957 -1.6765 -0.6898 -2.7285
 5331SOL     OW27451   1.699   1.772  10.235 -0.1954  0.8206 -0.3303
 5331SOL    HW127452   1.606   1.771  10.259 -0.6613 -2.5547 -2.1709
 5331SOL    HW227453   1.747   1.785  10.317 -2.2912 -0.4123  1.0930
 5332SOL     OW27454   2.673   0.052   7.456 -0.0330  0.4379  0.0085
 5332SOL    HW127455   2.677   0.143   7.425 -1.8325  1.0622  1.5480
 5332SOL    HW227456   2.737   0.025   7.391  2.1503  3.4604  0.9321
 5333SOL     OW27457   1.326   1.958  10.241  0.2703 -0.1291  0.3205
 5333SOL    HW127458   1.267   2.033  10.249 -0.0380 -0.4827  1.3151
 5333SOL    HW227459   1.370   1.967  10.156 -0.0365  1.2840  0.3127
 5334SOL     OW27460   1.407   1.889  13.441 -0.2273 -0.4222 -0.2353
 5334SOL    HW127461   1.484   1.943  13.423 -0.6445  0.3282  0.2620
 5334SOL    HW227462   1.454   1.839  13.507 -0.2683 -1.4752 -0.9975
 5335SOL     OW27463   3.252   3.929   4.397 -0.6165  0.3988 -0.0051
 5335SOL    HW127464   3.285   3.848   4.436  0.7529  0.1569 -1.6505
 5335SOL    HW227465   3.162   3.918   4.368 -0.5708 -0.9314  0.3288
 5336SOL     OW27466   0.924   0.513  13.695 -0.0304 -0.6988  0.5763
 5336SOL    HW127467   1.017   0.534  13.684 -0.6918  0.7096 -2.3572
 5336SOL    HW227468   0.905   0.595  13.648 -2.2609 -1.5560  0.0175
 5337SOL     OW27469   1.720   3.309   8.512  0.0037 -0.6521 -0.0994
 5337SOL    HW127470   1.746   3.255   8.587 -0.8192 -1.9710 -0.7571
 5337SOL    HW227471   1.666   3.374   8.556  0.8433 -0.4094  0.5826
 5338SOL     OW27472   3.696   3.818   7.721  0.1179 -0.2430  0.1107
 5338SOL    HW127473   3.612   3.832   7.677  0.1597  0.2653  0.1914
 5338SOL    HW227474   3.734   3.752   7.663  1.3385 -1.4192  2.2445
 5339SOL     OW27475   2.660   1.550   4.028 -0.2661 -0.0643 -0.9119
 5339SOL    HW127476   2.754   1.560   4.013 -0.2358  1.4269  0.3343
 5339SOL    HW227477   2.650   1.545   4.123  0.1516 -0.8503 -0.9073
 5340SOL     OW27478   0.961   1.116  16.602 -0.1216 -0.1660 -0.6677
 5340SOL    HW127479   1.002   1.037  16.637 -2.4896 -1.3761 -0.6337
 5340SOL    HW227480   0.868   1.093  16.608  0.5137 -2.9336 -1.1375
 5341SOL     OW27481   3.147   4.096   7.324 -0.3788 -0.3253 -0.2136
 5341SOL    HW127482   3.153   4.048   7.407 -1.5840  1.3714  0.8685
 5341SOL    HW227483   3.235   4.133   7.328 -1.1502  1.4873 -0.1325
 5342SOL     OW27484   4.692   4.292   3.051  0.0969 -0.4282  0.9078
 5342SOL    HW127485   4.712   4.240   3.128  0.9216 -1.0262  0.2889
 5342SOL    HW227486   4.699   4.222   2.986 -1.7529  2.3485 -2.2800
 5343SOL     OW27487   3.145   0.824   2.889 -0.4532  0.5854  0.2333
 5343SOL    HW127488   3.180   0.910   2.916 -0.6545  0.8025 -0.1937
 5343SOL    HW227489   3.101   0.839   2.805  1.0742 -2.7763 -1.1784
 5344SOL     OW27490   1.047   3.757  11.098 -0.2464  0.5399  0.3934
 5344SOL    HW127491   1.013   3.693  11.162  0.3036 -0.9560 -0.8103
 5344SOL    HW227492   1.032   3.835  11.151 -1.1122  1.0918 -0.6898
 5345SOL     OW27493   0.154   2.494   9.484 -0.0169 -0.4410  0.2276
 5345SOL    HW127494   0.180   2.476   9.574  0.1708 -1.6811 -0.0735
 5345SOL    HW227495   0.217   2.442   9.434 -1.4558  0.6217 -2.7271
 5346SOL     OW27496   1.933   4.125   7.337  0.4340 -0.1127 -0.3911
 5346SOL    HW127497   1.866   4.186   7.368  2.1570  0.6939  1.7924
 5346SOL    HW227498   1.882   4.085   7.267 -1.6780  3.0433 -0.6461
 5347SOL     OW27499   3.228   1.564  15.145  0.1351  0.8675  0.6163
 5347SOL    HW127500   3.212   1.625  15.217 -0.9858  0.4614  0.7196
 5347SOL    HW227501   3.263   1.483  15.181 -0.6016  0.9696  1.5585
 5348SOL     OW27502   3.377   0.647   4.354  0.1585  0.2744  0.2852
 5348SOL    HW127503   3.361   0.697   4.434 -0.6666  0.1471  0.2000
 5348SOL    HW227504   3.412   0.566   4.390 -0.1331  0.8375  1.8285
 5349SOL     OW27505   4.241   4.633  12.165 -0.0848  0.0334  0.0282
 5349SOL    HW127506   4.216   4.699  12.100  0.4605 -0.7579 -1.0019
 5349SOL    HW227507   4.301   4.574  12.119 -0.4814  1.3856 -2.2472
 5350SOL     OW27508   0.212   3.142   7.140 -0.3344 -0.7026 -0.2645
 5350SOL    HW127509   0.210   3.071   7.204 -1.0098 -0.5409 -0.1089
 5350SOL    HW227510   0.264   3.105   7.067 -0.3011  0.7594 -0.9755
 5351SOL     OW27511   0.700   0.154   8.692 -0.0084 -0.3434  0.7283
 5351SOL    HW127512   0.664   0.159   8.604 -0.6677  1.8909  1.1300
 5351SOL    HW227513   0.625   0.129   8.747  0.9649  0.2315  2.3323
 5352SOL     OW27514   0.602   2.547   4.107 -0.0734  0.0042  0.4709
 5352SOL    HW127515   0.508   2.531   4.109 -0.1523  0.6279  1.6532
 5352SOL    HW227516   0.632   2.456   4.103 -0.8814 -0.2216 -0.3657
 5353SOL     OW27517   3.691   0.999   5.852 -0.6184  0.2057  0.1331
 5353SOL    HW127518   3.727   1.082   5.882 -2.9604  0.6443  1.7837
 5353SOL    HW227519   3.603   1.011   5.889 -0.7973 -1.5801  0.2982
 5354SOL     OW27520   4.557   3.219  11.886 -0.2924 -0.2826 -0.3193
 5354SOL    HW127521   4.648   3.248  11.886 -0.7508  1.1646 -2.0647
 5354SOL    HW227522   4.511   3.302  11.899  0.9778  0.4705 -0.6361
 5355SOL     OW27523   3.976   0.488   4.279  0.1687 -0.2729  0.3173
 5355SOL    HW127524   4.025   0.478   4.198 -0.9697  0.9856 -0.5321
 5355SOL    HW227525   3.899   0.538   4.252  1.1413 -0.4731 -2.7909
 5356SOL     OW27526   1.193   3.225   9.216  0.2525  0.1596 -0.2267
 5356SOL    HW127527   1.211   3.318   9.228  0.6705  0.0297  0.1757
 5356SOL    HW227528   1.102   3.234   9.187  0.2692  0.5619 -0.1465
 5357SOL     OW27529   3.429   4.186  14.275  0.3494 -0.0888 -0.1702
 5357SOL    HW127530   3.482   4.213  14.350 -0.3997 -0.5780  0.5353
 5357SOL    HW227531   3.375   4.264  14.268  0.9463  0.3064 -0.3454
 5358SOL     OW27532   3.800   0.144  10.903  0.0930  0.9316 -0.0939
 5358SOL    HW127533   3.874   0.191  10.942  0.4806 -0.6113  1.0274
 5358SOL    HW227534   3.783   0.204  10.831  1.7819  1.5414  0.0134
 5359SOL     OW27535   1.832   1.391   2.345 -0.2325  0.3635  0.0575
 5359SOL    HW127536   1.743   1.410   2.375 -1.0682 -1.1190 -1.4864
 5359SOL    HW227537   1.886   1.429   2.415 -0.0292  2.5708 -1.3178
 5360SOL     OW27538   2.066   1.936   0.884 -0.2391 -0.3218 -0.5648
 5360SOL    HW127539   2.062   1.948   0.789 -1.2033 -1.7894 -0.7134
 5360SOL    HW227540   2.158   1.960   0.888 -0.2191 -0.3832 -0.6439
 5361SOL     OW27541   3.681   3.925   6.701 -0.1579  0.2429 -0.0158
 5361SOL    HW127542   3.755   3.908   6.759 -0.2984 -1.4538 -0.3159
 5361SOL    HW227543   3.617   3.952   6.767 -2.1196  0.0543 -1.8272
 5362SOL     OW27544   1.454   3.349  16.970  0.0903  0.3325 -0.0753
 5362SOL    HW127545   1.470   3.439  16.999 -0.2017  0.2324  0.4076
 5362SOL    HW227546   1.502   3.351  16.888 -0.5295 -0.3262 -0.4614
 5363SOL     OW27547   1.621   0.485  17.088 -0.0371 -0.6900  0.6230
 5363SOL    HW127548   1.674   0.477  17.167 -1.0914  0.6911  1.4814
 5363SOL    HW227549   1.676   0.524  17.021 -0.3002 -0.9323  0.2660
 5364SOL     OW27550   4.398   4.326   1.810  0.1095  0.6278  0.3151
 5364SOL    HW127551   4.408   4.235   1.781  0.3805  1.0229 -0.8126
 5364SOL    HW227552   4.336   4.355   1.744  0.5693  0.3129 -0.2548
 5365SOL     OW27553   0.809   1.979   5.034 -0.0352 -0.1349  0.6893
 5365SOL    HW127554   0.849   1.997   4.949 -4.1955 -1.0059 -1.4692
 5365SOL    HW227555   0.885   1.983   5.092  0.0897 -0.0773  0.5205
 5366SOL     OW27556   0.140   1.659   7.628 -0.3828  0.4163  0.2219
 5366SOL    HW127557   0.105   1.661   7.539  0.0809  0.6742  0.0451
 5366SOL    HW227558   0.223   1.708   7.623  1.0541 -1.9460  0.8633
 5367SOL     OW27559   3.119   1.022   7.735 -0.4281 -0.0333  0.4613
 5367SOL    HW127560   3.071   0.949   7.696 -0.0338 -1.7883  3.3071
 5367SOL    HW227561   3.178   1.043   7.663 -1.1968  2.2552  0.4880
 5368SOL     OW27562   1.762   0.788   8.049 -0.7028  0.0265  0.6327
 5368SOL    HW127563   1.770   0.818   8.139  2.3512 -2.1723  1.0686
 5368SOL    HW227564   1.852   0.804   8.021 -0.1649 -1.7866  1.3140
 5369SOL     OW27565   3.327   2.950   6.626  0.3418  0.1492  0.3921
 5369SOL    HW127566   3.281   2.873   6.658 -0.2553 -0.5305 -2.0580
 5369SOL    HW227567   3.318   2.940   6.531 -1.4092 -0.9574  0.6779
 5370SOL     OW27568   4.192   1.396  17.523  0.8846 -0.4807  0.3291
 5370SOL    HW127569   4.138   1.345  17.462  0.7960  1.2042 -0.9813
 5370SOL    HW227570   4.253   1.426  17.456  0.5582  0.9008  0.6454
 5371SOL     OW27571   0.740   4.108   6.963  0.2208 -0.4653  0.3150
 5371SOL    HW127572   0.678   4.067   7.023  0.4402 -0.6212  0.4335
 5371SOL    HW227573   0.700   4.194   6.949  0.8416 -0.0844  0.9140
 5372SOL     OW27574   3.872   2.284  16.721  0.5468  0.1489  0.2499
 5372SOL    HW127575   3.861   2.209  16.779 -0.8951 -0.1125 -0.3573
 5372SOL    HW227576   3.791   2.335  16.718 -0.7186 -1.8801 -0.5437
 5373SOL     OW27577   2.601   0.318   6.155 -0.1832  0.0366 -0.1451
 5373SOL    HW127578   2.680   0.366   6.181 -0.2235 -0.9425  1.7766
 5373SOL    HW227579   2.557   0.327   6.239 -0.3478 -3.3340  0.1408
 5374SOL     OW27580   3.060   4.096   4.006  1.1778 -0.3315 -0.5707
 5374SOL    HW127581   3.153   4.074   4.003  1.5343  1.2231 -0.7271
 5374SOL    HW227582   3.027   4.047   4.081  0.9761  1.9925  0.8425
 5375SOL     OW27583   1.078   0.284   8.715 -0.6117 -0.4503 -0.1509
 5375SOL    HW127584   1.009   0.341   8.749  0.6431  0.4012  0.9701
 5375SOL    HW227585   1.143   0.304   8.783 -0.1771 -0.7274 -0.4890
 5376SOL     OW27586   1.488   1.920  11.150 -0.3334 -0.3109 -0.0138
 5376SOL    HW127587   1.443   1.991  11.103 -1.6044 -2.3424 -1.8633
 5376SOL    HW227588   1.440   1.851  11.104 -0.3547  0.0015 -0.4622
 5377SOL     OW27589   4.467   3.372  12.275 -0.1217  0.2995  0.1196
 5377SOL    HW127590   4.446   3.455  12.317 -3.2363 -0.3667 -0.1466
 5377SOL    HW227591   4.534   3.404  12.215 -1.9690 -0.4908 -2.3664
 5378SOL     OW27592   2.147   3.722   4.085 -0.2332 -0.3983  0.3255
 5378SOL    HW127593   2.088   3.730   4.159  0.4064  0.6474  0.7135
 5378SOL    HW227594   2.156   3.817   4.077 -0.3782 -0.4243 -0.1832
 5379SOL     OW27595   2.742   1.818   9.803 -0.9923 -0.0531  0.1881
 5379SOL    HW127596   2.739   1.889   9.867 -0.3012  0.2600 -0.1190
 5379SOL    HW227597   2.651   1.789   9.806 -0.3306 -2.0922  0.2504
 5380SOL     OW27598   4.374   0.805   0.971  0.4882 -0.4710 -0.3161
 5380SOL    HW127599   4.415   0.772   1.051  0.6139 -0.4121 -0.3571
 5380SOL    HW227600   4.331   0.882   1.007 -1.4501 -0.3930 -2.7502
 5381SOL     OW27601   1.791   4.484   6.453 -0.6657  0.2599  0.0855
 5381SOL    HW127602   1.800   4.576   6.477 -3.8515  1.4953 -3.5500
 5381SOL    HW227603   1.848   4.454   6.525 -1.7878  0.0900  0.9069
 5382SOL     OW27604   0.521   1.595   6.143 -0.1548  0.5840  0.1376
 5382SOL    HW127605   0.472   1.513   6.152  1.6990 -0.4396  1.1219
 5382SOL    HW227606   0.487   1.618   6.057 -1.0926 -2.3643 -0.2931
 5383SOL     OW27607   1.187   2.246   6.516  0.5273  0.5689 -0.2175
 5383SOL    HW127608   1.100   2.244   6.477 -0.7309 -0.0707  2.6171
 5383SOL    HW227609   1.174   2.175   6.578 -0.2772 -1.0495 -2.2321
 5384SOL     OW27610   4.245   1.051   3.687  0.4538  0.0522 -0.3827
 5384SOL    HW127611   4.152   1.032   3.704  0.6090  0.7975  1.2889
 5384SOL    HW227612   4.254   1.027   3.595  1.2307  0.6986 -0.4712
 5385SOL     OW27613   3.012   2.284   9.243  0.2432  0.4592  0.0766
 5385SOL    HW127614   3.027   2.229   9.320  0.3613 -0.7384 -0.8122
 5385SOL    HW227615   3.093   2.270   9.195 -0.9278  1.8080 -2.3364
 5386SOL     OW27616   4.700   3.968  15.029  0.3892  0.2083 -0.0109
 5386SOL    HW127617   0.073   3.980  15.013  0.2088  2.4243  0.5895
 5386SOL    HW227618   4.683   3.883  14.988  0.4069 -0.2540  0.9467
 5387SOL     OW27619   2.389   0.408   5.865 -0.0703 -0.1082 -0.4623
 5387SOL    HW127620   2.445   0.354   5.920  0.6165 -0.4305 -1.4754
 5387SOL    HW227621   2.301   0.376   5.885  0.6933 -1.2732  0.9689
 5388SOL     OW27622   2.517   3.458   7.905  0.2906  0.2648  0.2700
 5388SOL    HW127623   2.562   3.543   7.914 -0.3578  0.6217  0.1682
 5388SOL    HW227624   2.432   3.489   7.937  0.1504 -0.0794  0.2284
 5389SOL     OW27625   0.091   4.238   7.818  0.3673  0.3596 -0.4580
 5389SOL    HW127626   0.060   4.152   7.848  0.8857 -0.1658 -1.4087
 5389SOL    HW227627   0.183   4.223   7.839 -0.2255  0.8310  2.4926
 5390SOL     OW27628   2.150   1.202   7.662  0.2899 -0.5396  0.0995
 5390SOL    HW127629   2.217   1.150   7.618 -0.8028 -0.2456 -1.9161
 5390SOL    HW227630   2.099   1.244   7.593  1.4178 -1.0454 -1.0357
 5391SOL     OW27631   0.368   1.166   2.966  0.4292 -0.0014 -0.1208
 5391SOL    HW127632   0.297   1.156   2.902  0.2058 -0.1645  0.1560
 5391SOL    HW227633   0.376   1.262   2.967  0.6936 -0.0405  0.9972
 5392SOL     OW27634   3.674   1.618   1.611  0.5484 -0.5051 -0.3928
 5392SOL    HW127635   3.613   1.605   1.538 -1.1884  0.6140  0.8578
 5392SOL    HW227636   3.729   1.540   1.613 -0.6818 -1.2821  1.8312
 5393SOL     OW27637   0.444   4.361   2.261  0.3347 -0.2104 -0.1198
 5393SOL    HW127638   0.501   4.294   2.301 -0.1208 -1.3729 -1.4058
 5393SOL    HW227639   0.368   4.333   2.312  0.7122  0.7605  0.9747
 5394SOL     OW27640   1.191   4.383   0.952  0.0894  0.3640 -0.4434
 5394SOL    HW127641   1.270   4.397   0.900 -0.5095 -0.1179 -1.4978
 5394SOL    HW227642   1.155   4.305   0.909  1.0267  0.2950 -1.0867
 5395SOL     OW27643   1.948   0.755   6.230 -0.4573 -0.0108  0.3665
 5395SOL    HW127644   1.977   0.684   6.173 -2.0884  0.0246 -0.4867
 5395SOL    HW227645   2.020   0.819   6.220 -0.2677 -0.5868 -2.1245
 5396SOL     OW27646   0.374   0.389   5.042 -0.3174 -0.4304 -0.5336
 5396SOL    HW127647   0.462   0.359   5.019 -0.0997 -1.7212  2.0552
 5396SOL    HW227648   0.390   0.473   5.085 -0.4862 -0.9297  0.5096
 5397SOL     OW27649   0.348   3.368  11.232  0.4753  0.4349 -0.2450
 5397SOL    HW127650   0.352   3.278  11.198  0.4504 -0.6577  2.6821
 5397SOL    HW227651   0.338   3.354  11.326 -1.1130 -0.7736 -0.5863
 5398SOL     OW27652   1.603   0.401   6.349  0.3618 -0.1694 -0.3176
 5398SOL    HW127653   1.574   0.311   6.367 -0.4596  0.1709  0.0695
 5398SOL    HW227654   1.553   0.414   6.269 -0.6088 -1.8330  0.0084
 5399SOL     OW27655   1.101   1.431   6.621 -0.1744 -0.6613  0.1751
 5399SOL    HW127656   1.174   1.394   6.572 -0.1111  1.5413 -1.3501
 5399SOL    HW227657   1.022   1.388   6.587 -0.7876  2.1919 -1.9308
 5400SOL     OW27658   0.943   1.250   2.005 -0.1172 -0.1484 -0.1189
 5400SOL    HW127659   0.906   1.255   1.917 -0.6625 -0.3334  0.0989
 5400SOL    HW227660   0.935   1.155   2.011  3.3439 -0.5798 -2.4637
 5401SOL     OW27661   4.437   0.219   9.259  0.4137 -0.2702 -0.3196
 5401SOL    HW127662   4.526   0.189   9.275 -0.1504 -1.0195  1.3762
 5401SOL    HW227663   4.425   0.209   9.164 -0.9944  1.7909 -0.3726
 5402SOL     OW27664   3.032   4.685   4.788 -0.4727  0.2484  0.3194
 5402SOL    HW127665   2.947   4.679   4.832 -0.2403  0.6824  0.8229
 5402SOL    HW227666   3.005   4.622   4.722 -0.7476 -0.5587  1.1975
 5403SOL     OW27667   3.915   2.948  10.187  0.0438 -0.0269 -0.6970
 5403SOL    HW127668   3.910   2.853  10.188 -0.8286  0.0218 -0.1628
 5403SOL    HW227669   3.985   2.960  10.252  0.1616  1.4375 -1.0867
 5404SOL     OW27670   0.499   0.561  15.241 -0.4946  0.1244  0.6826
 5404SOL    HW127671   0.441   0.622  15.286 -0.6596  0.2597  0.2856
 5404SOL    HW227672   0.562   0.620  15.201 -1.0147  1.2466  1.5188
 5405SOL     OW27673   0.752   4.259   3.918 -0.4874 -0.0204 -0.0927
 5405SOL    HW127674   0.705   4.276   3.999 -2.0144  1.3902 -1.2701
 5405SOL    HW227675   0.694   4.189   3.890  1.1627 -1.2139 -0.5493
 5406SOL     OW27676   2.486   1.590  15.466 -0.4425 -0.6025 -0.0988
 5406SOL    HW127677   2.475   1.637  15.549  1.2689  1.2022 -0.9079
 5406SOL    HW227678   2.575   1.622  15.451  0.0914 -2.6710 -1.2933
 5407SOL     OW27679   2.952   4.301   7.606  0.1129 -0.4297  0.2621
 5407SOL    HW127680   3.046   4.308   7.589 -0.2031 -0.6925 -1.6736
 5407SOL    HW227681   2.920   4.391   7.618 -0.5588 -0.8295  1.4520
 5408SOL     OW27682   2.465   4.686  13.596 -0.4690  0.4641  0.1058
 5408SOL    HW127683   2.539   0.026  13.596 -0.8599  0.9428  0.7388
 5408SOL    HW227684   2.401   0.004  13.536  1.5635  1.7770 -1.2108
 5409SOL     OW27685   1.660   1.318   9.648 -0.3466 -0.1865  0.6629
 5409SOL    HW127686   1.597   1.381   9.614 -1.1443 -2.0133 -1.2577
 5409SOL    HW227687   1.737   1.346   9.601 -1.2992  0.9013 -0.2295
 5410SOL     OW27688   0.873   3.156   3.855 -0.0470  0.6799 -0.3027
 5410SOL    HW127689   0.854   3.064   3.873  1.5281  0.0833 -1.7027
 5410SOL    HW227690   0.807   3.194   3.913  0.5851  0.0940  0.8067
 5411SOL     OW27691   1.559   0.872  13.816  0.1204 -0.2990  0.3793
 5411SOL    HW127692   1.600   0.791  13.785 -0.0340 -0.9685  1.9693
 5411SOL    HW227693   1.475   0.879  13.771  0.9539  1.9328 -0.8632
 5412SOL     OW27694   1.459   1.342   1.234  0.2474 -0.0027 -0.2424
 5412SOL    HW127695   1.549   1.313   1.217  0.6997  0.3866  1.5434
 5412SOL    HW227696   1.403   1.275   1.194 -0.9719  1.3713 -0.8303
 5413SOL     OW27697   4.490   3.601   6.806 -0.1015 -0.0344 -0.1596
 5413SOL    HW127698   4.507   3.525   6.862  1.1497 -0.6428 -1.3719
 5413SOL    HW227699   4.453   3.555   6.731 -1.3053  0.8633 -0.1143
 5414SOL     OW27700   2.558   2.416  10.545 -0.3671  0.4453 -0.5563
 5414SOL    HW127701   2.465   2.410  10.565 -0.3108  0.9842 -0.1485
 5414SOL    HW227702   2.582   2.503  10.575 -1.3124 -0.3080  2.3861
 5415SOL     OW27703   2.877   1.299   8.250 -0.1805  0.2732 -0.5287
 5415SOL    HW127704   2.810   1.281   8.183  0.9686 -0.8552 -1.3885
 5415SOL    HW227705   2.914   1.211   8.248 -0.3911  0.2239 -2.8972
 5416SOL     OW27706   1.757   3.745   2.216 -0.1177  0.4582  0.2504
 5416SOL    HW127707   1.801   3.768   2.298 -2.3195  0.0285  1.5446
 5416SOL    HW227708   1.694   3.675   2.229  1.2959 -1.3316 -2.6377
 5417SOL     OW27709   0.116   1.929   3.921 -0.0416  0.0639  0.0678
 5417SOL    HW127710   0.088   1.962   3.836  0.0691 -0.2324 -0.0855
 5417SOL    HW227711   0.082   1.840   3.907 -1.4375  0.3052  1.9347
 5418SOL     OW27712   3.086   4.428   6.869 -0.0455 -0.2505 -0.1487
 5418SOL    HW127713   3.030   4.380   6.930 -0.6558 -1.2950 -1.5306
 5418SOL    HW227714   3.023   4.490   6.831  0.1842  0.4606  0.6324
 5419SOL     OW27715   2.862   1.681   2.487 -0.0526 -0.3766  0.0488
 5419SOL    HW127716   2.876   1.713   2.398  1.6753 -1.2173  0.0239
 5419SOL    HW227717   2.787   1.733   2.516  0.4669  0.9435 -0.9836
 5420SOL     OW27718   2.251   3.067   4.891 -0.4238 -0.8394 -0.4275
 5420SOL    HW127719   2.306   3.131   4.935  0.7691 -1.5279 -0.9064
 5420SOL    HW227720   2.174   3.119   4.869  1.9840  2.5898 -0.6671
 5421SOL     OW27721   0.246   0.989   2.119  0.0353  0.1078  0.1660
 5421SOL    HW127722   0.335   0.972   2.090 -0.7280 -1.1992 -1.4581
 5421SOL    HW227723   0.268   0.990   2.212  1.6936  0.6131 -0.2299
 5422SOL     OW27724   0.570   3.737   3.032  0.2991  0.2741  0.4961
 5422SOL    HW127725   0.631   3.810   3.018  0.8767 -0.1724  0.6699
 5422SOL    HW227726   0.621   3.685   3.094 -0.3878 -0.4597  0.4539
 5423SOL     OW27727   4.003   3.577   2.603  0.3874 -0.2286 -0.0122
 5423SOL    HW127728   3.992   3.593   2.697 -0.0117  2.4216 -0.4952
 5423SOL    HW227729   4.079   3.519   2.593 -0.6998 -1.3110 -2.0031
 5424SOL     OW27730   2.919   0.388  10.669  0.2473 -0.5360  0.9171
 5424SOL    HW127731   3.007   0.357  10.646 -0.9638 -2.7608 -0.7131
 5424SOL    HW227732   2.936   0.405  10.761  1.3658 -0.3290  0.6719
 5425SOL     OW27733   1.716   3.029   8.039 -0.1231 -0.2995  0.2399
 5425SOL    HW127734   1.670   3.076   7.970  1.8477  3.4453  1.5152
 5425SOL    HW227735   1.709   3.090   8.112 -2.3402 -2.4035  1.7658
 5426SOL     OW27736   2.410   0.858  15.982 -0.1856  0.3679 -0.2857
 5426SOL    HW127737   2.354   0.933  15.960 -0.5797  0.1751  0.0440
 5426SOL    HW227738   2.492   0.904  16.002 -0.1062  0.7464 -1.5147
 5427SOL     OW27739   3.128   3.617   9.832 -0.7504  0.0834  0.6808
 5427SOL    HW127740   3.128   3.702   9.789  2.1772  0.1438  0.7465
 5427SOL    HW227741   3.052   3.577   9.790 -1.1713  1.4296  0.1815
 5428SOL     OW27742   1.621   4.160   8.199 -0.3035 -0.2249 -0.1158
 5428SOL    HW127743   1.650   4.096   8.134 -0.2198 -0.3503  0.0470
 5428SOL    HW227744   1.533   4.130   8.219  0.3574 -0.9490  1.6963
 5429SOL     OW27745   1.134   0.951   4.067  0.3031  0.0239  0.1500
 5429SOL    HW127746   1.220   0.927   4.033  0.6125  2.7002 -0.9132
 5429SOL    HW227747   1.083   0.935   3.988 -1.0370  1.1814  0.7840
 5430SOL     OW27748   3.498   3.837   3.852  0.6019  0.0862  0.5848
 5430SOL    HW127749   3.408   3.835   3.884  0.1012 -0.1055 -0.8301
 5430SOL    HW227750   3.502   3.807   3.761  0.0302 -0.9743  0.9156
 5431SOL     OW27751   2.921   0.171  14.912  0.6290 -0.4267 -0.3139
 5431SOL    HW127752   2.918   0.108  14.984  0.9256 -0.3707 -0.2520
 5431SOL    HW227753   3.009   0.171  14.873  0.3923 -0.2783 -0.8578
 5432SOL     OW27754   1.433   4.323   4.062  0.1144 -0.3819 -0.0767
 5432SOL    HW127755   1.504   4.276   4.105 -1.9819 -3.3852  0.1093
 5432SOL    HW227756   1.425   4.286   3.974 -0.4035  0.4862 -0.3876
 5433SOL     OW27757   2.350   4.376   6.438 -0.3183 -0.3575  0.9081
 5433SOL    HW127758   2.307   4.457   6.409  1.7067  0.3472 -0.1185
 5433SOL    HW227759   2.325   4.374   6.530 -3.3916 -0.2222  0.0697
 5434SOL     OW27760   2.201   2.234  16.875  0.0794 -0.3747 -0.5644
 5434SOL    HW127761   2.294   2.212  16.888 -0.1532 -1.2233 -0.2799
 5434SOL    HW227762   2.213   2.308  16.816 -1.1483  1.2208  1.2181
 5435SOL     OW27763   2.705   4.689   7.116  0.3556 -0.3534  0.3439
 5435SOL    HW127764   2.738   4.599   7.122  2.9211  0.5776  0.3049
 5435SOL    HW227765   2.766   4.718   7.184 -1.5402 -0.9978  2.2994
 5436SOL     OW27766   2.417   3.926  16.279  0.2251 -0.2606  0.3452
 5436SOL    HW127767   2.324   3.945  16.263  0.2453  0.1078  0.6473
 5436SOL    HW227768   2.452   3.882  16.202 -0.4402 -2.2038  1.1455
 5437SOL     OW27769   1.087   3.544   8.942  0.8884  0.6700 -0.1225
 5437SOL    HW127770   1.095   3.619   9.001 -3.5568  0.2674  0.9776
 5437SOL    HW227771   1.031   3.486   8.992 -0.6650  1.4434 -0.9535
 5438SOL     OW27772   0.292   4.437  13.150 -0.1628 -0.5202 -0.2753
 5438SOL    HW127773   0.205   4.399  13.166  0.2687 -1.5170 -0.3181
 5438SOL    HW227774   0.346   4.387  13.211 -1.5213  0.3564  1.6540
 5439SOL     OW27775   0.520   3.377   5.597  0.0622 -0.1308  0.0427
 5439SOL    HW127776   0.526   3.301   5.654  2.2929  1.0669  1.3932
 5439SOL    HW227777   0.518   3.335   5.511 -0.5314  1.1455 -0.5799
 5440SOL     OW27778   4.366   3.942   1.766  0.0763 -0.2381 -0.1341
 5440SOL    HW127779   4.287   3.895   1.793 -0.7993 -0.7935 -3.6323
 5440SOL    HW227780   4.371   3.936   1.670 -0.2460  5.7146 -0.5131
 5441SOL     OW27781   3.769   0.949   9.237 -0.3826  0.0843 -0.6242
 5441SOL    HW127782   3.752   0.940   9.331  0.9686 -1.2731 -0.5133
 5441SOL    HW227783   3.804   0.862   9.216  0.4083  0.5217 -1.0941
 5442SOL     OW27784   0.487   2.354   2.706 -0.4848 -0.5607  0.0020
 5442SOL    HW127785   0.419   2.397   2.758  0.5505  2.1568 -0.9030
 5442SOL    HW227786   0.448   2.268   2.691 -0.3595 -0.4066 -1.1776
 5443SOL     OW27787   0.414   2.696  13.426 -0.0880 -0.5675  0.3887
 5443SOL    HW127788   0.345   2.651  13.474 -0.7991  2.2554  2.0123
 5443SOL    HW227789   0.368   2.711  13.343 -1.0686  1.7777  1.3635
 5444SOL     OW27790   2.915   4.105   4.850  0.3059  0.4515  0.8915
 5444SOL    HW127791   2.834   4.070   4.811  0.3225 -1.9827  3.0466
 5444SOL    HW227792   2.922   4.195   4.818  0.8614  0.7423  1.8203
 5445SOL     OW27793   3.984   3.056   8.219  0.4811 -0.5128  0.2083
 5445SOL    HW127794   3.965   3.033   8.310  0.7867  0.6595  0.5687
 5445SOL    HW227795   3.929   2.997   8.167  1.7606 -0.5910 -1.0234
 5446SOL     OW27796   1.982   4.119  12.657 -0.0770  0.3667  0.0767
 5446SOL    HW127797   2.036   4.047  12.625 -2.3882 -1.4038  0.0913
 5446SOL    HW227798   2.048   4.166  12.707  0.5348 -0.5798  0.1670
 5447SOL     OW27799   2.010   2.124   7.313 -0.1805  0.1259  0.5428
 5447SOL    HW127800   2.000   2.065   7.388  0.8119 -2.1895 -1.1129
 5447SOL    HW227801   2.039   2.204   7.355 -2.6520  1.2910  0.0239
 5448SOL     OW27802   2.093   3.360  13.383  0.2805  0.5326 -0.0752
 5448SOL    HW127803   2.101   3.424  13.312 -3.2330  1.0362 -0.0088
 5448SOL    HW227804   2.083   3.423  13.455 -0.8513  0.6061 -0.3057
 5449SOL     OW27805   2.785   3.385   6.117 -0.0849 -0.0516  0.6176
 5449SOL    HW127806   2.766   3.317   6.182  0.0276 -2.5493 -1.9566
 5449SOL    HW227807   2.779   3.465   6.170 -0.0003 -0.8904  1.9065
 5450SOL     OW27808   3.255   2.302  10.434 -0.0770 -0.6805 -0.5048
 5450SOL    HW127809   3.336   2.307  10.484 -0.9452  0.4627  0.7590
 5450SOL    HW227810   3.252   2.392  10.402 -0.1504  0.3053  2.2721
 5451SOL     OW27811   2.482   2.185  16.861 -0.2521 -0.0294 -0.0866
 5451SOL    HW127812   2.493   2.094  16.889  0.4212  0.2602  0.5914
 5451SOL    HW227813   2.507   2.231  16.941  2.5774 -0.7346 -0.5713
 5452SOL     OW27814   3.670   3.833  14.313 -0.4083  0.5470 -0.4438
 5452SOL    HW127815   3.714   3.900  14.365 -0.9735  1.4640 -1.1651
 5452SOL    HW227816   3.746   3.786  14.280  1.6095  2.8380  0.9519
 5453SOL     OW27817   2.262   4.671  10.903  0.5115 -0.4711  0.0340
 5453SOL    HW127818   2.348   4.631  10.890  0.1976 -1.2885  0.4554
 5453SOL    HW227819   2.257   4.696  10.996 -0.2514  0.5259 -0.2754
 5454SOL     OW27820   2.087   2.640   5.427  0.0977  0.6634  0.7842
 5454SOL    HW127821   2.110   2.619   5.336  1.2688  1.4397  0.9100
 5454SOL    HW227822   2.176   2.634   5.461  0.1759 -0.3658  0.4123
 5455SOL     OW27823   1.768   2.707   3.753 -0.0594  0.0674  0.2531
 5455SOL    HW127824   1.754   2.681   3.844  0.3872 -1.7145 -0.1980
 5455SOL    HW227825   1.850   2.660   3.739 -0.7958 -1.4738  1.1212
 5456SOL     OW27826   0.117   3.674   5.504  0.0377  0.8986  0.0775
 5456SOL    HW127827   0.185   3.607   5.506 -1.4623 -0.6016  0.7682
 5456SOL    HW227828   0.074   3.672   5.419  0.7409 -0.4765 -0.2410
 5457SOL     OW27829   2.526   2.994   2.485 -0.0502 -0.9128  0.6877
 5457SOL    HW127830   2.446   2.994   2.536 -0.1722  1.5078  0.5259
 5457SOL    HW227831   2.497   3.004   2.394 -0.2749  1.7035  1.0413
 5458SOL     OW27832   4.475   4.472   2.212 -0.1246 -0.5046 -0.1032
 5458SOL    HW127833   4.493   4.400   2.151  2.8257 -0.4710  0.7267
 5458SOL    HW227834   4.521   4.442   2.291 -2.2601 -0.7869  1.0446
 5459SOL     OW27835   4.580   3.294   3.582  0.3574 -0.8988 -0.5424
 5459SOL    HW127836   4.498   3.284   3.534 -0.7871  0.3719  1.1552
 5459SOL    HW227837   4.608   3.381   3.557 -0.1554 -0.5769  0.0063
 5460SOL     OW27838   0.081   0.639  12.900  0.4164 -0.2867 -0.5903
 5460SOL    HW127839   0.043   0.680  12.978 -0.7728 -2.1324 -0.1845
 5460SOL    HW227840   0.004   0.595  12.864 -1.0694 -1.4294  3.8789
 5461SOL     OW27841   1.333   2.709   8.171 -0.3020 -0.2591  0.2659
 5461SOL    HW127842   1.360   2.766   8.242 -0.1985 -0.5318  0.4468
 5461SOL    HW227843   1.283   2.645   8.222 -3.1083 -0.6672 -3.0018
 5462SOL     OW27844   0.644   3.427   8.178 -0.2316 -0.1675  0.3370
 5462SOL    HW127845   0.610   3.418   8.268  0.7025  0.2655  0.7318
 5462SOL    HW227846   0.620   3.518   8.161 -0.3470 -0.1504  0.5805
 5463SOL     OW27847   0.818   4.004   2.292  0.2826 -0.0696  0.1549
 5463SOL    HW127848   0.896   4.057   2.305  0.2364  0.1886 -0.6570
 5463SOL    HW227849   0.857   3.917   2.297  0.4345  0.0681  1.2917
 5464SOL     OW27850   1.686   2.351  11.604  0.0215 -0.7130  0.7248
 5464SOL    HW127851   1.760   2.301  11.570  0.4537  2.1974 -2.6039
 5464SOL    HW227852   1.654   2.294  11.674 -0.2600 -0.3586  0.8867
 5465SOL     OW27853   1.401   0.085  14.052 -0.1271 -0.0880  0.0595
 5465SOL    HW127854   1.380   0.058  14.141  0.9809 -0.9603  0.0567
 5465SOL    HW227855   1.374   0.176  14.063  1.0614  0.2216  0.3597
 5466SOL     OW27856   1.566   2.164   0.671 -0.4310  0.4458 -0.8381
 5466SOL    HW127857   1.535   2.241   0.623 -0.0731  1.5506  0.6989
 5466SOL    HW227858   1.536   2.105   0.602  1.6149 -1.1601 -0.3625
 5467SOL     OW27859   4.127   0.234   9.651 -0.2180  0.5315  0.3156
 5467SOL    HW127860   4.043   0.261   9.689  1.0764 -0.2898  3.7592
 5467SOL    HW227861   4.181   0.296   9.700 -0.1475 -0.2313  1.2110
 5468SOL     OW27862   3.353   0.651   6.638 -0.0283  0.2372  0.4324
 5468SOL    HW127863   3.338   0.745   6.648 -0.3638  0.1088  1.0886
 5468SOL    HW227864   3.402   0.629   6.716  0.9650  1.6154  0.2124
 5469SOL     OW27865   2.881   4.215  15.005 -0.2600  0.3155  0.0984
 5469SOL    HW127866   2.910   4.307  15.007 -0.2755  0.3390 -0.7813
 5469SOL    HW227867   2.964   4.174  14.978 -0.4333  0.1151 -0.1245
 5470SOL     OW27868   2.468   0.946   2.675  0.3260  0.0801  0.4583
 5470SOL    HW127869   2.449   1.023   2.621 -2.2036 -1.4724 -0.8459
 5470SOL    HW227870   2.467   0.872   2.615  2.3731 -1.6662  2.5502
 5471SOL     OW27871   0.431   2.096  15.605  0.4526  0.1069 -0.2817
 5471SOL    HW127872   0.451   2.020  15.660  1.4299 -1.0695 -2.2477
 5471SOL    HW227873   0.503   2.089  15.542 -0.2929  0.2362 -1.1402
 5472SOL     OW27874   2.582   0.219   3.509 -0.1109  0.6461  0.5490
 5472SOL    HW127875   2.580   0.127   3.483  0.6408  1.0282 -0.8386
 5472SOL    HW227876   2.653   0.248   3.453 -1.0364  0.0303 -0.9610
 5473SOL     OW27877   1.935   4.275   4.979  0.0142 -0.1511  0.0702
 5473SOL    HW127878   1.926   4.190   5.022  1.0585  0.4548  1.5075
 5473SOL    HW227879   2.011   4.262   4.921 -1.0174 -1.2987 -1.0216
 5474SOL     OW27880   1.199   1.215   3.390  0.3560 -0.1365 -0.4800
 5474SOL    HW127881   1.201   1.178   3.302  1.7997 -0.7362 -0.1843
 5474SOL    HW227882   1.107   1.197   3.411  0.6189 -3.2971 -2.1772
 5475SOL     OW27883   3.136   1.066   5.425  0.4541 -0.0431  0.0192
 5475SOL    HW127884   3.055   1.030   5.463  0.0186  1.4020  0.4968
 5475SOL    HW227885   3.133   1.030   5.337 -0.9745  2.2740 -0.9064
 5476SOL     OW27886   1.940   3.931   4.365 -0.2706 -1.0086  0.4874
 5476SOL    HW127887   2.000   4.005   4.380 -0.0672 -0.8241 -1.2394
 5476SOL    HW227888   1.858   3.966   4.400 -0.2370 -1.0435  0.6028
 5477SOL     OW27889   4.437   0.329   6.277 -0.6469 -0.0605 -0.1042
 5477SOL    HW127890   4.346   0.356   6.261 -1.0205 -0.9640  0.4447
 5477SOL    HW227891   4.482   0.401   6.234 -3.9004  0.8101 -2.0263
 5478SOL     OW27892   2.909   0.113  13.290 -0.1028 -0.1490  0.1103
 5478SOL    HW127893   2.927   0.088  13.199  0.0288  2.2042 -0.5017
 5478SOL    HW227894   2.990   0.161  13.304 -0.5954  1.0013 -0.9354
 5479SOL     OW27895   2.186   3.299   7.342  0.2480  0.3700 -0.3611
 5479SOL    HW127896   2.158   3.222   7.391  0.4811 -0.0008 -0.8070
 5479SOL    HW227897   2.138   3.280   7.262 -0.5528 -0.3005  0.2864
 5480SOL     OW27898   4.608   4.078   1.504 -0.2251 -0.2279  0.1357
 5480SOL    HW127899   4.549   4.033   1.444 -0.4649 -1.1404  1.0487
 5480SOL    HW227900   4.574   4.060   1.592 -1.0474 -0.2751 -0.1922
 5481SOL     OW27901   2.612   1.824   6.089  0.4194 -0.4161  0.0854
 5481SOL    HW127902   2.537   1.769   6.067 -1.1574  1.5589  0.5070
 5481SOL    HW227903   2.637   1.871   6.010 -0.0998  1.6805  1.1743
 5482SOL     OW27904   1.531   3.303  12.711 -0.2383  0.1579 -0.2428
 5482SOL    HW127905   1.615   3.310  12.666  1.2655 -0.9519  2.4366
 5482SOL    HW227906   1.534   3.366  12.782 -0.5504  0.5968 -0.6167
 5483SOL     OW27907   3.692   2.899   6.464 -0.4807  0.1785 -0.4044
 5483SOL    HW127908   3.716   2.891   6.557 -0.4960 -0.8641 -0.4925
 5483SOL    HW227909   3.621   2.836   6.454 -1.1714  0.8855 -0.0232
 5484SOL     OW27910   1.886   2.478   5.955  0.0809  0.2766  0.2327
 5484SOL    HW127911   1.805   2.528   5.943  0.7291  1.2669 -0.0369
 5484SOL    HW227912   1.883   2.471   6.050  0.4063 -0.5397  0.1834
 5485SOL     OW27913   1.621   2.169   7.506  0.5051 -0.4124 -0.0204
 5485SOL    HW127914   1.638   2.085   7.464 -0.6716 -1.1789  1.0401
 5485SOL    HW227915   1.631   2.227   7.430 -1.3384 -0.8953 -0.6427
 5486SOL     OW27916   2.829   3.366   4.170 -0.6106  0.3453  0.1766
 5486SOL    HW127917   2.877   3.447   4.153  1.6331 -0.9737  0.2128
 5486SOL    HW227918   2.737   3.388   4.160  0.1013  3.0834 -0.3113
 5487SOL     OW27919   3.056   2.909   9.683  0.2925  0.1198  0.1075
 5487SOL    HW127920   3.031   2.980   9.742 -0.2324 -0.9380  1.1698
 5487SOL    HW227921   3.135   2.950   9.648  1.2425 -0.0044  2.0970
 5488SOL     OW27922   1.200   3.629   5.728 -0.7103 -0.3821 -0.9013
 5488SOL    HW127923   1.224   3.709   5.682 -2.0387  0.3967 -0.2565
 5488SOL    HW227924   1.109   3.616   5.701 -0.9470 -2.2197  0.7821
 5489SOL     OW27925   2.975   1.647   7.641 -0.4191  0.1061 -0.5561
 5489SOL    HW127926   2.890   1.607   7.661  0.5104 -1.3185  0.5282
 5489SOL    HW227927   3.026   1.638   7.722  2.1266 -0.0554 -2.1942
 5490SOL     OW27928   3.105   4.596   8.510 -0.2256 -0.4907  0.1441
 5490SOL    HW127929   3.111   4.652   8.432 -0.9955  1.4336  1.4567
 5490SOL    HW227930   3.014   4.568   8.500 -0.1676 -0.7036  0.2111
 5491SOL     OW27931   2.278   4.439   8.400 -0.0703  0.8439 -0.7725
 5491SOL    HW127932   2.259   4.349   8.429  1.2300  1.2254  1.2492
 5491SOL    HW227933   2.358   4.429   8.349  0.1438 -0.0536 -0.2665
 5492SOL     OW27934   1.065   1.194   8.195 -0.0809  0.2837 -0.1442
 5492SOL    HW127935   1.002   1.266   8.203  1.1078  1.3994 -0.8448
 5492SOL    HW227936   1.114   1.229   8.121  0.0957  0.8051  0.2258
 5493SOL     OW27937   2.353   0.658   2.858  0.1700 -0.2759 -0.3408
 5493SOL    HW127938   2.311   0.666   2.772  1.8322  1.7572 -0.9655
 5493SOL    HW227939   2.282   0.615   2.906  0.3337 -0.9992 -0.7467
 5494SOL     OW27940   2.020   0.700   8.188  0.1503 -0.3495 -0.2251
 5494SOL    HW127941   2.098   0.700   8.243  0.2464 -0.7523 -0.3665
 5494SOL    HW227942   1.962   0.633   8.223 -3.8975  2.6856 -1.0630
 5495SOL     OW27943   0.024   1.993   4.365  0.0201 -0.4317  0.6326
 5495SOL    HW127944   4.678   2.037   4.418  1.7154  2.0676  0.7546
 5495SOL    HW227945   0.097   1.999   4.427  1.9097  1.4983 -1.7943
 5496SOL     OW27946   4.323   0.466  12.888  0.3114 -0.4772 -0.2093
 5496SOL    HW127947   4.403   0.501  12.849 -0.5300 -0.2540 -1.7211
 5496SOL    HW227948   4.361   0.451  12.975 -3.0379 -0.7732  1.2129
 5497SOL     OW27949   1.617   1.100   1.875 -0.3256  0.0429 -0.3238
 5497SOL    HW127950   1.611   1.077   1.782 -0.3384 -1.5926  0.0900
 5497SOL    HW227951   1.711   1.117   1.881  0.1306 -3.2712  2.1405
 5498SOL     OW27952   1.811   1.142   8.169  0.0460 -0.0533  0.1517
 5498SOL    HW127953   1.831   1.074   8.234 -0.6394  0.9853  1.4593
 5498SOL    HW227954   1.848   1.108   8.087  0.3146  0.6394 -0.0121
 5499SOL     OW27955   0.372   3.022   9.666  0.1337  0.6297  0.2878
 5499SOL    HW127956   0.458   2.981   9.674 -0.3739 -0.3359  0.7696
 5499SOL    HW227957   0.341   3.000   9.578 -1.9793  1.0066  0.9315
 5500SOL     OW27958   1.331   0.082  16.080  0.1252 -0.3768  0.2370
 5500SOL    HW127959   1.366   0.160  16.121 -0.1833 -0.3363  0.4244
 5500SOL    HW227960   1.276   0.117  16.009 -0.1893  0.8374  1.0846
 5501SOL     OW27961   3.594   1.560  13.648 -0.5406  0.5597  0.1612
 5501SOL    HW127962   3.608   1.466  13.656 -0.5332  0.3428 -2.3894
 5501SOL    HW227963   3.588   1.595  13.737  3.4396 -0.1902  0.7295
 5502SOL     OW27964   1.206   3.944   3.472 -0.5387  0.4193 -0.0471
 5502SOL    HW127965   1.284   3.999   3.464  1.1885 -2.2488 -1.7400
 5502SOL    HW227966   1.234   3.853   3.481 -2.1182  0.1038  1.8139
 5503SOL     OW27967   0.162   2.986  13.873  0.2348 -0.6778  0.0536
 5503SOL    HW127968   0.113   3.014  13.950 -0.5020 -0.2903 -0.5687
 5503SOL    HW227969   0.104   2.921  13.833  1.2501 -0.7900 -1.2682
 5504SOL     OW27970   4.349   3.028  11.066 -0.2226  0.9326  0.2321
 5504SOL    HW127971   4.280   3.090  11.090 -0.3017 -0.1227  2.6787
 5504SOL    HW227972   4.289   2.955  11.051 -0.6003  1.3048 -0.0911
 5505SOL     OW27973   2.641   1.292   6.928  0.4048  0.2833  0.2323
 5505SOL    HW127974   2.636   1.294   6.832 -0.5758  0.0876  0.2802
 5505SOL    HW227975   2.605   1.377   6.954  1.9567  0.3452  2.1800
 5506SOL     OW27976   4.005   3.017   1.657  0.1749  0.1915 -0.0493
 5506SOL    HW127977   3.948   2.940   1.660 -0.2550  0.5673  1.4138
 5506SOL    HW227978   3.945   3.080   1.617 -0.5270  0.1479  0.9512
 5507SOL     OW27979   3.719   1.466   1.923 -0.3377  0.0982  0.2750
 5507SOL    HW127980   3.783   1.422   1.868  1.2130  2.3509  0.2910
 5507SOL    HW227981   3.637   1.426   1.894  0.5809 -1.5133 -0.0662
 5508SOL     OW27982   4.463   4.254  11.317 -0.4945  0.4150 -0.6003
 5508SOL    HW127983   4.409   4.317  11.366 -0.1686  0.6711 -0.5675
 5508SOL    HW227984   4.542   4.308  11.313 -0.0113 -0.2678 -0.2897
 5509SOL     OW27985   2.212   3.067  14.679 -0.5196 -0.3949 -0.1069
 5509SOL    HW127986   2.256   2.982  14.677  1.4135  0.5764  1.2619
 5509SOL    HW227987   2.256   3.104  14.602  0.0831  0.5587  0.6987
 5510SOL     OW27988   4.186   2.626   4.027  0.2196 -0.0051  0.1636
 5510SOL    HW127989   4.269   2.600   3.985  0.4464 -1.6111  1.5593
 5510SOL    HW227990   4.175   2.552   4.088 -2.9129  0.6787  0.4169
 5511SOL     OW27991   2.455   4.212   2.621 -0.6312  0.3351 -0.2671
 5511SOL    HW127992   2.477   4.168   2.703 -2.0009  1.9615  0.9739
 5511SOL    HW227993   2.459   4.306   2.642  0.1793  0.2897 -0.2361
 5512SOL     OW27994   1.267   1.412   2.467  0.2011  0.3745  0.7894
 5512SOL    HW127995   1.224   1.348   2.410  1.7279 -1.4650  1.6986
 5512SOL    HW227996   1.283   1.477   2.399 -2.4051  0.1442 -0.0297
 5513SOL     OW27997   1.699   4.027   2.592 -0.2709  0.1880  0.3026
 5513SOL    HW127998   1.773   4.086   2.603  0.0601 -0.3060  0.7328
 5513SOL    HW227999   1.736   3.958   2.646  3.3187  2.3216  0.5647
 5514SOL     OW28000   1.115   3.890   5.056 -0.0829 -0.0922 -0.3710
 5514SOL    HW128001   1.166   3.815   5.086 -0.2030  0.5849  1.5414
 5514SOL    HW228002   1.140   3.952   5.124 -0.9072 -0.0632 -0.1050
 5515SOL     OW28003   0.398   1.377   5.089 -0.4493  0.4339 -0.1989
 5515SOL    HW128004   0.402   1.338   5.001  0.3916  1.6706 -0.6975
 5515SOL    HW228005   0.323   1.337   5.133 -0.3396 -0.4795 -0.8403
 5516SOL     OW28006   2.822   3.006   8.805 -0.2888  0.1832  0.0853
 5516SOL    HW128007   2.840   3.086   8.756 -2.6600  0.3241 -0.5176
 5516SOL    HW228008   2.910   2.979   8.831 -0.3865  0.8381  1.0804
 5517SOL     OW28009   0.227   3.787   7.257  0.3215 -0.2111  0.3996
 5517SOL    HW128010   0.291   3.746   7.315  0.4700  0.9371  1.0430
 5517SOL    HW228011   0.198   3.866   7.304 -1.1321 -1.2520  1.2310
 5518SOL     OW28012   3.392   1.403   5.767 -0.2915  0.0453 -0.4413
 5518SOL    HW128013   3.371   1.310   5.757 -2.8238  0.3966  1.7878
 5518SOL    HW228014   3.312   1.435   5.807  0.6674 -0.2925  1.7580
 5519SOL     OW28015   0.875   3.133   7.876 -0.1408 -0.0873  0.0284
 5519SOL    HW128016   0.840   3.058   7.925 -0.5467  0.1440  0.0869
 5519SOL    HW228017   0.917   3.171   7.953 -1.0746  0.4232  0.2756
 5520SOL     OW28018   4.519   2.291   7.071 -0.2448 -0.2060 -0.0163
 5520SOL    HW128019   4.452   2.296   7.002  1.0131 -0.7395 -1.2890
 5520SOL    HW228020   4.575   2.223   7.034  0.3485 -0.1655  0.8164
 5521SOL     OW28021   2.627   2.517   4.065 -0.4056 -0.0435  0.5579
 5521SOL    HW128022   2.569   2.568   4.009  0.7612 -0.3730 -0.9542
 5521SOL    HW228023   2.709   2.510   4.015 -1.7617  0.1186 -1.6987
 5522SOL     OW28024   2.009   3.054   3.925 -0.1046 -0.2381  0.7573
 5522SOL    HW128025   1.985   3.012   4.008  1.7838 -0.1373  1.3365
 5522SOL    HW228026   1.946   3.126   3.926  2.3185  1.7964  2.9440
 5523SOL     OW28027   1.352   2.659   7.472  0.3943 -0.0509  0.0732
 5523SOL    HW128028   1.317   2.571   7.485  1.6411 -0.4495  0.6732
 5523SOL    HW228029   1.408   2.645   7.396  2.3385  1.7971  1.1593
 5524SOL     OW28030   3.137   1.989   1.128  0.0625  0.6933  0.4352
 5524SOL    HW128031   3.051   2.008   1.166  0.1863 -0.2273  1.1731
 5524SOL    HW228032   3.144   1.896   1.149  0.0813  1.1505  2.3788
 5525SOL     OW28033   0.846   0.946   6.029 -0.1773  0.0911  0.6295
 5525SOL    HW128034   0.938   0.946   6.054  0.6007  0.6189 -2.3185
 5525SOL    HW228035   0.856   0.989   5.944 -1.7835  0.0503  0.4170
 5526SOL     OW28036   1.595   2.562   8.580  0.3113  0.2747  0.4113
 5526SOL    HW128037   1.522   2.618   8.556 -1.2517 -1.2937  1.5328
 5526SOL    HW228038   1.637   2.600   8.657  0.5050  0.1241  0.3821
 5527SOL     OW28039   0.586   3.941   3.628  0.2020 -0.7681  0.1449
 5527SOL    HW128040   0.510   3.889   3.600  0.5135 -0.1158 -1.9512
 5527SOL    HW228041   0.650   3.904   3.567 -1.6722 -2.2673 -0.9463
 5528SOL     OW28042   1.925   1.612   7.195  0.9718 -0.3407  0.0822
 5528SOL    HW128043   2.005   1.655   7.165  0.4777  1.0785  0.7966
 5528SOL    HW228044   1.936   1.523   7.163 -2.8562 -1.6591  2.4652
 5529SOL     OW28045   3.118   4.036   6.077  0.0060  0.1570  0.2101
 5529SOL    HW128046   3.064   3.977   6.024  0.2472  0.2424 -0.1359
 5529SOL    HW228047   3.094   3.993   6.159  1.0502 -1.9303 -0.5656
 5530SOL     OW28048   2.597   4.314   4.095  0.6106  0.0017  0.6888
 5530SOL    HW128049   2.679   4.318   4.143  0.8824 -1.1202  0.3207
 5530SOL    HW228050   2.622   4.272   4.012 -1.8040  0.4527 -0.2881
 5531SOL     OW28051   0.403   2.452   8.110  0.1266  0.8659  0.1954
 5531SOL    HW128052   0.480   2.500   8.080  0.6808 -0.6626 -0.8543
 5531SOL    HW228053   0.381   2.506   8.186 -1.1835  0.9188 -0.2208
 5532SOL     OW28054   1.574   0.638  12.020 -0.1412 -0.3028 -0.1036
 5532SOL    HW128055   1.487   0.597  12.022 -0.4998  0.5055  1.3454
 5532SOL    HW228056   1.619   0.554  12.016  0.2803 -0.0428 -0.7099
 5533SOL     OW28057   4.066   4.548   8.393  0.0850 -0.0186  0.3273
 5533SOL    HW128058   4.005   4.564   8.465 -1.0524 -1.1931 -0.3796
 5533SOL    HW228059   4.155   4.566   8.426 -1.2338  1.6860  2.9775
 5534SOL     OW28060   3.462   2.387   8.457 -0.1959 -0.5606  0.3974
 5534SOL    HW128061   3.467   2.479   8.430 -1.2551 -0.3941  0.7855
 5534SOL    HW228062   3.371   2.385   8.488  0.1204 -1.2610  1.2661
 5535SOL     OW28063   1.883   4.473   8.284 -0.1032  0.3180 -0.4285
 5535SOL    HW128064   1.840   4.411   8.343 -3.4721  3.0145 -0.0739
 5535SOL    HW228065   1.895   4.542   8.349 -0.3108  0.7161 -0.8070
 5536SOL     OW28066   3.242   4.537  12.329  0.0141  0.0938 -0.5481
 5536SOL    HW128067   3.202   4.603  12.274  0.0795 -2.8738 -4.1568
 5536SOL    HW228068   3.239   4.578  12.416 -1.1788  0.2512 -0.6649
 5537SOL     OW28069   0.239   1.874  17.502 -0.1683 -0.6456 -0.3417
 5537SOL    HW128070   0.284   1.938  17.447  1.1573 -0.1394  1.3338
 5537SOL    HW228071   0.256   1.909  17.589 -2.1828  0.3399 -0.3459
 5538SOL     OW28072   2.438   1.652   2.098 -0.4406 -0.3864 -0.0442
 5538SOL    HW128073   2.369   1.587   2.088 -1.6984  1.1138 -1.1423
 5538SOL    HW228074   2.437   1.670   2.192  4.2983  1.1022 -0.2645
 5539SOL     OW28075   0.878   2.283   8.995 -0.0517  0.3700  0.1844
 5539SOL    HW128076   0.858   2.321   9.080  2.2280  0.9389  0.4680
 5539SOL    HW228077   0.972   2.299   8.988 -0.3364  0.7231 -3.0133
 5540SOL     OW28078   3.757   3.539   5.615  0.2889 -0.2545 -0.1125
 5540SOL    HW128079   3.746   3.631   5.640  1.3856 -0.3504  0.7104
 5540SOL    HW228080   3.802   3.511   5.695 -0.5557  0.7920  0.7331
 5541SOL     OW28081   2.181   2.559   8.415  0.1039 -0.1066 -0.3014
 5541SOL    HW128082   2.110   2.613   8.451 -0.6207 -1.6800  0.6442
 5541SOL    HW228083   2.236   2.557   8.493 -1.5400  1.6372  0.8985
 5542SOL     OW28084   1.860   1.657   6.526 -0.2432  0.2284 -0.0694
 5542SOL    HW128085   1.820   1.577   6.493 -0.2239  0.6787 -1.1761
 5542SOL    HW228086   1.946   1.617   6.535 -0.5292 -0.5569 -0.8572
 5543SOL     OW28087   0.165   2.529   6.816  0.0603  0.2374  0.4577
 5543SOL    HW128088   0.191   2.440   6.791  0.2365  0.7747 -1.2713
 5543SOL    HW228089   0.187   2.576   6.736  1.3044  1.0476  1.2782
 5544SOL     OW28090   2.579   4.102  14.392 -0.4206  0.1876  0.1154
 5544SOL    HW128091   2.565   4.008  14.398 -2.2063  0.5126  1.0491
 5544SOL    HW228092   2.515   4.122  14.324  1.0007 -1.5377 -1.7220
 5545SOL     OW28093   2.455   0.187   2.731  0.3156 -0.6020  0.0476
 5545SOL    HW128094   2.416   0.099   2.735 -0.5092 -0.2548 -0.3881
 5545SOL    HW228095   2.441   0.206   2.824  1.3787  0.2006  0.0303
 5546SOL     OW28096   3.245   2.279   4.617  0.0964  0.3140 -0.1890
 5546SOL    HW128097   3.338   2.303   4.611  1.2034 -2.9076  3.8059
 5546SOL    HW228098   3.206   2.327   4.544 -1.8366  0.4850  0.9603
 5547SOL     OW28099   0.396   0.571   0.304  0.6657  0.6187 -0.2166
 5547SOL    HW128100   0.408   0.663   0.280  1.6894  0.2830 -1.0517
 5547SOL    HW228101   0.309   0.566   0.342  1.1828  0.6090  0.9612
 5548SOL     OW28102   3.657   0.166   3.531  0.3721 -0.3553 -0.1279
 5548SOL    HW128103   3.637   0.127   3.446 -1.0097  1.8595 -0.8125
 5548SOL    HW228104   3.746   0.192   3.508  0.8081 -0.9020  0.9337
 5549SOL     OW28105   1.870   2.910   8.358  0.1724 -0.1193  0.5090
 5549SOL    HW128106   1.780   2.877   8.358 -0.0783  0.5597 -0.5219
 5549SOL    HW228107   1.882   2.919   8.263  1.3124 -1.8431  0.4890
 5550SOL     OW28108   0.777   2.711   5.677 -0.0106  0.3451 -0.0128
 5550SOL    HW128109   0.849   2.692   5.616 -0.9826 -1.5989 -0.5629
 5550SOL    HW228110   0.829   2.723   5.756  0.4879  3.2041 -0.7814
 5551SOL     OW28111   2.410   3.206   4.618 -0.0196  0.3018  0.1298
 5551SOL    HW128112   2.492   3.254   4.611  0.3417 -0.2054  0.9088
 5551SOL    HW228113   2.388   3.215   4.711 -0.4074 -0.1542  0.0829
 5552SOL     OW28114   0.781   3.613   8.781 -0.8121 -0.2356  0.4728
 5552SOL    HW128115   0.870   3.620   8.747 -0.8059  0.1061  0.5650
 5552SOL    HW228116   0.753   3.699   8.753 -3.0566 -1.0093  0.3650
 5553SOL     OW28117   3.252   1.068   2.960  0.0939 -0.9628  0.6143
 5553SOL    HW128118   3.216   1.043   3.045 -0.7020 -2.0955 -0.0520
 5553SOL    HW228119   3.206   1.150   2.944 -1.0907 -1.8350 -0.4771
 5554SOL     OW28120   3.084   0.969   0.149  0.4460 -0.5064 -0.2325
 5554SOL    HW128121   3.137   0.985   0.228 -0.3976 -2.0567  0.6376
 5554SOL    HW228122   3.020   1.037   0.169  1.1643  0.4975 -1.2992
 5555SOL     OW28123   3.936   2.423   4.713 -0.7028  0.1064  0.0386
 5555SOL    HW128124   3.860   2.470   4.679  0.9035  1.3457 -1.8425
 5555SOL    HW228125   3.910   2.420   4.805 -2.5002 -0.1115 -0.4801
 5556SOL     OW28126   3.467   2.911   7.424 -0.3839 -0.0130  0.4002
 5556SOL    HW128127   3.384   2.953   7.447 -0.0886  2.9684 -4.0940
 5556SOL    HW228128   3.490   2.950   7.340  1.3779 -2.4037 -0.2261
 5557SOL     OW28129   4.340   3.662   3.330 -0.1005  0.0046 -0.0528
 5557SOL    HW128130   4.371   3.697   3.414  1.3377  0.9431 -0.9708
 5557SOL    HW228131   4.246   3.649   3.341  0.0332 -1.2531 -0.3960
 5558SOL     OW28132   0.577   3.649   2.098 -0.0944 -0.1843  0.0391
 5558SOL    HW128133   0.601   3.556   2.099 -2.6709 -0.8380 -0.1010
 5558SOL    HW228134   0.613   3.670   2.184 -1.7923  0.2144  0.6416
 5559SOL     OW28135   0.296   2.330   6.268 -0.2113  0.3154 -0.2014
 5559SOL    HW128136   0.342   2.250   6.245 -1.2167 -0.9612  2.3250
 5559SOL    HW228137   0.282   2.311   6.361  0.3651  1.4356  0.1264
 5560SOL     OW28138   0.812   2.672   7.882 -0.0309  0.7740 -0.0884
 5560SOL    HW128139   0.892   2.650   7.929 -0.5000 -0.2192  0.2307
 5560SOL    HW228140   0.843   2.728   7.810  0.3186  0.9178  0.1753
 5561SOL     OW28141   0.780   2.556   7.523  0.2274 -0.3214 -0.3027
 5561SOL    HW128142   0.711   2.593   7.578  2.2499  2.5176  0.3283
 5561SOL    HW228143   0.737   2.562   7.438 -1.8768 -0.5504  0.7331
 5562SOL     OW28144   0.568   1.705   4.354 -0.2687  0.1628 -0.0477
 5562SOL    HW128145   0.601   1.617   4.334 -1.9762  0.0706 -2.5672
 5562SOL    HW228146   0.501   1.678   4.416 -0.2678  0.1398 -0.0566
 5563SOL     OW28147   3.923   0.346  14.641  0.4121 -0.7087  0.8410
 5563SOL    HW128148   3.989   0.363  14.709  0.5323 -1.4445  0.9118
 5563SOL    HW228149   3.967   0.372  14.560 -1.4551  0.5459  0.2566
 5564SOL     OW28150   2.965   2.827   8.258 -0.2383  0.4665  0.0617
 5564SOL    HW128151   3.020   2.879   8.200  2.0371  1.0692  2.7463
 5564SOL    HW228152   2.994   2.860   8.343  1.8803  0.2335 -0.5756
 5565SOL     OW28153   2.664   0.478   8.541 -0.2365 -0.3474 -0.1311
 5565SOL    HW128154   2.580   0.437   8.521 -0.2464 -0.4706  0.1660
 5565SOL    HW228155   2.698   0.407   8.595 -1.0034  0.6869  1.6870
 5566SOL     OW28156   3.771   3.792  15.926  0.2608  0.5112  0.7045
 5566SOL    HW128157   3.796   3.761  15.839 -0.3166  2.8055 -0.2696
 5566SOL    HW228158   3.763   3.711  15.976 -0.5939  0.8898  1.1702
 5567SOL     OW28159   3.946   3.753   4.162  0.3435  0.1182  0.4991
 5567SOL    HW128160   3.908   3.748   4.250  1.8492 -1.1554  1.0753
 5567SOL    HW228161   3.985   3.840   4.168 -0.7533  0.5495  1.2164
 5568SOL     OW28162   3.751   2.976  17.140  0.2031 -0.3920  0.3731
 5568SOL    HW128163   3.740   3.037  17.067 -0.3844 -0.7074  0.1950
 5568SOL    HW228164   3.839   2.980  17.177  0.1932  2.8889 -0.0086
 5569SOL     OW28165   2.725   0.637  15.300 -0.4630  0.2056  0.1578
 5569SOL    HW128166   2.687   0.572  15.359 -0.7392  0.0365 -0.2108
 5569SOL    HW228167   2.691   0.613  15.214  2.4086  1.0836 -1.2241
 5570SOL     OW28168   2.087   1.832   6.373 -0.7140  0.7046  0.1920
 5570SOL    HW128169   2.005   1.828   6.323 -0.4650 -0.6717 -0.0975
 5570SOL    HW228170   2.120   1.917   6.343 -0.1612  0.8145  1.1101
 5571SOL     OW28171   0.290   4.502   3.649  0.1690  0.5668  0.5539
 5571SOL    HW128172   0.210   4.529   3.694 -0.3710 -1.8961  1.0956
 5571SOL    HW228173   0.333   4.468   3.727  1.3416 -3.7594 -1.9613
 5572SOL     OW28174   0.876   4.431   7.264  0.4311 -0.4840 -0.1460
 5572SOL    HW128175   0.784   4.455   7.258  0.8450  1.3258  0.7694
 5572SOL    HW228176   0.868   4.356   7.323 -1.5760  0.5327  0.8720
 5573SOL     OW28177   0.760   4.555  15.279 -0.0865 -0.1130 -0.3061
 5573SOL    HW128178   0.796   4.639  15.251  1.5068 -0.3968  0.8633
 5573SOL    HW228179   0.715   4.582  15.359  0.8789  0.7101 -0.0352
 5574SOL     OW28180   2.334   2.187  12.161  0.8231 -1.0605  0.1391
 5574SOL    HW128181   2.354   2.173  12.253  0.0495  0.8819  0.5872
 5574SOL    HW228182   2.264   2.251  12.168  0.5212 -1.4344  0.5268
 5575SOL     OW28183   2.085   0.671   7.601 -0.0345  0.1211 -0.2398
 5575SOL    HW128184   2.058   0.659   7.692 -1.9411 -0.0470 -0.8111
 5575SOL    HW228185   2.115   0.762   7.601  0.5390 -0.0748  0.7772
 5576SOL     OW28186   0.822   1.646   3.558 -0.0370  0.1844 -0.0311
 5576SOL    HW128187   0.912   1.625   3.583 -0.4771 -0.3962  1.0289
 5576SOL    HW228188   0.822   1.586   3.484 -0.8653 -0.0482  0.1638
 5577SOL     OW28189   1.819   2.640   0.528 -0.1099  0.1693  0.3122
 5577SOL    HW128190   1.886   2.656   0.595  0.5915 -0.7476 -0.1673
 5577SOL    HW228191   1.799   2.733   0.512  0.9675  0.3267 -0.1395
 5578SOL     OW28192   3.923   1.698   2.406 -0.4030  0.4024  0.2163
 5578SOL    HW128193   3.839   1.671   2.444 -0.1777  2.9391  2.4541
 5578SOL    HW228194   3.955   1.625   2.352  1.1300 -0.9865  3.0102
 5579SOL     OW28195   2.939   1.511  12.146 -0.6109  0.1722  0.4291
 5579SOL    HW128196   2.924   1.591  12.095  0.5277  0.8407  1.1312
 5579SOL    HW228197   3.019   1.542  12.190  0.8372  0.4159 -2.3501
 5580SOL     OW28198   0.403   0.366   6.441 -0.1385 -0.4690  0.8598
 5580SOL    HW128199   0.478   0.315   6.472  1.7298  1.1209 -1.0933
 5580SOL    HW228200   0.445   0.450   6.422 -1.7441  0.4615  1.4648
 5581SOL     OW28201   1.511   1.392   8.543 -1.1113  0.0431 -0.4620
 5581SOL    HW128202   1.479   1.447   8.614 -1.4926 -0.8144  0.0237
 5581SOL    HW228203   1.546   1.456   8.482 -0.4461 -1.0301 -1.2080
 5582SOL     OW28204   3.610   0.446   9.662  0.4937  0.3418 -0.3323
 5582SOL    HW128205   3.635   0.435   9.754 -1.5291 -0.2473  0.1602
 5582SOL    HW228206   3.557   0.521   9.689 -0.8442 -1.3435  1.7377
 5583SOL     OW28207   4.245   1.447   3.991 -0.0508  0.1323 -0.1873
 5583SOL    HW128208   4.314   1.396   4.035  0.7438  0.6101 -0.8853
 5583SOL    HW228209   4.231   1.514   4.057 -1.6256  0.2717 -0.6517
 5584SOL     OW28210   0.610   3.684   8.219  0.0655 -0.3076  0.3281
 5584SOL    HW128211   0.529   3.705   8.173  0.2504  2.7818  1.3850
 5584SOL    HW228212   0.616   3.763   8.273  2.3835 -1.2271  1.4277
 5585SOL     OW28213   3.963   1.619   2.772  0.2580 -0.0395  0.9499
 5585SOL    HW128214   3.894   1.633   2.707  1.7392 -0.2816 -0.6437
 5585SOL    HW228215   3.995   1.537   2.735 -0.0821 -0.3515  1.3436
 5586SOL     OW28216   4.638   4.486  15.179 -0.2669  0.1317  0.1099
 5586SOL    HW128217   4.595   4.487  15.093 -2.7718 -0.6016  1.3583
 5586SOL    HW228218   4.609   4.571  15.212 -0.9127  0.9845 -2.6299
 5587SOL     OW28219   2.569   0.569  16.488 -0.1173 -0.4067 -0.0593
 5587SOL    HW128220   2.480   0.596  16.511  1.3029  1.8072  2.8103
 5587SOL    HW228221   2.616   0.617  16.556 -0.8147  0.0859  0.0782
 5588SOL     OW28222   0.230   3.440  14.462 -0.3373  0.5350 -0.0313
 5588SOL    HW128223   0.277   3.521  14.445 -1.5899  1.1250 -0.6941
 5588SOL    HW228224   0.142   3.463  14.433 -0.0938 -0.3319 -1.4354
 5589SOL     OW28225   0.043   0.600   8.100  0.5709 -0.4521  0.0538
 5589SOL    HW128226   4.680   0.644   8.096  1.1606  1.0452  3.7681
 5589SOL    HW228227   0.059   0.601   8.195  1.3238  0.2525 -0.0811
 5590SOL     OW28228   3.732   3.777  17.162 -0.1883  0.7335 -0.3971
 5590SOL    HW128229   3.714   3.708  17.099  0.1385 -0.5062  0.8853
 5590SOL    HW228230   3.815   3.744  17.195  0.5166  1.6712 -1.2102
 5591SOL     OW28231   1.033   3.701   6.846  0.3508  0.3131 -0.7108
 5591SOL    HW128232   0.948   3.714   6.804  0.3222 -0.5718 -0.9281
 5591SOL    HW228233   1.002   3.617   6.881  1.2628  0.8022  1.2713
 5592SOL     OW28234   0.483   4.508  11.395 -0.0434  0.1966 -0.4578
 5592SOL    HW128235   0.522   4.482  11.311 -1.0580  1.5227 -1.3327
 5592SOL    HW228236   0.396   4.538  11.371  0.5343  2.6037  0.4194
 5593SOL     OW28237   4.605   0.821   6.121  0.4991  0.0686 -0.6933
 5593SOL    HW128238   4.598   0.785   6.032  2.2279  0.6195 -1.0631
 5593SOL    HW228239   4.665   0.894   6.107 -1.0581  1.2877 -0.8987
 5594SOL     OW28240   0.417   1.202  12.374  0.2856 -0.2181  0.0484
 5594SOL    HW128241   0.396   1.284  12.331 -2.7397 -1.9950 -1.9142
 5594SOL    HW228242   0.450   1.146  12.304 -0.5195  0.9223 -1.2458
 5595SOL     OW28243   0.006   0.846  12.591  0.2056  0.5300  0.0733
 5595SOL    HW128244   0.016   0.855  12.496 -1.5064 -2.9128 -0.4314
 5595SOL    HW228245   4.635   0.829  12.612 -0.2389  1.6661 -0.9575
 5596SOL     OW28246   4.552   4.114  16.487  0.3500 -0.3860  0.0746
 5596SOL    HW128247   4.473   4.144  16.441  0.6128 -1.1765 -0.9003
 5596SOL    HW228248   4.534   4.153  16.572  0.7861 -1.5562  0.7005
 5597SOL     OW28249   3.451   2.690   5.250 -0.2404 -0.3457  0.3427
 5597SOL    HW128250   3.536   2.723   5.222 -0.8655  1.2480  0.3095
 5597SOL    HW228251   3.398   2.768   5.235  0.2227  0.0864  0.9383
 5598SOL     OW28252   1.337   0.046   8.815 -0.5531  0.0988  0.0134
 5598SOL    HW128253   1.322   0.009   8.902  0.0824 -0.0979  0.0420
 5598SOL    HW228254   1.314   0.138   8.823  0.4304  0.1857  1.9202
 5599SOL     OW28255   0.008   4.664  10.060 -0.2944  0.4120 -0.4336
 5599SOL    HW128256   4.699   4.676  10.150  0.9035 -1.6150  0.2225
 5599SOL    HW228257   0.083   0.001  10.070 -0.1178  0.2448 -0.7844
 5600SOL     OW28258   4.242   2.083   0.438  0.1476 -0.0466 -0.2068
 5600SOL    HW128259   4.257   1.997   0.398  1.8340  0.7842 -1.3901
 5600SOL    HW228260   4.321   2.085   0.492 -0.6127  1.4856  0.8384
 5601SOL     OW28261   4.257   4.380   3.209  0.7124  0.2752  0.0598
 5601SOL    HW128262   4.281   4.441   3.139  3.3124  1.2406  1.7590
 5601SOL    HW228263   4.337   4.355   3.255 -0.2324 -1.6031  0.6898
 5602SOL     OW28264   4.646   1.982  13.366 -0.6556 -0.5054 -0.4662
 5602SOL    HW128265   4.614   1.950  13.282 -1.5545 -0.1432 -0.2656
 5602SOL    HW228266   4.623   1.911  13.425  1.0548  0.1248  0.9605
 5603SOL     OW28267   3.847   3.069   2.539 -0.1184 -0.4841 -0.0709
 5603SOL    HW128268   3.883   3.113   2.616 -1.0718 -2.7886  1.6819
 5603SOL    HW228269   3.836   2.978   2.566 -2.3228  0.0372  0.7928
 5604SOL     OW28270   1.259   4.200   1.134  0.0546  0.5131  0.2739
 5604SOL    HW128271   1.179   4.193   1.186 -0.1280  1.8074  0.1689
 5604SOL    HW228272   1.243   4.276   1.077 -1.5408  1.2453  1.6723
 5605SOL     OW28273   4.393   1.029  10.486  0.1956  0.6440 -0.1907
 5605SOL    HW128274   4.370   1.107  10.435 -1.4801  0.3212  0.0828
 5605SOL    HW228275   4.322   0.968  10.466 -0.9609  2.4918 -1.7637
 5606SOL     OW28276   0.150   2.730   2.998  0.0753  0.3037  0.1444
 5606SOL    HW128277   0.136   2.784   3.075 -0.8422 -0.0443  0.2230
 5606SOL    HW228278   0.114   2.646   3.025 -2.3120  1.7004  1.3228
 5607SOL     OW28279   0.122   3.405   0.543  0.3316  0.4712  0.3275
 5607SOL    HW128280   0.190   3.472   0.542  0.6576  0.1495  0.6953
 5607SOL    HW228281   0.107   3.411   0.637 -1.0443 -1.6001  0.2431
 5608SOL     OW28282   3.790   4.224   7.735  0.3718 -0.2428 -0.7624
 5608SOL    HW128283   3.821   4.140   7.769  1.1318  0.5931  0.5628
 5608SOL    HW228284   3.835   4.237   7.651  0.9057 -0.3622 -0.4956
 5609SOL     OW28285   0.479   2.519  11.005 -0.5905 -0.6370 -0.1386
 5609SOL    HW128286   0.447   2.478  11.085  0.7872  1.1781  1.3452
 5609SOL    HW228287   0.420   2.595  11.014 -0.0045 -0.4330  1.8490
 5610SOL     OW28288   4.091   4.384   3.534  0.0854  0.4530 -0.2103
 5610SOL    HW128289   4.150   4.311   3.553  0.9953  1.9682  2.9032
 5610SOL    HW228290   4.008   4.334   3.536  0.0471  0.4857 -1.1600
 5611SOL     OW28291   3.068   0.109   4.307  0.1527 -0.0758  0.4974
 5611SOL    HW128292   3.059   0.171   4.380  0.2642  0.7163 -0.1683
 5611SOL    HW228293   3.100   0.026   4.342  1.2430 -0.0451 -0.4404
 5612SOL     OW28294   1.640   3.212  15.045  0.5549  0.1653  0.7398
 5612SOL    HW128295   1.647   3.307  15.048  0.5279  0.1069  2.7682
 5612SOL    HW228296   1.545   3.209  15.041  0.4789 -0.5414  3.0388
 5613SOL     OW28297   2.223   4.373  10.974  0.3606  0.2784 -0.1354
 5613SOL    HW128298   2.214   4.402  11.065 -0.2036  1.9861 -0.7197
 5613SOL    HW228299   2.307   4.407  10.944  1.2236 -0.5390  1.3676
 5614SOL     OW28300   3.912   3.981  17.110  0.0839 -0.2859 -0.2213
 5614SOL    HW128301   3.833   3.928  17.116 -0.2926  0.4513  1.2445
 5614SOL    HW228302   3.952   3.938  17.034  1.1888  0.4737 -0.0794
 5615SOL     OW28303   3.180   2.496   8.835 -0.1881  0.7666 -0.5728
 5615SOL    HW128304   3.212   2.433   8.899  1.5418  1.3161 -0.8784
 5615SOL    HW228305   3.115   2.552   8.878  1.3305  1.4547  0.8334
 5616SOL     OW28306   2.777   1.468   5.943  0.3426 -0.5805 -0.1875
 5616SOL    HW128307   2.775   1.379   5.976 -1.8849 -0.4546  0.0549
 5616SOL    HW228308   2.780   1.531   6.015  0.6090  2.3790 -2.7716
 5617SOL     OW28309   4.036   2.874   7.792 -0.3532  0.0688 -0.0188
 5617SOL    HW128310   4.028   2.780   7.807  1.4035  0.4386  3.1948
 5617SOL    HW228311   3.997   2.876   7.704  1.4165 -1.0472 -0.8368
 5618SOL     OW28312   2.929   1.627   5.048  0.0581  0.5705 -0.2872
 5618SOL    HW128313   2.945   1.665   4.962 -0.6894  1.1117 -0.1892
 5618SOL    HW228314   2.961   1.690   5.112  0.7229  0.6689 -0.7199
 5619SOL     OW28315   0.058   4.186   5.495  0.1252  0.2801 -0.8824
 5619SOL    HW128316   0.092   4.097   5.498  1.8018  1.0345  2.5378
 5619SOL    HW228317   4.686   4.163   5.503  0.3571 -0.1397  0.6012
 5620SOL     OW28318   0.648   0.754  14.153  0.6909 -0.0234 -0.1250
 5620SOL    HW128319   0.672   0.695  14.082  0.7759 -1.4319  1.0833
 5620SOL    HW228320   0.700   0.830  14.125 -1.2182  0.3716 -2.5873
 5621SOL     OW28321   0.632   2.306   7.686 -0.4241 -0.5883 -0.0289
 5621SOL    HW128322   0.722   2.331   7.708 -0.6064 -0.5281  0.6640
 5621SOL    HW228323   0.604   2.388   7.645  0.2174  0.1573  1.0304
 5622SOL     OW28324   3.723   4.080   0.896  0.4444  0.5311  0.2409
 5622SOL    HW128325   3.707   4.038   0.812  0.6939 -1.4749  1.2021
 5622SOL    HW228326   3.691   4.167   0.870  1.3971  0.6714 -0.4592
 5623SOL     OW28327   2.161   0.599   4.799  0.0483 -0.1543  0.3095
 5623SOL    HW128328   2.132   0.523   4.749 -1.3196 -1.1110  2.6003
 5623SOL    HW228329   2.187   0.664   4.733  0.5748  0.5325  1.1921
 5624SOL     OW28330   2.368   1.313   4.307  0.1591 -0.1454  0.0336
 5624SOL    HW128331   2.280   1.297   4.273  0.7993 -0.0705 -1.6664
 5624SOL    HW228332   2.391   1.379   4.241  2.3667 -0.6676  0.2778
 5625SOL     OW28333   2.037   3.134   3.451 -0.3081  0.0298 -0.1035
 5625SOL    HW128334   2.006   3.073   3.518 -0.4876 -0.8134 -0.9504
 5625SOL    HW228335   2.031   3.080   3.372 -0.7466  2.5297 -1.7944
 5626SOL     OW28336   2.951   1.617  16.092  0.0337  0.0776  0.5544
 5626SOL    HW128337   2.932   1.693  16.147 -1.2972 -0.5018  0.8910
 5626SOL    HW228338   2.938   1.549  16.158 -0.0673  0.5834  1.0533
 5627SOL     OW28339   2.635   2.954   3.304  0.7053 -0.1058 -0.1323
 5627SOL    HW128340   2.702   2.971   3.371 -0.7068  3.4311  0.4216
 5627SOL    HW228341   2.646   2.859   3.306 -0.5461 -0.2471 -0.2962
 5628SOL     OW28342   1.994   0.876   8.482 -0.5490  0.6001  0.1402
 5628SOL    HW128343   2.068   0.820   8.508 -1.1619 -0.6356 -0.7767
 5628SOL    HW228344   1.978   0.923   8.564 -1.9022 -3.2943  2.0921
 5629SOL     OW28345   1.217   2.716   5.524 -0.0067  0.4986 -0.5977
 5629SOL    HW128346   1.255   2.730   5.438 -0.4576  2.1081 -0.5411
 5629SOL    HW228347   1.297   2.711   5.576  0.3534  0.0912 -1.1935
 5630SOL     OW28348   1.693   3.035   0.686  0.4932  0.2671  0.3017
 5630SOL    HW128349   1.612   3.025   0.636  0.4940 -1.2501  0.5900
 5630SOL    HW228350   1.736   2.953   0.660 -1.4608 -0.2716 -1.1854
 5631SOL     OW28351   3.745   3.322   5.436  0.3371  0.1027  0.1520
 5631SOL    HW128352   3.764   3.401   5.486  2.6427 -1.1233  1.1967
 5631SOL    HW228353   3.696   3.269   5.499 -0.3629 -0.2358 -0.6708
 5632SOL     OW28354   2.231   3.951  15.905  0.5659 -0.3306  0.3258
 5632SOL    HW128355   2.153   3.964  15.852  0.9479 -3.0561 -0.9731
 5632SOL    HW228356   2.280   3.894  15.845 -1.8429  1.3037 -3.1701
 5633SOL     OW28357   3.184   0.965   5.861  0.4956  0.4108 -0.0161
 5633SOL    HW128358   3.184   0.897   5.794  0.3062 -0.2790  0.6853
 5633SOL    HW228359   3.098   0.964   5.903  1.9271  0.0422  2.9591
 5634SOL     OW28360   4.692   1.869   0.259 -0.1636 -0.1275  0.2112
 5634SOL    HW128361   0.026   1.946   0.244  0.5010 -1.0060 -1.8017
 5634SOL    HW228362   0.017   1.826   0.331  0.7647 -0.3904 -0.5376
 5635SOL     OW28363   2.831   2.788   2.268 -0.1034 -0.3655 -0.0533
 5635SOL    HW128364   2.811   2.857   2.205 -2.4219  1.2955  2.4386
 5635SOL    HW228365   2.877   2.839   2.335  1.8980  0.4017 -2.0579
 5636SOL     OW28366   0.821   2.314   4.242  0.0032  0.3502 -0.1164
 5636SOL    HW128367   0.913   2.289   4.227 -0.4202 -0.4065 -1.4224
 5636SOL    HW228368   0.779   2.296   4.158 -1.5680  1.3909  0.4529
 5637SOL     OW28369   0.503   4.385   1.049  0.2928  0.5100 -0.2870
 5637SOL    HW128370   0.432   4.326   1.076  2.7687 -2.0936  0.6187
 5637SOL    HW228371   0.567   4.352   1.114 -0.3512  3.1309  1.6674
 5638SOL     OW28372   3.455   0.894   3.600 -0.2448 -0.1506  0.1736
 5638SOL    HW128373   3.359   0.900   3.596 -0.3196 -0.4201  1.7450
 5638SOL    HW228374   3.460   0.915   3.693  1.5013 -0.6808  0.1955
 5639SOL     OW28375   4.137   1.261   4.236  0.3783 -0.0333 -0.2869
 5639SOL    HW128376   4.174   1.349   4.236 -0.4737  0.3270  0.8880
 5639SOL    HW228377   4.149   1.223   4.323  2.8724 -1.3993 -1.2185
 5640SOL     OW28378   1.481   2.506   5.292  0.0321 -0.2175  0.3766
 5640SOL    HW128379   1.501   2.478   5.381 -0.1326  0.0643  0.5048
 5640SOL    HW228380   1.385   2.510   5.292  0.0515  0.3941 -2.9414
 5641SOL     OW28381   0.451   3.056   2.810  0.0589  0.6169 -0.2578
 5641SOL    HW128382   0.481   2.977   2.765  1.8879  1.7312 -0.9827
 5641SOL    HW228383   0.358   3.034   2.813 -0.0310  1.0573  0.2032
 5642SOL     OW28384   3.865   0.947  14.763 -0.8400 -0.4938 -0.4287
 5642SOL    HW128385   3.882   0.865  14.717 -2.5152 -1.3795  0.5092
 5642SOL    HW228386   3.773   0.963  14.740 -0.7711 -1.2841 -1.2564
 5643SOL     OW28387   3.393   0.759   7.196 -0.0333  0.3660 -0.7331
 5643SOL    HW128388   3.388   0.772   7.102 -0.9445 -0.9994 -0.8799
 5643SOL    HW228389   3.375   0.848   7.227  0.9975  0.3076  0.0428
 5644SOL     OW28390   0.722   2.597   6.023  0.0585 -0.1073 -0.5347
 5644SOL    HW128391   0.673   2.552   5.955 -0.0757  1.7755 -1.6840
 5644SOL    HW228392   0.670   2.574   6.099 -0.9209  0.3468 -1.0707
 5645SOL     OW28393   2.189   1.787  15.183  0.6348  0.5687  0.3558
 5645SOL    HW128394   2.263   1.785  15.123 -1.2925 -0.0155 -2.0062
 5645SOL    HW228395   2.119   1.776  15.118  2.0942  0.0828 -1.1478
 5646SOL     OW28396   0.873   1.500   7.638 -0.1971  0.6118  0.1203
 5646SOL    HW128397   0.850   1.539   7.554  1.0136  0.8397 -0.1118
 5646SOL    HW228398   0.939   1.439   7.605 -0.3772  2.1035 -3.0293
 5647SOL     OW28399   2.927   0.954   5.573 -0.3386 -0.0234 -0.3528
 5647SOL    HW128400   2.848   0.919   5.532  0.7355 -2.0151 -0.7061
 5647SOL    HW228401   2.888   1.022   5.628  1.3505 -0.3247  1.1975
 5648SOL     OW28402   3.416   2.665   3.579  0.2826 -0.4253  0.4325
 5648SOL    HW128403   3.456   2.615   3.650 -0.1863  0.7862  1.5463
 5648SOL    HW228404   3.483   2.653   3.512 -0.5669 -0.5251 -0.4041
 5649SOL     OW28405   0.683   0.906  13.094 -0.0122  0.2684 -0.4583
 5649SOL    HW128406   0.642   0.992  13.083  2.9821  1.8098  0.4955
 5649SOL    HW228407   0.607   0.850  13.079 -0.3825  0.2591  1.5367
 5650SOL     OW28408   2.748   2.685   4.607 -0.3545 -0.7171 -0.0924
 5650SOL    HW128409   2.688   2.741   4.559 -1.8550 -2.0861  0.1843
 5650SOL    HW228410   2.713   2.711   4.692 -0.0010 -0.1793 -0.1123
 5651SOL     OW28411   1.327   2.445  16.163  0.5284 -0.3661 -0.2563
 5651SOL    HW128412   1.245   2.409  16.197  1.1694 -2.0903 -0.5322
 5651SOL    HW228413   1.305   2.522  16.110 -3.1670  0.8015  3.0201
 5652SOL     OW28414   0.131   3.887  11.692 -0.2545  0.1663  0.0990
 5652SOL    HW128415   0.126   3.809  11.637  0.4899  0.7782 -0.8490
 5652SOL    HW228416   0.140   3.854  11.781 -0.4806 -1.2503 -0.4086
 5653SOL     OW28417   2.507   0.899   9.630  0.1315  0.1235  0.4199
 5653SOL    HW128418   2.561   0.937   9.700  2.1945 -1.2129 -0.4459
 5653SOL    HW228419   2.487   0.973   9.573 -0.2342  0.8647  1.5058
 5654SOL     OW28420   0.513   0.808   8.081  0.1605  0.0783  0.4753
 5654SOL    HW128421   0.574   0.826   8.010  0.9189 -1.0457  0.8535
 5654SOL    HW228422   0.471   0.894   8.093 -0.1277  0.2829 -2.0625
 5655SOL     OW28423   1.073   1.517  13.091  0.7813 -0.4041 -0.3748
 5655SOL    HW128424   1.009   1.586  13.071  0.1597 -0.1887  2.3752
 5655SOL    HW228425   1.096   1.535  13.182  0.8090 -0.9020 -0.2874
 5656SOL     OW28426   3.203   4.515   3.576  0.2545 -0.0212  0.1727
 5656SOL    HW128427   3.132   4.505   3.512 -1.1629 -1.5172  1.9838
 5656SOL    HW228428   3.202   4.610   3.587  1.2600 -0.1039  0.9213
 5657SOL     OW28429   2.899   1.903   8.956  0.3055  0.5289 -0.0139
 5657SOL    HW128430   2.809   1.872   8.947  0.0753  0.4810  2.3035
 5657SOL    HW228431   2.929   1.860   9.036 -0.4990 -0.6855 -0.3755
 5658SOL     OW28432   0.903   1.803  10.256  0.0329  0.0203 -0.1914
 5658SOL    HW128433   0.878   1.810  10.348 -0.4564 -0.0774 -0.3151
 5658SOL    HW228434   0.878   1.894  10.241  1.1139  0.3985  0.2702
 5659SOL     OW28435   3.103   2.599   5.753 -0.2739  0.0097 -1.0672
 5659SOL    HW128436   3.068   2.532   5.694  1.4992 -0.3721 -1.6659
 5659SOL    HW228437   3.017   2.631   5.780  1.2801  2.7030  0.6783
 5660SOL     OW28438   4.669   1.995   4.762 -0.3864  0.3576 -0.5137
 5660SOL    HW128439   4.614   2.031   4.692  0.4298 -0.5663 -1.6319
 5660SOL    HW228440   0.009   2.066   4.786 -0.6230  1.0317 -1.8824
 5661SOL     OW28441   3.886   1.625   5.692 -0.4310  0.3781  0.1403
 5661SOL    HW128442   3.797   1.634   5.725 -0.6355  0.0295 -0.3095
 5661SOL    HW228443   3.898   1.713   5.655  2.5512 -0.1111 -0.0315
 5662SOL     OW28444   3.974   2.226   6.148  0.3952 -0.0623  0.1670
 5662SOL    HW128445   3.886   2.189   6.155  0.9736 -0.8361  3.3283
 5662SOL    HW228446   3.959   2.300   6.089  4.3208 -0.8737 -1.8761
 5663SOL     OW28447   2.309   3.278   2.653  0.7246 -0.0098 -0.5172
 5663SOL    HW128448   2.291   3.192   2.616  2.2644 -0.5877  0.0679
 5663SOL    HW228449   2.389   3.261   2.703  0.1334  1.1824  0.8384
 5664SOL     OW28450   4.269   1.691  15.453 -0.6572 -0.1525 -0.4989
 5664SOL    HW128451   4.192   1.692  15.395 -0.8884 -1.5801 -0.2256
 5664SOL    HW228452   4.269   1.777  15.495  0.9935 -1.4396  2.1608
 5665SOL     OW28453   0.325   3.620   7.526  1.2220  0.1887 -0.0191
 5665SOL    HW128454   0.285   3.678   7.590  1.6511 -0.3747  0.7528
 5665SOL    HW228455   0.316   3.535   7.568  2.5220  0.1179  0.1024
 5666SOL     OW28456   4.718   4.200  14.668 -0.4971  0.0739  0.2728
 5666SOL    HW128457   0.091   4.184  14.680 -0.6569 -1.4794 -0.5125
 5666SOL    HW228458   4.707   4.239  14.581 -1.5640  0.0505  0.4027
 5667SOL     OW28459   0.147   3.157   1.413 -1.0468 -0.0635 -0.1484
 5667SOL    HW128460   0.091   3.224   1.374 -1.1361  0.7142  1.3355
 5667SOL    HW228461   0.170   3.203   1.493 -0.3432 -0.1707 -0.2921
 5668SOL     OW28462   3.259   4.331   2.333 -0.0994  0.5700  0.2682
 5668SOL    HW128463   3.286   4.409   2.381  1.0812  0.5118 -0.3035
 5668SOL    HW228464   3.245   4.276   2.409 -0.7049  0.0630 -0.2071
 5669SOL     OW28465   2.723   3.020   8.038  0.7195 -0.1092 -0.1962
 5669SOL    HW128466   2.639   3.018   7.992  0.0930  0.6408  0.9200
 5669SOL    HW228467   2.784   3.029   7.964 -2.3387  1.3823 -2.5328
 5670SOL     OW28468   1.585   1.570   9.485 -0.4092  0.9223 -0.4286
 5670SOL    HW128469   1.678   1.563   9.505 -0.9958 -1.3832  1.4031
 5670SOL    HW228470   1.579   1.523   9.402 -0.2000 -1.3849  0.8727
 5671SOL     OW28471   3.242   0.209   7.262 -0.7551 -0.5155 -0.1059
 5671SOL    HW128472   3.185   0.168   7.196 -1.1783  0.5229 -0.3940
 5671SOL    HW228473   3.173   0.244   7.318 -1.0917  0.1412 -0.9274
 5672SOL     OW28474   2.835   0.698   8.524  0.1488 -0.2138  0.1924
 5672SOL    HW128475   2.791   0.614   8.539 -1.0350  0.5376  0.9143
 5672SOL    HW228476   2.829   0.748   8.606  0.1219 -0.1043  0.1231
 5673SOL     OW28477   3.126   3.431   8.525  0.0334  0.0173  0.0151
 5673SOL    HW128478   3.196   3.490   8.498  2.2819 -1.7937  1.8197
 5673SOL    HW228479   3.055   3.491   8.544 -1.1092 -1.0355 -0.9036
 5674SOL     OW28480   4.224   1.859   1.146 -0.1987  0.4862  0.6372
 5674SOL    HW128481   4.143   1.862   1.094  0.7972  1.3926 -0.8564
 5674SOL    HW228482   4.284   1.836   1.075 -0.0403  0.6099  0.7335
 5675SOL     OW28483   4.558   1.501  14.622 -0.2488 -0.7634  0.5337
 5675SOL    HW128484   4.528   1.434  14.685 -2.1379 -0.1448  0.2765
 5675SOL    HW228485   4.479   1.535  14.581 -0.4975 -0.3460  1.3528
 5676SOL     OW28486   3.620   1.700   7.008 -0.0222  0.1017 -0.5588
 5676SOL    HW128487   3.582   1.621   6.970 -1.2424  0.5374 -0.2685
 5676SOL    HW228488   3.629   1.668   7.097 -2.0277 -2.5825 -1.3258
 5677SOL     OW28489   4.349   2.079  12.595  0.3169  0.5473 -0.7084
 5677SOL    HW128490   4.306   2.144  12.650  0.7802  0.2421  0.0041
 5677SOL    HW228491   4.407   2.138  12.546  0.0777  0.6249 -0.9006
 5678SOL     OW28492   4.382   3.563  16.473 -0.2330  0.0816  0.2765
 5678SOL    HW128493   4.398   3.621  16.399  0.0583  0.3901  0.5790
 5678SOL    HW228494   4.290   3.578  16.495 -0.7121 -2.5701  0.0480
 5679SOL     OW28495   4.176   3.413   5.262  0.1644  0.1810  0.2834
 5679SOL    HW128496   4.245   3.458   5.310  2.6825 -4.0761  0.6312
 5679SOL    HW228497   4.221   3.380   5.184  1.0040  1.8895  0.0452
 5680SOL     OW28498   3.338   2.809   2.213  0.3818 -0.1362 -0.4009
 5680SOL    HW128499   3.432   2.790   2.205  0.2546 -0.6032 -0.8227
 5680SOL    HW228500   3.330   2.825   2.307  3.1504  3.7729 -0.8384
 5681SOL     OW28501   3.487   0.666  11.052 -0.1149 -0.3614  0.2557
 5681SOL    HW128502   3.435   0.735  11.010  1.6352  1.0040  0.3393
 5681SOL    HW228503   3.557   0.720  11.088 -1.4351  1.4661  0.1164
 5682SOL     OW28504   0.964   2.500   2.231 -0.4055 -0.2346  0.1132
 5682SOL    HW128505   0.973   2.577   2.174 -1.1723 -0.1865  0.0597
 5682SOL    HW228506   0.963   2.430   2.165 -0.8261 -1.1887  1.1473
 5683SOL     OW28507   3.640   4.713   3.740 -0.1246  0.2669 -0.3857
 5683SOL    HW128508   3.710   0.015   3.801  0.0718 -1.2178 -0.0452
 5683SOL    HW228509   3.662   0.044   3.662  0.0990 -1.0107 -1.1825
 5684SOL     OW28510   4.386   3.581   7.197 -0.1191 -0.2093  0.0755
 5684SOL    HW128511   4.479   3.580   7.220  0.0011 -2.3300 -0.5254
 5684SOL    HW228512   4.378   3.498   7.150  0.6262 -1.1901  1.6549
 5685SOL     OW28513   0.538   0.838   5.948 -0.0538 -0.1962  0.5451
 5685SOL    HW128514   0.611   0.777   5.934  1.1156  1.4375 -0.5545
 5685SOL    HW228515   0.584   0.922   5.945  2.4179 -1.5749 -0.8025
 5686SOL     OW28516   2.418   2.700   5.510 -0.4545  0.0565 -0.1240
 5686SOL    HW128517   2.402   2.689   5.604  0.6076 -1.0523 -0.0644
 5686SOL    HW228518   2.399   2.793   5.502 -0.6725  0.3226  3.5411
 5687SOL     OW28519   3.173   1.118   6.916 -0.6475  0.4956  0.0569
 5687SOL    HW128520   3.087   1.105   6.878 -1.0320  1.3453  0.6470
 5687SOL    HW228521   3.201   1.207   6.894  0.7978  0.3658  1.3534
 5688SOL     OW28522   3.610   3.999   8.103  0.4943  0.1169  0.5479
 5688SOL    HW128523   3.592   3.936   8.033  1.8628  0.8879 -0.4995
 5688SOL    HW228524   3.536   3.984   8.162 -1.5225  1.7853 -1.5314
 5689SOL     OW28525   0.699   0.577   4.077  0.1136 -0.0145 -0.6012
 5689SOL    HW128526   0.693   0.485   4.048 -0.9308  0.1485 -0.8887
 5689SOL    HW228527   0.613   0.609   4.049  0.1881  0.7259  0.0367
 5690SOL     OW28528   1.776   0.760   5.672  0.9456 -0.3308  0.1869
 5690SOL    HW128529   1.862   0.787   5.704  1.6691 -1.2816 -0.9522
 5690SOL    HW228530   1.779   0.767   5.577  1.0318  1.7658  0.3510
 5691SOL     OW28531   1.976   0.868   3.823  0.2475 -0.0922  0.3381
 5691SOL    HW128532   2.027   0.936   3.779 -1.3475  0.4967 -0.6096
 5691SOL    HW228533   1.972   0.900   3.913  0.5347 -0.1544  0.3743
 5692SOL     OW28534   3.920   0.800   6.077  0.4363  0.0088 -0.5540
 5692SOL    HW128535   3.955   0.842   6.156  1.3408  0.6810 -1.3108
 5692SOL    HW228536   3.977   0.723   6.076 -0.4784 -0.7164  2.1354
 5693SOL     OW28537   2.094   1.794   2.322 -0.3777  0.6919  0.0787
 5693SOL    HW128538   2.060   1.772   2.408 -1.9124  2.1107 -0.1767
 5693SOL    HW228539   2.173   1.841   2.348  1.6638 -1.7911 -1.5867
 5694SOL     OW28540   3.931   0.722  11.167  0.3551  0.1556 -0.3285
 5694SOL    HW128541   4.000   0.788  11.171 -0.5401  0.9721  1.6620
 5694SOL    HW228542   3.976   0.647  11.206 -2.6772 -2.1058 -1.2201
 5695SOL     OW28543   2.324   3.297   2.251  0.1373 -0.1276  0.3175
 5695SOL    HW128544   2.241   3.309   2.206 -0.8946  0.0989  2.2679
 5695SOL    HW228545   2.303   3.329   2.339 -1.7972 -1.1586  0.2203
 5696SOL     OW28546   0.836   2.761   3.254  0.7480 -0.3284  0.3370
 5696SOL    HW128547   0.786   2.838   3.227  0.7001 -1.4843 -2.9328
 5696SOL    HW228548   0.784   2.685   3.227 -1.0504  1.2489 -0.6606
 5697SOL     OW28549   0.446   3.624   9.835  0.1675  0.0883 -0.1782
 5697SOL    HW128550   0.438   3.549   9.894 -1.6171  0.6964  0.3744
 5697SOL    HW228551   0.480   3.690   9.895  3.9232  0.6337 -2.8941
 5698SOL     OW28552   2.794   0.203   3.297  0.1080 -0.1095  0.1039
 5698SOL    HW128553   2.720   0.179   3.242  1.8389 -2.2359 -1.3169
 5698SOL    HW228554   2.869   0.192   3.238  1.0708 -1.1561  1.5173
 5699SOL     OW28555   0.804   3.887   5.678  0.5106 -0.2048  0.4219
 5699SOL    HW128556   0.877   3.829   5.657 -0.4542 -1.0809 -0.4904
 5699SOL    HW228557   0.763   3.857   5.759  0.2929 -1.0207  0.0036
 5700SOL     OW28558   2.618   4.412   9.979  0.5685 -0.3348  0.2445
 5700SOL    HW128559   2.657   4.442   9.897  2.5612  0.8329  1.6097
 5700SOL    HW228560   2.537   4.461   9.965  1.4583  1.1460  0.1972
 5701SOL     OW28561   0.032   4.686   7.766  0.3010  0.4861 -0.7711
 5701SOL    HW128562   0.087   0.040   7.786 -0.7087  1.8250 -2.9493
 5701SOL    HW228563   0.094   4.625   7.726 -0.5946 -1.0308  0.1536
 5702SOL     OW28564   3.466   1.909   2.658 -0.1831  0.1332 -0.5206
 5702SOL    HW128565   3.536   1.922   2.595 -1.3596  0.5154 -1.7585
 5702SOL    HW228566   3.462   1.992   2.705 -1.4043  1.6014 -3.2201
 5703SOL     OW28567   0.156   4.258   0.508 -0.5855  0.7022 -0.0919
 5703SOL    HW128568   0.096   4.304   0.450 -1.3559  0.1616  0.2757
 5703SOL    HW228569   0.235   4.293   0.466 -0.2727  0.6541  0.4473
 5704SOL     OW28570   3.774   0.628   1.460 -0.5322  0.2029 -0.1850
 5704SOL    HW128571   3.712   0.587   1.400  0.4004 -1.8280  0.2352
 5704SOL    HW228572   3.853   0.650   1.410 -0.9564  0.1229 -0.8940
 5705SOL     OW28573   3.208   2.859   1.957  0.6865 -0.6402 -0.6839
 5705SOL    HW128574   3.260   2.886   2.032  1.0701 -3.0367 -0.1052
 5705SOL    HW228575   3.172   2.774   1.980 -1.1472  0.0294 -1.0487
 5706SOL     OW28576   3.898   1.106   7.394 -0.2559  0.1950 -0.4994
 5706SOL    HW128577   3.849   1.091   7.475  1.9053 -1.0062  0.5757
 5706SOL    HW228578   3.958   1.032   7.399 -0.5204  0.0037 -0.1564
 5707SOL     OW28579   2.479   1.340   9.208  0.2897  0.3642  0.1791
 5707SOL    HW128580   2.410   1.368   9.149 -2.1804 -3.9680  1.0720
 5707SOL    HW228581   2.566   1.352   9.169  0.4833 -0.2462  0.4312
 5708SOL     OW28582   4.064   4.067   6.823  0.1834  0.5492 -0.6961
 5708SOL    HW128583   3.994   4.005   6.842  1.5669 -1.3423 -1.7732
 5708SOL    HW228584   4.017   4.147   6.799  0.7666  0.4053 -2.3300
 5709SOL     OW28585   1.350   3.775   1.354  0.7554 -0.1538  0.0426
 5709SOL    HW128586   1.368   3.863   1.321  0.1770  0.1347  0.5057
 5709SOL    HW228587   1.432   3.755   1.399 -0.2046 -0.6840  1.5546
 5710SOL     OW28588   0.850   3.927  10.661  0.2933  0.0715 -0.4203
 5710SOL    HW128589   0.774   3.883  10.698  0.1438 -1.4822 -2.5618
 5710SOL    HW228590   0.837   4.019  10.683 -0.5823 -0.0182 -0.5944
 5711SOL     OW28591   2.557   1.849   3.583 -0.3887  0.3282  0.1784
 5711SOL    HW128592   2.588   1.939   3.594  0.5390  0.2212 -1.5717
 5711SOL    HW228593   2.618   1.811   3.520 -0.5170  0.1312  0.1706
 5712SOL     OW28594   3.121   0.161  14.379 -0.5722  0.0133  0.3546
 5712SOL    HW128595   3.074   0.225  14.325  1.9310  0.3073 -1.4852
 5712SOL    HW228596   3.053   0.105  14.416 -0.7277 -0.7237 -1.0532
 5713SOL     OW28597   3.747   3.504   4.261  0.1634 -0.0291 -0.6085
 5713SOL    HW128598   3.737   3.544   4.174  1.5752 -1.2579 -1.3466
 5713SOL    HW228599   3.737   3.581   4.316 -2.1364  0.5294 -1.7869
 5714SOL     OW28600   3.606   0.336   2.788  0.7416 -0.1431  0.0596
 5714SOL    HW128601   3.521   0.324   2.832  0.5391 -3.5424 -1.2989
 5714SOL    HW228602   3.654   0.346   2.870 -0.0378  1.3547  0.3423
 5715SOL     OW28603   0.068   4.165  17.282 -0.3062  0.4221 -0.1071
 5715SOL    HW128604   4.717   4.226  17.269 -0.0060  0.1831 -2.8222
 5715SOL    HW228605   0.038   4.095  17.223  0.7086 -0.4967  0.4565
 5716SOL     OW28606   2.376   0.969  13.118  0.4451  0.2856 -0.1052
 5716SOL    HW128607   2.379   1.014  13.203  1.6170  0.2742 -0.1363
 5716SOL    HW228608   2.325   1.034  13.071 -1.0617 -1.3819 -0.7620
 5717SOL     OW28609   0.978   2.827   2.925 -0.0309  0.2290  0.0913
 5717SOL    HW128610   0.971   2.732   2.916 -0.2517  0.1320  1.3057
 5717SOL    HW228611   1.067   2.827   2.889 -0.4128 -0.5998 -0.8474
 5718SOL     OW28612   4.205   4.089   2.293  0.1632  0.5823  0.7886
 5718SOL    HW128613   4.253   4.120   2.216  0.6308  0.2285  0.9329
 5718SOL    HW228614   4.120   4.058   2.263  0.1727 -0.1244  1.4928
 5719SOL     OW28615   2.676   1.680   5.312  0.4674 -0.6911 -0.1532
 5719SOL    HW128616   2.621   1.630   5.371 -1.2355  2.8346  1.2676
 5719SOL    HW228617   2.764   1.643   5.320  0.1164 -1.0849  1.7471
 5720SOL     OW28618   3.331   3.492   2.366 -0.0604 -0.3208 -0.5112
 5720SOL    HW128619   3.417   3.473   2.329  0.4278  0.3877  0.2520
 5720SOL    HW228620   3.271   3.435   2.317 -0.4337  0.6899 -1.2278
 5721SOL     OW28621   2.672   4.159   1.025  0.1549 -0.5262 -0.3485
 5721SOL    HW128622   2.759   4.124   1.040 -1.0507 -2.3744  2.2447
 5721SOL    HW228623   2.645   4.105   0.950  1.1692 -1.5932  0.0670
 5722SOL     OW28624   3.245   3.927   7.586 -0.0846 -0.4346  0.4684
 5722SOL    HW128625   3.180   3.930   7.656 -1.4274  0.0073 -0.8091
 5722SOL    HW228626   3.198   3.883   7.515  0.4069  2.3030 -1.5367
 5723SOL     OW28627   3.890   0.772   2.745  0.1595 -0.1206  0.8342
 5723SOL    HW128628   3.983   0.765   2.724  0.4134  2.8318  0.8694
 5723SOL    HW228629   3.867   0.702   2.684  2.4152 -0.5436  0.4628
 5724SOL     OW28630   0.253   0.441  15.372 -0.0382  0.5754 -0.2957
 5724SOL    HW128631   0.339   0.468  15.340 -0.2603 -0.1289 -1.4957
 5724SOL    HW228632   0.206   0.416  15.292  1.2902  2.9867 -1.8026
 5725SOL     OW28633   0.961   2.952   8.099 -0.2122  0.3110 -0.1761
 5725SOL    HW128634   0.976   2.871   8.049 -2.3315  0.3433 -0.8533
 5725SOL    HW228635   1.024   2.944   8.170 -0.6323 -1.7055 -0.0299
 5726SOL     OW28636   2.560   1.505  12.215  0.2078 -0.3512  0.1713
 5726SOL    HW128637   2.497   1.471  12.279 -1.5636  1.8523 -0.3862
 5726SOL    HW228638   2.604   1.427  12.183  1.4304  1.0335 -1.5669
 5727SOL     OW28639   2.220   1.763   4.886  0.0439 -0.0916 -0.0649
 5727SOL    HW128640   2.282   1.834   4.895 -1.6683  1.4277 -0.1915
 5727SOL    HW228641   2.153   1.814   4.839 -0.2017  1.0415  1.5134
 5728SOL     OW28642   0.384   3.238   3.975  0.2163  0.5331  0.3304
 5728SOL    HW128643   0.397   3.213   3.884  0.5366 -1.3708  0.8970
 5728SOL    HW228644   0.371   3.149   4.007 -1.2427 -0.2002 -2.3456
 5729SOL     OW28645   3.248   1.709   7.449 -0.0512  0.0495 -0.2335
 5729SOL    HW128646   3.242   1.792   7.497  1.5713  1.0437 -1.7409
 5729SOL    HW228647   3.162   1.717   7.408 -0.3191 -1.1928  0.0972
 5730SOL     OW28648   0.632   0.705   7.053 -0.0756  0.2663  0.7599
 5730SOL    HW128649   0.634   0.733   6.961  0.5527 -1.9267  0.0984
 5730SOL    HW228650   0.651   0.612   7.041 -0.3284  0.2016  0.8658
 5731SOL     OW28651   0.163   0.218  14.356  0.1796  0.3423  0.4145
 5731SOL    HW128652   0.244   0.269  14.355 -0.2320  0.9692 -0.6130
 5731SOL    HW228653   0.094   0.279  14.334  1.1813  1.0933 -0.6927
 5732SOL     OW28654   2.924   4.245   8.120  0.1515  0.8607 -0.0261
 5732SOL    HW128655   2.884   4.283   8.042 -0.0986 -1.3197 -0.9578
 5732SOL    HW228656   2.985   4.183   8.080 -0.3418 -0.2937  1.0273
 5733SOL     OW28657   4.245   3.078   0.633 -0.1257  0.0693  0.1662
 5733SOL    HW128658   4.224   3.058   0.542  0.9012 -3.0387  0.5986
 5733SOL    HW228659   4.229   3.172   0.633  2.6437  0.5538 -0.5497
 5734SOL     OW28660   4.289   3.343   5.010 -0.2834 -0.2690  0.7631
 5734SOL    HW128661   4.373   3.364   4.970 -0.3883 -2.5095 -0.6538
 5734SOL    HW228662   4.288   3.252   4.979 -1.1539 -0.4016  1.1935
 5735SOL     OW28663   2.102   1.956   9.805 -0.2188  0.1606 -0.3607
 5735SOL    HW128664   2.129   2.041   9.770 -1.7779 -0.4224 -2.9689
 5735SOL    HW228665   2.174   1.931   9.864  0.2038 -0.3456 -1.1052
 5736SOL     OW28666   0.939   3.942   3.348 -0.0415  0.2280  0.6087
 5736SOL    HW128667   0.890   4.014   3.387  1.1120 -0.8295  3.9787
 5736SOL    HW228668   1.030   3.959   3.373 -0.5905  0.9817  2.0945
 5737SOL     OW28669   3.487   0.614   2.750  0.1662 -0.9689 -0.1208
 5737SOL    HW128670   3.529   0.698   2.734  0.8654 -1.7328 -2.2603
 5737SOL    HW228671   3.559   0.555   2.770  1.4510  0.3768 -0.8265
 5738SOL     OW28672   0.318   2.836  16.509 -0.2085  0.0667 -0.3410
 5738SOL    HW128673   0.338   2.879  16.592  1.0576 -1.5305  0.1831
 5738SOL    HW228674   0.390   2.776  16.488  0.4711  0.9731 -0.5983
 5739SOL     OW28675   4.484   0.377  13.868  0.5282 -0.6423 -0.0908
 5739SOL    HW128676   4.448   0.437  13.802  1.3847 -0.2934 -0.2478
 5739SOL    HW228677   4.480   0.296  13.816 -2.3711 -0.8178  0.4008
 5740SOL     OW28678   4.354   1.396   5.329 -0.4807 -0.4688 -0.1065
 5740SOL    HW128679   4.355   1.452   5.407  0.5301  1.0612 -1.2127
 5740SOL    HW228680   4.290   1.441   5.273  0.4910 -0.5882 -1.3142
 5741SOL     OW28681   1.609   2.772   1.003 -0.4271 -0.7568 -0.2703
 5741SOL    HW128682   1.634   2.690   1.046 -4.5787 -2.1539 -0.4865
 5741SOL    HW228683   1.696   2.805   0.985 -0.8203  0.7542  0.5741
 5742SOL     OW28684   2.151   2.934   5.675 -0.2068  0.6450  0.2533
 5742SOL    HW128685   2.247   2.939   5.672 -0.1038  1.1791  4.0521
 5742SOL    HW228686   2.122   3.022   5.649 -0.9403  0.4183  0.3032
 5743SOL     OW28687   4.697   3.971   4.620 -0.1446 -0.0607  0.8726
 5743SOL    HW128688   4.667   4.002   4.535 -1.7287  1.4362  1.9933
 5743SOL    HW228689   4.624   3.987   4.679 -1.4220  1.4826 -1.1605
 5744SOL     OW28690   3.470   2.587  12.381  0.0663 -0.4179  0.0155
 5744SOL    HW128691   3.425   2.504  12.393 -1.8972  0.3036 -2.3402
 5744SOL    HW228692   3.516   2.581  12.298 -1.6943 -0.6001 -0.9506
 5745SOL     OW28693   2.347   3.874   3.164 -0.0062  0.9918  0.1960
 5745SOL    HW128694   2.271   3.834   3.123 -0.5192  1.6631  0.4811
 5745SOL    HW228695   2.346   3.851   3.257  1.3292  0.0158 -0.0377
 5746SOL     OW28696   3.000   4.436   8.736  0.0721 -0.0276  0.1225
 5746SOL    HW128697   2.985   4.361   8.794 -2.6635  0.3519 -0.0846
 5746SOL    HW228698   3.074   4.410   8.682  0.0129 -0.8260  0.4138
 5747SOL     OW28699   2.447   1.028  12.616 -0.4258  0.3399  0.0375
 5747SOL    HW128700   2.363   1.062  12.584 -0.3730 -1.4166 -2.0225
 5747SOL    HW228701   2.448   0.948  12.564  3.0700  0.7380 -0.5409
 5748SOL     OW28702   3.293   1.419   3.145  0.2836  0.2588  0.3478
 5748SOL    HW128703   3.373   1.368   3.130 -0.1706 -0.6309  0.9368
 5748SOL    HW228704   3.304   1.458   3.232 -2.1010 -0.6015  1.0265
 5749SOL     OW28705   3.515   3.407   4.338  0.4986 -0.1533 -0.1305
 5749SOL    HW128706   3.494   3.363   4.256  1.5174  0.8220 -0.9153
 5749SOL    HW228707   3.604   3.434   4.314 -0.3833  1.0963 -1.9669
 5750SOL     OW28708   0.090   1.009  12.800  0.1090  0.4064  0.3756
 5750SOL    HW128709   4.716   1.021  12.795 -0.3013 -3.6338 -1.2940
 5750SOL    HW228710   0.095   0.932  12.743 -0.5260  1.8431 -1.6493
 5751SOL     OW28711   4.510   3.426  15.814 -0.3552 -0.6877 -0.0806
 5751SOL    HW128712   4.588   3.416  15.760  0.5941  1.6300  0.8478
 5751SOL    HW228713   4.450   3.482  15.763 -0.7110 -2.3297 -1.4573
 5752SOL     OW28714   3.601   0.861   1.824  0.3992 -0.1721 -0.4393
 5752SOL    HW128715   3.638   0.800   1.887 -1.2338  1.4294  2.0952
 5752SOL    HW228716   3.623   0.834   1.735 -1.8320 -0.4986 -0.8865
 5753SOL     OW28717   1.078   0.359   9.232 -0.3585  0.1497  0.0352
 5753SOL    HW128718   1.031   0.379   9.313  3.0685  0.6535  1.9054
 5753SOL    HW228719   1.013   0.310   9.181  0.3688  0.0426 -0.7945
 5754SOL     OW28720   2.435   3.062   7.971  0.1982  0.0931 -0.1582
 5754SOL    HW128721   2.464   3.104   8.052 -0.0788  1.8526 -0.9739
 5754SOL    HW228722   2.344   3.039   7.985 -0.4606  2.4824 -0.5150
 5755SOL     OW28723   0.471   3.733  11.824  0.0169 -0.1540 -0.3451
 5755SOL    HW128724   0.491   3.822  11.797 -0.7617 -0.0233 -0.5052
 5755SOL    HW228725   0.516   3.678  11.760  4.3997  2.5317  0.4434
 5756SOL     OW28726   4.187   1.332   7.209  1.1541 -0.0580  0.3806
 5756SOL    HW128727   4.139   1.287   7.140 -0.3021  0.9149  0.7624
 5756SOL    HW228728   4.125   1.330   7.282  0.7950 -4.1993 -0.0405
 5757SOL     OW28729   3.391   1.822   1.286  0.0423 -0.5666 -0.1990
 5757SOL    HW128730   3.299   1.821   1.313  0.1803  0.6627  0.2894
 5757SOL    HW228731   3.401   1.917   1.285  3.3804 -0.9185  1.2973
 5758SOL     OW28732   0.218   3.596   2.739 -0.3352 -0.5306  0.1840
 5758SOL    HW128733   0.224   3.577   2.645 -1.2821 -0.1025  0.0445
 5758SOL    HW228734   0.285   3.660   2.761 -0.8103 -0.0750  0.2878
 5759SOL     OW28735   4.116   2.801   8.644  0.1100  0.2000 -0.3739
 5759SOL    HW128736   4.021   2.801   8.628 -0.2615 -0.8920  1.7707
 5759SOL    HW228737   4.119   2.846   8.728 -1.4539 -1.0541  0.3554
 5760SOL     OW28738   2.416   0.428   8.319 -0.2792 -0.6542 -0.1638
 5760SOL    HW128739   2.381   0.351   8.275 -0.0323 -1.3898  0.9239
 5760SOL    HW228740   2.505   0.395   8.304  0.4243 -0.7769  4.1608
 5761SOL     OW28741   1.935   2.397  14.706  0.4421  0.0838 -0.4967
 5761SOL    HW128742   1.895   2.313  14.726  1.2063  0.1117  1.1387
 5761SOL    HW228743   1.917   2.433  14.793  0.1508 -0.2440 -0.4195
 5762SOL     OW28744   3.203   4.528  17.402 -0.0004  0.3076 -0.2533
 5762SOL    HW128745   3.126   4.498  17.354 -0.1798  0.3179  0.0319
 5762SOL    HW228746   3.166   4.585  17.469 -2.0540 -0.0772 -1.0667
 5763SOL     OW28747   4.338   3.297   7.947 -0.0903  0.1400  1.0736
 5763SOL    HW128748   4.394   3.289   8.024  1.3416  0.9982  0.1259
 5763SOL    HW228749   4.288   3.216   7.941 -1.4441  1.0809 -0.3427
 5764SOL     OW28750   3.102   4.174   9.927  0.2193  0.1260 -0.3324
 5764SOL    HW128751   3.181   4.166   9.874  0.0184 -2.4170 -0.2329
 5764SOL    HW228752   3.105   4.266   9.953  1.6001 -0.0539  0.1300
 5765SOL     OW28753   0.169   0.396   0.641  0.1401  0.6269 -0.6443
 5765SOL    HW128754   0.099   0.358   0.693 -0.6111  1.8348 -0.7842
 5765SOL    HW228755   0.183   0.324   0.579  0.5345  0.4897 -0.3990
 5766SOL     OW28756   0.080   3.060  12.233  0.4601 -0.1646 -0.4847
 5766SOL    HW128757   0.126   3.129  12.186  1.5224 -0.8836 -0.4845
 5766SOL    HW228758   0.006   3.110  12.268  2.3443  2.1741  0.1676
 5767SOL     OW28759   0.572   3.678   7.317 -0.0762 -0.3667  0.1354
 5767SOL    HW128760   0.545   3.619   7.247 -0.2558 -0.0905 -0.0305
 5767SOL    HW228761   0.538   3.627   7.390 -1.5565  0.4066 -0.0064
 5768SOL     OW28762   2.875   2.554  14.391  0.4026 -0.3442 -0.0320
 5768SOL    HW128763   2.957   2.530  14.347 -0.0380 -0.9931 -0.4966
 5768SOL    HW228764   2.902   2.594  14.474  0.1993  0.1672 -0.2118
 5769SOL     OW28765   2.810   1.201   6.030  0.4286 -0.2850 -0.0925
 5769SOL    HW128766   2.744   1.136   6.055  0.1705 -0.5986 -1.6108
 5769SOL    HW228767   2.871   1.213   6.104  0.8060  1.9994 -0.8023
 5770SOL     OW28768   1.817   2.997   3.315  0.3623 -0.3957  0.6177
 5770SOL    HW128769   1.815   3.016   3.221 -2.7966  2.5848  1.2870
 5770SOL    HW228770   1.784   2.908   3.311  1.0749 -0.7109  1.7778
 5771SOL     OW28771   0.046   2.921   5.464 -0.0794 -0.3220 -0.2647
 5771SOL    HW128772   4.700   2.865   5.504  0.3386 -0.2938  0.4853
 5771SOL    HW228773   0.091   2.858   5.407  1.7506 -0.2567  1.1124
 5772SOL     OW28774   3.686   0.964   8.980  0.0348  0.2079  0.1606
 5772SOL    HW128775   3.700   0.936   9.071 -1.8682  1.6230  0.8816
 5772SOL    HW228776   3.729   1.050   8.989  0.9048 -0.0248 -1.9239
 5773SOL     OW28777   1.699   1.635   3.849  0.2438  0.0077 -0.1491
 5773SOL    HW128778   1.645   1.640   3.770  0.5600  1.5892 -0.2659
 5773SOL    HW228779   1.786   1.646   3.810  0.1353 -0.1942 -0.4504
 5774SOL     OW28780   0.750   2.057   6.700 -0.4082 -0.8549 -0.0570
 5774SOL    HW128781   0.731   2.147   6.674 -0.5269 -1.4776 -2.1434
 5774SOL    HW228782   0.709   2.046   6.786  0.0807  2.5989  0.6029
 5775SOL     OW28783   2.257   1.435  15.548 -0.6637 -0.2393  0.3020
 5775SOL    HW128784   2.250   1.453  15.642 -1.3147 -2.8515  0.7508
 5775SOL    HW228785   2.349   1.449  15.527 -1.0041  1.5161 -0.0258
 5776SOL     OW28786   1.079   3.334   3.849  1.0265 -0.1570 -0.1207
 5776SOL    HW128787   1.009   3.361   3.908  0.4283  0.9484 -1.3289
 5776SOL    HW228788   1.150   3.399   3.857  2.3816 -1.2542 -3.3646
 5777SOL     OW28789   1.838   3.010  17.139  0.1098 -0.3574  0.4720
 5777SOL    HW128790   1.921   2.966  17.160 -0.4291 -1.3743  0.4661
 5777SOL    HW228791   1.785   2.999  17.218 -1.0709 -0.2363 -0.3138
 5778SOL     OW28792   4.640   1.970   6.011 -0.5526 -0.2251  0.6077
 5778SOL    HW128793   4.564   2.014   6.048 -1.6481 -1.7910  0.2473
 5778SOL    HW228794   4.664   1.900   6.072  0.7286  0.7073  1.1832
 5779SOL     OW28795   1.153   0.071   3.346  0.8425  0.9558 -0.2646
 5779SOL    HW128796   1.159   0.041   3.437  0.7368  0.5040 -0.4040
 5779SOL    HW228797   1.058   0.059   3.336  1.2492 -2.5952  0.0577
 5780SOL     OW28798   3.240   3.290   3.258 -0.5378 -0.9555  0.6705
 5780SOL    HW128799   3.244   3.271   3.164  0.2175 -0.3015  0.5702
 5780SOL    HW228800   3.272   3.201   3.274  0.7346 -0.9711 -1.9769
 5781SOL     OW28801   2.057   1.082   3.652 -0.2814  1.3077 -0.0659
 5781SOL    HW128802   2.022   1.151   3.595  0.3034  1.2184 -0.5295
 5781SOL    HW228803   2.151   1.097   3.658 -0.1204 -0.2481  1.2723
 5782SOL     OW28804   0.485   3.260   7.408  0.3472 -0.0761 -0.1167
 5782SOL    HW128805   0.511   3.172   7.436 -0.8491 -0.5053 -0.3516
 5782SOL    HW228806   0.530   3.275   7.325  0.2135 -1.9260 -0.5181
 5783SOL     OW28807   3.122   0.542   7.107  0.1126 -0.6206 -0.1774
 5783SOL    HW128808   3.172   0.624   7.109 -3.3644  1.5455 -2.5515
 5783SOL    HW228809   3.142   0.523   7.199 -1.7728 -0.3241  0.2982
 5784SOL     OW28810   1.826   2.814  12.716  0.1588  0.1937  0.5922
 5784SOL    HW128811   1.888   2.872  12.760 -1.2908  0.4985  2.2323
 5784SOL    HW228812   1.738   2.838  12.746 -0.7591 -2.4751 -0.0279
 5785SOL     OW28813   4.350   2.854   7.991 -0.2359 -0.2852 -0.3089
 5785SOL    HW128814   4.422   2.904   8.029  0.8410 -0.4310 -2.1489
 5785SOL    HW228815   4.324   2.793   8.061  0.2325  0.7319  0.7447
 5786SOL     OW28816   0.548   4.264   6.679 -0.2880 -0.5214  0.1886
 5786SOL    HW128817   0.469   4.303   6.717 -1.0956 -0.2870 -1.7288
 5786SOL    HW228818   0.525   4.174   6.657  1.2064 -0.3356 -2.1319
 5787SOL     OW28819   3.887   1.595   3.219 -0.1917 -0.6094 -0.0069
 5787SOL    HW128820   3.839   1.579   3.138  1.4507 -0.9568 -0.9033
 5787SOL    HW228821   3.863   1.688   3.227 -0.1665 -0.5754 -0.3368
 5788SOL     OW28822   4.231   4.397   6.941  0.6853  0.0585 -0.4735
 5788SOL    HW128823   4.169   4.420   6.872  0.8528 -2.2438 -1.4076
 5788SOL    HW228824   4.276   4.482   6.937 -0.1458  0.5785  1.2786
 5789SOL     OW28825   0.985   4.532   1.104 -0.1191  0.1296  0.0939
 5789SOL    HW128826   1.023   4.504   1.187  0.2778 -4.1849 -1.5499
 5789SOL    HW228827   1.040   4.485   1.042  1.2783  3.3638 -1.1265
 5790SOL     OW28828   0.340   0.958   7.372 -0.5343  0.1905 -0.3250
 5790SOL    HW128829   0.383   0.964   7.287  3.1360 -2.0442  1.3617
 5790SOL    HW228830   0.249   0.979   7.350 -0.3198  0.8936 -0.5130
 5791SOL     OW28831   0.125   4.487   6.021 -0.2156  0.6852  0.1625
 5791SOL    HW128832   0.101   4.561   5.966  2.0419  2.4633  1.5987
 5791SOL    HW228833   0.221   4.490   6.022 -0.2424  2.1432 -1.7549
 5792SOL     OW28834   1.786   0.864   8.306  0.5759  0.1787 -0.1904
 5792SOL    HW128835   1.714   0.834   8.361  0.1236 -0.4094 -1.1087
 5792SOL    HW228836   1.855   0.855   8.371 -1.0136 -1.3314  1.2949
 5793SOL     OW28837   0.649   4.690   3.428 -0.0278 -0.0107 -0.2634
 5793SOL    HW128838   0.590   0.028   3.476  0.9774 -0.9860  2.1818
 5793SOL    HW228839   0.716   0.031   3.399 -0.3295  0.7068  0.5834
 5794SOL     OW28840   2.325   4.255   3.993  0.7320  0.0633  0.0598
 5794SOL    HW128841   2.344   4.287   3.905 -1.2153  0.8071 -0.1051
 5794SOL    HW228842   2.405   4.281   4.039  1.0571  2.1334 -1.6784
 5795SOL     OW28843   3.628   3.583  11.171 -0.0376 -0.3610 -0.4513
 5795SOL    HW128844   3.702   3.523  11.179 -0.3153 -0.7252 -0.6142
 5795SOL    HW228845   3.623   3.594  11.076  0.1617 -0.7288 -0.5059
 5796SOL     OW28846   3.662   0.597   2.274 -0.3218  0.4548 -0.4679
 5796SOL    HW128847   3.621   0.682   2.263 -2.8020 -0.6028  0.5788
 5796SOL    HW228848   3.586   0.548   2.305  0.4970 -0.4358  0.1419
 5797SOL     OW28849   3.138   2.194  17.021 -0.1350  0.3758 -0.9597
 5797SOL    HW128850   3.063   2.210  16.963 -2.2600  1.7770  2.2144
 5797SOL    HW228851   3.098   2.210  17.106  2.1553 -0.9220  0.3460
 5798SOL     OW28852   4.373   2.808   0.152  0.2640 -0.4320  0.1112
 5798SOL    HW128853   4.296   2.807   0.208 -0.5852  2.0177 -0.9982
 5798SOL    HW228854   4.419   2.736   0.195  0.4488 -0.6564 -0.4643
 5799SOL     OW28855   0.034   1.032   6.053 -0.1125  0.5080  0.2286
 5799SOL    HW128856   0.057   1.071   5.968  1.0593  0.0249  0.3151
 5799SOL    HW228857   4.707   1.106   6.091  0.5161  0.5415  0.9545
 5800SOL     OW28858   2.015   1.662   2.545  0.4556  0.5138  0.0575
 5800SOL    HW128859   2.013   1.622   2.632 -0.5460  0.4067 -0.0172
 5800SOL    HW228860   2.064   1.590   2.506  1.6728  1.7196 -0.6414
 5801SOL     OW28861   3.535   0.466   0.892  0.2813  0.2658  0.6122
 5801SOL    HW128862   3.478   0.428   0.959  0.5304 -1.2908 -0.0624
 5801SOL    HW228863   3.621   0.428   0.910  1.3146  2.3567 -0.0107
 5802SOL     OW28864   0.515   3.487  11.981  0.1756  0.1807  0.4005
 5802SOL    HW128865   0.516   3.573  12.023 -0.8164 -0.6610  2.1835
 5802SOL    HW228866   0.605   3.456  11.996  0.1585  1.7055  3.6723
 5803SOL     OW28867   2.162   2.604   0.412 -0.0381 -0.0918 -0.5966
 5803SOL    HW128868   2.090   2.541   0.413 -1.1316  1.1711 -0.2189
 5803SOL    HW228869   2.124   2.675   0.361 -2.6419  0.2251  1.8320
 5804SOL     OW28870   3.840   1.136  10.997  0.1615  0.5876 -0.3377
 5804SOL    HW128871   3.759   1.182  10.979 -0.8006 -2.0577 -2.6907
 5804SOL    HW228872   3.910   1.187  10.956 -1.3134  1.8561 -1.2189
 5805SOL     OW28873   4.650   3.707   0.337  0.5265  0.9446  0.2080
 5805SOL    HW128874   4.711   3.728   0.408 -0.1483  3.1577  0.1236
 5805SOL    HW228875   4.700   3.633   0.301 -2.1232 -0.8429  0.1977
 5806SOL     OW28876   2.049   2.920   2.227 -0.6135  0.7673 -0.2669
 5806SOL    HW128877   2.016   2.883   2.145 -1.2305 -3.0269  1.6859
 5806SOL    HW228878   1.996   2.866   2.286 -0.0860  0.6021  0.0500
 5807SOL     OW28879   4.616   1.686  12.459  0.2345  0.0973 -0.3485
 5807SOL    HW128880   4.660   1.605  12.486 -0.0779 -0.6261 -2.0246
 5807SOL    HW228881   4.691   1.745  12.450 -0.5710  1.2161  0.3778
 5808SOL     OW28882   4.164   1.738   7.867 -0.1911 -0.9029 -0.2355
 5808SOL    HW128883   4.100   1.767   7.933  1.3586 -0.1529  0.9391
 5808SOL    HW228884   4.173   1.815   7.811  2.3869  0.3708  1.9555
 5809SOL     OW28885   3.300   1.968   7.597  0.0396 -0.3507  0.5214
 5809SOL    HW128886   3.251   1.978   7.678 -1.3706  0.3220 -0.3954
 5809SOL    HW228887   3.323   2.060   7.594  1.2279 -0.6345  0.9664
 5810SOL     OW28888   1.790   2.446   6.210  0.4247 -0.0651  0.1650
 5810SOL    HW128889   1.796   2.474   6.301 -0.5101  1.3892 -0.2175
 5810SOL    HW228890   1.843   2.366   6.207  1.2546  0.3995  2.1670
 5811SOL     OW28891   3.799   2.547   1.839 -0.1050  0.1422  0.0812
 5811SOL    HW128892   3.843   2.529   1.756  0.5397  0.6318  0.3218
 5811SOL    HW228893   3.798   2.455   1.864 -0.1875 -0.7113 -3.0739
 5812SOL     OW28894   3.564   3.967   5.210 -0.1095 -0.2852  0.2287
 5812SOL    HW128895   3.579   3.924   5.294  1.0283  0.1575  0.2475
 5812SOL    HW228896   3.475   3.942   5.184 -0.1001  1.7011 -1.7590
 5813SOL     OW28897   1.823   2.944   2.716  0.1367  0.1742  0.2610
 5813SOL    HW128898   1.847   3.018   2.661 -1.9020  0.8881  0.3187
 5813SOL    HW228899   1.727   2.945   2.709  0.1161 -1.4023  0.3751
 5814SOL     OW28900   4.001   1.845   5.338 -0.1602  0.1260 -0.5377
 5814SOL    HW128901   3.953   1.926   5.320 -1.2119 -0.8947 -2.4350
 5814SOL    HW228902   4.031   1.876   5.423 -0.0612  1.5838 -1.1032
 5815SOL     OW28903   3.358   3.930  13.087  0.3183  0.1650 -0.1844
 5815SOL    HW128904   3.295   4.001  13.104 -1.6758 -1.9658  1.3484
 5815SOL    HW228905   3.296   3.865  13.054  0.0700 -0.2698  1.1446
 5816SOL     OW28906   0.232   0.105   7.854  0.2877 -0.5868  0.7376
 5816SOL    HW128907   0.325   0.087   7.870  0.1373 -0.2913  1.9582
 5816SOL    HW228908   0.230   0.201   7.858  1.5676 -0.5742  1.1806
 5817SOL     OW28909   0.565   3.216   7.146  0.0270  0.2575  0.0081
 5817SOL    HW128910   0.609   3.137   7.178 -0.1530  0.5118  0.8878
 5817SOL    HW228911   0.493   3.176   7.098 -0.4841 -0.0854  1.0698
 5818SOL     OW28912   3.819   0.734  15.302 -0.7451 -0.3636 -0.2505
 5818SOL    HW128913   3.848   0.754  15.213 -1.2121 -1.6058 -0.6843
 5818SOL    HW228914   3.787   0.646  15.284  1.1216 -0.7386 -1.8398
 5819SOL     OW28915   4.699   0.721   3.104 -0.8883  0.0842  0.0727
 5819SOL    HW128916   0.038   0.790   3.078 -1.0022  0.2407  0.2298
 5819SOL    HW228917   4.664   0.765   3.181  1.2477  0.4924  0.7963
 5820SOL     OW28918   1.310   1.561   3.873  0.4050  0.3818  0.4127
 5820SOL    HW128919   1.400   1.538   3.849  0.0482 -1.4724  0.8824
 5820SOL    HW228920   1.275   1.473   3.862 -2.5286  1.5553  0.2839
 5821SOL     OW28921   3.775   0.275  15.275  0.0682  0.1053 -0.2499
 5821SOL    HW128922   3.743   0.231  15.354  1.1256  3.7747  2.2009
 5821SOL    HW228923   3.750   0.215  15.205 -0.3897  1.0187 -0.8627
 5822SOL     OW28924   0.716   2.901   0.312 -0.0216 -0.0786  0.5768
 5822SOL    HW128925   0.786   2.961   0.283  0.4975 -1.4552 -1.0532
 5822SOL    HW228926   0.763   2.822   0.337  0.2065  0.1343  0.8148
 5823SOL     OW28927   1.326   4.281   6.434 -0.1177 -0.1073 -0.0954
 5823SOL    HW128928   1.335   4.230   6.515 -0.5324 -2.1536 -1.3298
 5823SOL    HW228929   1.420   4.280   6.419 -0.2439  1.5883 -0.9035
 5824SOL     OW28930   2.667   2.507   9.564  0.6747 -0.2163  0.1984
 5824SOL    HW128931   2.711   2.492   9.647  1.4447  0.8137 -0.0182
 5824SOL    HW228932   2.714   2.587   9.541  0.5950 -0.5153 -1.0528
 5825SOL     OW28933   3.565   1.841   8.814  0.6237 -0.9602  0.1607
 5825SOL    HW128934   3.626   1.866   8.745 -0.2630  1.0612  0.1083
 5825SOL    HW228935   3.486   1.887   8.785  1.6128 -0.0420 -1.0532
 5826SOL     OW28936   0.738   4.547  13.024  0.4724 -0.5161 -0.0912
 5826SOL    HW128937   0.826   4.575  12.999 -0.3417  1.2572 -0.9830
 5826SOL    HW228938   0.743   4.523  13.117  0.5143 -0.4877 -0.0862
 5827SOL     OW28939   2.928   1.709  11.550 -1.0103 -0.0214 -0.1604
 5827SOL    HW128940   2.990   1.752  11.491 -0.0694 -2.4898 -0.9629
 5827SOL    HW228941   2.912   1.632  11.496 -1.2374 -2.7187  3.7696
 5828SOL     OW28942   0.302   0.670   4.337  0.1757  0.2223  0.0412
 5828SOL    HW128943   0.349   0.734   4.283 -0.1196 -0.5925 -1.1853
 5828SOL    HW228944   0.222   0.667   4.285  0.9898 -1.5832 -1.1087
 5829SOL     OW28945   1.093   0.071  10.926 -0.0417 -0.3675 -0.1844
 5829SOL    HW128946   1.072   0.160  10.955 -1.5526 -1.1757  1.1878
 5829SOL    HW228947   1.102   0.034  11.013  0.0248 -1.1041 -0.5050
 5830SOL     OW28948   2.701   1.737  12.242  0.1714  0.3769 -0.1356
 5830SOL    HW128949   2.740   1.715  12.158 -0.5882 -2.1719  0.1605
 5830SOL    HW228950   2.637   1.665  12.241  0.5955  0.0317 -1.6724
 5831SOL     OW28951   3.879   4.087   3.861  0.2422 -0.0697 -0.2766
 5831SOL    HW128952   3.959   4.037   3.844 -0.2994 -0.8086 -0.6845
 5831SOL    HW228953   3.823   4.016   3.895 -0.7818  1.2500  0.8024
 5832SOL     OW28954   0.425   1.808   8.649  0.5045  0.5814 -0.1783
 5832SOL    HW128955   0.347   1.855   8.678 -0.2277 -0.3762 -0.5945
 5832SOL    HW228956   0.476   1.823   8.729  1.6772 -2.5182 -0.3745
 5833SOL     OW28957   4.621   1.695  11.175 -0.1287  0.4392 -0.1637
 5833SOL    HW128958   4.714   1.690  11.199  0.4374  0.6895 -2.2607
 5833SOL    HW228959   4.594   1.604  11.185 -3.0250  1.1410 -1.7844
 5834SOL     OW28960   0.487   0.800  13.587 -0.1573  0.0687  0.2760
 5834SOL    HW128961   0.524   0.821  13.501  1.8659 -1.3176  0.8273
 5834SOL    HW228962   0.402   0.841  13.567 -0.8702 -0.5424  2.0696
 5835SOL     OW28963   4.594   0.958   0.795  0.0775  0.3643 -0.0203
 5835SOL    HW128964   4.657   1.002   0.852 -0.2628  0.4322  0.2985
 5835SOL    HW228965   4.564   0.881   0.843  1.8836  0.4782  1.2731
 5836SOL     OW28966   3.242   1.534   1.854 -0.3223 -0.3746 -0.2288
 5836SOL    HW128967   3.323   1.482   1.849 -0.4880 -1.1301  4.3777
 5836SOL    HW228968   3.204   1.513   1.769 -0.7537  0.6065 -0.2769
 5837SOL     OW28969   2.005   0.407   6.518  0.4941 -0.2395 -0.1040
 5837SOL    HW128970   1.988   0.415   6.612 -0.9654  0.6813 -0.4491
 5837SOL    HW228971   1.949   0.476   6.482  1.1537 -1.3803 -3.2721
 5838SOL     OW28972   2.340   1.006   8.528  0.3502 -0.4558 -0.4498
 5838SOL    HW128973   2.324   0.913   8.517 -1.5655 -0.2470  0.5046
 5838SOL    HW228974   2.296   1.022   8.612  1.1801  0.1162 -0.1175
 5839SOL     OW28975   0.429   3.338   2.718 -0.0990 -0.3301  0.3279
 5839SOL    HW128976   0.483   3.259   2.720  0.1348 -0.1981 -1.0721
 5839SOL    HW228977   0.439   3.380   2.804  1.1952  0.0502 -0.0133
 5840SOL     OW28978   3.020   1.851   2.675 -0.3645 -0.2152  0.1470
 5840SOL    HW128979   2.997   1.906   2.600  2.8539 -1.4806 -1.7947
 5840SOL    HW228980   3.003   1.920   2.739 -1.5085 -1.1226  0.8015
 5841SOL     OW28981   2.572   3.370  13.445 -0.0256  0.4553  0.0756
 5841SOL    HW128982   2.530   3.385  13.361  2.5005  1.1261 -1.0839
 5841SOL    HW228983   2.658   3.400  13.415 -0.2280  0.9200 -0.0342
 5842SOL     OW28984   3.246   3.595   3.491 -0.1022 -0.4887 -0.2058
 5842SOL    HW128985   3.237   3.690   3.489 -1.4355 -0.6163 -0.9010
 5842SOL    HW228986   3.257   3.577   3.397  0.8250 -2.4520  0.2745
 5843SOL     OW28987   1.062   0.888   4.765  0.3839  0.3952 -0.1150
 5843SOL    HW128988   0.983   0.931   4.797  1.0236  1.6462 -0.2491
 5843SOL    HW228989   1.079   0.835   4.844 -0.4132 -0.9728 -0.8674
 5844SOL     OW28990   0.613   4.470   7.292  0.2153 -0.6497  0.3628
 5844SOL    HW128991   0.531   4.495   7.250 -0.2313 -3.3438 -0.4016
 5844SOL    HW228992   0.587   4.489   7.382 -2.7718 -0.5483 -0.5334
 5845SOL     OW28993   3.355   0.739   2.046 -0.5469 -0.5811 -0.3173
 5845SOL    HW128994   3.330   0.791   1.969 -1.7621 -0.9488 -0.1806
 5845SOL    HW228995   3.404   0.667   2.008  0.5976  0.2946 -0.4953
 5846SOL     OW28996   0.472   3.619   7.928  0.2155  0.3061  0.4400
 5846SOL    HW128997   0.395   3.675   7.944  0.3318 -0.1671  2.6339
 5846SOL    HW228998   0.521   3.687   7.882 -2.5412  1.1418 -1.3051
 5847SOL     OW28999   4.390   2.644   3.125  0.0049 -0.5338 -0.1741
 5847SOL    HW129000   4.303   2.653   3.162 -0.3295 -0.5507 -0.9443
 5847SOL    HW229001   4.410   2.732   3.091  0.4670 -0.1017  1.2290
 5848SOL     OW29002   1.855   0.436   9.150  0.0320 -0.3768 -0.0644
 5848SOL    HW129003   1.946   0.437   9.119  0.0025 -0.3642 -0.1514
 5848SOL    HW229004   1.880   0.444   9.242  0.3371  0.8588 -0.2532
 5849SOL     OW29005   2.001   3.719   6.817  0.2162  0.5574  0.9726
 5849SOL    HW129006   1.964   3.652   6.759  3.5750 -1.8736  1.6272
 5849SOL    HW229007   1.998   3.794   6.757 -1.6072 -0.7598 -0.6084
 5850SOL     OW29008   0.041   0.346   6.988  0.2290  0.0226  0.0476
 5850SOL    HW129009   0.049   0.395   7.069 -1.0006  1.3728 -0.6361
 5850SOL    HW229010   0.103   0.396   6.935  0.1839  0.3426  0.3000
 5851SOL     OW29011   0.325   2.486   4.094  0.0222 -0.0894 -0.4292
 5851SOL    HW129012   0.274   2.427   4.148 -1.5311  0.9232 -0.7869
 5851SOL    HW229013   0.333   2.431   4.016  0.1601 -1.9119  0.8936
 5852SOL     OW29014   0.300   0.156   9.037  0.4190  0.0240 -0.3677
 5852SOL    HW129015   0.220   0.106   9.023  3.4536 -4.5407 -1.2665
 5852SOL    HW229016   0.280   0.196   9.122  0.5066  0.1349 -0.3980
 5853SOL     OW29017   0.006   1.130   4.818  0.5354 -0.2233  0.0065
 5853SOL    HW129018   4.687   1.204   4.864 -2.1870  0.0484 -2.7885
 5853SOL    HW229019   4.694   1.054   4.866  1.9299 -1.6407 -1.2691
 5854SOL     OW29020   1.648   2.582   9.472  0.1913  0.0379  0.2192
 5854SOL    HW129021   1.574   2.557   9.528 -0.6928 -1.4405 -1.6158
 5854SOL    HW229022   1.602   2.623   9.399 -1.4420  0.1473  1.3109
 5855SOL     OW29023   2.366   1.723   6.875  0.3815 -0.4526  0.0405
 5855SOL    HW129024   2.428   1.794   6.863  0.0575 -0.3361 -0.9624
 5855SOL    HW229025   2.279   1.763   6.885  0.1677 -1.0740  0.6612
 5856SOL     OW29026   4.455   4.387   4.639 -0.4451 -0.1943  0.4625
 5856SOL    HW129027   4.422   4.302   4.612  0.1989 -0.5196  0.7087
 5856SOL    HW229028   4.456   4.380   4.734  1.1514  0.1560  0.4824
 5857SOL     OW29029   4.063   4.342   2.341  0.0095 -0.3875  0.5854
 5857SOL    HW129030   4.035   4.355   2.250 -1.3903  0.4148  1.1322
 5857SOL    HW229031   4.019   4.263   2.371  1.0400 -0.9862  0.5197
 5858SOL     OW29032   1.912   3.522  17.036 -0.5578 -0.1011 -0.3064
 5858SOL    HW129033   2.004   3.504  17.055 -0.9161  0.4538  2.0263
 5858SOL    HW229034   1.872   3.458  17.096 -1.2090  0.5758 -0.0269
 5859SOL     OW29035   1.324   4.118   8.338 -0.3745  0.1631  0.8741
 5859SOL    HW129036   1.292   4.036   8.299  0.9082  0.1365 -0.1434
 5859SOL    HW229037   1.248   4.174   8.325 -0.2767  0.2525  0.6897
 5860SOL     OW29038   0.709   0.496   2.490 -0.5296  0.0531  0.8316
 5860SOL    HW129039   0.669   0.442   2.421 -1.0252  0.0444  1.1276
 5860SOL    HW229040   0.795   0.455   2.491  0.0112  1.0877 -2.1193
 5861SOL     OW29041   3.451   2.451  14.399  0.3026 -0.8321 -0.1446
 5861SOL    HW129042   3.426   2.434  14.490  2.0074  0.8849  0.6517
 5861SOL    HW229043   3.362   2.459  14.364  0.2349  2.5434  0.7786
 5862SOL     OW29044   1.381   3.749   2.785 -0.1499  0.0787 -0.3048
 5862SOL    HW129045   1.363   3.814   2.852  0.6389  0.9584 -0.9349
 5862SOL    HW229046   1.411   3.679   2.843 -0.4502 -0.1123 -0.3803
 5863SOL     OW29047   0.489   3.953  12.270  0.7420 -0.6265  0.2177
 5863SOL    HW129048   0.542   4.031  12.253 -0.7433  0.8183  2.2369
 5863SOL    HW229049   0.419   3.987  12.326  1.3102  1.7314 -0.4840
 5864SOL     OW29050   3.035   1.498  15.623 -0.1091 -0.1213  0.1799
 5864SOL    HW129051   2.966   1.564  15.620 -1.1997 -1.2926 -0.2745
 5864SOL    HW229052   3.061   1.500  15.716 -2.1013 -1.2638  0.7496
 5865SOL     OW29053   2.638   0.997   5.954  0.0325  0.5930  0.1554
 5865SOL    HW129054   2.593   0.951   6.026 -0.8060 -0.4649 -1.0426
 5865SOL    HW229055   2.565   1.011   5.894  0.1761  0.0046 -0.1582
 5866SOL     OW29056   2.304   3.266   5.392  0.2185 -0.2346  0.6211
 5866SOL    HW129057   2.288   3.216   5.472 -0.6776  0.7982  1.0760
 5866SOL    HW229058   2.222   3.301   5.359  1.3132  1.2584 -0.5058
 5867SOL     OW29059   0.811   2.436   2.461 -0.0111 -0.3529  0.3982
 5867SOL    HW129060   0.847   2.349   2.474  1.7669  0.3889  0.4736
 5867SOL    HW229061   0.869   2.453   2.386 -1.1495  1.1987 -0.1289
 5868SOL     OW29062   2.437   0.998   6.448  0.5426 -0.2519  0.1752
 5868SOL    HW129063   2.509   0.974   6.505  0.7836  0.2308  0.0707
 5868SOL    HW229064   2.363   0.956   6.493  0.8031  0.1163  0.9343
 5869SOL     OW29065   1.968   2.143   3.880 -0.2691 -0.0108  0.1823
 5869SOL    HW129066   1.879   2.179   3.888  0.1775  0.7537  1.6395
 5869SOL    HW229067   2.029   2.205   3.919  0.5076  0.4790 -1.7999
 5870SOL     OW29068   2.289   0.306   5.146 -0.1493 -0.0102  0.5985
 5870SOL    HW129069   2.231   0.260   5.085  2.2412  1.3494 -2.7180
 5870SOL    HW229070   2.265   0.398   5.140  0.5620  0.2975  2.7499
 5871SOL     OW29071   1.354   4.564   3.068 -0.5719  0.3141 -0.4423
 5871SOL    HW129072   1.259   4.552   3.071 -0.3793 -1.2599 -0.7763
 5871SOL    HW229073   1.386   4.487   3.021  1.2952  1.0358 -0.3606
 5872SOL     OW29074   0.417   3.364   6.600 -0.4168 -0.1857 -0.4515
 5872SOL    HW129075   0.330   3.361   6.560 -1.1478  0.7273  1.0684
 5872SOL    HW229076   0.399   3.348   6.692 -0.5826 -1.0108 -0.6228
 5873SOL     OW29077   3.515   4.439   2.349 -0.8187  0.7522 -0.3285
 5873SOL    HW129078   3.564   4.375   2.298  0.9989  0.7151  1.4780
 5873SOL    HW229079   3.538   4.404   2.435  1.7133  2.9784 -0.1240
 5874SOL     OW29080   2.242   2.707   1.865  0.6365 -0.0843  0.1126
 5874SOL    HW129081   2.228   2.617   1.896  1.0208 -0.5315 -1.0003
 5874SOL    HW229082   2.157   2.722   1.825  0.4216  1.2066  1.0600
 5875SOL     OW29083   0.603   1.339  12.000 -0.1771 -0.4353 -0.0032
 5875SOL    HW129084   0.599   1.255  12.047  0.2936 -0.6209 -0.2915
 5875SOL    HW229085   0.695   1.364  12.006 -0.4246  0.4734  0.0060
 5876SOL     OW29086   2.224   0.903   7.610 -0.3812  0.2897  0.3299
 5876SOL    HW129087   2.246   0.936   7.523 -1.3646  1.5752  0.5600
 5876SOL    HW229088   2.314   0.892   7.639 -0.1962  1.3561  0.1935
 5877SOL     OW29089   1.711   0.754  15.855 -0.1895 -0.3889  0.1174
 5877SOL    HW129090   1.730   0.746  15.762  2.3063 -0.6743  0.6611
 5877SOL    HW229091   1.621   0.720  15.856 -1.2590  2.3659  0.7624
 5878SOL     OW29092   3.895   3.372  16.834 -0.3460  0.0590 -0.1185
 5878SOL    HW129093   3.962   3.405  16.774 -0.6298  1.8100  0.5435
 5878SOL    HW229094   3.839   3.327  16.771  0.3946 -0.2289 -0.5789
 5879SOL     OW29095   3.264   1.744  15.348 -0.0742  0.1004  0.2884
 5879SOL    HW129096   3.278   1.710  15.436  0.0759  1.1641  0.6708
 5879SOL    HW229097   3.321   1.818  15.329  1.3316  0.1066  4.7576
 5880SOL     OW29098   4.449   4.298   6.551  0.1965 -0.2503  0.1899
 5880SOL    HW129099   4.378   4.234   6.558 -0.2139  0.3151  1.1532
 5880SOL    HW229100   4.492   4.270   6.470 -1.8627 -0.6629 -0.7656
 5881SOL     OW29101   3.224   2.655   9.441 -0.3248 -0.2191  0.7596
 5881SOL    HW129102   3.139   2.625   9.473  0.0973  0.1154  2.1853
 5881SOL    HW229103   3.267   2.651   9.526  0.4323 -0.0164  0.3912
 5882SOL     OW29104   4.331   1.618   6.565 -0.3825 -0.5787 -0.0955
 5882SOL    HW129105   4.412   1.615   6.515 -1.0098 -1.4236 -1.0535
 5882SOL    HW229106   4.349   1.698   6.614 -2.0048  0.3902 -1.1130
 5883SOL     OW29107   1.752   0.175  15.333 -0.2007 -0.1707  0.2663
 5883SOL    HW129108   1.675   0.194  15.385  1.2556 -0.0604  2.3744
 5883SOL    HW229109   1.705   0.138  15.258 -2.3842  1.2512  0.9387
 5884SOL     OW29110   3.025   3.279  17.127 -0.1542 -0.1370 -0.0772
 5884SOL    HW129111   3.044   3.221  17.200 -0.3404  0.4398  0.4271
 5884SOL    HW229112   2.969   3.338  17.177 -0.2901 -1.3951  1.2562
 5885SOL     OW29113   4.579   4.242   6.300 -0.0325  0.4368  0.6684
 5885SOL    HW129114   4.608   4.202   6.217  1.7091  1.2740  0.8726
 5885SOL    HW229115   4.605   4.332   6.284 -1.0927  0.8422  1.2794
 5886SOL     OW29116   2.769   0.878   7.398 -0.2348  0.2279  0.1108
 5886SOL    HW129117   2.732   0.805   7.348  0.3919 -0.8864  1.2718
 5886SOL    HW229118   2.774   0.825   7.478  0.1712  0.2648  0.1095
 5887SOL     OW29119   2.846   3.369   7.936 -0.4593  0.5053 -0.2120
 5887SOL    HW129120   2.904   3.374   8.012 -0.7184 -0.4694  0.0495
 5887SOL    HW229121   2.763   3.349   7.978  0.1211  1.2916  1.2914
 5888SOL     OW29122   2.919   2.112   8.128 -0.2492  0.0087 -0.3435
 5888SOL    HW129123   2.888   2.056   8.198 -0.5757  1.8934  1.0084
 5888SOL    HW229124   2.912   2.059   8.048  1.0709 -3.0240  1.5540
 5889SOL     OW29125   3.660   1.879   3.603  0.8077  0.1037  0.0207
 5889SOL    HW129126   3.690   1.818   3.670 -0.3606 -0.1462  0.3172
 5889SOL    HW229127   3.654   1.959   3.656 -0.2052  0.4416 -0.5842
 5890SOL     OW29128   3.278   3.023   6.883  0.2986 -0.1438 -0.8141
 5890SOL    HW129129   3.186   3.043   6.899 -0.1007 -2.0330 -0.7218
 5890SOL    HW229130   3.279   2.996   6.792 -0.3183  0.3285 -0.9630
 5891SOL     OW29131   1.943   2.205   6.217  0.0550  0.3554  0.2554
 5891SOL    HW129132   1.892   2.154   6.280 -0.0613 -0.2688 -0.3401
 5891SOL    HW229133   2.014   2.140   6.210 -0.3984 -0.1674  0.5253
 5892SOL     OW29134   1.012   4.368   7.630 -0.5924  0.2252 -0.7012
 5892SOL    HW129135   0.926   4.329   7.643 -0.0151 -0.6655  0.4320
 5892SOL    HW229136   1.065   4.291   7.651  0.0805  1.0661  0.7142
 5893SOL     OW29137   0.364   2.525  13.675 -0.0937 -0.3722 -0.7334
 5893SOL    HW129138   0.451   2.564  13.684 -0.0496 -0.5263 -0.4743
 5893SOL    HW229139   0.345   2.513  13.768 -0.5099  1.5153 -0.5765
 5894SOL     OW29140   0.474   1.668   0.491 -0.2729 -0.1141 -0.5859
 5894SOL    HW129141   0.554   1.617   0.478 -0.8996 -1.0248 -0.8424
 5894SOL    HW229142   0.501   1.755   0.462  0.5461 -0.9768 -2.3860
 5895SOL     OW29143   0.405   0.258  15.631  0.0647  0.1633 -0.3143
 5895SOL    HW129144   0.418   0.352  15.645 -0.1139 -0.0575  1.2660
 5895SOL    HW229145   0.402   0.237  15.724 -0.8142 -1.4826 -0.7303
 5896SOL     OW29146   3.639   3.595   3.984  0.3688  0.2335 -0.2096
 5896SOL    HW129147   3.563   3.653   3.978 -0.2766 -0.7149 -1.1625
 5896SOL    HW229148   3.600   3.518   3.942  0.2155  1.2927 -1.9731
 5897SOL     OW29149   1.653   3.309   1.132  0.2326 -0.0999  0.4930
 5897SOL    HW129150   1.676   3.233   1.079  2.0843  0.4762  0.4665
 5897SOL    HW229151   1.564   3.291   1.162 -0.1597 -2.7026 -2.1958
 5898SOL     OW29152   3.767   2.854   2.021 -0.4272  0.3093 -0.0966
 5898SOL    HW129153   3.700   2.915   1.991 -1.0338 -0.6599 -0.7061
 5898SOL    HW229154   3.724   2.769   2.014 -2.4625  1.4263 -0.9977
 5899SOL     OW29155   1.038   2.511  15.482  0.3119  0.2927 -0.2778
 5899SOL    HW129156   1.013   2.572  15.551  1.3656 -0.9160  1.1824
 5899SOL    HW229157   1.069   2.566  15.410  0.7559 -0.8267 -0.9550
 5900SOL     OW29158   0.577   3.541  11.286  0.4290  0.2990  0.2462
 5900SOL    HW129159   0.525   3.475  11.240  2.4764 -1.7347  0.8753
 5900SOL    HW229160   0.523   3.550  11.364  1.6165  2.1024  0.8371
 5901SOL     OW29161   0.818   0.139  14.332 -0.0319  0.0293  0.2119
 5901SOL    HW129162   0.816   0.051  14.370 -0.4735 -0.2343 -0.4389
 5901SOL    HW229163   0.746   0.140  14.269  1.1505 -0.6294 -1.1543
 5902SOL     OW29164   0.160   1.472   4.025 -0.3856  0.7834  0.0224
 5902SOL    HW129165   0.146   1.466   4.120 -0.2760  0.6025  0.0261
 5902SOL    HW229166   0.249   1.438   4.017 -0.8280  0.0869 -1.9988
 5903SOL     OW29167   3.779   1.683   5.315  0.1316 -0.2869  0.1490
 5903SOL    HW129168   3.853   1.736   5.345 -1.8683  0.9351  2.8736
 5903SOL    HW229169   3.726   1.753   5.278  0.2127 -0.1385  0.3138
 5904SOL     OW29170   1.055   2.302   4.928  0.1297 -0.2424 -0.3273
 5904SOL    HW129171   1.133   2.276   4.879  0.8202  0.3202  0.4700
 5904SOL    HW229172   0.999   2.336   4.858  0.2828 -0.6142 -0.6285
 5905SOL     OW29173   3.891   0.281   1.959 -0.0188 -0.7472 -0.2076
 5905SOL    HW129174   3.977   0.322   1.949 -0.8244  0.7061 -1.1399
 5905SOL    HW229175   3.864   0.263   1.869 -3.0335 -0.4258  0.6329
 5906SOL     OW29176   4.582   3.715   1.439 -0.1700 -0.5646  0.2240
 5906SOL    HW129177   4.505   3.762   1.471 -0.1212  1.1485 -2.2077
 5906SOL    HW229178   4.660   3.735   1.491  0.2343 -2.5614  0.4041
 5907SOL     OW29179   0.234   1.456   7.378 -0.1100 -0.2525  0.1683
 5907SOL    HW129180   0.166   1.523   7.366 -1.8484 -2.0917 -0.2117
 5907SOL    HW229181   0.313   1.506   7.360 -0.5869  0.0016 -1.1928
 5908SOL     OW29182   0.354   0.053   2.291 -0.1109 -0.0616 -0.4062
 5908SOL    HW129183   0.367   0.121   2.358 -0.4662  0.4770 -0.8757
 5908SOL    HW229184   0.260   0.039   2.304 -0.4442  2.4064 -0.1590
 5909SOL     OW29185   4.485   0.012  16.256 -0.5876 -0.6734 -0.6262
 5909SOL    HW129186   4.556   0.046  16.201 -0.0729 -2.1479 -0.8535
 5909SOL    HW229187   4.486   0.091  16.310  0.7163 -3.1349  2.9295
 5910SOL     OW29188   3.879   0.041   6.279 -0.0921 -0.2236 -0.2871
 5910SOL    HW129189   3.950   4.710   6.242 -1.5154 -2.5374  0.2204
 5910SOL    HW229190   3.828   4.691   6.320  1.2527 -1.2298 -0.3576
 5911SOL     OW29191   2.334   4.717   3.646 -0.0383  0.4088 -0.0011
 5911SOL    HW129192   2.279   0.018   3.571 -0.8237  0.2087  0.5218
 5911SOL    HW229193   2.418   4.703   3.602  0.7594 -0.6389  1.8654
 5912SOL     OW29194   3.818   2.335   2.000 -0.0139  0.2578  0.2447
 5912SOL    HW129195   3.751   2.350   2.067 -0.0364  1.8535 -0.1351
 5912SOL    HW229196   3.819   2.239   1.997 -0.7971  0.2162  1.0969
 5913SOL     OW29197   3.329   0.842   8.958 -0.0399  0.3318  0.0435
 5913SOL    HW129198   3.280   0.760   8.960  1.9154 -0.8247  0.7405
 5913SOL    HW229199   3.369   0.836   9.045 -0.8532 -1.6755  0.2633
 5914SOL     OW29200   1.694   1.160   6.994 -0.2857 -0.4494 -0.1414
 5914SOL    HW129201   1.710   1.240   6.944 -0.9506 -0.7241 -0.7929
 5914SOL    HW229202   1.656   1.105   6.926 -2.7744 -0.2498  1.0785
 5915SOL     OW29203   4.426   2.792   3.548  0.4733  0.3104  0.7805
 5915SOL    HW129204   4.393   2.822   3.464  0.2938 -1.3617  0.2636
 5915SOL    HW229205   4.497   2.855   3.563 -0.8561  2.0175 -0.1528
 5916SOL     OW29206   3.473   4.422   8.318 -0.4793 -0.7483  0.0328
 5916SOL    HW129207   3.517   4.480   8.256  0.9283 -2.0133 -0.1635
 5916SOL    HW229208   3.544   4.404   8.379  0.1733  0.8685 -0.2333
 5917SOL     OW29209   4.346   4.415   0.420 -0.1900 -0.4243 -0.3410
 5917SOL    HW129210   4.414   4.349   0.433  0.1087 -0.7739 -3.5524
 5917SOL    HW229211   4.358   4.471   0.496 -0.5258  0.9509 -1.3062
 5918SOL     OW29212   2.197   0.984   0.424  0.1006 -0.0811  0.4862
 5918SOL    HW129213   2.240   0.908   0.385 -0.4994 -0.4441  0.5214
 5918SOL    HW229214   2.126   0.950   0.479 -1.1229  1.2356 -0.2793
 5919SOL     OW29215   4.675   1.579   5.602 -0.1862  0.3725  0.4682
 5919SOL    HW129216   4.599   1.625   5.640  0.9909  2.2028  0.6069
 5919SOL    HW229217   0.020   1.627   5.652  0.1198  1.6169 -1.1393
 5920SOL     OW29218   0.738   0.259   0.522 -0.0385  0.6699 -0.1667
 5920SOL    HW129219   0.786   0.239   0.442  2.4468  0.3536  1.3976
 5920SOL    HW229220   0.653   0.271   0.480  0.1364  1.7742 -0.2040
 5921SOL     OW29221   1.605   2.013  15.531 -0.2705 -0.3451  0.0293
 5921SOL    HW129222   1.657   1.932  15.529 -0.1141 -0.2399 -0.2062
 5921SOL    HW229223   1.536   2.001  15.467 -1.2485  0.6369  0.8926
 5922SOL     OW29224   1.921   2.509   8.711 -0.3190  0.5620 -0.5651
 5922SOL    HW129225   1.934   2.581   8.650 -0.7905  2.1076  1.1391
 5922SOL    HW229226   1.864   2.556   8.772  0.5386  0.7592  0.0933
 5923SOL     OW29227   0.832   3.811   4.111  0.2063 -0.4241 -0.3486
 5923SOL    HW129228   0.841   3.847   4.022 -2.7095 -0.1653 -0.5710
 5923SOL    HW229229   0.821   3.894   4.158 -1.3009  0.7066 -2.6519
 5924SOL     OW29230   0.971   2.475   7.058 -0.4980 -0.4414 -0.2831
 5924SOL    HW129231   1.012   2.399   7.098 -0.1353 -0.3594 -0.5080
 5924SOL    HW229232   1.032   2.501   6.989 -0.9968  2.1861  0.2424
 5925SOL     OW29233   3.836   2.366   3.542 -0.4931  0.0962  0.3791
 5925SOL    HW129234   3.904   2.309   3.508 -1.2068 -1.2773  1.2371
 5925SOL    HW229235   3.768   2.301   3.561 -1.2513  0.5902 -0.6361
 5926SOL     OW29236   0.077   0.991   3.649  0.3649  0.2710  0.0230
 5926SOL    HW129237   0.023   1.048   3.704 -0.6223 -1.6527  1.0552
 5926SOL    HW229238   0.104   1.053   3.581 -1.5701  0.8873 -0.1794
 5927SOL     OW29239   1.642   2.359   0.876 -0.3191  0.2950 -0.4095
 5927SOL    HW129240   1.636   2.279   0.823  0.1816  0.3522 -0.5506
 5927SOL    HW229241   1.721   2.322   0.916 -1.8753 -0.1040  2.2734
 5928SOL     OW29242   2.078   3.046   6.072  0.1957 -0.4316 -0.1188
 5928SOL    HW129243   2.004   3.037   6.011  0.4351 -2.2406 -0.1284
 5928SOL    HW229244   2.036   3.087   6.147  4.0515  1.3012  1.0791
 5929SOL     OW29245   1.765   0.200   2.640 -0.0123  0.0208  0.4277
 5929SOL    HW129246   1.818   0.124   2.618  0.4507  0.4204  0.1781
 5929SOL    HW229247   1.827   0.244   2.698 -3.5085  3.0475  1.9242
 5930SOL     OW29248   2.933   3.871   6.912 -0.2515 -0.6309  0.3556
 5930SOL    HW129249   2.932   3.907   7.001  2.9810  1.2134 -0.3266
 5930SOL    HW229250   3.019   3.830   6.904 -0.5684 -0.7478 -2.4314
 5931SOL     OW29251   1.169   4.264   3.596 -0.4786  0.0735 -0.6739
 5931SOL    HW129252   1.085   4.259   3.641  0.3673 -0.1655  0.8732
 5931SOL    HW229253   1.154   4.294   3.507  1.4311  0.6560 -0.8068
 5932SOL     OW29254   4.075   1.948   4.061 -0.0593  0.5229  0.2095
 5932SOL    HW129255   4.057   1.936   4.154  1.4481  2.1304  0.7187
 5932SOL    HW229256   3.997   1.908   4.023  0.8490 -0.1597 -0.9233
 5933SOL     OW29257   0.415   3.036   8.844  0.1853  0.1833  0.5264
 5933SOL    HW129258   0.328   3.000   8.828 -1.1185  1.7080  3.9607
 5933SOL    HW229259   0.398   3.048   8.938  1.8591 -2.0286  1.0891
 5934SOL     OW29260   1.537   1.651   4.970 -0.5542 -0.9352 -0.1829
 5934SOL    HW129261   1.624   1.676   5.000 -0.9221  0.0961  0.0436
 5934SOL    HW229262   1.559   1.606   4.889  1.3084 -0.6584  0.1674
 5935SOL     OW29263   2.828   1.769   4.585 -0.3504  0.1779  0.3569
 5935SOL    HW129264   2.909   1.747   4.540 -0.4544  2.2192 -0.8357
 5935SOL    HW229265   2.803   1.682   4.615 -0.5443 -0.2681 -1.1003
 5936SOL     OW29266   3.157   0.871   6.439  0.2301  0.0390 -0.3558
 5936SOL    HW129267   3.250   0.871   6.415  0.2182 -0.7641 -0.4035
 5936SOL    HW229268   3.107   0.877   6.358 -0.2202 -1.2519 -0.1706
 5937SOL     OW29269   2.025   0.605   7.886 -0.1617 -0.3318  0.0296
 5937SOL    HW129270   1.953   0.541   7.885  0.3391 -0.8923  0.1138
 5937SOL    HW229271   2.048   0.587   7.977  0.1742 -3.6076 -0.6736
 5938SOL     OW29272   4.203   1.241   0.487 -0.6400 -0.7754  0.3882
 5938SOL    HW129273   4.147   1.275   0.417  0.9018 -0.4809 -0.6845
 5938SOL    HW229274   4.230   1.150   0.475  3.6061  0.6743 -1.0547
 5939SOL     OW29275   2.047   2.999   6.549 -0.5005  0.1079  0.6706
 5939SOL    HW129276   2.105   3.028   6.620  0.6126 -0.0204 -0.1943
 5939SOL    HW229277   1.996   2.950   6.614  0.5070 -0.8650  0.7285
 5940SOL     OW29278   3.415   4.383  11.464  0.2903  0.6168 -0.6384
 5940SOL    HW129279   3.474   4.351  11.532  0.9043 -0.4670 -1.6746
 5940SOL    HW229280   3.475   4.370  11.390  1.3021 -0.0756  0.3096
 5941SOL     OW29281   0.924   1.613   9.135 -0.8269  0.1612  0.4232
 5941SOL    HW129282   1.015   1.633   9.112 -0.3227 -0.0859  2.1888
 5941SOL    HW229283   0.908   1.557   9.059  1.1483  0.9525 -0.5568
 5942SOL     OW29284   2.366   4.436  14.725 -0.3556 -0.4467  0.6404
 5942SOL    HW129285   2.415   4.381  14.786 -0.5710  0.4545  1.6080
 5942SOL    HW229286   2.414   4.402  14.649 -0.8299 -2.5935  1.2903
 5943SOL     OW29287   4.530   1.009   1.894 -0.2024 -0.0672 -0.1933
 5943SOL    HW129288   4.602   0.992   1.834  0.7488  2.8473  0.0833
 5943SOL    HW229289   4.495   0.921   1.886 -4.1501  1.5772 -1.1060
 5944SOL     OW29290   0.727   4.676  13.501  0.7925  0.1446  0.3899
 5944SOL    HW129291   0.655   0.001  13.458  1.2830 -1.1974 -1.8246
 5944SOL    HW229292   0.799   0.018  13.497 -0.1672  1.0643 -2.5902
 5945SOL     OW29293   0.931   1.932   3.718  0.1728  0.5532 -0.2017
 5945SOL    HW129294   0.900   1.841   3.715  1.0666  0.2297  0.6048
 5945SOL    HW229295   0.858   1.977   3.761 -2.0135 -1.9328 -1.2213
 5946SOL     OW29296   3.852   2.967   0.734  0.3455 -0.0327  0.2051
 5946SOL    HW129297   3.832   3.058   0.759 -0.5019 -0.7845  2.3032
 5946SOL    HW229298   3.926   2.938   0.787 -0.8107  1.7918  2.8320
 5947SOL     OW29299   1.555   4.102  16.452  0.2136 -0.3637 -0.2402
 5947SOL    HW129300   1.551   4.007  16.442 -1.2411 -0.6549  3.2137
 5947SOL    HW229301   1.479   4.133  16.500 -1.0322 -1.7575 -1.3486
 5948SOL     OW29302   0.130   2.615  12.798  0.3078 -0.3915  0.4974
 5948SOL    HW129303   0.154   2.541  12.743  1.0859  0.4115 -0.2441
 5948SOL    HW229304   0.148   2.573  12.882 -2.4263 -0.7139  0.9299
 5949SOL     OW29305   2.821   2.543   5.442 -0.0412  0.4924 -0.6457
 5949SOL    HW129306   2.769   2.509   5.369 -0.9793  0.5678 -0.0088
 5949SOL    HW229307   2.834   2.631   5.407  0.0903  0.7028 -0.0615
 5950SOL     OW29308   0.448   0.306  14.392 -0.2478 -0.0464 -0.1932
 5950SOL    HW129309   0.513   0.295  14.322 -0.5778  0.2217 -0.5411
 5950SOL    HW229310   0.477   0.238  14.453 -0.6681 -1.0687 -1.1294
 5951SOL     OW29311   2.953   2.096   4.958  0.5156 -0.2600 -0.0938
 5951SOL    HW129312   2.969   2.082   4.865 -1.4431  0.9567 -0.6152
 5951SOL    HW229313   2.898   2.021   4.978 -3.1649  1.5848 -3.2829
 5952SOL     OW29314   1.286   4.312   2.969 -0.0725 -0.5888  0.4080
 5952SOL    HW129315   1.244   4.252   2.908  0.5589 -1.8042  1.1820
 5952SOL    HW229316   1.234   4.305   3.049  0.4138 -0.0069  0.7780
 5953SOL     OW29317   2.312   1.986   5.832 -0.2118  0.1248  0.0461
 5953SOL    HW129318   2.345   1.923   5.768 -0.2778 -0.2459  0.3751
 5953SOL    HW229319   2.285   1.925   5.901 -2.6140 -0.0853 -1.0901
 5954SOL     OW29320   1.074   1.586   3.627  0.0321 -0.3922 -0.0767
 5954SOL    HW129321   1.093   1.503   3.670  1.7973 -0.4482 -0.9384
 5954SOL    HW229322   1.150   1.638   3.655  0.7169 -0.3578 -1.9845
 5955SOL     OW29323   0.572   2.663   6.982  0.3002 -0.0980 -0.3212
 5955SOL    HW129324   0.644   2.632   7.037  1.3459 -0.3137 -1.8106
 5955SOL    HW229325   0.537   2.578   6.953  0.2144 -0.0482 -0.3639
 5956SOL     OW29326   1.894   2.671  17.416 -0.1080  0.5171 -0.1411
 5956SOL    HW129327   1.811   2.718  17.411 -0.3778  0.0290 -0.2924
 5956SOL    HW229328   1.916   2.685  17.508 -0.9471  0.9263  0.0007
 5957SOL     OW29329   4.367   2.240   6.838 -0.1516 -0.0532  0.1299
 5957SOL    HW129330   4.324   2.163   6.802 -1.1500  0.2563  0.6898
 5957SOL    HW229331   4.352   2.296   6.761  1.4552  1.4392  0.9078
 5958SOL     OW29332   1.147   2.531  10.852  0.2305  0.5570  0.4379
 5958SOL    HW129333   1.157   2.471  10.926  0.0149  1.0786  0.8878
 5958SOL    HW229334   1.052   2.522  10.841  0.4846 -1.7503  0.0222
 5959SOL     OW29335   0.655   4.288   8.902  0.2114  0.2905  0.0622
 5959SOL    HW129336   0.661   4.317   8.994 -1.8858  1.3738 -0.1377
 5959SOL    HW229337   0.579   4.342   8.879 -0.8263 -1.5283 -0.7877
 5960SOL     OW29338   3.966   2.959   5.903 -0.2899 -0.0639  0.3453
 5960SOL    HW129339   3.897   2.983   5.965  0.1069 -0.6517  1.0147
 5960SOL    HW229340   4.000   2.887   5.956 -1.4167 -1.5358 -0.9500
 5961SOL     OW29341   0.972   1.686   4.162  0.4512 -0.1116  0.0392
 5961SOL    HW129342   1.021   1.755   4.117 -0.9994  1.0580  0.2523
 5961SOL    HW229343   1.001   1.703   4.252 -0.1680  0.2427  0.1671
 5962SOL     OW29344   0.257   0.460   3.294  0.2562 -0.3935  0.8657
 5962SOL    HW129345   0.185   0.402   3.320 -0.4338 -0.0638 -0.3113
 5962SOL    HW229346   0.217   0.540   3.328 -0.2526 -1.0260  1.7571
 5963SOL     OW29347   4.052   4.669  17.093  0.1520  0.5150 -0.2766
 5963SOL    HW129348   4.058   0.032  17.048  0.1208 -0.6949 -2.5448
 5963SOL    HW229349   4.117   4.682  17.162 -0.5591  1.0373  0.2898
 5964SOL     OW29350   2.736   4.502   8.645  0.3776 -0.4855 -0.1582
 5964SOL    HW129351   2.827   4.483   8.623  1.0990  2.2125  0.5915
 5964SOL    HW229352   2.737   4.503   8.741 -0.4304 -1.7419 -0.1344
 5965SOL     OW29353   4.343   2.556   6.075 -0.1660 -0.3208  0.1251
 5965SOL    HW129354   4.333   2.467   6.043 -0.9448  0.4024 -1.6578
 5965SOL    HW229355   4.264   2.606   6.055  0.6523  0.2743 -1.6283
 5966SOL     OW29356   1.937   2.518   5.134  0.5923 -0.2016 -0.5807
 5966SOL    HW129357   1.913   2.486   5.221 -2.6646 -0.2447 -1.5154
 5966SOL    HW229358   2.026   2.481   5.131  0.6381 -0.1506  0.0163
 5967SOL     OW29359   0.491   0.191   4.675 -0.6689  0.2220  0.0579
 5967SOL    HW129360   0.487   0.115   4.618  2.1095 -1.2674  1.8529
 5967SOL    HW229361   0.451   0.152   4.752 -1.7477 -0.6966 -0.9665
 5968SOL     OW29362   1.158   3.595   2.416 -0.3802  0.0738  0.0372
 5968SOL    HW129363   1.149   3.642   2.499  2.5097  0.5976  0.0258
 5968SOL    HW229364   1.179   3.509   2.453 -0.6338 -0.2992 -0.6830
 5969SOL     OW29365   1.197   4.718   8.159  0.5030  0.1758  0.3347
 5969SOL    HW129366   1.208   0.046   8.240  2.0934 -1.4297  1.0729
 5969SOL    HW229367   1.216   4.627   8.182 -0.2477 -0.5836 -2.0059
 5970SOL     OW29368   3.116   2.178  11.721  0.3793 -0.1623  0.2589
 5970SOL    HW129369   3.024   2.159  11.701 -0.0106  1.1243  0.9107
 5970SOL    HW229370   3.160   2.094  11.734 -0.1366  0.0690  3.3602
 5971SOL     OW29371   1.019   2.458  11.858 -0.4720 -0.4165 -0.1703
 5971SOL    HW129372   1.016   2.451  11.954  0.7671 -0.3812 -0.1240
 5971SOL    HW229373   1.043   2.551  11.858 -0.6303 -0.3749  1.5833
 5972SOL     OW29374   1.543   0.103   5.834  0.5164  0.4200  0.0190
 5972SOL    HW129375   1.617   0.143   5.789 -0.0577 -1.0068 -2.2050
 5972SOL    HW229376   1.512   0.031   5.779  2.6437  1.2450 -2.2086
 5973SOL     OW29377   0.465   2.673   1.208 -0.3268  0.4630 -0.5890
 5973SOL    HW129378   0.394   2.609   1.206 -0.5717  0.7241  0.0258
 5973SOL    HW229379   0.503   2.656   1.294 -3.1546  1.1331  0.7869
 5974SOL     OW29380   1.560   4.219  12.062 -0.1823  0.1502 -0.4333
 5974SOL    HW129381   1.583   4.142  12.011  1.9560  0.9096 -0.6256
 5974SOL    HW229382   1.552   4.290  11.999  0.5625  0.3678 -0.2841
 5975SOL     OW29383   0.843   2.026  11.214 -0.0709 -0.8474 -0.2087
 5975SOL    HW129384   0.824   1.961  11.281  1.5162  0.9923  1.9976
 5975SOL    HW229385   0.885   2.099  11.259  0.7947 -0.7929 -1.0964
 5976SOL     OW29386   3.306   3.673   6.405  0.1043 -0.1551 -0.6136
 5976SOL    HW129387   3.277   3.660   6.495  0.8611  1.4180 -0.1434
 5976SOL    HW229388   3.372   3.742   6.414  0.1458 -0.4629  1.3000
 5977SOL     OW29389   0.217   0.176   0.491  0.0331  0.5171 -0.8595
 5977SOL    HW129390   0.181   0.110   0.433  2.6269  0.1897 -2.1191
 5977SOL    HW229391   0.228   0.122   0.570 -1.0631  1.1609 -0.2733
 5978SOL     OW29392   0.798   2.040   9.225  0.6273  0.0542  0.3475
 5978SOL    HW129393   0.829   2.130   9.208  1.3477  0.0328  1.5205
 5978SOL    HW229394   0.849   2.014   9.301  1.4259  1.2634  0.2248
 5979SOL     OW29395   2.890   2.889   6.701  0.6701  0.4773 -0.0304
 5979SOL    HW129396   2.795   2.889   6.706  0.6543 -1.1242 -0.2243
 5979SOL    HW229397   2.914   2.976   6.670  1.4963 -0.8517 -3.1531
 5980SOL     OW29398   4.050   0.409   9.307 -0.3012 -0.9532  0.0714
 5980SOL    HW129399   4.079   0.499   9.291 -2.8875  0.9495  6.0649
 5980SOL    HW229400   4.059   0.419   9.401 -1.3313 -1.1324  0.1923
 5981SOL     OW29401   2.734   4.127   9.254 -0.5146 -0.2723 -0.1843
 5981SOL    HW129402   2.806   4.078   9.292  0.7523  1.5826 -0.2048
 5981SOL    HW229403   2.673   4.142   9.327  0.7471  2.7267  0.2629
 5982SOL     OW29404   3.769   1.724   5.023 -0.1309 -0.4561 -0.1060
 5982SOL    HW129405   3.809   1.666   5.088  3.9603  0.9016 -1.4222
 5982SOL    HW229406   3.838   1.708   4.958  0.6630 -0.3349  0.7082
 5983SOL     OW29407   4.651   1.354   6.774  0.7120 -0.4154 -0.1191
 5983SOL    HW129408   4.571   1.389   6.811  0.3839 -1.6780  0.3483
 5983SOL    HW229409   4.678   1.297   6.846 -0.4645 -0.8751 -0.0508
 5984SOL     OW29410   0.108   2.532  13.549  0.5079  0.0439  0.1992
 5984SOL    HW129411   0.191   2.525  13.596  1.0921  2.1409 -0.5256
 5984SOL    HW229412   0.082   2.443  13.528  3.6694 -0.4633 -1.5125
 5985SOL     OW29413   3.150   1.075   7.993 -0.6085 -0.6928  0.0062
 5985SOL    HW129414   3.127   1.055   7.902  1.9509 -0.4208 -0.6794
 5985SOL    HW229415   3.238   1.037   7.994 -0.1812  0.3655  2.5713
 5986SOL     OW29416   0.431   3.941  10.537  0.3682  0.0739  0.4074
 5986SOL    HW129417   0.456   4.019  10.488 -1.0996 -0.7777 -1.6547
 5986SOL    HW229418   0.423   3.987  10.621 -2.5035 -1.0597  0.7483
 5987SOL     OW29419   4.603   3.498   2.631 -0.0067  0.2622  0.5679
 5987SOL    HW129420   4.569   3.410   2.648 -0.1970 -0.1654 -1.9441
 5987SOL    HW229421   4.669   3.476   2.565  0.6295  1.5360  0.7865
 5988SOL     OW29422   4.692   2.036  13.720  0.6519 -0.3265 -0.3047
 5988SOL    HW129423   0.048   2.093  13.720  0.3753  0.0686  1.1306
 5988SOL    HW229424   4.630   2.094  13.676  3.1953  0.3966 -2.9332
 5989SOL     OW29425   0.089   0.275   3.386 -0.5508  0.1077  0.1163
 5989SOL    HW129426   0.133   0.190   3.395 -2.3291 -1.0291 -1.8439
 5989SOL    HW229427   0.038   0.245   3.311 -0.0014  1.1251 -0.6566
 5990SOL     OW29428   3.941   0.975   8.351 -0.3705  0.5358  0.1897
 5990SOL    HW129429   3.953   0.908   8.284 -1.9757  0.6537 -0.2095
 5990SOL    HW229430   3.857   0.954   8.391 -1.3126  1.7525 -1.1475
 5991SOL     OW29431   3.126   0.609  11.251  0.2788  0.4863  0.5142
 5991SOL    HW129432   3.157   0.574  11.335  0.7718  2.6269  1.2458
 5991SOL    HW229433   3.072   0.684  11.274 -1.1155 -0.4036  0.1022
 5992SOL     OW29434   1.344   1.215   3.632 -0.1883 -1.2467 -0.2491
 5992SOL    HW129435   1.357   1.201   3.538  0.2223 -2.1717 -0.0573
 5992SOL    HW229436   1.343   1.310   3.643 -1.2855 -1.1033 -1.6424
 5993SOL     OW29437   3.500   1.402   3.840  0.5272  0.3043 -0.5138
 5993SOL    HW129438   3.419   1.387   3.790  0.4305 -1.1641  0.0864
 5993SOL    HW229439   3.551   1.325   3.817  0.2771 -0.5456  1.6909
 5994SOL     OW29440   2.539   3.030  13.340 -0.1822 -0.1292  0.2713
 5994SOL    HW129441   2.573   3.004  13.255 -2.5763 -1.2083 -0.3571
 5994SOL    HW229442   2.447   3.036  13.313 -0.1713 -2.3251 -0.2870
 5995SOL     OW29443   4.521   3.320   5.858 -0.6451 -0.3545 -0.3541
 5995SOL    HW129444   4.591   3.372   5.820 -0.6735  0.0468  0.1438
 5995SOL    HW229445   4.555   3.231   5.847  1.0891  0.6044 -2.6756
 5996SOL     OW29446   1.203   0.048   3.619 -0.0343 -0.0945 -0.0881
 5996SOL    HW129447   1.172   0.080   3.704 -1.1565  1.1678 -0.9746
 5996SOL    HW229448   1.135   4.705   3.598 -0.9658  0.8783 -0.0473
 5997SOL     OW29449   2.304   3.054   2.904 -0.8767  0.1029  0.0013
 5997SOL    HW129450   2.249   3.109   2.959 -0.6824 -2.2034  2.4842
 5997SOL    HW229451   2.240   3.013   2.846 -0.7186  1.0088 -0.8216
 5998SOL     OW29452   4.548   0.008  15.230  0.3561 -0.6653 -0.5928
 5998SOL    HW129453   4.458   4.712  15.257  0.8124 -0.5043  1.0062
 5998SOL    HW229454   4.548   0.101  15.250 -0.4057 -0.7411 -0.2634
 5999SOL     OW29455   1.599   2.014   3.914  0.2541  0.0461  0.0472
 5999SOL    HW129456   1.516   2.059   3.901 -0.0388 -0.6941 -0.6350
 5999SOL    HW229457   1.564   1.932   3.950 -0.8248  0.6134  0.2793
 6000SOL     OW29458   0.258   2.014   5.681 -0.1341 -0.1394 -0.7946
 6000SOL    HW129459   0.347   2.047   5.665 -0.5446  1.2108 -0.2924
 6000SOL    HW229460   0.239   1.962   5.603  0.0389  0.0676 -0.9755
 6001SOL     OW29461   4.468   2.041   2.807 -0.5113 -0.3483 -0.6832
 6001SOL    HW129462   4.409   2.065   2.878 -1.8522 -0.9349 -1.6096
 6001SOL    HW229463   4.440   1.952   2.786 -1.1943 -0.3230  0.1388
 6002SOL     OW29464   1.754   1.911   7.427  0.1395  0.4804 -0.4362
 6002SOL    HW129465   1.755   1.877   7.338 -1.6228  1.8680 -0.9780
 6002SOL    HW229466   1.844   1.894   7.456  0.5761  1.0710 -1.4815
 6003SOL     OW29467   3.795   2.003  13.330 -0.4765 -0.1705  0.6995
 6003SOL    HW129468   3.739   2.032  13.402  0.9842  2.9835  0.5590
 6003SOL    HW229469   3.740   1.939  13.285 -1.3789 -0.2177  1.8728
 6004SOL     OW29470   3.485   1.328   2.770  0.0634 -0.3060  0.2501
 6004SOL    HW129471   3.572   1.350   2.735  0.3767 -1.5742  0.2312
 6004SOL    HW229472   3.494   1.342   2.865  0.5327 -0.5443  0.2401
 6005SOL     OW29473   3.837   0.577   2.545 -0.1227 -0.1638 -0.6028
 6005SOL    HW129474   3.771   0.574   2.476 -1.7668 -2.1054  1.0344
 6005SOL    HW229475   3.873   0.488   2.547 -1.6326 -0.7053  2.9707
 6006SOL     OW29476   1.092   2.451   6.713  0.1444 -0.3055  0.2589
 6006SOL    HW129477   1.086   2.537   6.673  2.6244 -1.3588 -2.3007
 6006SOL    HW229478   1.161   2.417   6.657 -1.5322 -1.9231 -0.8464
 6007SOL     OW29479   0.183   2.246   7.357  0.1167  0.3993 -0.2763
 6007SOL    HW129480   0.226   2.314   7.409  2.9867 -1.0408 -0.7758
 6007SOL    HW229481   0.129   2.303   7.301  0.7382 -1.6888 -3.0293
 6008SOL     OW29482   3.881   0.172   4.493 -0.2936  0.0902  0.2453
 6008SOL    HW129483   3.786   0.161   4.491 -0.5162  2.0135  0.7597
 6008SOL    HW229484   3.896   0.213   4.578  0.9209 -1.3603  0.7411
 6009SOL     OW29485   3.497   1.259  14.592  0.0899 -0.2230 -0.4499
 6009SOL    HW129486   3.453   1.181  14.560 -1.1589  0.0973  0.5017
 6009SOL    HW229487   3.466   1.331  14.538 -0.5416 -0.8078 -0.8624
 6010SOL     OW29488   2.187   0.049  12.105  0.0753  0.9592  0.2013
 6010SOL    HW129489   2.202   0.116  12.038 -3.5909  0.7087 -0.9093
 6010SOL    HW229490   2.100   0.022  12.074  0.3028 -1.6859  1.8822
 6011SOL     OW29491   1.972   1.452  10.651 -0.5206  0.4234 -0.1628
 6011SOL    HW129492   2.048   1.482  10.701  1.5587 -0.6280 -2.6488
 6011SOL    HW229493   2.006   1.429  10.564  1.5778 -0.0421  0.7808
 6012SOL     OW29494   3.036   0.292   2.733  0.1864 -0.1234 -0.4941
 6012SOL    HW129495   3.116   0.343   2.748 -1.0007  1.1344  1.7053
 6012SOL    HW229496   3.071   0.257   2.652 -0.2495  0.5402 -0.9694
 6013SOL     OW29497   3.546   4.056   4.202  0.4154  0.2768 -0.1427
 6013SOL    HW129498   3.612   4.113   4.163  1.1698  2.0411  3.6994
 6013SOL    HW229499   3.514   4.096   4.283  1.5822  0.8571  0.0373
 6014SOL     OW29500   2.586   0.679   2.981 -0.4102 -0.1414 -0.4903
 6014SOL    HW129501   2.628   0.760   2.952 -0.2170 -0.2988 -0.6463
 6014SOL    HW229502   2.515   0.681   2.917 -0.3842 -0.2269 -0.5218
 6015SOL     OW29503   3.065   1.783   9.170 -0.2758  0.6688  0.0991
 6015SOL    HW129504   3.027   1.778   9.257 -0.1409 -0.1423  0.1157
 6015SOL    HW229505   3.049   1.697   9.130  2.2738  0.5603 -0.7112
 6016SOL     OW29506   4.053   0.012   5.974  0.0403 -0.2884  0.4526
 6016SOL    HW129507   3.972   4.687   5.996  0.3023 -1.3264 -0.7800
 6016SOL    HW229508   4.124   4.677   6.008 -1.0684 -1.8280  0.2024
 6017SOL     OW29509   0.884   0.457   2.742  0.3667 -0.2244  0.2867
 6017SOL    HW129510   0.945   0.526   2.720 -0.3482 -0.0956 -1.3082
 6017SOL    HW229511   0.888   0.403   2.663  1.0476  1.4794 -0.8371
 6018SOL     OW29512   3.986   0.300  10.704 -0.3014 -0.5768 -0.4826
 6018SOL    HW129513   4.061   0.240  10.694 -0.5326 -0.4406 -3.1636
 6018SOL    HW229514   3.926   0.259  10.642 -2.1759 -0.4222  1.2609
 6019SOL     OW29515   4.387   3.070   7.017 -0.0105 -0.0125  0.3312
 6019SOL    HW129516   4.321   3.072   6.948 -0.5265 -2.1450  0.7748
 6019SOL    HW229517   4.419   3.159   7.000  1.1079 -1.1058 -3.2793
 6020SOL     OW29518   1.975   4.339   2.901  0.0998  0.1626  0.0506
 6020SOL    HW129519   1.967   4.425   2.943 -0.3959  0.8141 -1.3565
 6020SOL    HW229520   1.943   4.288   2.975 -0.9382  0.4735 -0.1906
 6021SOL     OW29521   0.614   4.156   5.674 -0.4939 -0.4785  0.0080
 6021SOL    HW129522   0.562   4.134   5.597 -1.4985 -0.7060  0.7485
 6021SOL    HW229523   0.635   4.071   5.711 -1.5418  0.1128  1.9721
 6022SOL     OW29524   4.425   2.223   2.568  0.2447 -0.0538 -0.0070
 6022SOL    HW129525   4.331   2.233   2.580  0.1906  0.2771 -0.6780
 6022SOL    HW229526   4.436   2.160   2.639  1.3395  0.4661  0.2820
 6023SOL     OW29527   0.757   2.390   6.316  0.5979 -0.0186  0.4845
 6023SOL    HW129528   0.676   2.432   6.287 -1.4800 -3.2576  1.5090
 6023SOL    HW229529   0.802   2.371   6.234  0.0764 -0.3283  0.2671
 6024SOL     OW29530   2.033   3.234  12.730 -0.1819  0.0536  0.8460
 6024SOL    HW129531   1.999   3.146  12.741  0.4909 -0.3816 -0.5256
 6024SOL    HW229532   2.052   3.237  12.636  0.5221  0.3794  0.9917
 6025SOL     OW29533   0.806   0.806  12.523  0.0833 -0.1455 -0.3345
 6025SOL    HW129534   0.895   0.773  12.512  0.0698  0.0094 -0.9059
 6025SOL    HW229535   0.827   0.888  12.569 -4.1130  1.0668 -0.5836
 6026SOL     OW29536   0.072   4.488  11.083 -0.8913 -0.0676 -0.4589
 6026SOL    HW129537   0.060   4.462  10.992  3.6436 -2.2480 -0.4110
 6026SOL    HW229538   0.166   4.474  11.088 -0.8354  0.4811  0.0126
 6027SOL     OW29539   3.626   2.276   2.185  0.0672  0.1002  0.8821
 6027SOL    HW129540   3.544   2.325   2.178 -0.8473 -1.6488 -0.5822
 6027SOL    HW229541   3.589   2.190   2.202  1.9786 -0.9208 -0.0924
 6028SOL     OW29542   1.489   2.727   1.740  0.0097  0.1697 -0.3663
 6028SOL    HW129543   1.484   2.636   1.709  0.0255  0.2203 -0.5186
 6028SOL    HW229544   1.477   2.770   1.655 -0.4236  3.2532  1.2507
 6029SOL     OW29545   1.600   3.236   7.906  0.4441  0.4991 -0.0534
 6029SOL    HW129546   1.575   3.277   7.989  0.7180  0.3978  0.0774
 6029SOL    HW229547   1.633   3.318   7.868 -1.2927  1.3379  0.2207
 6030SOL     OW29548   4.183   1.259  14.332  0.0957  0.7285 -0.0335
 6030SOL    HW129549   4.254   1.261  14.397  1.5756  1.2687 -1.6831
 6030SOL    HW229550   4.190   1.353  14.313  2.1138  0.1221 -2.2370
 6031SOL     OW29551   1.913   2.872   4.647 -0.7515 -0.1672  0.0104
 6031SOL    HW129552   1.996   2.861   4.693  0.1688  0.2013 -1.5538
 6031SOL    HW229553   1.893   2.778   4.644 -0.3244 -0.2223 -1.3014
 6032SOL     OW29554   4.511   0.571   8.443 -0.3249  0.0893  0.7150
 6032SOL    HW129555   4.581   0.595   8.382 -0.2385  0.6374  1.0276
 6032SOL    HW229556   4.542   0.599   8.529 -0.7972  0.2784  0.8233
 6033SOL     OW29557   0.660   1.261   6.787 -0.8529  0.3550  0.3907
 6033SOL    HW129558   0.699   1.346   6.807 -0.2405  0.6160 -1.9415
 6033SOL    HW229559   0.581   1.270   6.840  0.3592  1.8699  1.9607
 6034SOL     OW29560   4.268   3.057   4.853 -0.2361 -0.0108  0.0999
 6034SOL    HW129561   4.222   3.070   4.770  0.9317 -1.8903 -0.8433
 6034SOL    HW229562   4.221   2.984   4.893 -4.6516  2.2116 -0.9052
 6035SOL     OW29563   0.179   0.855  12.191  0.1659  0.6152  0.3093
 6035SOL    HW129564   0.180   0.937  12.141  1.0941  0.2084 -0.3453
 6035SOL    HW229565   0.265   0.861  12.233  1.1972  0.8515 -1.8026
 6036SOL     OW29566   2.017   4.721   0.632 -0.1048  0.0126 -0.4522
 6036SOL    HW129567   2.074   0.051   0.689  1.8128 -4.4439  1.6505
 6036SOL    HW229568   2.063   4.716   0.548  1.1305  0.1612  0.2244
 6037SOL     OW29569   2.301   3.477   6.933 -0.2919 -0.0355 -0.4970
 6037SOL    HW129570   2.283   3.461   6.840 -0.6060  1.2319 -0.6475
 6037SOL    HW229571   2.278   3.569   6.938 -0.8497 -0.0491 -2.7856
 6038SOL     OW29572   1.696   4.130   6.676  0.5858  0.2472 -0.0838
 6038SOL    HW129573   1.746   4.125   6.758 -0.5935 -2.6654  0.4563
 6038SOL    HW229574   1.635   4.057   6.681  0.9245 -0.0333  0.0099
 6039SOL     OW29575   3.591   2.955  15.073 -0.4406 -0.1923 -0.0265
 6039SOL    HW129576   3.509   2.944  15.121 -1.2081  0.3361 -1.2279
 6039SOL    HW229577   3.586   3.021  15.004  2.4098  0.4888  0.4178
 6040SOL     OW29578   0.079   4.395   1.572  0.0666  0.4256 -0.9444
 6040SOL    HW129579   4.707   4.417   1.563  0.2827  1.0452 -1.7110
 6040SOL    HW229580   0.087   4.391   1.667  0.0249  0.3308 -0.9457
 6041SOL     OW29581   4.701   4.283  14.415  0.2388  0.4915  0.8218
 6041SOL    HW129582   0.031   4.330  14.348  0.7958 -0.9681  0.2348
 6041SOL    HW229583   4.617   4.329  14.417 -0.6123 -1.0040 -0.8672
 6042SOL     OW29584   1.842   1.403   8.331  0.0838  0.1398 -0.0961
 6042SOL    HW129585   1.768   1.463   8.336  0.9475  1.4303 -2.7294
 6042SOL    HW229586   1.803   1.325   8.292  2.9762 -2.4357  2.1632
 6043SOL     OW29587   2.339   4.301   0.602 -0.1315 -0.4419 -0.0568
 6043SOL    HW129588   2.373   4.361   0.535 -2.5832  2.1760  1.0497
 6043SOL    HW229589   2.311   4.365   0.667 -2.5603 -0.8924 -0.6902
 6044SOL     OW29590   1.438   4.420   3.531 -0.5508 -1.0607 -0.3361
 6044SOL    HW129591   1.404   4.486   3.590  3.0063  0.7051 -0.2706
 6044SOL    HW229592   1.363   4.408   3.473 -0.6474  0.1561 -0.4589
 6045SOL     OW29593   0.682   1.905   5.607 -0.0569 -0.3889 -1.0778
 6045SOL    HW129594   0.696   1.874   5.518 -1.8523 -1.3118 -1.0400
 6045SOL    HW229595   0.748   1.975   5.605 -0.9661  0.4467 -2.0530
 6046SOL     OW29596   3.481   4.151   9.254 -0.4098  0.1650 -0.6443
 6046SOL    HW129597   3.389   4.174   9.260 -0.7659 -1.5310  0.6114
 6046SOL    HW229598   3.488   4.083   9.322 -0.8972 -1.7070 -2.4693
 6047SOL     OW29599   1.874   3.851  15.829 -0.4774 -0.5236 -0.1319
 6047SOL    HW129600   1.902   3.813  15.747  1.4499  2.2046 -0.7223
 6047SOL    HW229601   1.890   3.943  15.811  1.2809 -0.5992  1.0213
 6048SOL     OW29602   3.957   3.870  14.046 -0.3336 -0.1100 -0.9610
 6048SOL    HW129603   3.930   3.790  14.090 -0.7890  0.8450  0.4982
 6048SOL    HW229604   3.876   3.908  14.012  0.4082  1.4505 -0.9974
 6049SOL     OW29605   0.092   4.037   4.892  0.5949  0.3099 -0.0877
 6049SOL    HW129606   0.026   4.000   4.833  1.5915 -0.0612 -0.9716
 6049SOL    HW229607   0.153   3.963   4.895  1.4395  1.0137 -0.0690
 6050SOL     OW29608   3.776   4.494   0.040  0.1349 -0.5203  0.0462
 6050SOL    HW129609   3.826   4.443  17.663  1.0541  1.3774 -0.7774
 6050SOL    HW229610   3.774   4.575  17.675 -2.3558 -0.8544 -0.3904
 6051SOL     OW29611   0.766   4.023   9.457 -0.4528  0.2957  0.1707
 6051SOL    HW129612   0.799   3.935   9.477  4.9458  2.0538 -1.1054
 6051SOL    HW229613   0.836   4.056   9.402 -1.7567  0.7337 -1.2056
 6052SOL     OW29614   4.276   0.895   5.344  0.4297  0.0176  0.0617
 6052SOL    HW129615   4.284   0.983   5.307 -0.5987  0.4088  0.7581
 6052SOL    HW229616   4.367   0.867   5.348  0.4829 -0.0932 -2.0207
 6053SOL     OW29617   0.146   0.653   3.441  0.1705 -0.3160  0.0211
 6053SOL    HW129618   0.065   0.700   3.460 -0.4124 -1.9778  1.6228
 6053SOL    HW229619   0.174   0.625   3.528  3.5777  3.2565  0.1138
 6054SOL     OW29620   3.319   0.452  17.470 -0.2519 -0.3536 -0.3570
 6054SOL    HW129621   3.413   0.441  17.484  0.1033  0.9745 -1.7268
 6054SOL    HW229622   3.296   0.376  17.524 -0.1860 -0.2013 -0.1118
 6055SOL     OW29623   1.142   4.513   1.875  0.1147 -0.3405  0.0524
 6055SOL    HW129624   1.197   4.589   1.897  1.2218 -0.9141 -0.7107
 6055SOL    HW229625   1.062   4.559   1.898  1.9555  2.9159  0.0386
 6056SOL     OW29626   1.672   0.156   8.225  0.0007 -0.0691  0.2950
 6056SOL    HW129627   1.761   0.124   8.235  0.2626 -0.2017 -2.3746
 6056SOL    HW229628   1.625   0.078   8.252 -0.8777  0.7316  1.1039
 6057SOL     OW29629   3.375   3.472   4.849 -0.1165 -0.1782 -0.1673
 6057SOL    HW129630   3.407   3.561   4.859  0.7845 -0.5559  0.2953
 6057SOL    HW229631   3.351   3.456   4.940  0.6750  2.8121  0.5633
 6058SOL     OW29632   0.613   3.929  15.369  0.4040 -0.5435 -0.1638
 6058SOL    HW129633   0.612   4.024  15.360  1.1523 -0.5845 -0.7348
 6058SOL    HW229634   0.520   3.907  15.364  0.3002 -0.2208  0.4570
 6059SOL     OW29635   0.046   4.582   6.690 -0.1302 -0.1089  0.3469
 6059SOL    HW129636   4.690   4.539   6.728 -1.7594  0.8950 -1.8171
 6059SOL    HW229637   0.049   4.665   6.737 -0.8320  0.7338 -1.0944
 6060SOL     OW29638   3.253   3.572  16.373  0.0357  0.2975 -0.3719
 6060SOL    HW129639   3.188   3.604  16.435 -0.2870  0.8829 -1.0149
 6060SOL    HW229640   3.247   3.637  16.303  1.1197  0.2453 -0.5155
 6061SOL     OW29641   0.746   1.154   3.201  0.0391 -0.1001  0.1287
 6061SOL    HW129642   0.690   1.218   3.156 -1.1270 -0.8972  0.4437
 6061SOL    HW229643   0.685   1.080   3.210  1.5618 -1.1629  1.6775
 6062SOL     OW29644   2.088   0.917   1.158 -0.2546 -0.4507 -0.9143
 6062SOL    HW129645   2.109   0.849   1.223  1.9108  0.4618 -0.6853
 6062SOL    HW229646   1.999   0.890   1.135 -0.9437  1.4859 -0.5053
 6063SOL     OW29647   3.640   2.411  16.666 -0.0231  0.0394 -0.0925
 6063SOL    HW129648   3.603   2.329  16.633 -0.5114  0.9607 -1.8239
 6063SOL    HW229649   3.616   2.411  16.759 -2.4442 -0.2686 -0.7174
 6064SOL     OW29650   1.207   2.399  14.560  0.0319  0.1983 -0.7859
 6064SOL    HW129651   1.229   2.484  14.598 -0.3700  0.2586 -0.6807
 6064SOL    HW229652   1.284   2.342  14.568  0.3316  0.5502 -1.2115
 6065SOL     OW29653   0.834   0.445   4.304  0.1435 -0.0253 -0.2677
 6065SOL    HW129654   0.819   0.495   4.223  1.3491  2.1038  0.8359
 6065SOL    HW229655   0.927   0.425   4.304  0.4233  1.3130 -0.0162
 6066SOL     OW29656   3.022   2.360   4.867 -0.8071  0.1655  0.3677
 6066SOL    HW129657   2.970   2.301   4.922 -3.1573  2.6862  0.8039
 6066SOL    HW229658   3.007   2.323   4.781 -0.1014  2.9276 -0.9402
 6067SOL     OW29659   2.638   0.448   3.113 -0.1225  0.5657 -0.1106
 6067SOL    HW129660   2.623   0.528   3.062 -1.1898  1.3416  1.4243
 6067SOL    HW229661   2.570   0.453   3.180  0.6980 -1.2398  0.8619
 6068SOL     OW29662   1.315   4.047   8.811  0.5489 -0.2128  0.5845
 6068SOL    HW129663   1.326   3.985   8.883  2.0622  0.7933  1.2201
 6068SOL    HW229664   1.235   4.015   8.770  0.1459  0.8715  0.5218
 6069SOL     OW29665   0.815   4.187   2.893  0.4625  0.4045 -0.2825
 6069SOL    HW129666   0.816   4.180   2.988 -1.6817  1.5571 -0.1552
 6069SOL    HW229667   0.860   4.108   2.864  0.3465  1.1457 -2.4682
 6070SOL     OW29668   3.725   3.188   2.334 -0.0638 -0.6263 -0.1559
 6070SOL    HW129669   3.640   3.149   2.355  0.1477 -1.0532 -0.0865
 6070SOL    HW229670   3.783   3.140   2.394  0.0805  0.1540  0.3313
 6071SOL     OW29671   0.054   2.959   1.269  0.6248 -0.3932 -0.0542
 6071SOL    HW129672   0.138   2.925   1.238 -0.8792 -2.6535 -1.6628
 6071SOL    HW229673   0.080   3.027   1.331  1.4565 -0.4019 -0.3998
 6072SOL     OW29674   3.522   0.349   5.084 -0.3605 -0.1974  0.1299
 6072SOL    HW129675   3.499   0.417   5.147  1.7944  0.7762 -0.1379
 6072SOL    HW229676   3.571   0.291   5.143 -3.2377 -1.6738  1.1024
 6073SOL     OW29677   3.185   3.544   5.084 -0.2745 -0.5609  0.4283
 6073SOL    HW129678   3.257   3.482   5.093 -1.0323 -1.5248 -0.1284
 6073SOL    HW229679   3.128   3.533   5.160 -1.1841 -1.6487 -0.4119
 6074SOL     OW29680   4.430   2.598   6.340  0.4768  0.4803 -0.4051
 6074SOL    HW129681   4.374   2.580   6.264  0.0866 -0.4967  0.1131
 6074SOL    HW229682   4.379   2.559   6.411  0.5995 -0.5966 -0.8983
 6075SOL     OW29683   2.473   0.697  10.386  0.6481 -0.4359  0.0957
 6075SOL    HW129684   2.505   0.614  10.421  1.9153  0.3270  0.7828
 6075SOL    HW229685   2.440   0.681  10.298  1.6720 -1.9167 -0.0244
 6076SOL     OW29686   2.251   3.863   8.182 -0.4186 -0.1056 -0.2068
 6076SOL    HW129687   2.168   3.878   8.226 -1.3935 -2.1363 -1.3672
 6076SOL    HW229688   2.275   3.774   8.208 -0.3305  0.0527  0.2605
 6077SOL     OW29689   4.308   1.832  12.154 -0.2106  0.7431  0.2748
 6077SOL    HW129690   4.334   1.801  12.241  0.1649  0.2046 -0.0301
 6077SOL    HW229691   4.390   1.876  12.134  1.2118 -1.2680  1.6025
 6078SOL     OW29692   2.445   2.660   8.884  0.5603  0.1023 -0.7620
 6078SOL    HW129693   2.516   2.718   8.856 -0.9302  3.2368  2.0052
 6078SOL    HW229694   2.433   2.684   8.976 -0.3446 -0.0301 -0.8511
 6079SOL     OW29695   3.962   2.786  12.411 -0.5533 -0.7751 -0.4631
 6079SOL    HW129696   3.882   2.735  12.398 -1.0723 -0.0952  0.1006
 6079SOL    HW229697   4.024   2.713  12.419 -1.4218 -1.6267 -1.3797
 6080SOL     OW29698   3.786   2.640   3.812 -0.3369  0.3475 -0.0352
 6080SOL    HW129699   3.802   2.734   3.799  0.5360  0.3947  1.3095
 6080SOL    HW229700   3.706   2.623   3.763  0.0834 -0.6263 -0.3776
 6081SOL     OW29701   2.911   3.912   0.667  0.6576  0.2626  0.6108
 6081SOL    HW129702   2.972   3.843   0.642 -0.8003 -0.7628 -0.1143
 6081SOL    HW229703   2.914   3.985   0.606 -0.3964  0.4807  0.8276
 6082SOL     OW29704   1.831   1.086   2.653  0.2038 -0.0790 -0.2728
 6082SOL    HW129705   1.790   1.019   2.599 -1.5439  1.7486 -1.2489
 6082SOL    HW229706   1.795   1.060   2.737  0.3244 -0.3425 -0.3047
 6083SOL     OW29707   1.352   1.987   9.724 -0.6930  0.3274  0.5049
 6083SOL    HW129708   1.417   1.924   9.692  0.9358  2.8152 -1.1202
 6083SOL    HW229709   1.276   1.929   9.729 -1.5118  1.3207 -0.4841
 6084SOL     OW29710   1.214   3.394   6.759 -0.0281  0.3955 -0.1492
 6084SOL    HW129711   1.193   3.320   6.816 -1.0621  1.7361  1.1954
 6084SOL    HW229712   1.152   3.401   6.686  2.3274  0.9157 -2.1067
 6085SOL     OW29713   3.973   3.947   8.641  0.4948 -0.3056 -0.3480
 6085SOL    HW129714   3.934   4.023   8.685  1.3516  0.1414 -0.3695
 6085SOL    HW229715   4.046   3.925   8.699  0.6294  2.0591  0.3516
 6086SOL     OW29716   2.156   3.712  11.494 -0.4080 -0.3033  0.1056
 6086SOL    HW129717   2.114   3.630  11.521  2.3403 -1.4741  0.7971
 6086SOL    HW229718   2.124   3.716  11.404  0.8062  2.1380 -0.2248
 6087SOL     OW29719   4.357   0.297  14.086 -0.2639 -0.0771  0.3066
 6087SOL    HW129720   4.413   0.363  14.046 -3.1692  3.3449  1.8654
 6087SOL    HW229721   4.286   0.283  14.023 -0.3388 -0.4593  0.4745
 6088SOL     OW29722   3.741   0.019   8.493 -0.4799  0.3337  0.3128
 6088SOL    HW129723   3.793   4.676   8.541  0.7009  2.1631  1.4348
 6088SOL    HW229724   3.753   4.704   8.405  1.8868  0.8461  0.4196
 6089SOL     OW29725   0.641   1.006   8.308 -0.0197  0.3744  0.3210
 6089SOL    HW129726   0.595   1.054   8.239 -0.2938 -0.2978  0.0355
 6089SOL    HW229727   0.719   0.975   8.263  0.6286  0.1629  1.6017
 6090SOL     OW29728   4.107   3.902   2.754 -0.8911  0.4307  0.3659
 6090SOL    HW129729   4.079   3.876   2.841  1.2405  0.3825  1.0345
 6090SOL    HW229730   4.132   3.820   2.710 -1.2491  0.9236 -0.7570
 6091SOL     OW29731   2.994   0.666   9.575  0.0548 -0.7099 -0.7482
 6091SOL    HW129732   2.932   0.642   9.644  0.7997  1.1439  0.5667
 6091SOL    HW229733   3.067   0.608   9.597 -0.6297 -0.6857  1.5688
 6092SOL     OW29734   2.571   4.484  15.887 -0.3978 -0.0544  0.0175
 6092SOL    HW129735   2.565   4.419  15.958 -1.1681  0.0820  0.0770
 6092SOL    HW229736   2.619   4.552  15.934  0.0282  0.6263 -1.4099
 6093SOL     OW29737   1.321   0.030   9.726 -0.7004  0.3128 -0.0381
 6093SOL    HW129738   1.232   0.057   9.749 -0.8294 -1.9181  2.0830
 6093SOL    HW229739   1.332   4.689   9.798  2.1569 -0.1524 -0.8731
 6094SOL     OW29740   3.195   3.254   7.635 -0.1728 -0.3306 -0.4740
 6094SOL    HW129741   3.164   3.206   7.712 -0.3566 -2.4233 -1.8541
 6094SOL    HW229742   3.126   3.320   7.630 -1.2289 -1.1290  3.8053
 6095SOL     OW29743   3.630   3.952   6.164 -0.4117 -0.3402 -0.1328
 6095SOL    HW129744   3.693   4.022   6.178 -1.5641  0.8380 -0.8632
 6095SOL    HW229745   3.547   3.995   6.142 -0.1701  0.0819 -0.2116
 6096SOL     OW29746   0.342   0.834   6.498 -0.3752 -0.1079  0.0570
 6096SOL    HW129747   0.287   0.904   6.464  0.4313  0.3380 -0.3201
 6096SOL    HW229748   0.289   0.812   6.575 -0.1886 -1.9883 -0.3468
 6097SOL     OW29749   4.165   3.606  17.641 -0.3275  0.1476 -0.2722
 6097SOL    HW129750   4.073   3.582  17.650  0.1177 -1.5591 -0.3427
 6097SOL    HW229751   4.206   3.543   0.015  3.7750  1.9898 -1.1389
 6098SOL     OW29752   1.106   2.566  15.960  0.4164 -0.9017  0.8566
 6098SOL    HW129753   1.081   2.478  15.987 -0.0447 -1.3850 -1.1667
 6098SOL    HW229754   1.034   2.628  15.968  0.9966 -0.0813 -0.3165
 6099SOL     OW29755   4.074   3.885   7.573 -0.6827  0.1893 -0.0291
 6099SOL    HW129756   3.979   3.875   7.572 -0.7869  1.2230 -0.5468
 6099SOL    HW229757   4.082   3.973   7.536  0.9915  0.3904  0.7878
 6100SOL     OW29758   0.821   0.688   1.514  0.1436  0.0283 -0.2759
 6100SOL    HW129759   0.807   0.751   1.443 -1.0868  2.9028  2.5479
 6100SOL    HW229760   0.825   0.737   1.596  0.4284  0.8562 -0.7708
 6101SOL     OW29761   0.119   0.675   4.110  0.7020  0.5266 -0.1551
 6101SOL    HW129762   0.144   0.705   4.023 -3.2260  0.1677 -1.3997
 6101SOL    HW229763   0.026   0.690   4.095  0.1747 -0.6485  1.9530
 6102SOL     OW29764   0.783   3.948   3.083  0.0493  0.4177  0.6830
 6102SOL    HW129765   0.721   4.016   3.109 -0.7792 -0.2374  0.4292
 6102SOL    HW229766   0.842   3.948   3.159  0.4586 -0.8357  0.3690
 6103SOL     OW29767   1.607   1.530   4.446  0.2324  0.2979 -0.1313
 6103SOL    HW129768   1.575   1.593   4.381  1.7165 -1.6217 -2.7245
 6103SOL    HW229769   1.700   1.541   4.425  0.7821 -0.1056  2.1467
 6104SOL     OW29770   2.655   4.443   3.761 -0.6202 -0.1431  0.4458
 6104SOL    HW129771   2.600   4.404   3.692 -0.5179  1.4995 -0.5651
 6104SOL    HW229772   2.647   4.369   3.822  1.5596 -0.0671  0.8169
 6105SOL     OW29773   1.370   0.393   3.845  0.1769 -0.7217 -0.4683
 6105SOL    HW129774   1.403   0.347   3.767  1.5820 -0.5171  0.0185
 6105SOL    HW229775   1.442   0.455   3.853 -1.8821  1.8721 -1.9902
 6106SOL     OW29776   0.205   4.717   0.686 -0.8679 -0.2418  0.0496
 6106SOL    HW129777   0.164   4.631   0.679 -2.0862  0.3877 -0.7305
 6106SOL    HW229778   0.267   4.702   0.757 -0.7373 -0.3281 -0.0818
 6107SOL     OW29779   4.389   1.574  12.332  0.5149 -0.2893 -0.4774
 6107SOL    HW129780   4.445   1.529  12.269  1.0047 -1.2380  0.6296
 6107SOL    HW229781   4.454   1.619  12.386 -0.9721 -1.1663  2.0662
 6108SOL     OW29782   3.100   0.395  12.328  0.1842  0.1495 -0.4544
 6108SOL    HW129783   3.005   0.390  12.344  0.4194  2.1829  1.6040
 6108SOL    HW229784   3.125   0.325  12.388  0.6340  0.4645 -0.2806
 6109SOL     OW29785   0.653   1.541  17.134 -0.2202 -0.4962 -0.2129
 6109SOL    HW129786   0.728   1.556  17.077  0.3003 -1.9127  0.1173
 6109SOL    HW229787   0.688   1.536  17.223 -0.8278  0.1637  0.0597
 6110SOL     OW29788   1.676   4.578  12.168 -0.7998 -0.0657  0.3204
 6110SOL    HW129789   1.708   4.651  12.220  1.7629 -0.3388 -0.9078
 6110SOL    HW229790   1.638   4.518  12.233 -2.8402  0.4713 -0.3837
 6111SOL     OW29791   0.084   3.317   6.882 -0.5000 -0.7648 -0.2922
 6111SOL    HW129792   0.019   3.360   6.827 -0.8986  0.2939  1.0388
 6111SOL    HW229793   0.051   3.227   6.886  2.5169 -1.7200  2.7200
 6112SOL     OW29794   2.453   0.838  12.864 -0.3880  0.4378 -0.3724
 6112SOL    HW129795   2.402   0.864  12.941 -2.0337 -1.4775 -0.8208
 6112SOL    HW229796   2.425   0.896  12.793 -0.2806  1.3217  0.2999
 6113SOL     OW29797   4.254   2.265   8.442  0.0123 -0.2267  0.8942
 6113SOL    HW129798   4.167   2.251   8.480  0.3733 -0.6818  1.5774
 6113SOL    HW229799   4.282   2.349   8.479  1.2682 -0.1263 -0.3079
 6114SOL     OW29800   2.064   1.444   4.760  0.5442  0.3729 -0.1625
 6114SOL    HW129801   2.071   1.428   4.666  0.7845  2.7752 -0.5494
 6114SOL    HW229802   2.019   1.528   4.749 -2.3161 -1.3314 -1.4491
 6115SOL     OW29803   3.770   3.640   6.871 -0.1661  0.0236  0.2320
 6115SOL    HW129804   3.819   3.621   6.791  0.9144 -2.0426  1.3869
 6115SOL    HW229805   3.787   3.566   6.929 -1.0225 -0.5467 -0.2237
 6116SOL     OW29806   0.979   4.436   5.015  0.0424 -0.4058  0.8950
 6116SOL    HW129807   0.886   4.452   5.030  0.1323  2.3754 -1.7793
 6116SOL    HW229808   0.993   4.360   5.072  0.0648  0.2764  1.7937
 6117SOL     OW29809   2.016   4.538   6.264 -0.5662  0.2043  0.1970
 6117SOL    HW129810   1.927   4.512   6.291 -1.5872  1.2859 -2.1946
 6117SOL    HW229811   2.065   4.461   6.294  0.5186  1.2270  1.0495
 6118SOL     OW29812   0.116   0.209  11.311 -0.1527  0.4189 -0.1844
 6118SOL    HW129813   0.127   0.176  11.400  2.9345  0.7334 -0.4539
 6118SOL    HW229814   0.073   0.133  11.271  0.8532  0.0022 -0.4793
 6119SOL     OW29815   1.986   3.416  16.774  0.2450  0.3550 -0.2924
 6119SOL    HW129816   2.051   3.439  16.708 -0.5117  0.0478 -1.1509
 6119SOL    HW229817   2.009   3.472  16.848 -0.7361  0.1720  0.1484
 6120SOL     OW29818   0.131   4.150   7.153 -0.1843  0.4415  0.0238
 6120SOL    HW129819   0.048   4.111   7.127 -1.0697  1.5001  1.3114
 6120SOL    HW229820   0.151   4.091   7.225  2.3802  3.6760  1.9512
 6121SOL     OW29821   2.545   4.618   0.691  0.0721 -0.4809 -0.1074
 6121SOL    HW129822   2.559   4.541   0.747  1.2383 -0.2769 -0.1338
 6121SOL    HW229823   2.516   4.572   0.612 -0.0279  0.0728 -0.3896
 6122SOL     OW29824   1.274   0.557  16.959 -0.0795 -0.2567  0.4244
 6122SOL    HW129825   1.204   0.520  16.905 -1.5129  0.7130  1.6366
 6122SOL    HW229826   1.320   0.473  16.961  3.6475  1.8053  0.7745
 6123SOL     OW29827   4.602   1.630   5.172  0.4882  0.0269  0.1938
 6123SOL    HW129828   4.524   1.579   5.147 -1.4808  2.7812  0.7413
 6123SOL    HW229829   4.663   1.596   5.107  0.7956  1.6967 -0.3838
 6124SOL     OW29830   3.358   2.987   7.140  0.4528  0.2988  0.2499
 6124SOL    HW129831   3.350   2.892   7.147 -0.0110  0.5003  2.3417
 6124SOL    HW229832   3.319   3.004   7.054 -0.1556  1.3381  0.7212
 6125SOL     OW29833   0.360   0.591   5.679  0.6211  0.3844  0.0327
 6125SOL    HW129834   0.406   0.506   5.680 -0.9278 -0.4338  1.0341
 6125SOL    HW229835   0.349   0.612   5.771  0.7563  0.6397 -0.0076
 6126SOL     OW29836   2.911   1.225   9.672 -0.4676 -0.2706 -0.5490
 6126SOL    HW129837   2.934   1.146   9.624  0.2815  1.0904 -2.4154
 6126SOL    HW229838   2.834   1.248   9.620 -0.2085  0.8213 -0.4476
 6127SOL     OW29839   0.104   4.037   3.230 -0.4051  0.2063  0.3569
 6127SOL    HW129840   0.031   3.978   3.209  2.4641 -3.1204 -0.2839
 6127SOL    HW229841   0.174   4.002   3.175 -0.0575  0.5034  0.6193
 6128SOL     OW29842   1.329   1.728  15.854 -0.2167 -0.1533  0.0233
 6128SOL    HW129843   1.365   1.740  15.942  0.1095 -1.7416  0.0993
 6128SOL    HW229844   1.412   1.719  15.807 -0.5460 -1.9458 -0.1824
 6129SOL     OW29845   1.264   3.181   0.822 -0.2085  0.8482  0.6065
 6129SOL    HW129846   1.276   3.164   0.915 -1.4571 -1.7831  0.3053
 6129SOL    HW229847   1.172   3.209   0.827 -0.1727  1.3717 -1.5854
 6130SOL     OW29848   2.024   3.283   4.795  0.1471 -0.3243  0.5493
 6130SOL    HW129849   1.965   3.214   4.764  0.9464 -0.6109 -0.3136
 6130SOL    HW229850   1.964   3.357   4.787  0.1117 -0.7394 -3.0083
 6131SOL     OW29851   1.329   2.557   3.056 -0.0738  0.2766  0.0868
 6131SOL    HW129852   1.275   2.620   3.102  1.4885  1.1896  0.6873
 6131SOL    HW229853   1.254   2.507   3.025  0.1777 -0.5194  0.7615
 6132SOL     OW29854   4.528   2.965   8.133 -0.9529 -0.0028  0.3938
 6132SOL    HW129855   4.588   3.029   8.170  0.8880 -0.2378 -2.2041
 6132SOL    HW229856   4.542   2.890   8.191  1.1321 -1.1509 -1.6107
 6133SOL     OW29857   4.163   1.176  13.975 -0.1571 -0.2911  0.1154
 6133SOL    HW129858   4.080   1.199  13.935 -0.7338 -1.8569  0.4269
 6133SOL    HW229859   4.192   1.257  14.018  1.4282  0.3441 -2.1458
 6134SOL     OW29860   4.695   0.116  15.670  0.6990  0.1681 -0.0253
 6134SOL    HW129861   0.044   0.167  15.628  0.5343 -0.3956 -0.9681
 6134SOL    HW229862   4.680   0.151  15.758  2.2489  1.0207 -0.0851
 6135SOL     OW29863   2.458   3.472   5.240 -0.1775  0.5809 -0.3501
 6135SOL    HW129864   2.462   3.550   5.184 -0.1932  0.1963 -0.8910
 6135SOL    HW229865   2.367   3.448   5.225 -0.1752  0.5843 -0.3700
 6136SOL     OW29866   1.479   1.337  15.821 -0.7301 -0.5818 -0.4391
 6136SOL    HW129867   1.519   1.422  15.802 -1.3008 -0.6005 -1.7102
 6136SOL    HW229868   1.419   1.332  15.747 -0.5679 -0.2408 -0.5925
 6137SOL     OW29869   1.667   3.302   0.495  0.0071 -0.0087  0.4106
 6137SOL    HW129870   1.735   3.370   0.485 -2.5219  2.2864 -1.1238
 6137SOL    HW229871   1.689   3.268   0.582 -0.3716  1.2667  1.0050
 6138SOL     OW29872   1.562   4.328   1.484 -0.1196 -0.5124 -0.5179
 6138SOL    HW129873   1.621   4.269   1.437  1.6873  0.6462  0.2775
 6138SOL    HW229874   1.535   4.287   1.565  1.0957 -0.9625 -0.3384
 6139SOL     OW29875   3.589   1.566   7.933 -0.3895  0.1617 -0.1263
 6139SOL    HW129876   3.564   1.635   7.994 -0.7963  0.2807 -0.4299
 6139SOL    HW229877   3.572   1.485   7.981 -0.1132 -0.7319 -1.5404
 6140SOL     OW29878   2.625   2.892   6.611 -0.7059 -0.1544 -0.3406
 6140SOL    HW129879   2.542   2.848   6.627 -0.3224 -0.1278  1.6899
 6140SOL    HW229880   2.665   2.828   6.552  0.3592 -0.5140  0.7609
 6141SOL     OW29881   3.938   2.213  15.750 -0.0529 -0.1045 -0.2981
 6141SOL    HW129882   4.018   2.195  15.801  1.3288  0.1789 -2.3801
 6141SOL    HW229883   3.927   2.306  15.767  0.9978 -0.0245 -0.0120
 6142SOL     OW29884   0.367   0.251   1.125 -0.3808  0.2229 -0.0864
 6142SOL    HW129885   0.404   0.312   1.189 -2.2077  1.2145  0.0212
 6142SOL    HW229886   0.364   0.169   1.175 -0.0051  1.8765  2.6696
 6143SOL     OW29887   2.258   0.727   4.188 -0.2751  0.2103 -0.1704
 6143SOL    HW129888   2.184   0.727   4.248 -0.6873  1.9835 -0.6966
 6143SOL    HW229889   2.250   0.821   4.175  0.5977  0.2507 -0.4488
 6144SOL     OW29890   3.206   4.090   3.617 -0.0597 -0.0637 -0.6032
 6144SOL    HW129891   3.130   4.136   3.654  0.3397  1.1422 -1.2754
 6144SOL    HW229892   3.266   4.123   3.685  0.9056 -2.3784 -0.3479
 6145SOL     OW29893   4.148   3.808   8.461  0.1239 -0.0733  0.0654
 6145SOL    HW129894   4.070   3.778   8.509 -0.2467  0.6956 -0.0541
 6145SOL    HW229895   4.150   3.746   8.388  1.9147  0.7957 -0.6062
 6146SOL     OW29896   3.836   3.391   7.749  0.3902 -0.0775  0.2247
 6146SOL    HW129897   3.902   3.452   7.780  0.1393  0.6630 -0.6994
 6146SOL    HW229898   3.886   3.309   7.745 -0.1046 -0.3127 -1.0997
 6147SOL     OW29899   3.005   3.516   8.888  0.0808  0.1866  0.4358
 6147SOL    HW129900   2.989   3.545   8.798  1.2248  0.3651  0.2914
 6147SOL    HW229901   2.927   3.541   8.939 -0.5015  3.0267 -1.8611
 6148SOL     OW29902   1.578   1.438   6.019 -0.4167 -0.2752  0.3305
 6148SOL    HW129903   1.654   1.386   5.993  1.2011  3.2435 -1.9289
 6148SOL    HW229904   1.502   1.384   5.996 -1.1884  0.0413  2.0635
 6149SOL     OW29905   2.439   1.262   2.976  0.6501 -0.5456  0.4254
 6149SOL    HW129906   2.521   1.213   2.973 -0.0873 -1.6822 -1.7575
 6149SOL    HW229907   2.385   1.197   2.931  2.2390 -1.7174  0.2201
 6150SOL     OW29908   1.882   1.531   4.383  0.0573 -0.0163 -0.2511
 6150SOL    HW129909   1.881   1.442   4.347  0.1409  0.0831 -0.4954
 6150SOL    HW229910   1.931   1.579   4.317  0.1172 -0.8199 -0.7897
 6151SOL     OW29911   4.031   2.657   8.228  0.0119 -0.8676  0.3417
 6151SOL    HW129912   4.005   2.605   8.304  0.9370 -2.8160 -0.7008
 6151SOL    HW229913   3.959   2.719   8.213  1.7917  1.2976  0.7109
 6152SOL     OW29914   0.875   3.619  15.603  0.2091 -0.3315 -0.1923
 6152SOL    HW129915   0.900   3.544  15.548 -0.2578 -1.5261  1.2373
 6152SOL    HW229916   0.890   3.694  15.546 -0.2669  0.7918  1.1780
 6153SOL     OW29917   0.080   0.646  12.027  0.6363 -0.3036  0.2598
 6153SOL    HW129918   0.130   0.648  11.945 -1.2314  0.8149 -0.8706
 6153SOL    HW229919   0.125   0.714  12.078 -1.4068  1.5904 -0.4290
 6154SOL     OW29920   2.609   1.870   4.717  0.4771 -0.4045  0.1927
 6154SOL    HW129921   2.672   1.825   4.662 -0.9018 -2.2373  0.1277
 6154SOL    HW229922   2.601   1.947   4.660 -0.7490 -1.3520 -0.9339
 6155SOL     OW29923   3.623   3.474   7.908 -0.4599  0.2393  0.3522
 6155SOL    HW129924   3.536   3.452   7.876 -0.5709 -0.6692  1.2792
 6155SOL    HW229925   3.678   3.414   7.857 -0.2059  2.7050 -2.2296
 6156SOL     OW29926   0.877   2.757  16.996  0.7366 -0.6452 -0.2571
 6156SOL    HW129927   0.965   2.722  16.980  0.7032 -0.5477 -0.6556
 6156SOL    HW229928   0.883   2.819  17.069 -0.1941 -1.3458  0.4267
 6157SOL     OW29929   3.530   0.984   7.482  0.1511  0.7512  0.0499
 6157SOL    HW129930   3.581   0.938   7.415 -1.0113 -0.2697 -0.1393
 6157SOL    HW229931   3.493   0.914   7.536 -2.8368  0.7522 -2.0140
 6158SOL     OW29932   4.418   2.372   4.499 -0.1776  0.0404  0.0004
 6158SOL    HW129933   4.367   2.453   4.503 -1.8260 -1.0272  0.7407
 6158SOL    HW229934   4.425   2.343   4.590 -1.8009 -0.7405 -0.1287
 6159SOL     OW29935   1.376   1.276   4.503 -0.4065 -0.1199 -0.5833
 6159SOL    HW129936   1.300   1.262   4.559  0.9787 -0.9615  1.1040
 6159SOL    HW229937   1.355   1.225   4.424 -2.1861 -0.5684  0.1810
 6160SOL     OW29938   0.238   4.448  17.216 -0.3751 -0.2874  0.4901
 6160SOL    HW129939   0.174   4.443  17.145 -1.2074  1.7268  1.1131
 6160SOL    HW229940   0.305   4.396  17.172 -0.2314 -0.3621  0.7973
 6161SOL     OW29941   2.543   3.512  12.992  0.3174 -0.0350  0.1604
 6161SOL    HW129942   2.622   3.545  12.950 -0.0012 -0.7836 -1.0543
 6161SOL    HW229943   2.471   3.567  12.961  2.9045  1.9311 -2.2584
 6162SOL     OW29944   0.710   1.743   0.182  0.7412  0.6756 -0.3394
 6162SOL    HW129945   0.771   1.780   0.246 -0.4510  2.4774 -0.2306
 6162SOL    HW229946   0.768   1.685   0.133  2.2469 -1.5292  4.0897
 6163SOL     OW29947   2.049   4.093  15.749 -0.3313  0.2830 -0.2222
 6163SOL    HW129948   2.071   4.058  15.663 -0.6979  0.2288 -0.2977
 6163SOL    HW229949   2.091   4.178  15.743  0.8710 -0.3991 -1.4221
 6164SOL     OW29950   4.139   0.583   4.735 -0.0841 -0.3136 -0.4358
 6164SOL    HW129951   4.084   0.527   4.681  1.1751 -2.0183  0.0566
 6164SOL    HW229952   4.121   0.532   4.815  1.2227 -0.2957 -0.1273
 6165SOL     OW29953   1.827   3.108   0.194 -0.0238  0.0576  0.1522
 6165SOL    HW129954   1.766   3.179   0.213  1.1315  0.7683  1.2178
 6165SOL    HW229955   1.912   3.150   0.208  0.8569 -1.5031 -0.5085
 6166SOL     OW29956   3.735   0.663   5.678 -0.0255  0.5374  0.2931
 6166SOL    HW129957   3.657   0.608   5.682 -0.4271  1.0361 -0.5782
 6166SOL    HW229958   3.774   0.631   5.759  0.3086  0.1563 -0.0137
 6167SOL     OW29959   2.908   1.165   4.971  0.0943  0.3724  0.6208
 6167SOL    HW129960   3.000   1.148   4.991  0.8853  2.6279 -1.0421
 6167SOL    HW229961   2.910   1.247   4.921  2.9991  0.5787  1.0693
 6168SOL     OW29962   0.212   2.620  14.631 -0.6097 -0.3697 -0.3270
 6168SOL    HW129963   0.126   2.661  14.641 -0.9063 -0.8947 -0.7848
 6168SOL    HW229964   0.197   2.548  14.692  2.5035  0.0772  1.0157
 6169SOL     OW29965   3.532   0.939   5.251 -0.1705 -0.2300  0.1301
 6169SOL    HW129966   3.624   0.940   5.225 -0.6162 -0.8987 -1.4158
 6169SOL    HW229967   3.549   0.957   5.344 -0.7166  0.4944  0.0848
 6170SOL     OW29968   2.444   2.562   1.563  0.5665 -0.5524 -0.2231
 6170SOL    HW129969   2.506   2.629   1.535  0.2324 -0.6842 -1.2632
 6170SOL    HW229970   2.473   2.485   1.514  1.0599  0.2257 -1.1639
 6171SOL     OW29971   1.625   2.149   3.219  0.0108 -0.2273 -0.4893
 6171SOL    HW129972   1.644   2.078   3.157  0.5215 -1.9035  1.6158
 6171SOL    HW229973   1.699   2.207   3.199 -0.0646 -0.7378 -2.3269
 6172SOL     OW29974   1.968   3.998   5.763  0.3720  0.4028  0.1328
 6172SOL    HW129975   1.976   4.051   5.683 -2.7202  1.0292  0.2427
 6172SOL    HW229976   2.017   4.059   5.818  1.2865 -1.3154  1.2317
 6173SOL     OW29977   3.135   3.383   2.210 -0.6824  0.0759  0.2260
 6173SOL    HW129978   3.103   3.471   2.187 -1.0086  0.1266  0.8691
 6173SOL    HW229979   3.090   3.336   2.139 -0.3936  1.2113 -0.7055
 6174SOL     OW29980   0.770   0.826   8.939  0.2388 -0.0738 -0.9359
 6174SOL    HW129981   0.841   0.889   8.926  1.3747 -0.8739  1.5201
 6174SOL    HW229982   0.814   0.746   8.968  0.8346  0.3600 -0.6469
 6175SOL     OW29983   2.712   3.575  13.228  0.4584  0.3051 -0.2763
 6175SOL    HW129984   2.627   3.538  13.204  1.5401 -2.6022  0.4161
 6175SOL    HW229985   2.752   3.616  13.151  3.0683 -1.6264  0.0393
 6176SOL     OW29986   3.126   3.109   1.432  0.1224 -0.0429  0.2687
 6176SOL    HW129987   3.068   3.176   1.395 -0.3460 -1.7086 -2.0561
 6176SOL    HW229988   3.070   3.039   1.466 -1.5291  1.1532  0.0537
 6177SOL     OW29989   4.431   0.460   4.077 -0.1928  0.2189 -0.5025
 6177SOL    HW129990   4.378   0.486   4.152  0.4073  0.2405 -0.0802
 6177SOL    HW229991   4.522   0.455   4.106 -0.4043  1.1745  0.3216
 6178SOL     OW29992   3.589   3.613   6.587 -0.0011 -0.0467  0.2987
 6178SOL    HW129993   3.571   3.661   6.667 -0.9652  0.5341 -0.2640
 6178SOL    HW229994   3.645   3.679   6.547  3.1132 -2.7643  0.2093
 6179SOL     OW29995   0.875   3.221   2.748 -0.5625 -0.0399 -0.2622
 6179SOL    HW129996   0.817   3.204   2.674 -0.2487 -0.3359 -0.4371
 6179SOL    HW229997   0.843   3.150   2.804 -0.0089  0.3050  0.4835
 6180SOL     OW29998   1.805   1.876   2.236 -0.1425  0.3182  0.7530
 6180SOL    HW129999   1.836   1.803   2.182 -0.8903  0.5745 -0.0335
 6180SOL    HW230000   1.883   1.926   2.260 -0.8601  2.7252 -1.9019
 6181SOL     OW30001   1.964   3.585   7.838 -0.5043  0.0636 -0.2213
 6181SOL    HW130002   1.936   3.674   7.818 -0.0492  0.0545 -0.8956
 6181SOL    HW230003   1.969   3.589   7.933 -1.0475 -2.2179 -0.0915
 6182SOL     OW30004   2.464   1.634   4.774  0.5926  0.2292 -0.4951
 6182SOL    HW130005   2.517   1.714   4.771  0.6259  0.1863 -1.0580
 6182SOL    HW230006   2.380   1.674   4.797  0.2443 -0.6677 -0.1992
 6183SOL     OW30007   0.862   4.409  11.798 -0.1845 -0.6034  0.0776
 6183SOL    HW130008   0.809   4.398  11.877  0.9143  1.6043  1.1464
 6183SOL    HW230009   0.792   4.438  11.740  0.7817  1.7727  0.0713
 6184SOL     OW30010   0.726   2.267  17.191 -0.3883  0.0402 -0.3520
 6184SOL    HW130011   0.670   2.275  17.269  0.5539 -2.5331  0.5860
 6184SOL    HW230012   0.794   2.330  17.214  0.4921 -0.7780 -0.7443
 6185SOL     OW30013   2.005   2.213   0.339  0.1207 -0.2573 -0.1710
 6185SOL    HW130014   1.964   2.240   0.421  0.7869  0.3215 -0.0273
 6185SOL    HW230015   2.003   2.118   0.350 -1.5409 -0.3787 -1.5947
 6186SOL     OW30016   4.446   4.163   8.821  0.0906 -0.1350 -0.6949
 6186SOL    HW130017   4.499   4.240   8.840 -1.5289  0.5711  0.9662
 6186SOL    HW230018   4.358   4.190   8.847  1.0465 -0.4658  2.9014
 6187SOL     OW30019   1.525   1.763  16.931 -0.1126 -0.2576 -0.1423
 6187SOL    HW130020   1.534   1.670  16.949 -0.7055  0.3763  3.3421
 6187SOL    HW230021   1.430   1.762  16.922 -0.1864  1.5639  0.3719
 6188SOL     OW30022   4.136   1.536  12.384 -0.1635 -0.0742 -0.1968
 6188SOL    HW130023   4.231   1.545  12.389  0.0437 -0.6873 -2.7616
 6188SOL    HW230024   4.106   1.573  12.467  3.3963 -0.2832  1.1892
 6189SOL     OW30025   3.845   0.744   5.452  0.1460  0.7314  0.9787
 6189SOL    HW130026   3.792   0.821   5.433 -0.0161 -0.5802 -3.9460
 6189SOL    HW230027   3.811   0.722   5.539 -1.4010 -0.8778 -0.0132
 6190SOL     OW30028   2.958   0.038   3.924 -0.7432 -0.1241 -0.0782
 6190SOL    HW130029   3.047   0.001   3.921  0.0048  1.6354  0.3679
 6190SOL    HW230030   2.969   0.113   3.865 -1.1363  0.2742  0.3571
 6191SOL     OW30031   2.141   2.968  17.547  0.1840  0.2782 -0.0163
 6191SOL    HW130032   2.123   3.017  17.627  0.3204  0.3731 -0.0449
 6191SOL    HW230033   2.163   2.883  17.585  0.3726  0.1170 -0.4884
 6192SOL     OW30034   4.060   4.087   5.036 -0.0486  0.2765 -0.4013
 6192SOL    HW130035   4.038   4.091   4.943 -1.0916  1.8031 -0.1005
 6192SOL    HW230036   3.996   4.017   5.052 -0.0805  0.3467 -0.2231
 6193SOL     OW30037   3.397   2.776   8.234 -0.4055  0.1191  0.4823
 6193SOL    HW130038   3.319   2.832   8.236 -0.9186 -0.6308  1.7517
 6193SOL    HW230039   3.445   2.807   8.158 -1.9186  0.5242 -0.3010
 6194SOL     OW30040   4.165   4.140  10.814 -0.4524  0.2285 -0.2419
 6194SOL    HW130041   4.254   4.158  10.784  0.3150  0.6918  2.3637
 6194SOL    HW230042   4.179   4.167  10.904 -2.3957  0.8897 -0.1367
 6195SOL     OW30043   2.572   0.449   0.698  0.0053 -0.1259 -0.3822
 6195SOL    HW130044   2.641   0.484   0.754  1.1457 -2.3619 -0.3727
 6195SOL    HW230045   2.531   0.376   0.745 -0.3878  1.0028  1.0189
 6196SOL     OW30046   3.949   3.016   5.637 -0.0644  0.0334 -0.0626
 6196SOL    HW130047   3.863   3.057   5.641 -0.3492 -0.6611  1.1429
 6196SOL    HW230048   3.967   3.004   5.731  1.1031 -2.0886 -0.5582
 6197SOL     OW30049   4.663   0.914   4.314 -0.0958  0.7345  0.3821
 6197SOL    HW130050   4.597   0.976   4.346 -1.9235  0.0803 -2.1167
 6197SOL    HW230051   4.661   0.841   4.376  1.1049 -1.6165 -2.3444
 6198SOL     OW30052   2.009   4.066   8.046 -0.8465  0.2645 -0.3701
 6198SOL    HW130053   2.017   4.124   8.122 -0.1288 -1.0759  0.5771
 6198SOL    HW230054   2.092   4.083   8.000 -1.7850  1.1045 -1.7662
 6199SOL     OW30055   4.341   4.704   7.302 -0.3858  0.1254  0.0266
 6199SOL    HW130056   4.291   0.012   7.378 -0.6814 -1.4135  0.4238
 6199SOL    HW230057   4.432   0.011   7.318 -0.0201 -2.0324  1.7025
 6200SOL     OW30058   4.439   1.098   4.338  0.1363 -0.0098  0.0560
 6200SOL    HW130059   4.404   1.052   4.262 -2.1080  2.1520 -0.2118
 6200SOL    HW230060   4.367   1.093   4.400  0.2588  3.0696  0.4465
 6201SOL     OW30061   1.917   1.370   6.934 -0.5421 -0.2115  0.4700
 6201SOL    HW130062   1.826   1.394   6.917 -0.0031 -0.7572 -2.9953
 6201SOL    HW230063   1.945   1.313   6.863 -1.0164 -0.9461  0.8710
 6202SOL     OW30064   1.251   0.594   8.546  0.7022 -0.1892  0.6991
 6202SOL    HW130065   1.165   0.618   8.511  0.7605  0.1579  0.7875
 6202SOL    HW230066   1.240   0.581   8.640 -0.5903 -0.4594  0.4994
 6203SOL     OW30067   0.267   3.167   1.158 -0.8562 -0.1215 -0.0612
 6203SOL    HW130068   0.238   3.134   1.243 -2.5746  0.2582 -0.4833
 6203SOL    HW230069   0.346   3.116   1.140  0.9702  2.3390  1.1598
 6204SOL     OW30070   2.061   2.345   7.619  0.0360  0.0547 -0.0255
 6204SOL    HW130071   2.027   2.258   7.640  0.8137 -0.2075  0.1302
 6204SOL    HW230072   2.097   2.339   7.531  1.5786  0.4768  0.5904
 6205SOL     OW30073   3.619   3.951  14.072  0.2142  0.0213 -0.3122
 6205SOL    HW130074   3.571   3.888  14.019  3.1408 -1.1978 -1.4737
 6205SOL    HW230075   3.613   3.910  14.158 -1.1625  1.0521  0.0967
 6206SOL     OW30076   2.981   3.386   7.705 -0.1572  0.2763  0.4725
 6206SOL    HW130077   2.945   3.470   7.676  0.5976 -0.6059 -3.1155
 6206SOL    HW230078   2.952   3.388   7.796 -0.5451  0.0040  0.3566
 6207SOL     OW30079   4.220   0.610  10.138 -0.0023 -0.2041 -0.0432
 6207SOL    HW130080   4.249   0.696  10.108 -0.0601 -0.6122 -1.2560
 6207SOL    HW230081   4.195   0.632  10.228 -0.6291  2.3298 -0.8568
 6208SOL     OW30082   3.207   1.969  13.053  0.2079 -0.2865  0.0754
 6208SOL    HW130083   3.184   2.060  13.036 -0.4954 -0.7168 -1.2302
 6208SOL    HW230084   3.250   1.967  13.139  1.8024 -3.4538 -0.7873
 6209SOL     OW30085   1.792   3.962   5.374 -0.6450 -0.2687  0.0331
 6209SOL    HW130086   1.716   4.005   5.335  1.5669  1.4753 -2.3838
 6209SOL    HW230087   1.787   4.018   5.451 -3.6882 -1.0232  0.3612
 6210SOL     OW30088   2.310   3.319   9.191 -0.1224 -0.7678 -0.0788
 6210SOL    HW130089   2.346   3.350   9.274 -0.1973 -0.6155 -0.1042
 6210SOL    HW230090   2.217   3.340   9.194  0.1158  0.0833  1.6358
 6211SOL     OW30091   2.375   0.987   2.345  0.4242  0.2692  0.0123
 6211SOL    HW130092   2.361   1.075   2.380  0.1243  0.5100 -0.6949
 6211SOL    HW230093   2.295   0.941   2.371 -1.0047  3.0924  0.6111
 6212SOL     OW30094   3.407   3.795   3.179 -0.1982 -0.3517 -0.1860
 6212SOL    HW130095   3.356   3.716   3.195 -0.3750 -0.3641 -0.8023
 6212SOL    HW230096   3.339   3.863   3.177  1.0241  0.8731 -0.4544
 6213SOL     OW30097   0.416   1.659   7.373  0.0278  0.0378 -0.0659
 6213SOL    HW130098   0.363   1.737   7.356 -1.8109 -1.0780  0.5647
 6213SOL    HW230099   0.469   1.688   7.447  1.8443 -1.5653 -0.7492
 6214SOL     OW30100   4.444   0.979   3.851 -0.0797 -0.3897  0.1376
 6214SOL    HW130101   4.367   1.015   3.807 -1.0119 -2.9411 -0.3026
 6214SOL    HW230102   4.503   1.044   3.814 -2.0114  1.6191  0.5643
 6215SOL     OW30103   3.389   3.669   4.455 -0.0384  0.4654 -0.2954
 6215SOL    HW130104   3.390   3.579   4.487 -3.9344  1.0597  1.5102
 6215SOL    HW230105   3.443   3.706   4.525  0.1439  1.3396 -0.8878
 6216SOL     OW30106   1.300   4.497   3.763 -0.0981 -0.0888  0.1160
 6216SOL    HW130107   1.247   4.432   3.716  2.4365 -1.2743 -1.0662
 6216SOL    HW230108   1.248   4.523   3.840  0.0360 -0.2512  0.2613
 6217SOL     OW30109   3.726   2.409   2.961  0.3194 -0.2477 -0.2711
 6217SOL    HW130110   3.706   2.457   3.042 -0.0569  2.0125 -1.7004
 6217SOL    HW230111   3.652   2.440   2.908  1.0135  0.2594 -0.9363
 6218SOL     OW30112   4.710   4.221  15.246  0.6334  0.0201  0.2498
 6218SOL    HW130113   0.076   4.194  15.217  0.2982 -0.6914 -0.0945
 6218SOL    HW230114   4.698   4.303  15.197  0.3964  0.2440  0.6834
 6219SOL     OW30115   0.805   3.543   6.381  0.4775 -0.4107  0.1423
 6219SOL    HW130116   0.820   3.449   6.385  0.1971 -0.4495  0.2526
 6219SOL    HW230117   0.893   3.579   6.367  0.5451 -0.5501  0.2057
 6220SOL     OW30118   2.323   2.201   8.915  0.0611  0.0909 -0.3555
 6220SOL    HW130119   2.262   2.231   8.848 -2.7000 -2.4431  1.0569
 6220SOL    HW230120   2.407   2.238   8.885 -0.5596  1.5012 -0.3657
 6221SOL     OW30121   1.552   3.950   5.914 -0.3555  0.2119  0.2115
 6221SOL    HW130122   1.498   3.960   5.836  0.5397 -1.4209 -0.6276
 6221SOL    HW230123   1.551   4.030   5.966  0.6281  0.6438 -0.4162
 6222SOL     OW30124   0.129   4.238   8.383 -0.1637 -0.0129  0.0951
 6222SOL    HW130125   0.074   4.189   8.444 -0.6041  1.8370  1.1899
 6222SOL    HW230126   0.102   4.330   8.391  2.7349  0.7364  1.3606
 6223SOL     OW30127   2.181   1.008   7.362  0.6552  0.3343 -0.1709
 6223SOL    HW130128   2.165   1.097   7.331 -0.5397 -0.4294 -1.7305
 6223SOL    HW230129   2.241   0.976   7.296 -0.3777 -1.4134 -0.2518
 6224SOL     OW30130   3.402   2.020   2.066  0.2212  0.8232  0.0019
 6224SOL    HW130131   3.475   1.987   2.014 -1.5426 -0.6638 -1.5714
 6224SOL    HW230132   3.332   1.957   2.048 -0.1323  0.7747  1.5580
 6225SOL     OW30133   4.447   0.492   8.985  0.4457 -0.1183  0.0246
 6225SOL    HW130134   4.352   0.494   8.968  0.5709  1.4654 -0.5381
 6225SOL    HW230135   4.473   0.407   8.950 -0.8955 -0.4606 -0.1732
 6226SOL     OW30136   3.848   0.075  10.234 -0.7477 -0.2559 -0.2385
 6226SOL    HW130137   3.771   0.113  10.191 -0.5157 -1.9725 -2.2067
 6226SOL    HW230138   3.834   4.702  10.221 -1.6252 -0.2387  0.5830
 6227SOL     OW30139   0.135   4.669  15.174 -0.9636 -0.0033  0.5112
 6227SOL    HW130140   0.102   0.033  15.201  0.3174  0.5340  0.3918
 6227SOL    HW230141   0.058   4.613  15.183 -0.9166 -0.1675 -0.1152
 6228SOL     OW30142   2.571   0.363   5.214 -0.3550 -0.6541  0.3251
 6228SOL    HW130143   2.488   0.328   5.184 -1.4374  0.8748  1.5611
 6228SOL    HW230144   2.568   0.350   5.309  1.7124 -0.1313  0.4646
 6229SOL     OW30145   3.135   3.747   0.575  0.2959 -0.1144  0.5115
 6229SOL    HW130146   3.147   3.808   0.502  1.7675 -0.2428  0.6445
 6229SOL    HW230147   3.195   3.677   0.549  1.1021 -0.1959  2.5714
 6230SOL     OW30148   3.860   3.292  13.448 -0.4776 -0.0749  0.5062
 6230SOL    HW130149   3.948   3.264  13.424 -1.2379 -2.0935  0.1208
 6230SOL    HW230150   3.846   3.237  13.525 -0.2027  0.1011  0.6837
 6231SOL     OW30151   3.443   1.539   2.548  0.9294 -0.9335  0.1723
 6231SOL    HW130152   3.368   1.589   2.579 -0.1376 -2.4458  0.0557
 6231SOL    HW230153   3.433   1.466   2.609  0.2345 -1.6451 -0.7849
 6232SOL     OW30154   1.226   1.743   7.526  0.6225  0.1115  0.1455
 6232SOL    HW130155   1.227   1.648   7.531  1.6037  0.2844  3.3905
 6232SOL    HW230156   1.300   1.770   7.580  1.4296  0.6392 -1.2323
 6233SOL     OW30157   0.463   0.001  14.814  0.4089 -0.3913  0.3204
 6233SOL    HW130158   0.464   0.009  14.909 -2.2440  0.3169  0.2993
 6233SOL    HW230159   0.370   4.717  14.793  0.2793  1.2947  0.5032
 6234SOL     OW30160   1.684   0.376  14.604  0.1929  0.4765  0.4847
 6234SOL    HW130161   1.715   0.292  14.571 -2.1311 -0.3228  0.3263
 6234SOL    HW230162   1.765   0.417  14.634  0.7007 -0.7397  0.8112
 6235SOL     OW30163   2.802   2.839   7.254 -0.8222 -0.2717 -0.4111
 6235SOL    HW130164   2.844   2.800   7.177  1.2109 -2.3554  1.7762
 6235SOL    HW230165   2.861   2.915   7.259 -0.1096 -1.0095  2.1675
 6236SOL     OW30166   3.319   3.888  12.425 -0.4704  0.3328 -0.0493
 6236SOL    HW130167   3.363   3.923  12.502 -1.1827  1.5485 -0.1987
 6236SOL    HW230168   3.309   3.795  12.446 -0.2320  0.2588 -0.2618
 6237SOL     OW30169   2.062   2.802   4.845  0.4390  0.0394 -0.2993
 6237SOL    HW130170   2.033   2.838   4.929  0.1313 -0.6926 -0.0871
 6237SOL    HW230171   2.145   2.848   4.832  1.5440 -1.8875 -0.0916
 6238SOL     OW30172   0.695   0.818   2.728  0.1113  0.3655 -0.1231
 6238SOL    HW130173   0.610   0.851   2.756 -0.7994  0.2273 -2.7020
 6238SOL    HW230174   0.744   0.850   2.804 -1.5106  1.5151  0.4458
 6239SOL     OW30175   3.211   2.605   2.104  0.4214  0.4286 -0.5028
 6239SOL    HW130176   3.294   2.557   2.104  1.1414  1.6509  0.8495
 6239SOL    HW230177   3.245   2.685   2.144 -1.9735  1.3122 -0.2396
 6240SOL     OW30178   0.399   0.789   4.570 -0.6301  0.1284 -0.6952
 6240SOL    HW130179   0.445   0.867   4.540  0.6270 -0.8889 -1.4187
 6240SOL    HW230180   0.354   0.771   4.488 -0.4244  1.9314 -1.1902
 6241SOL     OW30181   2.669   3.376  16.394  0.2065 -0.3452  0.1447
 6241SOL    HW130182   2.602   3.444  16.405 -0.9666 -1.6939  1.3653
 6241SOL    HW230183   2.730   3.406  16.327 -2.5396  0.1649 -2.1237
 6242SOL     OW30184   1.398   3.059   6.700 -0.1426  0.3733  0.3285
 6242SOL    HW130185   1.383   3.119   6.627  2.3110  0.4820 -0.0775
 6242SOL    HW230186   1.457   3.105   6.758 -1.2432  0.5957  1.2846
 6243SOL     OW30187   0.450   0.414   0.723 -0.1376 -0.0448 -0.4476
 6243SOL    HW130188   0.448   0.319   0.731  0.1863  0.1326  1.6373
 6243SOL    HW230189   0.354   0.419   0.718  0.0105  0.3087 -3.0611
 6244SOL     OW30190   1.359   1.679   5.194 -0.7542 -0.1205  0.0651
 6244SOL    HW130191   1.394   1.749   5.249  0.3091 -1.2610  0.8386
 6244SOL    HW230192   1.409   1.691   5.114  1.3874 -0.2193  1.3801
 6245SOL     OW30193   2.739   2.016  13.194 -0.7679 -0.0057  0.0561
 6245SOL    HW130194   2.816   1.964  13.218  0.0183  1.6162  1.0911
 6245SOL    HW230195   2.672   1.948  13.199  0.3956 -1.4545 -4.2069
 6246SOL     OW30196   1.842   0.775   1.188  0.2867  0.4029 -0.3231
 6246SOL    HW130197   1.817   0.804   1.276 -1.7477  2.3810 -1.5499
 6246SOL    HW230198   1.754   0.761   1.152  0.6365 -1.0964 -0.5880
 6247SOL     OW30199   3.961   1.847   1.043 -0.3573  0.8228  0.3999
 6247SOL    HW130200   3.899   1.918   1.059  0.3308  1.0503  2.0461
 6247SOL    HW230201   3.912   1.780   1.092 -0.1321 -1.0116 -1.8899
 6248SOL     OW30202   0.163   2.902   2.773 -0.0934  0.1516  0.1158
 6248SOL    HW130203   0.143   2.837   2.840 -1.7673  1.1620  0.5869
 6248SOL    HW230204   0.136   2.862   2.691  1.9089 -0.9967  0.0052
 6249SOL     OW30205   0.725   3.958   5.196 -0.5135 -0.3744  0.7273
 6249SOL    HW130206   0.705   4.050   5.179  0.1471 -0.1371  1.2223
 6249SOL    HW230207   0.688   3.958   5.284 -3.5717 -2.1641 -0.5429
 6250SOL     OW30208   3.587   1.215   7.747  0.7670 -0.4910 -0.5191
 6250SOL    HW130209   3.531   1.274   7.797 -0.3689 -1.6286 -0.4365
 6250SOL    HW230210   3.524   1.199   7.677 -0.2185 -2.1212  0.7452
 6251SOL     OW30211   1.374   4.451   9.343  0.5608 -0.2139  0.6042
 6251SOL    HW130212   1.456   4.413   9.375  1.5335 -0.2980 -1.9889
 6251SOL    HW230213   1.394   4.544   9.357  1.9125 -1.1242  4.8031
 6252SOL     OW30214   1.592   2.126  10.209 -0.8842 -0.3301 -0.8654
 6252SOL    HW130215   1.560   2.085  10.129  1.5216 -2.4567 -0.7029
 6252SOL    HW230216   1.528   2.101  10.276  0.4738  0.1449  0.6216
 6253SOL     OW30217   1.715   2.684  16.980 -0.1954  0.0240  0.4516
 6253SOL    HW130218   1.653   2.725  17.040  0.7195  1.1716  0.6018
 6253SOL    HW230219   1.782   2.751  16.967  1.3566 -1.9721 -1.9219
 6254SOL     OW30220   1.027   1.259   8.763  0.0902  0.2458 -0.2318
 6254SOL    HW130221   0.941   1.263   8.721  1.2337  0.6892 -2.5417
 6254SOL    HW230222   1.091   1.258   8.692  1.0267 -0.7008  0.6361
 6255SOL     OW30223   3.755   1.934   8.224 -0.1536 -0.4041 -0.9577
 6255SOL    HW130224   3.709   1.992   8.284  0.4180  1.3450 -2.2315
 6255SOL    HW230225   3.844   1.968   8.232  0.9606 -3.2921 -0.9806
 6256SOL     OW30226   0.532   2.499   6.214 -0.1885  0.8937  0.3106
 6256SOL    HW130227   0.450   2.451   6.208  1.5627 -1.4782 -4.5248
 6256SOL    HW230228   0.494   2.584   6.238  0.0612  0.7464  1.2383
 6257SOL     OW30229   3.149   1.906   2.046 -0.3455  0.1485  0.4767
 6257SOL    HW130230   3.110   1.853   1.976 -0.7272 -0.8985  1.4782
 6257SOL    HW230231   3.152   1.830   2.103 -1.0823  0.0452  0.3885
 6258SOL     OW30232   1.712   0.096   5.243 -0.3703 -0.3378  0.0117
 6258SOL    HW130233   1.785   0.067   5.188 -0.3397  0.9382 -0.6178
 6258SOL    HW230234   1.707   0.189   5.221  0.4623 -0.2127  0.3343
 6259SOL     OW30235   0.705   1.481   4.878 -0.1137  0.2348 -0.0415
 6259SOL    HW130236   0.702   1.469   4.973  1.3731  1.3315  0.1490
 6259SOL    HW230237   0.745   1.567   4.888  0.0483  0.0184  1.1739
 6260SOL     OW30238   1.916   1.925  16.104 -0.3865  0.1336  0.7427
 6260SOL    HW130239   1.991   1.887  16.059 -1.7254 -1.0606 -0.4695
 6260SOL    HW230240   1.851   1.855  16.101 -0.0489 -0.1641  0.4462
 6261SOL     OW30241   0.695   1.042  10.898 -0.2297 -0.3443  0.1704
 6261SOL    HW130242   0.747   1.122  10.905  0.6576 -0.8852 -0.1461
 6261SOL    HW230243   0.610   1.076  10.871 -0.6056 -0.9588  0.6019
 6262SOL     OW30244   0.730   1.882   3.481  0.9206  0.2015 -0.7095
 6262SOL    HW130245   0.765   1.795   3.502 -1.0269 -0.0171  1.6265
 6262SOL    HW230246   0.711   1.881   3.387  2.7732  1.6613 -1.0908
 6263SOL     OW30247   4.429   3.708   8.066  0.0593  0.4490  0.1668
 6263SOL    HW130248   4.382   3.789   8.090 -1.0652  0.0088 -0.5301
 6263SOL    HW230249   4.438   3.664   8.151  2.4706  0.7273  0.0514
 6264SOL     OW30250   3.316   1.847   9.846 -0.4978 -0.0269 -0.3454
 6264SOL    HW130251   3.340   1.873   9.935  1.6609  3.4599 -1.9611
 6264SOL    HW230252   3.223   1.823   9.840 -0.4377 -0.3969  0.1149
 6265SOL     OW30253   4.060   4.424  13.388 -0.0679  0.4144 -0.3755
 6265SOL    HW130254   3.971   4.423  13.351  0.8049  0.8988 -2.4489
 6265SOL    HW230255   4.099   4.352  13.337 -2.6484 -0.2276 -1.4565
 6266SOL     OW30256   2.759   1.262   4.471 -0.3404  0.0802 -0.1658
 6266SOL    HW130257   2.681   1.235   4.519  0.7939 -0.4200  1.3860
 6266SOL    HW230258   2.795   1.174   4.484  1.3370  0.9557  1.0251
 6267SOL     OW30259   0.737   2.627   6.735  0.0331  0.1530  0.3406
 6267SOL    HW130260   0.665   2.639   6.673  0.0377  0.7829  0.4541
 6267SOL    HW230261   0.694   2.620   6.820  1.4614 -1.8909  0.8819
 6268SOL     OW30262   2.796   3.996   6.173 -0.0189  0.0652  0.1935
 6268SOL    HW130263   2.719   3.951   6.207  0.7687 -2.1493 -0.9279
 6268SOL    HW230264   2.865   3.931   6.180  1.2923  1.3096 -1.1623
 6269SOL     OW30265   4.697   4.164   6.751 -0.1746  0.3156  0.2506
 6269SOL    HW130266   4.605   4.143   6.731 -0.4819  0.8743  1.0729
 6269SOL    HW230267   4.717   4.222   6.677 -0.1868 -1.9817 -1.5590
 6270SOL     OW30268   0.353   4.007  10.181  0.1159 -0.1809  0.1997
 6270SOL    HW130269   0.367   4.077  10.244  0.8168 -0.9324  0.8743
 6270SOL    HW230270   0.314   4.059  10.111  1.5710  0.7801  0.1139
 6271SOL     OW30271   2.998   3.827   1.946 -0.4049  0.5651  0.0918
 6271SOL    HW130272   2.923   3.860   1.994 -1.5401 -1.7628 -0.0942
 6271SOL    HW230273   2.966   3.741   1.917  1.3343 -0.6335  1.7705
 6272SOL     OW30274   1.009   4.618   7.787 -0.2039  0.1911 -0.1996
 6272SOL    HW130275   1.003   4.544   7.726 -2.0050  0.6099 -0.5450
 6272SOL    HW230276   1.051   4.679   7.726  0.5635  0.3948  0.5338
 6273SOL     OW30277   4.048   2.747   4.631 -0.8227 -0.4076  0.0298
 6273SOL    HW130278   4.012   2.661   4.651 -0.6276 -0.1911  1.2941
 6273SOL    HW230279   3.994   2.796   4.694  0.0432 -0.7165  1.0106
 6274SOL     OW30280   4.001   4.270   3.181 -0.0466  0.4939  0.1291
 6274SOL    HW130281   4.090   4.303   3.195 -0.1111  0.3472  0.8601
 6274SOL    HW230282   3.958   4.353   3.160 -1.0331 -0.1112 -0.2743
 6275SOL     OW30283   0.322   0.239   3.121 -0.2064 -0.7307  0.2097
 6275SOL    HW130284   0.298   0.301   3.189 -0.6903 -0.5837 -0.1003
 6275SOL    HW230285   0.277   0.160   3.151 -0.5000 -0.4484  0.5114
 6276SOL     OW30286   1.621   0.759   3.032 -0.1472  0.3437 -0.9527
 6276SOL    HW130287   1.648   0.763   3.124 -0.2766  1.2269 -0.9537
 6276SOL    HW230288   1.565   0.681   3.027 -2.1826  1.8393 -1.6897
 6277SOL     OW30289   0.026   0.046   4.836 -0.2247 -0.3248 -0.2368
 6277SOL    HW130290   0.068   0.132   4.828  0.5637 -0.5407  1.7714
 6277SOL    HW230291   4.668   0.063   4.784 -0.2037  2.4151  0.6242
 6278SOL     OW30292   3.045   1.180   9.914  0.1569  0.1946  0.3797
 6278SOL    HW130293   3.025   1.242   9.845 -0.7220 -0.9266 -0.3724
 6278SOL    HW230294   3.019   1.096   9.875  0.0584  0.9053 -1.0654
 6279SOL     OW30295   0.283   1.565   6.342  0.0403  0.4919  0.0170
 6279SOL    HW130296   0.238   1.533   6.421 -1.3924 -0.5913 -1.2521
 6279SOL    HW230297   0.247   1.506   6.276  1.5125 -0.3513 -0.0418
 6280SOL     OW30298   3.243   2.540   4.888  0.0692 -0.1340 -0.2373
 6280SOL    HW130299   3.167   2.489   4.861 -0.0699  0.1957 -0.4684
 6280SOL    HW230300   3.249   2.613   4.827 -0.7071  1.1239  1.1949
 6281SOL     OW30301   0.342   3.044   9.098  0.1051  0.2575 -0.2175
 6281SOL    HW130302   0.395   3.049   9.177 -0.0634 -1.1686 -0.0150
 6281SOL    HW230303   0.251   3.032   9.126  0.4010  0.1647  0.7003
 6282SOL     OW30304   4.262   1.944  11.801 -0.1028 -0.0694 -0.0747
 6282SOL    HW130305   4.220   1.865  11.833  0.0883  0.3904  1.2991
 6282SOL    HW230306   4.186   1.991  11.766 -1.4768 -0.8496  1.8816
 6283SOL     OW30307   1.448   4.275   1.739 -0.1780 -0.0467 -0.1132
 6283SOL    HW130308   1.354   4.266   1.750 -0.1079 -2.2017 -1.2136
 6283SOL    HW230309   1.485   4.248   1.823  0.2241  0.8631  0.0022
 6284SOL     OW30310   3.743   0.694   9.597  0.1022  0.2653  0.1028
 6284SOL    HW130311   3.765   0.786   9.582  1.4135  0.1095  1.0450
 6284SOL    HW230312   3.649   0.694   9.616 -0.0145  0.0016 -0.4681
 6285SOL     OW30313   3.479   1.986  10.397  0.4857  0.3480  0.6346
 6285SOL    HW130314   3.502   1.896  10.376 -2.4084 -0.9236  2.9686
 6285SOL    HW230315   3.464   1.983  10.491  0.1993  0.0575  0.5787
 6286SOL     OW30316   1.481   4.026   3.355  0.4044 -0.4049  0.1249
 6286SOL    HW130317   1.517   3.948   3.312 -1.1178 -1.3734  0.5847
 6286SOL    HW230318   1.565   4.065   3.378  0.1018  0.7115 -0.6365
 6287SOL     OW30319   1.737   1.732  16.071  0.0061  0.0832 -0.0810
 6287SOL    HW130320   1.644   1.754  16.072  0.1264  0.7015 -2.1561
 6287SOL    HW230321   1.724   1.638  16.086  2.0169 -0.3016 -0.8098
 6288SOL     OW30322   3.260   2.088  12.298 -0.0903  0.3683  0.1574
 6288SOL    HW130323   3.311   2.075  12.219 -0.9897 -1.1731 -0.1545
 6288SOL    HW230324   3.193   2.022  12.280  1.1506 -0.8181 -0.0734
 6289SOL     OW30325   1.971   4.677   2.682  0.4556 -0.0088  0.1781
 6289SOL    HW130326   1.941   4.670   2.591  0.8752 -0.0879  0.0477
 6289SOL    HW230327   1.905   4.625   2.728  0.4571  3.0623  3.6395
 6290SOL     OW30328   2.994   4.013   4.281 -0.0421  0.7544  0.2451
 6290SOL    HW130329   2.899   4.023   4.288 -0.3006 -0.9739 -0.7371
 6290SOL    HW230330   2.999   3.918   4.292 -0.0085  0.5673 -1.3665
 6291SOL     OW30331   1.997   2.167   2.271  0.7105  0.1568 -0.6725
 6291SOL    HW130332   1.997   2.121   2.355 -0.8764  0.0633 -0.7266
 6291SOL    HW230333   2.084   2.207   2.266  0.8372  0.0184  0.5517
 6292SOL     OW30334   3.182   3.224   5.720  0.1100  0.5393  0.1258
 6292SOL    HW130335   3.184   3.220   5.815 -0.0070 -0.2906  0.0866
 6292SOL    HW230336   3.163   3.317   5.704  0.9941  0.7175  0.1206
 6293SOL     OW30337   2.360   3.053  13.963 -0.6536 -0.3696 -0.6547
 6293SOL    HW130338   2.446   3.092  13.946 -0.4111 -0.1803  0.9307
 6293SOL    HW230339   2.391   2.984  14.022  0.5442  1.1432  0.5064
 6294SOL     OW30340   1.261   3.152   4.925  0.2411 -0.4249 -0.7279
 6294SOL    HW130341   1.322   3.143   4.852  1.8084  0.0124  0.5314
 6294SOL    HW230342   1.221   3.067   4.912  0.3811 -0.5307 -0.4678
 6295SOL     OW30343   3.428   0.297   4.020  0.0006 -0.3119 -0.0241
 6295SOL    HW130344   3.355   0.358   4.016 -1.2505 -1.8549 -0.6658
 6295SOL    HW230345   3.388   0.222   4.065 -3.0617  2.4359  1.7402
 6296SOL     OW30346   3.744   4.391   8.497 -0.3125 -0.2841  0.4033
 6296SOL    HW130347   3.796   4.459   8.541 -1.6592  0.0852  1.4221
 6296SOL    HW230348   3.817   4.357   8.446 -0.2900  1.9600 -1.0615
 6297SOL     OW30349   4.513   2.343   4.739  0.4082  0.3350  0.3815
 6297SOL    HW130350   4.482   2.428   4.770  0.0973 -0.0766  1.2030
 6297SOL    HW230351   4.515   2.295   4.822  1.0038 -0.8837 -0.3496
 6298SOL     OW30352   2.902   3.771   9.615 -0.5367  0.2880 -0.0969
 6298SOL    HW130353   2.946   3.748   9.533 -0.0004  2.2432 -0.3513
 6298SOL    HW230354   2.883   3.685   9.653  0.6367  0.7196  1.4607
 6299SOL     OW30355   4.551   4.025  10.042 -0.1420  0.0952  0.8757
 6299SOL    HW130356   4.567   4.102   9.988  0.8423 -0.6141  0.1734
 6299SOL    HW230357   4.468   4.043  10.087 -0.0003 -2.7387  2.2857
 6300SOL     OW30358   4.298   0.740   8.854 -0.0404 -0.0746 -0.1235
 6300SOL    HW130359   4.350   0.814   8.886  0.1292 -0.6602  0.9480
 6300SOL    HW230360   4.267   0.682   8.924 -0.4097  0.0227 -0.2070
 6301SOL     OW30361   1.341   3.316   8.505 -0.0796  0.0345 -0.1853
 6301SOL    HW130362   1.371   3.231   8.536  1.6233 -0.4234 -2.9974
 6301SOL    HW230363   1.275   3.335   8.572  1.4206 -1.4915  1.7128
 6302SOL     OW30364   4.699   3.000   0.020  0.0484 -0.1182  0.3944
 6302SOL    HW130365   4.629   3.006   0.086  0.7167  0.5703  1.0449
 6302SOL    HW230366   4.658   3.017  17.622  0.1485  0.0810  0.3842
 6303SOL     OW30367   2.184   2.717  13.479  0.1494  0.1205 -0.1506
 6303SOL    HW130368   2.134   2.636  13.492  2.1208 -0.6039  2.8691
 6303SOL    HW230369   2.121   2.787  13.494  1.1893  1.2659 -1.1199
 6304SOL     OW30370   2.472   4.705   6.993 -0.2696  0.6414 -0.6922
 6304SOL    HW130371   2.481   0.077   6.974  0.4472  0.1996 -2.5353
 6304SOL    HW230372   2.546   4.695   7.053  0.6033  1.0619 -1.7017
 6305SOL     OW30373   2.036   0.383   4.704 -0.5064  0.2329  0.3363
 6305SOL    HW130374   2.052   0.299   4.745  1.3234  0.7213  0.6476
 6305SOL    HW230375   1.944   0.405   4.719 -0.2925  1.7467 -0.4901
 6306SOL     OW30376   4.005   3.720  10.139  0.2977  0.0763  0.2131
 6306SOL    HW130377   3.928   3.665  10.121  0.1906 -0.6371  2.9313
 6306SOL    HW230378   3.973   3.804  10.105 -1.5162 -0.2717  1.0466
 6307SOL     OW30379   0.318   1.699   5.959 -0.4009 -0.2574 -0.7918
 6307SOL    HW130380   0.320   1.785   6.001  1.6900  1.1574 -3.8186
 6307SOL    HW230381   0.234   1.655   5.966 -0.9645  0.6673 -1.8628
 6308SOL     OW30382   0.588   0.456  15.927 -0.1482  0.0086 -0.3677
 6308SOL    HW130383   0.626   0.399  15.994  0.0606  0.3077 -0.2337
 6308SOL    HW230384   0.521   0.501  15.979  0.6660  0.9988 -0.1645
 6309SOL     OW30385   2.997   0.216   3.505 -0.2678  0.4375 -0.1185
 6309SOL    HW130386   2.917   0.196   3.456 -0.1316 -0.8340  0.1760
 6309SOL    HW230387   3.059   0.245   3.438  0.2993  2.7838  1.4461
 6310SOL     OW30388   0.621   0.402   8.335 -0.2377  0.4183 -0.1793
 6310SOL    HW130389   0.652   0.417   8.245 -2.9617  0.7592 -1.0642
 6310SOL    HW230390   0.539   0.450   8.332 -0.7969 -0.3804  2.4957
 6311SOL     OW30391   2.689   1.149   2.042  0.1185  0.2280  0.0922
 6311SOL    HW130392   2.614   1.198   2.074  0.7905  0.9905  0.5015
 6311SOL    HW230393   2.738   1.130   2.122 -0.7207 -1.6360  0.1571
 6312SOL     OW30394   4.105   2.315   2.037  0.6788 -0.1755  0.0766
 6312SOL    HW130395   4.018   2.325   1.998  2.4128  2.0086 -3.2071
 6312SOL    HW230396   4.088   2.367   2.116 -1.6637  0.9489 -1.1550
 6313SOL     OW30397   4.156   2.989   1.889  0.2247  0.5854  0.0150
 6313SOL    HW130398   4.181   2.899   1.872 -2.3417 -0.0286 -0.4952
 6313SOL    HW230399   4.120   3.017   1.805  1.6750  0.5830 -0.6016
 6314SOL     OW30400   1.649   0.360   5.186  0.0319  0.6570 -0.3942
 6314SOL    HW130401   1.578   0.419   5.211 -0.9942 -1.0390  0.7230
 6314SOL    HW230402   1.707   0.417   5.136 -0.7650  0.9182 -1.0221
 6315SOL     OW30403   2.167   1.963   7.842  0.2079  0.3122  0.1128
 6315SOL    HW130404   2.218   2.015   7.904  1.7041 -1.4183  0.3552
 6315SOL    HW230405   2.174   2.015   7.762  1.3394 -1.2722 -0.8160
 6316SOL     OW30406   4.397   3.107  14.423 -0.1089 -0.3951  0.3438
 6316SOL    HW130407   4.353   3.094  14.507 -3.3204  0.4502 -1.2292
 6316SOL    HW230408   4.336   3.060  14.367  2.9389 -2.0054 -1.6354
 6317SOL     OW30409   2.630   0.989   9.895  0.0063  0.5508  0.5312
 6317SOL    HW130410   2.701   0.925   9.897  1.2676  1.9485 -0.0251
 6317SOL    HW230411   2.655   1.053   9.962 -0.2407  0.6737  0.5072
 6318SOL     OW30412   3.756   4.148   6.314  0.1920 -0.0538 -0.5123
 6318SOL    HW130413   3.727   4.218   6.372 -0.2785 -0.9900  0.3863
 6318SOL    HW230414   3.846   4.131   6.340  0.8490  0.8770 -2.1793
 6319SOL     OW30415   3.879   3.365  12.072  0.0558  0.4620 -0.6648
 6319SOL    HW130416   3.927   3.413  12.005  0.9187 -0.4268 -0.6775
 6319SOL    HW230417   3.950   3.311  12.107  1.2599  2.2460 -0.3912
 6320SOL     OW30418   1.659   1.566   2.517 -0.1880  0.2622 -0.3052
 6320SOL    HW130419   1.575   1.551   2.560 -0.3238  0.9011 -0.3401
 6320SOL    HW230420   1.651   1.661   2.509  1.3984  0.3887 -0.3961
 6321SOL     OW30421   4.494   3.809  17.279 -0.6926 -0.4784 -0.4381
 6321SOL    HW130422   4.411   3.763  17.264 -0.3850 -1.3309  0.4428
 6321SOL    HW230423   4.546   3.751  17.333 -0.7008 -0.3345 -0.2729
 6322SOL     OW30424   4.101   4.214   0.998 -0.3317  0.1156  0.1025
 6322SOL    HW130425   4.085   4.232   0.906  1.1200 -0.3714 -0.2396
 6322SOL    HW230426   4.153   4.134   0.992 -0.9306 -0.1099 -1.8521
 6323SOL     OW30427   3.364   3.342   5.098  0.6071 -0.0451 -0.5131
 6323SOL    HW130428   3.448   3.360   5.139 -0.2421  1.5691  0.5393
 6323SOL    HW230429   3.388   3.261   5.054  1.6381  0.8917 -1.6660
 6324SOL     OW30430   3.578   1.985  16.752  0.4102  0.5327 -0.3507
 6324SOL    HW130431   3.525   2.056  16.715  1.0802  0.8728 -0.6593
 6324SOL    HW230432   3.574   1.930  16.674 -3.2447 -0.7731  0.7747
 6325SOL     OW30433   0.175   2.294   5.525 -0.5063  0.0335 -0.0078
 6325SOL    HW130434   0.249   2.349   5.550 -1.1236  0.9281 -0.1774
 6325SOL    HW230435   0.193   2.209   5.566  1.0899 -0.5011 -1.8048
 6326SOL     OW30436   1.012   2.392   2.707 -0.1135 -0.1231 -0.1061
 6326SOL    HW130437   0.923   2.380   2.739 -0.3360  1.4939 -0.1359
 6326SOL    HW230438   1.020   2.487   2.703  0.9881 -0.2376 -0.6847
 6327SOL     OW30439   2.923   4.588  16.776 -0.4037 -0.3886  0.2379
 6327SOL    HW130440   2.834   4.623  16.770 -0.4699 -0.7670 -0.9196
 6327SOL    HW230441   2.969   4.669  16.752 -0.0747 -0.8265 -0.6237
 6328SOL     OW30442   0.656   3.568   9.634  0.0077 -0.1261 -0.0074
 6328SOL    HW130443   0.647   3.481   9.595  0.9297 -0.1300 -0.2241
 6328SOL    HW230444   0.570   3.571   9.677  0.4153  0.9324  0.7460
 6329SOL     OW30445   2.670   2.469   1.059  0.1886  0.1114  0.8210
 6329SOL    HW130446   2.696   2.536   1.122  1.4820  1.0545 -0.7176
 6329SOL    HW230447   2.586   2.434   1.091  0.4808  1.0066  2.5505
 6330SOL     OW30448   2.282   1.819   5.227 -0.6704  0.7938 -0.2714
 6330SOL    HW130449   2.266   1.785   5.315 -0.2676  0.9191 -0.1488
 6330SOL    HW230450   2.332   1.751   5.183 -0.2887  0.6018  0.4656
 6331SOL     OW30451   1.712   1.778   0.514 -0.4545 -0.6060 -0.0962
 6331SOL    HW130452   1.643   1.844   0.510  1.4360  1.3612 -0.8040
 6331SOL    HW230453   1.785   1.824   0.555 -0.6626 -0.7345  0.4229
 6332SOL     OW30454   1.685   1.076   5.465 -0.4479 -0.6280  0.0198
 6332SOL    HW130455   1.610   1.136   5.458  1.2235  1.4063 -0.4881
 6332SOL    HW230456   1.649   0.994   5.432  1.0256 -1.5729  0.7913
 6333SOL     OW30457   2.368   1.905   1.045  0.2618 -0.1653  0.3958
 6333SOL    HW130458   2.386   1.948   0.961 -0.2048  0.0337  0.3948
 6333SOL    HW230459   2.414   1.958   1.110 -1.0587  0.4474  0.8374
 6334SOL     OW30460   1.846   1.641   9.215 -0.0272 -0.0949 -0.0033
 6334SOL    HW130461   1.823   1.548   9.219  0.5807 -0.1862  1.4821
 6334SOL    HW230462   1.798   1.673   9.292 -0.7742 -0.1664 -0.4451
 6335SOL     OW30463   2.122   0.313   6.303 -0.5052 -0.4392  0.2503
 6335SOL    HW130464   2.108   0.221   6.327 -0.4700 -0.3688  0.5400
 6335SOL    HW230465   2.116   0.349   6.391  0.2855 -1.5841  0.7681
 6336SOL     OW30466   3.798   2.141   8.911  0.7111 -0.5659 -0.1234
 6336SOL    HW130467   3.859   2.204   8.947  0.5220  0.1023 -0.9646
 6336SOL    HW230468   3.736   2.194   8.861 -1.2926 -1.9426  0.9206
 6337SOL     OW30469   3.950   4.575   4.882 -0.9478  0.8356  0.0165
 6337SOL    HW130470   4.004   4.611   4.952 -1.5158 -0.6637  1.2427
 6337SOL    HW230471   3.864   4.597   4.919 -0.8881 -0.7767  1.1080
 6338SOL     OW30472   3.773   1.445   9.187 -0.1065  0.1522 -0.1134
 6338SOL    HW130473   3.826   1.383   9.235 -1.7720  0.1026  1.6884
 6338SOL    HW230474   3.689   1.443   9.234  0.1350 -0.8742  0.2506
 6339SOL     OW30475   2.255   4.662   3.892  0.2973 -0.5086 -0.3304
 6339SOL    HW130476   2.298   4.669   3.807 -1.5686 -1.5892 -1.3620
 6339SOL    HW230477   2.334   4.651   3.945 -0.0705 -3.6863 -0.4547
 6340SOL     OW30478   4.054   0.152   0.459  0.8444 -0.1618  0.2373
 6340SOL    HW130479   4.074   0.211   0.386 -0.1034 -0.4399 -0.2421
 6340SOL    HW230480   4.051   0.074   0.403 -0.1055  0.6774 -0.8843
 6341SOL     OW30481   2.031   1.266   9.217 -0.5371 -0.0647  0.2845
 6341SOL    HW130482   1.944   1.270   9.177 -0.1135 -1.1955 -0.7639
 6341SOL    HW230483   2.086   1.269   9.139 -1.0869  1.7165 -0.0223
 6342SOL     OW30484   1.497   2.494   6.418  0.4395 -0.1351  0.4467
 6342SOL    HW130485   1.521   2.436   6.346  0.8419  0.0622  0.4272
 6342SOL    HW230486   1.567   2.483   6.482 -0.6760 -2.4816  1.2888
 6343SOL     OW30487   1.415   1.658   8.674  0.1196 -0.0428 -0.8013
 6343SOL    HW130488   1.341   1.713   8.649  0.8495  1.0238 -0.6316
 6343SOL    HW230489   1.491   1.715   8.661 -0.0733  0.2362 -0.7000
 6344SOL     OW30490   1.538   0.782   7.646 -0.1321  0.3926  0.3242
 6344SOL    HW130491   1.621   0.738   7.665 -0.9137 -1.2081  0.0271
 6344SOL    HW230492   1.554   0.860   7.700 -0.5548  0.1179  0.8415
 6345SOL     OW30493   4.071   4.500  11.835  0.6912 -0.4644  0.5507
 6345SOL    HW130494   4.012   4.441  11.882  0.2598 -1.4510 -1.2385
 6345SOL    HW230495   4.107   4.442  11.768 -2.4774  0.9739 -2.4076
 6346SOL     OW30496   4.356   3.329   7.295 -0.2868 -0.3107  0.0173
 6346SOL    HW130497   4.338   3.406   7.348  0.7479  0.2861 -0.5011
 6346SOL    HW230498   4.344   3.259   7.359  0.9167 -0.7067 -0.1878
 6347SOL     OW30499   1.163   1.462  10.190  0.1973  0.3945  0.2046
 6347SOL    HW130500   1.095   1.514  10.147  0.5702 -0.0211 -0.8790
 6347SOL    HW230501   1.203   1.536  10.236  3.2336 -1.0922 -0.0174
 6348SOL     OW30502   0.196   0.771  10.301  0.5099 -0.1931  0.2234
 6348SOL    HW130503   0.249   0.708  10.351  0.2120 -0.7651 -0.1748
 6348SOL    HW230504   0.226   0.745  10.214 -1.4217 -0.7582 -0.2845
 6349SOL     OW30505   1.053   1.969   5.744  0.3096 -0.3196 -0.0361
 6349SOL    HW130506   1.047   1.888   5.794 -2.5417 -0.2547 -0.2695
 6349SOL    HW230507   1.013   2.037   5.799  0.3352 -0.0243 -0.3789
 6350SOL     OW30508   1.289   0.302   5.338 -0.3256  0.4955 -0.3506
 6350SOL    HW130509   1.369   0.329   5.384  0.3152 -4.7788  1.6707
 6350SOL    HW230510   1.229   0.358   5.387  1.5096  2.6930 -0.5687
 6351SOL     OW30511   3.249   1.757   3.757 -0.2834 -0.3005  0.2445
 6351SOL    HW130512   3.194   1.682   3.733 -1.1625  0.4384 -0.0671
 6351SOL    HW230513   3.321   1.743   3.695  0.0736  2.0916  0.1387
 6352SOL     OW30514   1.302   3.668   3.848 -0.2910  0.7835  0.0397
 6352SOL    HW130515   1.312   3.761   3.864 -0.0000  0.5717  1.1117
 6352SOL    HW230516   1.346   3.657   3.764  0.1676  0.1758  0.3547
 6353SOL     OW30517   4.219   0.391   9.890 -0.8624 -0.0035  0.6271
 6353SOL    HW130518   4.127   0.389   9.914 -0.9765  0.3814  0.2230
 6353SOL    HW230519   4.248   0.426   9.974 -1.6286  0.9906  0.4750
 6354SOL     OW30520   2.372   3.139   9.479  0.3031  0.1165 -0.4445
 6354SOL    HW130521   2.302   3.078   9.458 -0.8225  0.9197  0.9232
 6354SOL    HW230522   2.333   3.225   9.462  1.7315  1.3314  2.3427
 6355SOL     OW30523   0.475   2.582  12.269 -0.4878 -0.1314  0.3067
 6355SOL    HW130524   0.554   2.628  12.241  0.4376 -1.3483  0.9048
 6355SOL    HW230525   0.511   2.495  12.254  1.1267  0.1705  2.4520
 6356SOL     OW30526   3.171   0.789   2.249 -0.2322 -0.2316 -0.0211
 6356SOL    HW130527   3.179   0.884   2.257 -2.1069 -0.1674  1.0360
 6356SOL    HW230528   3.217   0.769   2.167 -0.5290 -0.1609 -0.2053
 6357SOL     OW30529   2.333   4.105   7.608  0.1855  0.2107  0.1496
 6357SOL    HW130530   2.375   4.190   7.616 -0.9156  0.7297  0.3058
 6357SOL    HW230531   2.411   4.049   7.607  0.6089  0.7808  2.4804
 6358SOL     OW30532   2.725   4.549   3.128  0.5886 -0.2638  0.1702
 6358SOL    HW130533   2.712   4.643   3.114  0.3525 -0.6338 -2.0364
 6358SOL    HW230534   2.819   4.544   3.109  0.5127 -0.6517 -0.0987
 6359SOL     OW30535   0.758   0.914   6.396  0.3493  0.1426  0.4593
 6359SOL    HW130536   0.677   0.931   6.443  0.4536 -2.0582  1.3991
 6359SOL    HW230537   0.815   0.871   6.460 -0.1384  0.6318  1.2286
 6360SOL     OW30538   4.639   0.783   3.565  0.0554 -0.0621 -0.2788
 6360SOL    HW130539   4.675   0.866   3.595  0.3715  0.5588 -2.3143
 6360SOL    HW230540   4.603   0.755   3.649  1.6498 -1.8168 -0.1624
 6361SOL     OW30541   0.108   1.284  10.327  0.2000  0.6284 -0.3333
 6361SOL    HW130542   0.103   1.189  10.315 -1.9686  0.6273  0.5165
 6361SOL    HW230543   0.154   1.307  10.247  1.4499 -0.2535  0.1260
 6362SOL     OW30544   1.437   3.585   9.371  0.6319 -0.4844 -0.1715
 6362SOL    HW130545   1.433   3.680   9.386 -2.7008 -0.6933  0.3435
 6362SOL    HW230546   1.455   3.556   9.461 -1.6061 -0.4641  0.2958
 6363SOL     OW30547   1.746   2.604  11.628  0.1045  0.2950 -0.3124
 6363SOL    HW130548   1.674   2.660  11.658  0.3235  0.0640  0.6596
 6363SOL    HW230549   1.724   2.515  11.655  2.4418 -0.0167  0.5382
 6364SOL     OW30550   2.252   0.067  14.197 -0.1888 -0.2405  0.0977
 6364SOL    HW130551   2.166   0.105  14.176 -1.2884 -1.6877  2.0371
 6364SOL    HW230552   2.242   0.026  14.283 -0.0505  0.6325  0.5359
 6365SOL     OW30553   3.802   1.810   6.352 -0.0312 -0.3838  0.2977
 6365SOL    HW130554   3.784   1.721   6.322 -1.0617  0.0980 -0.5245
 6365SOL    HW230555   3.725   1.825   6.407 -1.0097 -2.3557 -0.5399
 6366SOL     OW30556   2.852   1.489   3.510 -0.9066 -0.0828 -1.0901
 6366SOL    HW130557   2.896   1.415   3.468 -1.1514 -0.3995 -0.7911
 6366SOL    HW230558   2.769   1.457   3.545  1.0476 -2.5107  1.3881
 6367SOL     OW30559   3.792   0.983   5.309  0.3431  0.2066  0.5359
 6367SOL    HW130560   3.843   0.976   5.228  0.2132 -1.4972  0.5900
 6367SOL    HW230561   3.851   1.043   5.355 -0.6064  0.7363  1.0622
 6368SOL     OW30562   3.227   1.042   4.877  0.5672  0.6140 -0.0573
 6368SOL    HW130563   3.288   0.986   4.926 -1.9360  0.1581  2.5359
 6368SOL    HW230564   3.283   1.100   4.826  0.4894  0.8380  0.1104
 6369SOL     OW30565   4.262   0.784   7.223 -0.2875 -0.9782 -0.0045
 6369SOL    HW130566   4.235   0.700   7.261 -0.5675 -1.2200 -0.7329
 6369SOL    HW230567   4.356   0.773   7.235 -0.0993  1.5506  0.7492
 6370SOL     OW30568   3.429   0.620   7.951 -0.1011  0.0686  0.6559
 6370SOL    HW130569   3.487   0.691   7.926 -0.7241 -0.1931 -1.6076
 6370SOL    HW230570   3.350   0.674   7.942  0.1067  0.2733  0.0800
 6371SOL     OW30571   2.190   1.319  11.318 -0.4286 -0.3689 -0.3727
 6371SOL    HW130572   2.173   1.315  11.412 -1.1937 -1.8636 -0.5917
 6371SOL    HW230573   2.107   1.362  11.300 -0.2345  0.7118  1.2988
 6372SOL     OW30574   0.332   3.598   0.589 -0.5116  0.4361 -0.7147
 6372SOL    HW130575   0.408   3.612   0.646 -0.6764  0.9656 -0.6229
 6372SOL    HW230576   0.363   3.515   0.553  0.7258  1.9843 -3.2667
 6373SOL     OW30577   0.913   1.172   7.048  0.2719 -0.3882  0.3063
 6373SOL    HW130578   0.900   1.262   7.076 -1.6682 -0.3953 -0.5934
 6373SOL    HW230579   0.829   1.136   7.076 -0.0535  0.7080  0.7060
 6374SOL     OW30580   0.577   4.511   2.869  0.5872 -0.0134  0.0139
 6374SOL    HW130581   0.538   4.598   2.856  0.6521  0.0381  0.1684
 6374SOL    HW230582   0.660   4.523   2.822  0.5227 -0.0510 -0.1097
 6375SOL     OW30583   1.472   4.680   5.152  0.0030  0.0316 -0.2998
 6375SOL    HW130584   1.471   0.045   5.109 -0.9196  0.0147 -0.2971
 6375SOL    HW230585   1.542   4.685   5.217 -1.6647 -0.6244  1.5266
 6376SOL     OW30586   0.861   2.980   5.858 -0.5455 -0.0044  0.0199
 6376SOL    HW130587   0.891   2.940   5.776  0.0891  0.3580  0.0747
 6376SOL    HW230588   0.941   2.965   5.910 -0.5651 -0.3314 -0.0438
 6377SOL     OW30589   3.688   3.205   3.086 -0.3139 -1.0053 -0.3786
 6377SOL    HW130590   3.720   3.295   3.089  1.0730 -1.5097 -0.1572
 6377SOL    HW230591   3.672   3.194   2.992 -0.2502  0.9727 -0.6023
 6378SOL     OW30592   4.143   1.649   5.200 -0.1164  0.1747 -0.5139
 6378SOL    HW130593   4.121   1.713   5.269  0.0074 -0.7343  0.3728
 6378SOL    HW230594   4.172   1.704   5.128  0.6602  0.9921  0.4106
 6379SOL     OW30595   0.512   3.349   7.826  0.5066  0.0745  0.6333
 6379SOL    HW130596   0.461   3.343   7.745  2.1287 -0.9664 -0.3033
 6379SOL    HW230597   0.488   3.440   7.841  2.8646  1.1897 -2.4793
 6380SOL     OW30598   3.435   0.012   7.296 -0.0046 -0.3476 -0.0620
 6380SOL    HW130599   3.370   0.082   7.295  0.3587 -0.0318 -0.7185
 6380SOL    HW230600   3.378   4.656   7.303 -1.3933  0.6602 -0.1693
 6381SOL     OW30601   2.386   0.353  12.196  1.1246 -0.3422  0.2716
 6381SOL    HW130602   2.385   0.415  12.124 -1.1581  1.1019  1.5664
 6381SOL    HW230603   2.479   0.332  12.210  1.9682  1.7600 -2.2965
 6382SOL     OW30604   1.660   2.725   4.655  0.8382 -0.0374 -0.6200
 6382SOL    HW130605   1.616   2.761   4.578 -0.8793  0.4751  0.5895
 6382SOL    HW230606   1.651   2.800   4.714  1.3063 -1.5332  1.3621
 6383SOL     OW30607   1.075   1.307  13.418 -0.6876  0.8885  0.8550
 6383SOL    HW130608   0.986   1.333  13.442 -0.6396  2.2260 -0.4819
 6383SOL    HW230609   1.111   1.395  13.407 -0.1839  0.6488  0.6033
 6384SOL     OW30610   1.703   4.265  13.449  0.3435 -0.3225  0.2795
 6384SOL    HW130611   1.718   4.356  13.475 -0.1450 -0.2316  0.2430
 6384SOL    HW230612   1.608   4.256  13.456  0.6182 -2.8436  0.7429
 6385SOL     OW30613   1.091   3.774   9.127  0.5122  0.5586 -0.4591
 6385SOL    HW130614   1.025   3.843   9.132 -1.2687 -0.9930 -2.4399
 6385SOL    HW230615   1.103   3.748   9.219 -1.2500  1.8168  0.1282
 6386SOL     OW30616   0.197   2.217  13.753 -0.7367 -0.6020 -0.1374
 6386SOL    HW130617   0.284   2.215  13.794  0.5542 -0.0257 -2.8200
 6386SOL    HW230618   0.157   2.296  13.789  0.8121 -0.3000  0.9376
 6387SOL     OW30619   3.180   1.737   6.291 -0.2283 -0.8269  0.1280
 6387SOL    HW130620   3.163   1.830   6.274  1.0974 -0.8510 -1.4403
 6387SOL    HW230621   3.134   1.713   6.371  1.0952 -0.4267  1.0158
 6388SOL     OW30622   4.116   0.171  16.957 -0.7027  0.1016  0.1613
 6388SOL    HW130623   4.045   0.235  16.971 -1.3947 -0.2991 -1.5557
 6388SOL    HW230624   4.137   0.187  16.865 -0.9875 -0.4274  0.0078
 6389SOL     OW30625   3.190   3.174   8.593 -0.1272 -0.0137 -0.6784
 6389SOL    HW130626   3.166   3.266   8.579  2.2053  0.7553  0.4134
 6389SOL    HW230627   3.218   3.178   8.684  0.6347  1.1708 -0.9589
 6390SOL     OW30628   1.952   0.894   3.159 -0.3786  0.1200 -0.2322
 6390SOL    HW130629   1.955   0.986   3.135  3.0774  0.0092 -0.2226
 6390SOL    HW230630   1.896   0.897   3.237 -1.8710  1.4437 -1.3654
 6391SOL     OW30631   0.880   2.950   5.321  0.3298  0.1792  0.2216
 6391SOL    HW130632   0.954   3.006   5.343  1.4741 -0.5059 -1.9230
 6391SOL    HW230633   0.881   2.887   5.393  1.0115 -1.3454 -1.1132
 6392SOL     OW30634   0.879   1.164  13.068 -0.4163  0.1224 -0.0110
 6392SOL    HW130635   0.848   1.117  13.146 -1.8826 -1.8721 -1.8141
 6392SOL    HW230636   0.866   1.094  13.005  0.6155  0.1211 -0.2165
 6393SOL     OW30637   1.145   2.425   2.455  0.4629  0.5078  0.0307
 6393SOL    HW130638   1.105   2.419   2.369 -0.8444  0.7696  0.6179
 6393SOL    HW230639   1.076   2.400   2.517  1.0334  1.2489  0.9694
 6394SOL     OW30640   2.933   1.286   6.960 -0.2535 -0.0479  0.0576
 6394SOL    HW130641   2.839   1.266   6.962 -0.0202 -1.1084  0.6889
 6394SOL    HW230642   2.959   1.226   7.030 -0.8565  0.4257  0.6949
 6395SOL     OW30643   4.470   4.410  11.687  0.8497 -0.3135 -0.2349
 6395SOL    HW130644   4.377   4.388  11.692  1.4245 -2.4326  1.1754
 6395SOL    HW230645   4.501   4.337  11.633 -1.5798 -1.1864 -0.4451
 6396SOL     OW30646   0.022   4.712   3.030  0.2464  0.0723 -0.5075
 6396SOL    HW130647   4.701   4.679   3.110  0.4726  1.5506  0.2188
 6396SOL    HW230648   0.076   4.641   2.994 -1.1225 -1.3992  0.3101
 6397SOL     OW30649   1.810   4.183   5.517 -0.1248  0.1661 -0.0780
 6397SOL    HW130650   1.792   4.267   5.474  0.9493 -0.4023 -1.6727
 6397SOL    HW230651   1.877   4.208   5.580  0.6421 -2.1804  0.0528
 6398SOL     OW30652   1.706   4.543  16.769  0.4372  0.2730 -0.0825
 6398SOL    HW130653   1.683   4.464  16.719 -1.0846  0.7296 -0.1040
 6398SOL    HW230654   1.623   4.591  16.762 -0.3428 -1.0463 -0.0937
 6399SOL     OW30655   0.757   4.474   9.421  0.0629  0.2392  0.4401
 6399SOL    HW130656   0.833   4.421   9.400 -0.7163 -0.6755 -0.0975
 6399SOL    HW230657   0.693   4.405   9.439  0.8846 -0.7934 -0.6422
 6400SOL     OW30658   4.280   1.795   0.641  0.2005  0.1746 -0.2672
 6400SOL    HW130659   4.201   1.762   0.597  0.0830 -0.6140  0.5378
 6400SOL    HW230660   4.346   1.737   0.603  0.4226  0.3000 -0.0670
 6401SOL     OW30661   3.301   3.077   8.827 -0.1845  0.1034 -0.2185
 6401SOL    HW130662   3.227   3.056   8.883  0.7261 -1.9237  0.2448
 6401SOL    HW230663   3.359   3.003   8.805 -0.4980 -1.1764  3.3977
 6402SOL     OW30664   3.692   3.668   7.196  0.7932 -0.1565  0.6906
 6402SOL    HW130665   3.711   3.581   7.161 -1.1015  0.5071 -2.0790
 6402SOL    HW230666   3.604   3.657   7.233 -0.8790  0.6686 -2.9717
 6403SOL     OW30667   4.645   3.865   5.382 -0.1380 -0.3967 -0.2675
 6403SOL    HW130668   4.598   3.836   5.305 -1.4450  0.0944  0.3436
 6403SOL    HW230669   0.013   3.837   5.360 -0.3947 -1.3559 -0.0979
 6404SOL     OW30670   1.091   0.620  12.284 -0.0842  0.3273 -0.4675
 6404SOL    HW130671   1.003   0.582  12.288 -0.4313  1.3663  2.1078
 6404SOL    HW230672   1.073   0.679  12.357 -0.3081 -0.1425 -0.1385
 6405SOL     OW30673   2.403   2.967   5.639  0.4249 -0.6156  0.2454
 6405SOL    HW130674   2.478   2.978   5.698  0.2423  1.7500  0.0236
 6405SOL    HW230675   2.416   3.033   5.571 -2.1704  0.5629  0.8943
 6406SOL     OW30676   4.196   1.108   5.837  0.3722  0.2859  0.2905
 6406SOL    HW130677   4.120   1.052   5.822  1.0094 -0.4021 -0.3932
 6406SOL    HW230678   4.162   1.160   5.910  1.0466 -0.8777  1.4353
 6407SOL     OW30679   0.348   0.259   5.445  0.4035  0.7298  0.4033
 6407SOL    HW130680   0.415   0.312   5.488 -0.9544  1.9431  1.0157
 6407SOL    HW230681   0.302   0.328   5.397  0.6557  1.2268  0.8730
 6408SOL     OW30682   0.741   3.554   9.293 -0.2457 -0.4414  0.5216
 6408SOL    HW130683   0.646   3.545   9.285 -0.4843  1.6636  1.0798
 6408SOL    HW230684   0.775   3.472   9.329 -3.6810 -1.6276  1.0581
 6409SOL     OW30685   2.783   3.079   2.733  0.0356 -0.1638 -0.1176
 6409SOL    HW130686   2.770   3.170   2.707  1.4166 -0.1900 -0.8922
 6409SOL    HW230687   2.704   3.069   2.786 -0.3941 -2.0838 -1.1212
 6410SOL     OW30688   0.626   0.153   8.406 -0.0873  0.7252 -0.4058
 6410SOL    HW130689   0.627   0.249   8.401 -0.7865  0.8113  1.2693
 6410SOL    HW230690   0.700   0.139   8.347  0.8133  1.0296  0.6526
 6411SOL     OW30691   3.260   3.962   5.370  0.3673  0.0897 -0.1451
 6411SOL    HW130692   3.169   3.934   5.369  0.0221  1.1962 -0.0892
 6411SOL    HW230693   3.256   4.049   5.329  0.7861 -0.4102 -1.2277
 6412SOL     OW30694   2.766   2.404  10.817 -0.1895  0.4016  0.9758
 6412SOL    HW130695   2.806   2.480  10.859  0.0865  0.7993 -0.0045
 6412SOL    HW230696   2.694   2.437  10.763  0.5731 -2.6357 -1.8924
 6413SOL     OW30697   1.944   1.749  12.717  0.4617  0.0313  0.4200
 6413SOL    HW130698   2.009   1.753  12.788 -0.7353 -0.5944  1.5620
 6413SOL    HW230699   1.924   1.843  12.718 -0.9601 -0.2733  1.4558
 6414SOL     OW30700   2.660   3.504   4.356 -0.4238  0.6443  0.1722
 6414SOL    HW130701   2.718   3.555   4.412 -0.2270  0.1636  0.4089
 6414SOL    HW230702   2.652   3.429   4.414  0.6318 -0.0602 -0.5791
 6415SOL     OW30703   2.822   0.219  12.534 -0.3370  0.3588 -0.2176
 6415SOL    HW130704   2.843   0.258  12.449 -0.7526 -0.3439 -0.6425
 6415SOL    HW230705   2.727   0.224  12.528 -0.3199  1.0338  0.1556
 6416SOL     OW30706   1.352   0.354   4.965 -0.1457 -0.0034  0.3338
 6416SOL    HW130707   1.288   0.380   4.899  0.0071  2.1558  1.0447
 6416SOL    HW230708   1.376   0.434   5.011 -2.0265 -0.6643  2.4752
 6417SOL     OW30709   1.110   2.391   2.985  0.1741 -0.2418 -0.1872
 6417SOL    HW130710   1.103   2.385   2.890  0.0660  0.4359 -0.2222
 6417SOL    HW230711   1.120   2.299   3.008 -0.5885  0.2014  1.9121
 6418SOL     OW30712   3.985   2.623  13.771  0.4610  0.2548  0.3549
 6418SOL    HW130713   3.909   2.615  13.713  0.1869 -1.4267  0.9596
 6418SOL    HW230714   3.950   2.662  13.851 -1.6069  1.5824 -1.1842
 6419SOL     OW30715   2.871   4.092   6.810 -0.6227 -0.1092 -0.1779
 6419SOL    HW130716   2.842   4.056   6.726  2.5279 -0.0851 -1.2821
 6419SOL    HW230717   2.892   4.016   6.864  3.8212  1.0815 -0.2040
 6420SOL     OW30718   0.364   4.591   8.510  0.7050 -0.2339  0.2532
 6420SOL    HW130719   0.365   4.678   8.470  1.2771  0.1098  1.0166
 6420SOL    HW230720   0.271   4.570   8.505  0.8755 -1.0777  0.5273
 6421SOL     OW30721   0.027   2.255  13.529  0.1431  0.9130 -0.2749
 6421SOL    HW130722   0.099   2.239  13.590 -0.5367  1.6266  0.6900
 6421SOL    HW230723   0.046   2.178  13.474 -1.5077 -0.7875  1.5244
 6422SOL     OW30724   3.257   2.052   4.822 -0.2173  0.2270 -0.4898
 6422SOL    HW130725   3.170   2.086   4.801 -0.0325  0.8766 -0.2252
 6422SOL    HW230726   3.304   2.135   4.838  0.7505 -0.2177 -1.0167
 6423SOL     OW30727   1.145   1.221   7.646 -0.5209  0.3610 -0.0202
 6423SOL    HW130728   1.072   1.211   7.586  0.7751 -1.3907 -1.2917
 6423SOL    HW230729   1.208   1.153   7.622 -2.3272 -1.8710  1.5670
 6424SOL     OW30730   4.633   3.846  11.349  0.3260 -0.2341  0.2353
 6424SOL    HW130731   4.578   3.784  11.302 -0.4974  0.8223 -0.1838
 6424SOL    HW230732   4.677   3.780  11.403  1.0313  1.9049  2.2712
 6425SOL     OW30733   3.363   4.003   1.165 -1.2014  0.0913  0.2095
 6425SOL    HW130734   3.438   3.944   1.158  0.4221  1.9809  1.2464
 6425SOL    HW230735   3.413   4.073   1.209 -2.2477 -0.5504  2.4090
 6426SOL     OW30736   1.509   1.169   8.752  0.3438 -0.1232 -0.4907
 6426SOL    HW130737   1.538   1.078   8.760 -0.4343 -0.4540 -1.3522
 6426SOL    HW230738   1.548   1.193   8.668  0.0767 -0.1740 -0.6312
 6427SOL     OW30739   3.910   0.338  17.019 -0.0644 -0.3087  0.7193
 6427SOL    HW130740   3.862   0.306  17.095  2.8652  1.0377  3.1430
 6427SOL    HW230741   3.919   0.433  17.031  0.5102 -0.2339 -0.3192
 6428SOL     OW30742   1.814   3.239   3.982  0.0922 -0.0209  0.0607
 6428SOL    HW130743   1.861   3.268   3.904 -3.0252  2.3076 -0.9453
 6428SOL    HW230744   1.819   3.312   4.045  1.4044 -0.1658  0.1215
 6429SOL     OW30745   4.421   2.890   2.279  0.0673 -0.3477  0.1137
 6429SOL    HW130746   4.384   2.977   2.264  0.9592  0.1122  0.5965
 6429SOL    HW230747   4.348   2.843   2.320  1.1562 -1.7951  0.3926
 6430SOL     OW30748   2.816   3.201   5.784  0.7327  0.1140 -0.1087
 6430SOL    HW130749   2.877   3.211   5.711  0.8246 -2.5322 -0.4057
 6430SOL    HW230750   2.865   3.228   5.862 -1.7204  1.0153  1.1166
 6431SOL     OW30751   1.396   2.375   8.239  0.1168  0.0685  0.6197
 6431SOL    HW130752   1.358   2.430   8.308 -0.8298 -1.7459  1.5287
 6431SOL    HW230753   1.476   2.422   8.218 -0.3075  0.8082  0.6482
 6432SOL     OW30754   3.972   0.057  12.375  0.2573  0.0883  0.1010
 6432SOL    HW130755   3.878   0.038  12.382  0.6275 -1.9841 -0.6521
 6432SOL    HW230756   3.992   4.687  12.397 -0.5790  0.2285  1.4226
 6433SOL     OW30757   4.449   3.707   9.559 -0.4593  0.0321  0.3133
 6433SOL    HW130758   4.445   3.613   9.573  2.1068 -0.0116  0.8230
 6433SOL    HW230759   4.429   3.737   9.648 -1.3156  1.1793 -0.2712
 6434SOL     OW30760   1.573   0.744   6.442  0.2566 -0.5466  0.1135
 6434SOL    HW130761   1.487   0.747   6.482  0.7888 -1.7109  1.3421
 6434SOL    HW230762   1.553   0.744   6.349 -0.8406 -1.6076  0.3544
 6435SOL     OW30763   2.965   3.283   7.452  0.4755 -0.2933  0.5016
 6435SOL    HW130764   2.962   3.318   7.541  1.8084  0.4764  0.2416
 6435SOL    HW230765   2.869   3.278   7.445  0.3184  3.5891 -0.2631
 6436SOL     OW30766   0.696   0.274  16.633  0.4654 -0.4660 -0.4136
 6436SOL    HW130767   0.724   0.185  16.655  0.4627 -1.1517 -3.0620
 6436SOL    HW230768   0.758   0.323  16.687  1.2517 -0.8045 -0.9859
 6437SOL     OW30769   2.338   0.610   9.836 -0.4172 -0.6308  0.4073
 6437SOL    HW130770   2.369   0.686   9.886  0.0161 -1.1946  0.9856
 6437SOL    HW230771   2.316   0.550   9.907  1.6870  0.6839  2.1874
 6438SOL     OW30772   1.822   4.714   7.734 -0.3255 -0.1767 -0.1886
 6438SOL    HW130773   1.846   0.077   7.695 -0.2953 -0.7451 -1.4089
 6438SOL    HW230774   1.785   0.018   7.818  0.8785 -3.4735  1.3481
 6439SOL     OW30775   2.779   2.276   3.473  0.2396  0.1992  0.1087
 6439SOL    HW130776   2.738   2.317   3.397 -1.8311  0.5435  1.4407
 6439SOL    HW230777   2.851   2.338   3.485 -1.2282  1.9217  0.0713
 6440SOL     OW30778   2.703   2.206  13.488  0.3295  0.0748  0.0381
 6440SOL    HW130779   2.682   2.289  13.446 -1.7258 -0.4894 -0.0631
 6440SOL    HW230780   2.658   2.155  13.420  2.3729  1.3382 -2.2368
 6441SOL     OW30781   2.107   0.771  13.076 -0.0294  0.4454  0.6855
 6441SOL    HW130782   2.073   0.690  13.115  1.1442 -0.8995 -1.0938
 6441SOL    HW230783   2.171   0.789  13.144 -0.6108  0.7723  1.1448
 6442SOL     OW30784   1.072   2.376   6.238 -0.4353 -0.1934 -0.2125
 6442SOL    HW130785   1.054   2.348   6.148 -1.8717 -1.6807  0.5501
 6442SOL    HW230786   1.162   2.408   6.231 -0.2740 -0.8467 -1.1320
 6443SOL     OW30787   3.353   4.141  10.423 -0.0099  0.1829  0.2803
 6443SOL    HW130788   3.392   4.203  10.484 -1.1941  2.0448 -0.8683
 6443SOL    HW230789   3.398   4.060  10.447 -2.6532 -0.5710  2.6495
 6444SOL     OW30790   0.085   3.338  11.849 -0.3817 -0.1151  0.3384
 6444SOL    HW130791   0.133   3.400  11.795 -1.6992 -0.7852 -1.6048
 6444SOL    HW230792   0.087   3.259  11.794  2.4013  0.7076 -0.7320
 6445SOL     OW30793   1.549   2.084   2.388 -0.2458 -0.0372 -0.3657
 6445SOL    HW130794   1.621   2.146   2.395  0.7362 -1.2357  0.3093
 6445SOL    HW230795   1.475   2.126   2.432 -0.0516  1.6712 -1.6751
 6446SOL     OW30796   3.151   0.788   8.267 -0.4827 -0.4971  0.1715
 6446SOL    HW130797   3.243   0.764   8.267 -0.1171  0.9246 -0.5475
 6446SOL    HW230798   3.163   0.882   8.264  0.1606 -0.4471  3.9815
 6447SOL     OW30799   2.081   1.079   1.877 -0.1749 -0.4363  0.0853
 6447SOL    HW130800   2.001   1.085   1.929  0.5858 -1.9030  1.4286
 6447SOL    HW230801   2.045   1.026   1.805 -0.9342 -0.3823  0.4282
 6448SOL     OW30802   1.845   1.965   2.720  0.1712  0.2343  0.1386
 6448SOL    HW130803   1.754   1.990   2.705 -0.1445 -0.9970  0.0411
 6448SOL    HW230804   1.833   1.893   2.782  1.0659  2.0502  2.4653
 6449SOL     OW30805   1.617   1.245   4.333 -0.3328  0.3778  0.6382
 6449SOL    HW130806   1.617   1.276   4.242  1.4714  1.2911  0.9325
 6449SOL    HW230807   1.584   1.327   4.371 -0.7462  1.5950 -2.3185
 6450SOL     OW30808   0.023   2.221   0.483  0.4964  0.1872  0.0769
 6450SOL    HW130809   0.020   2.304   0.531 -3.7979 -0.8830  1.7206
 6450SOL    HW230810   0.072   2.238   0.403 -0.0750  1.0235 -0.0989
 6451SOL     OW30811   3.231   0.511   2.746  0.8503  0.4985  0.6253
 6451SOL    HW130812   3.210   0.575   2.678 -1.4665  0.5888  1.4299
 6451SOL    HW230813   3.325   0.531   2.750  1.1737 -1.3477  2.2937
 6452SOL     OW30814   3.295   1.982  11.325 -0.1181  0.0414  0.2792
 6452SOL    HW130815   3.353   1.951  11.256 -2.2485  1.1047 -2.0064
 6452SOL    HW230816   3.258   2.064  11.290  0.5502 -1.0394 -2.9217
 6453SOL     OW30817   3.199   0.064  15.109 -0.0618 -0.3104  0.4439
 6453SOL    HW130818   3.108   0.037  15.097  1.1484 -3.5244 -1.4627
 6453SOL    HW230819   3.200   0.157  15.086  2.1297 -0.4267  0.0226
 6454SOL     OW30820   1.019   4.420   9.202 -0.3034  0.5615  0.0842
 6454SOL    HW130821   1.048   4.465   9.282 -0.8739  1.6339 -0.3060
 6454SOL    HW230822   0.972   4.490   9.157 -2.1179 -0.1321  0.9316
 6455SOL     OW30823   3.196   3.475   0.865 -0.3102  0.0449 -0.4855
 6455SOL    HW130824   3.238   3.455   0.949 -1.6787  2.6211  0.8438
 6455SOL    HW230825   3.206   3.571   0.869  0.5077  0.0395 -2.6094
 6456SOL     OW30826   2.125   0.907   2.441 -0.4900  0.0023  0.1442
 6456SOL    HW130827   2.091   0.864   2.363 -1.2074  1.3314 -0.2719
 6456SOL    HW230828   2.064   0.879   2.509 -0.3850  0.0907  0.2750
 6457SOL     OW30829   3.340   1.578  10.380  0.2960  0.0775  0.1452
 6457SOL    HW130830   3.296   1.519  10.319  0.2144 -0.3615  0.6299
 6457SOL    HW230831   3.268   1.603  10.437  0.6876  1.5038  0.0076
 6458SOL     OW30832   2.395   2.980   7.501  0.6239 -0.2149  0.0988
 6458SOL    HW130833   2.447   2.916   7.454  0.4677  0.0488 -0.4278
 6458SOL    HW230834   2.429   3.064   7.472  2.7749 -1.6752 -1.5808
 6459SOL     OW30835   2.325   4.546   7.853  0.0149  0.0520  0.3308
 6459SOL    HW130836   2.377   4.565   7.931  0.7284  1.0674 -0.3991
 6459SOL    HW230837   2.286   4.465   7.885 -0.9308  0.2463 -0.3405
 6460SOL     OW30838   3.696   0.112   9.691 -0.8707  0.5024 -0.3087
 6460SOL    HW130839   3.629   0.179   9.697 -0.8089  0.4105  1.3460
 6460SOL    HW230840   3.778   0.161   9.684 -1.0697  0.7607 -0.8131
 6461SOL     OW30841   0.590   1.104   0.220  0.0167  0.0314  0.6544
 6461SOL    HW130842   0.600   1.112   0.125  1.2202  0.2135  0.7922
 6461SOL    HW230843   0.517   1.157   0.249 -0.3332 -0.3052  0.3889
 6462SOL     OW30844   1.621   0.265   7.122 -0.5451  0.3500 -0.8948
 6462SOL    HW130845   1.543   0.311   7.092 -0.1433  2.2665  0.9981
 6462SOL    HW230846   1.620   0.196   7.055  0.3272 -0.6585  0.1382
 6463SOL     OW30847   0.487   2.102  13.325 -0.1337  0.3574 -0.0401
 6463SOL    HW130848   0.469   2.009  13.309 -3.1393  0.5771  2.0201
 6463SOL    HW230849   0.481   2.097  13.420 -1.2962 -1.3884 -0.1975
 6464SOL     OW30850   0.552   1.408   4.257 -0.1116  0.1018  0.0148
 6464SOL    HW130851   0.605   1.330   4.243 -1.4827 -0.4620 -1.9732
 6464SOL    HW230852   0.463   1.381   4.237 -0.4678  0.7564  0.7138
 6465SOL     OW30853   2.009   2.352   4.271 -0.0578  0.0072 -0.3572
 6465SOL    HW130854   2.016   2.443   4.299 -0.1931 -0.0033 -0.2882
 6465SOL    HW230855   2.100   2.325   4.282 -0.2336  0.2748  1.7461
 6466SOL     OW30856   3.004   1.831   5.480 -0.6296  0.5233  0.4080
 6466SOL    HW130857   2.977   1.742   5.455  1.5374  0.0717 -0.3011
 6466SOL    HW230858   3.030   1.806   5.569 -0.5597 -0.3995  0.1333
 6467SOL     OW30859   4.298   4.629   2.407 -0.5542  0.1166 -0.3246
 6467SOL    HW130860   4.225   4.608   2.466  0.1648 -0.8508  0.2172
 6467SOL    HW230861   4.285   4.579   2.326  0.3694  2.0096 -1.6307
 6468SOL     OW30862   0.228   0.698  14.242 -0.3886  0.2973  0.3815
 6468SOL    HW130863   0.292   0.708  14.313 -1.0955 -0.4953  1.1475
 6468SOL    HW230864   0.281   0.671  14.167  0.1038 -0.7970  1.1186
 6469SOL     OW30865   3.103   1.388  12.766 -0.4712 -0.4547 -0.2952
 6469SOL    HW130866   3.056   1.321  12.815 -1.5152  0.1767 -0.4423
 6469SOL    HW230867   3.068   1.468  12.804 -0.4239  0.2147 -1.6530
 6470SOL     OW30868   3.927   2.431   6.750  0.8531  0.2764  0.7405
 6470SOL    HW130869   3.897   2.391   6.831 -2.6690  0.0570 -0.6777
 6470SOL    HW230870   3.857   2.419   6.686  0.4606  0.6566  1.0984
 6471SOL     OW30871   1.626   2.760  12.440 -0.1819  0.6399  0.0552
 6471SOL    HW130872   1.636   2.667  12.420  0.0972  0.3241  1.6623
 6471SOL    HW230873   1.713   2.797  12.427  0.9069 -2.4682 -1.4673
 6472SOL     OW30874   1.992   2.061   8.309 -0.7201 -0.1298  0.1452
 6472SOL    HW130875   1.915   2.079   8.255 -0.2703  0.0507 -0.4440
 6472SOL    HW230876   1.993   2.136   8.369 -0.6985  0.3966 -0.5068
 6473SOL     OW30877   0.264   2.976   0.044  0.0664 -0.2148 -0.3265
 6473SOL    HW130878   0.263   2.922  17.651  3.0635  0.1443 -0.5982
 6473SOL    HW230879   0.171   2.994   0.058 -0.0172 -0.0105 -1.1221
 6474SOL     OW30880   2.387   0.923  16.887 -0.6353 -0.3457 -0.3154
 6474SOL    HW130881   2.302   0.896  16.851 -0.8649  1.0722 -0.8114
 6474SOL    HW230882   2.387   0.867  16.965  1.9617  1.3018  0.8457
 6475SOL     OW30883   3.019   4.572  13.386  0.2166 -0.4037 -0.2074
 6475SOL    HW130884   3.072   4.506  13.342  1.8356  0.9293 -0.2541
 6475SOL    HW230885   3.037   4.655  13.341 -1.3588  0.7426  1.2881
 6476SOL     OW30886   3.483   3.305  15.972  0.1377 -0.1181  0.0863
 6476SOL    HW130887   3.423   3.364  15.927  0.4677 -0.5606 -0.9347
 6476SOL    HW230888   3.566   3.345  15.949 -0.3085  0.4728 -0.5069
 6477SOL     OW30889   1.276   4.315   9.031 -0.0378  0.3372  0.6457
 6477SOL    HW130890   1.214   4.318   9.104  0.7902  1.6509  1.3089
 6477SOL    HW230891   1.214   4.306   8.959  1.6321  0.2737 -0.7685
 6478SOL     OW30892   2.779   2.192   8.476 -0.6930 -0.5505 -0.2342
 6478SOL    HW130893   2.788   2.284   8.502 -2.3029 -0.4698  0.0701
 6478SOL    HW230894   2.873   2.177   8.470 -0.6710 -0.8706  0.8786
 6479SOL     OW30895   2.695   3.978  13.839  0.1864 -0.4329  0.2446
 6479SOL    HW130896   2.755   3.979  13.764  0.2208 -1.3364  0.2573
 6479SOL    HW230897   2.755   3.984  13.913  0.8083 -0.1879 -0.2726
 6480SOL     OW30898   0.744   3.505   5.062 -0.0519  0.0335 -0.3153
 6480SOL    HW130899   0.785   3.419   5.064 -2.1528 -0.9415  1.5031
 6480SOL    HW230900   0.812   3.572   5.054 -0.1135  0.1846  0.4510
 6481SOL     OW30901   4.094   3.046   7.469  0.1567 -0.5908 -0.1122
 6481SOL    HW130902   4.157   3.039   7.397  2.2473  2.8709  1.3900
 6481SOL    HW230903   4.149   2.983   7.516 -0.4007 -0.2804  0.9326
 6482SOL     OW30904   2.055   3.712   6.115 -0.1074 -0.1008 -0.5686
 6482SOL    HW130905   2.017   3.627   6.092  0.8782 -1.3772  2.5599
 6482SOL    HW230906   2.129   3.673   6.161 -0.2292 -0.8571 -1.0094
 6483SOL     OW30907   4.526   0.297  12.686 -0.2568 -0.1603  0.2709
 6483SOL    HW130908   4.557   0.305  12.596  0.8610 -0.3110  0.6427
 6483SOL    HW230909   4.464   0.224  12.685  1.2293 -1.4116 -2.1724
 6484SOL     OW30910   1.176   1.835  13.311  0.3131  0.0797  0.3852
 6484SOL    HW130911   1.262   1.869  13.335  0.0544  1.7660 -1.0360
 6484SOL    HW230912   1.126   1.888  13.373  1.7530 -0.0245  1.6064
 6485SOL     OW30913   3.050   0.199   5.086 -0.4043  0.0726  0.0015
 6485SOL    HW130914   3.049   0.141   5.162  0.1740 -0.0880 -0.1079
 6485SOL    HW230915   2.963   0.239   5.087  0.0499  1.0799 -0.4612
 6486SOL     OW30916   0.546   0.959   6.599 -0.0219  0.1272 -0.5538
 6486SOL    HW130917   0.469   0.906   6.577  0.0704 -0.3915  0.3771
 6486SOL    HW230918   0.551   0.930   6.690  0.4584 -0.9989 -0.9364
 6487SOL     OW30919   3.741   2.635   7.384  0.8693  0.5431  0.3917
 6487SOL    HW130920   3.646   2.627   7.394  1.0246 -1.3015  0.3397
 6487SOL    HW230921   3.768   2.576   7.454 -1.8606  0.5007  1.4250
 6488SOL     OW30922   3.358   3.881   5.684  1.0551  0.2116 -0.6618
 6488SOL    HW130923   3.271   3.901   5.718  0.8193  1.4892 -1.9739
 6488SOL    HW230924   3.366   3.950   5.618 -1.8716 -1.4475 -2.7250
 6489SOL     OW30925   3.441   3.626   9.916  0.8205  0.2096  0.4825
 6489SOL    HW130926   3.468   3.545   9.959  1.2409  0.9936  1.6896
 6489SOL    HW230927   3.486   3.607   9.834 -2.1223  1.0459 -1.3187
 6490SOL     OW30928   0.495   2.328   1.087  0.2499 -0.4192  0.1841
 6490SOL    HW130929   0.536   2.350   1.003 -0.5137 -0.8574 -0.3055
 6490SOL    HW230930   0.432   2.399   1.101 -0.4282 -0.8866 -0.4665
 6491SOL     OW30931   1.328   0.513  14.846  0.5465 -0.5152 -0.2392
 6491SOL    HW130932   1.316   0.421  14.870 -0.5223 -0.0410  1.0588
 6491SOL    HW230933   1.238   0.546  14.841  0.6474 -0.1536  0.4015
 6492SOL     OW30934   4.052   4.160  13.290  0.0342 -0.8980 -0.2345
 6492SOL    HW130935   4.015   4.182  13.204  1.1464  0.3587 -0.3877
 6492SOL    HW230936   4.014   4.074  13.308 -2.5299 -0.0769 -1.6430
 6493SOL     OW30937   1.721   0.573   7.702  0.6993 -0.8505  0.2730
 6493SOL    HW130938   1.787   0.583   7.771  1.5102 -0.7285 -0.5165
 6493SOL    HW230939   1.656   0.512   7.737 -0.3406 -0.0441 -0.2267
 6494SOL     OW30940   3.947   4.655   2.159 -0.3836 -0.1771 -0.6406
 6494SOL    HW130941   4.032   4.625   2.128 -0.1957 -0.2533 -0.0463
 6494SOL    HW230942   3.966   4.719   2.227 -0.1160  0.3570 -1.2132
 6495SOL     OW30943   1.797   4.234   8.394  0.5488 -0.4033  0.4033
 6495SOL    HW130944   1.742   4.202   8.322  2.0662 -0.7219 -0.6025
 6495SOL    HW230945   1.754   4.188   8.467 -0.9494  0.3177 -0.0253
 6496SOL     OW30946   1.088   1.634   5.286 -0.5440 -0.4706  0.4263
 6496SOL    HW130947   1.062   1.637   5.195  1.8547  0.5781 -0.2230
 6496SOL    HW230948   1.184   1.633   5.286 -0.5406 -0.9001  1.2562
 6497SOL     OW30949   2.489   3.854  17.062  0.3670 -0.2375  0.2679
 6497SOL    HW130950   2.514   3.933  17.109 -1.0443  0.0285  0.5577
 6497SOL    HW230951   2.413   3.820  17.108 -0.1843  0.3580 -0.2090
 6498SOL     OW30952   0.382   2.852   8.299  0.0709 -0.5563  0.6071
 6498SOL    HW130953   0.332   2.933   8.287 -0.8596 -1.4573 -1.8672
 6498SOL    HW230954   0.326   2.800   8.240  0.4835 -1.4912  1.0341
 6499SOL     OW30955   0.578   3.703   6.726 -0.2776  0.0643  0.6909
 6499SOL    HW130956   0.486   3.679   6.737 -0.5678  0.3249 -1.1139
 6499SOL    HW230957   0.617   3.629   6.773  0.6389 -0.1579 -0.4333
 6500SOL     OW30958   0.020   3.920   7.010  0.4046 -0.0745  0.3851
 6500SOL    HW130959   0.104   3.886   7.041 -0.1153 -1.7309 -0.0044
 6500SOL    HW230960   0.023   3.890   6.920 -2.2260 -0.9650  0.5931
 6501SOL     OW30961   2.289   3.018   1.996 -0.1758 -0.1634 -0.0517
 6501SOL    HW130962   2.198   2.993   2.011  0.1835 -2.5276 -1.7534
 6501SOL    HW230963   2.274   3.093   1.939  0.3198 -0.8594 -1.1025
 6502SOL     OW30964   4.484   1.981   9.995  0.2296  0.7498  0.6868
 6502SOL    HW130965   4.516   2.029  10.072  0.7650 -0.3039  1.1200
 6502SOL    HW230966   4.441   1.909  10.041  0.6552  0.2154  0.2403
 6503SOL     OW30967   0.353   2.534  16.036  0.6020  0.2304  0.7816
 6503SOL    HW130968   0.402   2.559  15.958 -1.2953 -2.0265 -1.1427
 6503SOL    HW230969   0.345   2.439  16.030  1.2661  0.1337  1.4383
 6504SOL     OW30970   2.286   2.637   0.647  0.0324 -0.6039  0.1850
 6504SOL    HW130971   2.251   2.633   0.558 -1.0884 -0.3254  0.6064
 6504SOL    HW230972   2.305   2.545   0.665  0.3776 -0.4766  0.4712
 6505SOL     OW30973   4.355   3.561   7.855 -0.0028 -0.1087  0.1667
 6505SOL    HW130974   4.368   3.473   7.890  1.8756 -0.1342 -0.6104
 6505SOL    HW230975   4.401   3.612   7.921 -1.9056  1.0237  0.6509
 6506SOL     OW30976   0.799   2.655  11.830 -0.1467 -0.1073  0.3158
 6506SOL    HW130977   0.884   2.699  11.829 -0.6269  0.8345  0.7453
 6506SOL    HW230978   0.754   2.687  11.752  1.4876  0.9580 -0.1692
 6507SOL     OW30979   3.501   1.150   3.162  0.0948  0.0514  0.1689
 6507SOL    HW130980   3.502   1.065   3.119 -1.8324  0.1489 -0.0844
 6507SOL    HW230981   3.550   1.205   3.101  0.0562  2.3644  2.2118
 6508SOL     OW30982   4.342   4.062   3.260 -0.0703 -0.4248 -0.0228
 6508SOL    HW130983   4.283   4.136   3.246 -2.8509 -2.5295  0.4107
 6508SOL    HW230984   4.358   4.064   3.355 -1.7898  2.0853  0.2156
 6509SOL     OW30985   0.645   0.355   8.043 -0.1683 -0.0737 -0.0673
 6509SOL    HW130986   0.590   0.277   8.033  1.2560 -0.8641 -1.7627
 6509SOL    HW230987   0.736   0.326   8.036  0.1497  0.8808  0.1238
 6510SOL     OW30988   4.612   3.378  12.551 -0.3432  0.0508  0.5100
 6510SOL    HW130989   4.596   3.468  12.525  0.3079 -0.0209 -0.1438
 6510SOL    HW230990   4.526   3.337  12.553 -0.1869 -0.3878 -1.4606
 6511SOL     OW30991   0.934   2.477   5.321 -0.0615  0.1460  0.0143
 6511SOL    HW130992   0.953   2.393   5.279 -0.9063 -0.4227  0.7541
 6511SOL    HW230993   0.903   2.530   5.248  3.5670  0.1673 -1.5042
 6512SOL     OW30994   0.657   2.455  12.995  0.9005  0.1252  0.0336
 6512SOL    HW130995   0.610   2.455  13.079  0.2282  0.0756 -0.3395
 6512SOL    HW230996   0.741   2.491  13.022  0.2258  1.0069  0.9389
 6513SOL     OW30997   1.758   0.570   6.494  0.1248  0.2467 -0.0561
 6513SOL    HW130998   1.722   0.494   6.449 -0.7892  1.3493 -1.2203
 6513SOL    HW230999   1.691   0.636   6.474  1.9463  1.9041 -0.6737
 6514SOL     OW31000   1.399   2.960  14.429  0.0660 -0.0734  0.3074
 6514SOL    HW131001   1.433   2.958  14.339  2.4458 -0.6388  1.2008
 6514SOL    HW231002   1.453   3.031  14.463  0.5694  0.7443 -2.1861
 6515SOL     OW31003   3.033   1.338  14.033  0.2244 -0.2218  0.0868
 6515SOL    HW131004   3.083   1.413  14.065 -0.5318  0.6314 -0.7277
 6515SOL    HW231005   3.075   1.323  13.949 -0.6375  3.1628 -0.9234
 6516SOL     OW31006   2.741   3.934  11.891 -0.2819  0.4215 -0.0480
 6516SOL    HW131007   2.671   3.972  11.838 -1.5404 -1.4639  0.2590
 6516SOL    HW231008   2.808   3.999  11.872 -0.9690  0.5826 -1.8717
 6517SOL     OW31009   4.374   3.075  13.850  0.5239  0.0244 -0.0799
 6517SOL    HW131010   4.379   3.170  13.839  1.8040 -0.1976 -1.5201
 6517SOL    HW231011   4.453   3.033  13.815 -0.5030 -0.2848 -2.0280
 6518SOL     OW31012   3.723   1.433   3.405 -0.0173 -0.5830 -0.0372
 6518SOL    HW131013   3.770   1.488   3.342 -1.3428 -0.6972 -1.1217
 6518SOL    HW231014   3.791   1.369   3.430  0.1908 -0.7058 -0.8879
 6519SOL     OW31015   3.292   3.063   3.757  0.6016  0.1996 -0.4525
 6519SOL    HW131016   3.373   3.103   3.726  1.2198  0.1073  1.0433
 6519SOL    HW231017   3.226   3.130   3.741  0.6996  0.6975  1.1816
 6520SOL     OW31018   4.378   3.414  11.054  0.7007  0.0321  0.3681
 6520SOL    HW131019   4.377   3.322  11.083 -0.5667 -0.5713 -1.5716
 6520SOL    HW231020   4.421   3.416  10.968  0.3626  1.9841  0.2536
 6521SOL     OW31021   1.431   4.458   7.243  0.4056  0.0010  0.0456
 6521SOL    HW131022   1.509   4.425   7.199  0.7464 -0.3726  0.9285
 6521SOL    HW231023   1.372   4.456   7.168  0.1157 -0.6411  0.2911
 6522SOL     OW31024   2.398   0.576  15.086 -0.3362  0.5572  0.2239
 6522SOL    HW131025   2.349   0.503  15.125 -0.2862  1.5874  2.2211
 6522SOL    HW231026   2.388   0.561  14.992 -0.4164 -0.3382  0.3797
 6523SOL     OW31027   4.221   3.607   4.977  0.2848  0.1374 -0.2517
 6523SOL    HW131028   4.129   3.619   5.001 -0.0130  0.3217 -1.5318
 6523SOL    HW231029   4.220   3.512   4.987  0.2200  0.2526  0.8785
 6524SOL     OW31030   2.256   0.787   4.638  0.0829 -0.8022 -0.6477
 6524SOL    HW131031   2.275   0.850   4.569 -0.5808  0.5570  0.4141
 6524SOL    HW231032   2.338   0.741   4.655 -0.0308 -0.3140  1.2474
 6525SOL     OW31033   1.764   2.290   7.754  0.0035 -0.1250  0.2726
 6525SOL    HW131034   1.718   2.239   7.687  2.1048 -0.5184 -0.8671
 6525SOL    HW231035   1.747   2.381   7.726 -1.2895 -0.4956 -0.1441
 6526SOL     OW31036   4.399   0.923   6.969  0.2396 -0.2536  0.5072
 6526SOL    HW131037   4.399   0.968   7.054  1.9310 -0.4826  0.6292
 6526SOL    HW231038   4.350   0.841   6.975 -0.4573  0.2077  1.1028
 6527SOL     OW31039   2.242   0.983   4.167  0.0695  0.3314 -0.5528
 6527SOL    HW131040   2.303   0.996   4.239 -0.8618  2.0606 -0.0774
 6527SOL    HW231041   2.273   1.039   4.096 -0.9288  1.1461 -0.3503
 6528SOL     OW31042   2.882   4.507   4.363  0.2285  0.5785 -0.0161
 6528SOL    HW131043   2.968   4.470   4.386  0.5200  0.3121 -1.5450
 6528SOL    HW231044   2.889   4.598   4.393  1.4524 -0.2580  2.2451
 6529SOL     OW31045   4.538   1.439  11.949  0.0549 -0.1669 -0.3962
 6529SOL    HW131046   4.576   1.454  12.035  1.6513 -0.0525 -1.1286
 6529SOL    HW231047   4.447   1.466  11.966  0.8110  1.5605  0.9558
 6530SOL     OW31048   2.794   4.158   1.984 -0.5312 -0.3116  0.0701
 6530SOL    HW131049   2.884   4.133   1.967 -0.3499  0.5769 -0.2772
 6530SOL    HW231050   2.790   4.170   2.079  1.5922 -1.4650  0.3045
 6531SOL     OW31051   1.911   1.823   9.958 -0.2019  0.0009  0.1848
 6531SOL    HW131052   1.984   1.870   9.917  0.9502 -1.3618  0.6834
 6531SOL    HW231053   1.953   1.739   9.977 -2.1031 -1.2163 -1.0089
 6532SOL     OW31054   0.621   1.769  13.084 -0.1445  0.5911 -0.3350
 6532SOL    HW131055   0.625   1.864  13.094  0.5626  0.6193 -0.8867
 6532SOL    HW231056   0.556   1.776  13.015  0.1161 -1.6892 -0.8030
 6533SOL     OW31057   3.484   3.740   4.899 -0.1205 -0.5225 -0.0011
 6533SOL    HW131058   3.416   3.743   4.967 -0.5166  0.2625 -0.4383
 6533SOL    HW231059   3.557   3.722   4.959  1.9737  1.0981 -2.0869
 6534SOL     OW31060   2.030   2.078   3.229  0.4626  0.5070  0.1242
 6534SOL    HW131061   1.986   2.139   3.288 -2.0164  1.9519 -3.2385
 6534SOL    HW231062   2.006   2.099   3.139  3.2163  2.7608 -0.0825
 6535SOL     OW31063   4.088   0.701   5.794  0.5549 -0.0551 -0.2888
 6535SOL    HW131064   4.098   0.662   5.881 -1.0665  0.3336  0.0771
 6535SOL    HW231065   4.032   0.776   5.812  0.8193 -0.0279  0.4486
 6536SOL     OW31066   0.363   4.268   6.022 -0.5140  0.5728 -0.1054
 6536SOL    HW131067   0.422   4.303   5.955 -0.1106 -0.4351 -0.2767
 6536SOL    HW231068   0.412   4.301   6.097 -0.8189  0.3436  0.1979
 6537SOL     OW31069   4.370   1.132   9.681 -0.0232 -0.0493  0.0655
 6537SOL    HW131070   4.308   1.199   9.651 -1.6847 -2.0444 -0.9919
 6537SOL    HW231071   4.378   1.153   9.774  0.9407 -0.4162  0.0546
 6538SOL     OW31072   4.481   1.222   8.154 -0.1288  0.2397  0.1000
 6538SOL    HW131073   4.482   1.294   8.218  0.1207  0.8820 -0.6187
 6538SOL    HW231074   4.552   1.244   8.094  0.3497 -1.6769 -0.0081
 6539SOL     OW31075   2.180   4.576   5.333 -0.1218  0.3749  0.2303
 6539SOL    HW131076   2.131   4.608   5.257 -0.5430 -2.0994 -0.5270
 6539SOL    HW231077   2.155   4.644   5.396  0.3040 -0.7553  1.6402
 6540SOL     OW31078   0.047   4.347  13.219 -0.1212  0.5456  0.0764
 6540SOL    HW131079   4.712   4.423  13.204 -0.0019  0.9982  1.9037
 6540SOL    HW231080   0.007   4.305  13.296 -1.6285 -0.1128 -1.0714
 6541SOL     OW31081   0.601   2.160   2.309 -0.1348 -0.2395 -0.4866
 6541SOL    HW131082   0.650   2.079   2.324  2.3109  1.1432 -0.9903
 6541SOL    HW231083   0.628   2.170   2.217  1.5062 -0.3872 -0.0111
 6542SOL     OW31084   0.484   0.680  17.257 -0.3303 -0.2691  0.5725
 6542SOL    HW131085   0.416   0.721  17.311 -0.0428  1.8302 -0.6965
 6542SOL    HW231086   0.463   0.586  17.260 -2.0993  0.0098 -3.1535
 6543SOL     OW31087   3.480   3.078   2.357 -0.6134 -0.0370  0.1646
 6543SOL    HW131088   3.438   3.131   2.424  2.3101  1.4009  0.8539
 6543SOL    HW231089   3.414   3.076   2.288  0.6074  0.6350 -1.0287
 6544SOL     OW31090   4.705   1.139   7.091  0.3393  0.4570 -0.0727
 6544SOL    HW131091   4.719   1.233   7.081 -0.4806  0.4603 -1.3074
 6544SOL    HW231092   0.052   1.091   7.043  1.1576  2.0121 -0.4687
 6545SOL     OW31093   0.147   3.500   8.552  0.6006 -0.2329 -0.3020
 6545SOL    HW131094   0.056   3.496   8.581  2.0559  0.0944  4.2535
 6545SOL    HW231095   0.172   3.575   8.606 -0.3517 -0.0343 -0.1338
 6546SOL     OW31096   4.207   2.422  17.117  0.3698 -0.3196  0.0181
 6546SOL    HW131097   4.293   2.382  17.129  1.4910  1.6815 -1.3417
 6546SOL    HW231098   4.208   2.509  17.156  2.2117 -1.3658  2.3596
 6547SOL     OW31099   2.803   2.951   4.930  0.1249  0.1538  0.0459
 6547SOL    HW131100   2.807   3.047   4.930  1.2694  0.0947  2.1611
 6547SOL    HW231101   2.814   2.924   5.021  2.9694 -1.8960 -0.9350
 6548SOL     OW31102   3.511   1.946   4.579  0.1818  0.0481  0.4201
 6548SOL    HW131103   3.540   1.904   4.660  0.9516 -1.0701 -0.4342
 6548SOL    HW231104   3.578   1.923   4.515 -0.7318  3.1454 -1.6807
 6549SOL     OW31105   4.497   0.823   9.708  0.1809  0.1944 -0.3030
 6549SOL    HW131106   4.449   0.748   9.745 -0.8948  0.6291 -0.8169
 6549SOL    HW231107   4.585   0.789   9.693  0.1904 -1.6983  3.8722
 6550SOL     OW31108   3.412   0.283   6.926 -0.0121  0.0635 -0.3096
 6550SOL    HW131109   3.451   0.350   6.869 -0.0267  0.6077  0.3103
 6550SOL    HW231110   3.460   0.297   7.008 -0.0159 -1.4287 -0.0538
 6551SOL     OW31111   4.402   3.470  11.924  0.1844 -0.4494 -0.0260
 6551SOL    HW131112   4.362   3.476  12.011  2.1317 -0.8023  0.8866
 6551SOL    HW231113   4.478   3.524  11.947 -1.6614  2.1657  0.0113
 6552SOL     OW31114   3.053   1.318   0.853  0.3135  0.4717  0.0373
 6552SOL    HW131115   3.034   1.258   0.925  1.0844  0.4055  0.1945
 6552SOL    HW231116   3.067   1.263   0.776 -0.4969  0.9201 -0.4363
 6553SOL     OW31117   4.293   0.576   5.114 -0.1433  0.3945  0.1459
 6553SOL    HW131118   4.322   0.523   5.040  0.6290  1.4245 -0.2886
 6553SOL    HW231119   4.253   0.508   5.168  0.2233 -0.7797 -1.0682
 6554SOL     OW31120   4.034   1.999  14.714  0.2935 -0.4902 -0.3818
 6554SOL    HW131121   3.941   1.985  14.731 -0.0313  1.7101 -0.4483
 6554SOL    HW231122   4.074   1.966  14.795  1.0001 -0.1452 -0.5861
 6555SOL     OW31123   2.626   2.152   7.778  0.7265 -0.3888  0.7289
 6555SOL    HW131124   2.622   2.176   7.871  0.5824  0.9003  0.3817
 6555SOL    HW231125   2.620   2.057   7.786 -0.7631 -0.3654 -0.0241
 6556SOL     OW31126   0.409   0.017  15.110 -0.0432 -0.1147  0.5032
 6556SOL    HW131127   0.423   0.086  15.175  0.0356  0.8144 -0.5010
 6556SOL    HW231128   0.314   0.016  15.113 -0.0475 -0.1649  0.3288
 6557SOL     OW31129   2.305   1.823   4.053  0.0596  0.2779 -0.2483
 6557SOL    HW131130   2.308   1.850   3.962 -0.3453  0.9561 -0.0637
 6557SOL    HW231131   2.351   1.740   4.043 -1.1175 -0.2212 -1.4472
 6558SOL     OW31132   1.760   3.112   1.370  0.0870 -0.4920 -0.3660
 6558SOL    HW131133   1.751   3.114   1.465 -0.3100  1.7664 -0.4448
 6558SOL    HW231134   1.669   3.137   1.354 -0.1015 -2.7387 -2.7475
 6559SOL     OW31135   1.378   3.934  13.723  0.7049  0.6338 -0.3209
 6559SOL    HW131136   1.421   3.977  13.649  1.8139  0.0232 -0.0388
 6559SOL    HW231137   1.358   4.015  13.769 -2.2550  1.1584 -2.5374
 6560SOL     OW31138   3.391   3.681   4.191  0.0870 -0.2739 -0.2291
 6560SOL    HW131139   3.371   3.666   4.283  0.2492 -1.7692 -0.4364
 6560SOL    HW231140   3.475   3.725   4.206 -0.3058  0.1226  0.8144
 6561SOL     OW31141   2.078   4.278   4.700  0.3062  0.7233 -0.3366
 6561SOL    HW131142   2.046   4.257   4.612 -1.6465 -0.7375  0.7492
 6561SOL    HW231143   2.127   4.198   4.719 -0.5834  0.4487  0.7904
 6562SOL     OW31144   2.797   4.150   3.236  0.0630 -0.5427 -0.5592
 6562SOL    HW131145   2.784   4.101   3.155  0.0745 -1.1418 -0.1986
 6562SOL    HW231146   2.733   4.102   3.288  1.2050 -1.6495 -0.1732
 6563SOL     OW31147   2.964   3.255   4.362 -0.1277  0.6920 -0.1617
 6563SOL    HW131148   2.900   3.278   4.294 -0.3078  2.2594  0.5337
 6563SOL    HW231149   2.952   3.160   4.369  0.8386  0.7510  2.1227
 6564SOL     OW31150   2.099   0.230   2.612  0.4460  0.1596 -0.4124
 6564SOL    HW131151   2.137   0.143   2.597 -0.0758  0.0516 -1.0700
 6564SOL    HW231152   2.134   0.256   2.697 -0.3706 -0.7772  0.2087
 6565SOL     OW31153   1.482   1.622   9.077 -0.3210 -0.2972 -0.3147
 6565SOL    HW131154   1.392   1.620   9.043 -1.2014  0.5883  1.9844
 6565SOL    HW231155   1.514   1.689   9.016 -3.0598  0.2950 -1.1286
 6566SOL     OW31156   1.250   2.324  15.405  0.5341  0.2581 -0.8970
 6566SOL    HW131157   1.197   2.267  15.350  1.0849  0.0980 -1.2673
 6566SOL    HW231158   1.192   2.384  15.451  0.9012 -0.8443  1.0092
 6567SOL     OW31159   3.296   1.221   4.230 -0.1058 -0.0813 -0.2675
 6567SOL    HW131160   3.366   1.281   4.203 -0.3428  1.3431  2.2203
 6567SOL    HW231161   3.238   1.290   4.262  0.7285  0.4654  0.0664
 6568SOL     OW31162   2.142   3.850   7.619 -0.2033 -0.2884 -0.3038
 6568SOL    HW131163   2.196   3.820   7.692  0.1738  1.1134 -0.0126
 6568SOL    HW231164   2.208   3.906   7.577 -2.2040  2.1768 -0.1954
 6569SOL     OW31165   1.453   0.806  11.026 -0.1146  0.4803 -0.0327
 6569SOL    HW131166   1.389   0.739  11.051 -0.7401  0.1878 -2.4572
 6569SOL    HW231167   1.514   0.753  10.975 -1.0702 -0.3530 -0.3171
 6570SOL     OW31168   3.388   2.280  17.155  0.1031 -0.5421 -0.1258
 6570SOL    HW131169   3.370   2.265  17.248 -1.4370 -0.5737 -0.4310
 6570SOL    HW231170   3.314   2.244  17.107 -0.5537 -0.7769  1.0554
 6571SOL     OW31171   4.103   0.926   7.543 -0.0651  0.1396  0.0305
 6571SOL    HW131172   4.068   0.883   7.465 -0.1480  0.5241 -0.1445
 6571SOL    HW231173   4.171   0.981   7.504 -0.2000  0.3823  0.1413
 6572SOL     OW31174   4.455   1.255  15.797 -0.5771 -0.5133  0.6465
 6572SOL    HW131175   4.512   1.237  15.722  1.0724 -0.6955  1.9541
 6572SOL    HW231176   4.371   1.224  15.761 -0.3071  0.1987 -0.5852
 6573SOL     OW31177   0.855   0.079   2.546  0.3621  0.1006  0.0881
 6573SOL    HW131178   0.906   0.060   2.625 -1.3110  0.5274  1.2505
 6573SOL    HW231179   0.784   0.116   2.598  2.2427  2.1131  1.2577
 6574SOL     OW31180   2.053   3.037  15.624 -0.4284 -0.2565 -0.2013
 6574SOL    HW131181   2.118   2.990  15.571 -2.1577 -0.1583 -2.3730
 6574SOL    HW231182   2.079   2.999  15.708  0.5384 -0.6032 -0.6506
 6575SOL     OW31183   4.517   2.273  12.440 -0.1429  0.1786  0.1929
 6575SOL    HW131184   4.600   2.237  12.472  1.1712  2.7014 -0.2988
 6575SOL    HW231185   4.560   2.349  12.400  0.3887  0.6694  1.6982
 6576SOL     OW31186   1.148   1.527   7.345 -0.3171  0.7608 -0.2999
 6576SOL    HW131187   1.190   1.488   7.422 -2.2137 -0.6343  0.0103
 6576SOL    HW231188   1.140   1.450   7.289  0.1241  0.5024 -0.0102
 6577SOL     OW31189   0.249   4.218   8.818 -0.6018  0.4004 -0.2650
 6577SOL    HW131190   0.246   4.127   8.789  1.1846  0.2283  0.1123
 6577SOL    HW231191   0.325   4.260   8.777 -0.2946 -1.1877 -1.3229
 6578SOL     OW31192   3.870   2.464   6.061 -0.1420  0.5054  0.4258
 6578SOL    HW131193   3.784   2.504   6.060 -0.8199 -0.9392  1.6907
 6578SOL    HW231194   3.920   2.506   6.131  1.8193  2.1282 -1.9038
 6579SOL     OW31195   1.257   4.160   6.151  0.4128  0.0500 -0.0513
 6579SOL    HW131196   1.262   4.098   6.224  0.9806  0.2514  0.0851
 6579SOL    HW231197   1.244   4.108   6.071 -0.9187  1.0503 -0.4748
 6580SOL     OW31198   1.040   2.899  15.551 -0.4096  0.0325 -0.4838
 6580SOL    HW131199   1.095   2.820  15.547  1.5052  1.2496  2.0414
 6580SOL    HW231200   0.963   2.866  15.598  0.0256 -1.3406 -0.7266
 6581SOL     OW31201   3.974   3.910   8.222  0.2800 -0.0701  0.0705
 6581SOL    HW131202   3.911   3.884   8.290  0.4338  1.9245  0.9757
 6581SOL    HW231203   4.011   3.823   8.209  1.8568  0.5956  0.1702
 6582SOL     OW31204   4.343   3.714   0.522 -0.5832  0.5737 -0.3816
 6582SOL    HW131205   4.395   3.638   0.546 -1.5561  0.2297  0.6564
 6582SOL    HW231206   4.407   3.781   0.546 -1.5566  1.1906  0.5204
 6583SOL     OW31207   2.692   4.402   5.296  0.0422  0.0058  0.4731
 6583SOL    HW131208   2.606   4.442   5.310 -0.2489 -0.7406  0.8508
 6583SOL    HW231209   2.716   4.482   5.249 -1.1919 -0.0055 -0.1728
 6584SOL     OW31210   4.066   4.537   2.795  0.0502  0.1422  0.2541
 6584SOL    HW131211   4.071   4.531   2.699 -0.8181 -1.9618  0.3426
 6584SOL    HW231212   4.129   4.603   2.825 -1.1128  0.4351  2.0204
 6585SOL     OW31213   1.542   0.180  12.067  0.5395  0.0567  0.3639
 6585SOL    HW131214   1.546   0.167  12.162 -1.1942 -0.4034  0.3653
 6585SOL    HW231215   1.469   0.241  12.063  1.9570  1.8880  2.0958
 6586SOL     OW31216   0.469   0.059   7.174  0.1003  0.1852 -0.2197
 6586SOL    HW131217   0.424   0.124   7.229 -0.1829  1.1484 -1.5796
 6586SOL    HW231218   0.531   0.029   7.240  0.3737  0.0953 -0.5220
 6587SOL     OW31219   0.881   0.722   3.283  0.1903  0.5300  0.7219
 6587SOL    HW131220   0.923   0.746   3.201  0.4982  1.2532  1.0896
 6587SOL    HW231221   0.802   0.675   3.259 -0.3168  1.2850  0.9109
 6588SOL     OW31222   1.931   0.362   2.404  0.2627  0.0823 -0.2088
 6588SOL    HW131223   1.982   0.440   2.382  0.2411  0.0399 -0.4095
 6588SOL    HW231224   1.990   0.314   2.463 -2.2464 -3.2387 -0.3692
 6589SOL     OW31225   2.094   1.329   2.822 -0.7544 -0.4169  0.3905
 6589SOL    HW131226   2.083   1.281   2.740  1.3076  0.4154 -0.3804
 6589SOL    HW231227   2.157   1.396   2.793 -2.2604 -0.4348 -2.9234
 6590SOL     OW31228   0.944   4.092   5.811  0.0747 -0.0931  0.3398
 6590SOL    HW131229   0.960   4.069   5.902 -2.0004 -0.9017  0.4775
 6590SOL    HW231230   0.877   4.029   5.786 -0.0112  0.0507  0.2052
 6591SOL     OW31231   3.230   2.837   7.818 -0.4008 -0.3355 -0.2990
 6591SOL    HW131232   3.297   2.905   7.820 -0.7506  0.0069 -0.2245
 6591SOL    HW231233   3.289   2.763   7.836  1.1354  1.0485  0.3038
 6592SOL     OW31234   2.233   3.773   2.086  0.4362  0.4658  0.2897
 6592SOL    HW131235   2.189   3.718   2.150  0.1521 -0.4755 -0.7224
 6592SOL    HW231236   2.231   3.848   2.146 -3.8343  1.0527 -0.6389
 6593SOL     OW31237   2.195   0.548   5.102  0.4702 -0.2396  0.3622
 6593SOL    HW131238   2.145   0.508   5.031  0.7868  0.5035 -0.2775
 6593SOL    HW231239   2.188   0.639   5.073 -0.3693 -0.5165 -0.2830
 6594SOL     OW31240   1.868   0.091  16.912  0.5566  0.4245  0.1501
 6594SOL    HW131241   1.778   0.078  16.882  0.6093  0.3946  0.0064
 6594SOL    HW231242   1.881   0.172  16.862  0.1753  1.7857  2.2705
 6595SOL     OW31243   1.463   2.253  10.426  0.4247  0.1310  0.4695
 6595SOL    HW131244   1.528   2.233  10.493  2.0061 -0.1091 -1.1202
 6595SOL    HW231245   1.392   2.200  10.463 -0.2906  0.4558 -0.4507
 6596SOL     OW31246   2.956   1.984  11.917 -0.0228  0.0224 -0.1370
 6596SOL    HW131247   2.904   2.033  11.854 -0.2554  0.4613  0.4006
 6596SOL    HW231248   2.955   1.895  11.880 -0.2254  0.3386 -0.8844
 6597SOL     OW31249   1.731   1.831  13.191  0.1794 -0.3051  0.0220
 6597SOL    HW131250   1.741   1.883  13.271 -0.0104 -0.0774 -0.1035
 6597SOL    HW231251   1.769   1.883  13.120  0.4742 -1.8137 -0.9169
 6598SOL     OW31252   4.545   2.558   7.689  1.1145  0.1792 -0.7137
 6598SOL    HW131253   4.512   2.540   7.601  2.0162 -1.4918 -0.7136
 6598SOL    HW231254   4.479   2.619   7.721  1.2744 -1.0026  1.8371
 6599SOL     OW31255   0.540   1.165  17.628  0.2580  1.2609  0.1509
 6599SOL    HW131256   0.487   1.085  17.634  1.5274  0.3579 -0.6171
 6599SOL    HW231257   0.529   1.177  17.534  0.1689  0.4372  0.0551
 6600SOL     OW31258   0.382   0.597   5.241 -0.6526 -0.0933  0.3513
 6600SOL    HW131259   0.392   0.687   5.269  1.2721  0.2341 -1.3615
 6600SOL    HW231260   0.329   0.565   5.314 -0.8988 -0.6334 -0.0612
 6601SOL     OW31261   3.500   2.235   8.226  0.0816  0.1748 -0.4733
 6601SOL    HW131262   3.521   2.298   8.157 -1.0988  1.6700  0.5358
 6601SOL    HW231263   3.462   2.281   8.301 -0.0224 -2.3288  1.0215
 6602SOL     OW31264   3.403   2.758   1.415  0.2941 -0.6542  0.0659
 6602SOL    HW131265   3.375   2.799   1.496 -0.7265  0.9355 -1.0999
 6602SOL    HW231266   3.324   2.707   1.395  0.9993 -0.1045 -4.2439
 6603SOL     OW31267   2.919   4.020   7.146 -0.3633 -0.1903 -0.2184
 6603SOL    HW131268   2.854   3.989   7.209 -1.7797 -0.9466 -2.0672
 6603SOL    HW231269   2.940   4.105   7.185 -0.3482  1.1071 -3.0146
 6604SOL     OW31270   0.701   0.856   1.697  0.4223 -0.4839  0.5340
 6604SOL    HW131271   0.645   0.912   1.750  0.1599  0.8901 -1.2147
 6604SOL    HW231272   0.633   0.838   1.633  2.1841  0.1270 -1.4959
 6605SOL     OW31273   4.218   1.122   8.117 -0.1555  1.0493  0.1365
 6605SOL    HW131274   4.172   1.140   8.035 -1.1334 -0.8595  0.2588
 6605SOL    HW231275   4.292   1.182   8.115  2.2774 -1.9953 -1.6220
 6606SOL     OW31276   3.633   0.389   9.968  0.2781  0.1998 -0.2571
 6606SOL    HW131277   3.698   0.380  10.038  2.0506 -0.2704 -1.9582
 6606SOL    HW231278   3.572   0.321   9.996 -0.7699  1.8969  1.5336
 6607SOL     OW31279   3.485   4.538   1.993  0.6108 -0.3433 -0.6306
 6607SOL    HW131280   3.573   4.575   2.007  0.6130 -0.3624 -0.5938
 6607SOL    HW231281   3.469   4.567   1.903 -0.8213  1.0863  0.0798
 6608SOL     OW31282   0.525   0.708   0.592 -0.1515  0.1749 -0.3791
 6608SOL    HW131283   0.529   0.751   0.506  0.2173  0.7062 -0.0941
 6608SOL    HW231284   0.505   0.617   0.572  0.8583 -0.2771  0.7345
 6609SOL     OW31285   4.265   3.077  14.665 -0.1778  0.0826  0.5507
 6609SOL    HW131286   4.267   3.127  14.746  0.0074  0.3130  0.4049
 6609SOL    HW231287   4.293   2.991  14.696  2.0600 -0.4842 -2.9743
 6610SOL     OW31288   1.215   0.336   5.867 -0.1326  0.0343  0.0369
 6610SOL    HW131289   1.152   0.377   5.926  0.9293 -1.3286  2.1080
 6610SOL    HW231290   1.228   0.254   5.915 -0.2742 -0.3339 -0.5617
 6611SOL     OW31291   0.406   0.186  12.256  0.2215 -0.2256  0.1216
 6611SOL    HW131292   0.376   0.215  12.342  0.0477  2.1595 -0.7419
 6611SOL    HW231293   0.398   0.092  12.274  2.3329 -0.4076  0.1368
 6612SOL     OW31294   1.011   3.724   4.484 -0.0632 -0.3094 -0.5307
 6612SOL    HW131295   1.050   3.752   4.401  0.1909 -3.0909 -1.3489
 6612SOL    HW231296   0.954   3.651   4.461 -1.1331  0.7424 -1.1713
 6613SOL     OW31297   4.623   0.690  11.171  0.3202  0.3442  0.0232
 6613SOL    HW131298   4.642   0.613  11.224  1.6767  2.0895  2.0829
 6613SOL    HW231299   4.668   0.760  11.219  0.5582  0.2144 -0.0117
 6614SOL     OW31300   0.320   0.159   6.849 -0.2310  0.8284  0.5028
 6614SOL    HW131301   0.412   0.185   6.853  0.2908 -0.8224 -1.1434
 6614SOL    HW231302   0.338   0.072   6.815  1.3033  2.1395 -2.0773
 6615SOL     OW31303   1.954   0.983  11.299 -0.0573 -0.1541 -0.7433
 6615SOL    HW131304   1.878   0.968  11.355 -0.9299  0.5885 -1.7500
 6615SOL    HW231305   1.916   1.045  11.237 -1.8689 -0.8970 -0.3693
 6616SOL     OW31306   1.995   4.216   5.929  0.3489 -0.1262 -0.1790
 6616SOL    HW131307   2.053   4.292   5.919  0.7386 -0.5851 -1.3963
 6616SOL    HW231308   1.910   4.256   5.941 -0.3083 -1.9878  1.4013
 6617SOL     OW31309   3.418   3.050   7.836 -0.0004  0.3588  0.2160
 6617SOL    HW131310   3.414   3.144   7.853  0.5557  0.9159 -2.8324
 6617SOL    HW231311   3.477   3.058   7.761  0.1939 -2.5039  0.0591
 6618SOL     OW31312   1.620   0.654   9.508  0.5630  0.1179  0.2476
 6618SOL    HW131313   1.586   0.733   9.466  0.4470 -0.3037 -0.4610
 6618SOL    HW231314   1.709   0.675   9.535  0.4118  1.0828 -0.0284
 6619SOL     OW31315   3.342   1.960   9.589 -0.3387  0.1924 -0.4930
 6619SOL    HW131316   3.324   1.911   9.669  0.0492  0.9110  0.0347
 6619SOL    HW231317   3.435   1.940   9.579 -0.3240  0.8495 -1.7302
 6620SOL     OW31318   4.311   2.412  11.649 -0.3820  0.2824 -0.6675
 6620SOL    HW131319   4.387   2.469  11.635  0.1023 -0.3844 -0.7845
 6620SOL    HW231320   4.315   2.405  11.744  1.8333  0.8305 -0.7245
 6621SOL     OW31321   2.099   0.525   3.033 -0.1445 -0.0128  0.6845
 6621SOL    HW131322   2.101   0.561   3.122  0.5962  1.4264  0.0783
 6621SOL    HW231323   2.013   0.560   3.011 -0.1121 -0.3204  0.0866
 6622SOL     OW31324   1.865   4.268   2.647  0.1756  0.6667  0.0978
 6622SOL    HW131325   1.889   4.284   2.738 -1.4612  0.2262  0.6063
 6622SOL    HW231326   1.800   4.338   2.637 -0.1503  0.5984  1.6793
 6623SOL     OW31327   3.616   0.823   6.546  0.0583  0.4145 -0.2813
 6623SOL    HW131328   3.611   0.890   6.614 -0.3495 -0.2464  0.3468
 6623SOL    HW231329   3.679   0.868   6.491 -1.6863  0.9327 -1.8740
 6624SOL     OW31330   1.864   2.865   8.739  0.6080  0.0613 -0.3227
 6624SOL    HW131331   1.843   2.803   8.808  2.4397  1.4031  1.4152
 6624SOL    HW231332   1.812   2.941   8.764 -1.4956 -1.2160 -0.7941
 6625SOL     OW31333   4.620   2.499   6.772  0.1650  0.4757 -0.1057
 6625SOL    HW131334   4.708   2.532   6.794  0.2982 -0.4427  0.7345
 6625SOL    HW231335   4.570   2.549   6.837  0.5724  0.4231  0.2508
 6626SOL     OW31336   3.896   1.994   7.229  0.0899 -0.3006 -0.3057
 6626SOL    HW131337   3.813   2.037   7.250  1.2289  1.8948 -0.2941
 6626SOL    HW231338   3.880   1.903   7.255 -0.6497 -0.5923 -1.7594
 6627SOL     OW31339   2.516   3.539  14.480  0.0476  0.0281 -0.0164
 6627SOL    HW131340   2.512   3.609  14.416 -1.0410  0.3018  0.3547
 6627SOL    HW231341   2.542   3.464  14.426  0.1388 -0.2092  0.3521
 6628SOL     OW31342   0.770   1.791  10.537  0.5878  0.3177  0.1568
 6628SOL    HW131343   0.800   1.714  10.584  1.6326  0.5087 -0.1903
 6628SOL    HW231344   0.794   1.859  10.600  0.4230 -0.5895  1.1832
 6629SOL     OW31345   2.707   1.611   7.122  0.1294 -0.7703 -0.2034
 6629SOL    HW131346   2.795   1.637   7.093  0.1454  1.5744  1.8408
 6629SOL    HW231347   2.729   1.558   7.199  0.0422 -1.4538 -0.6483
 6630SOL     OW31348   2.033   3.857   8.321  0.1943  0.1893 -0.7262
 6630SOL    HW131349   1.978   3.861   8.399  0.7866  3.2673 -0.4642
 6630SOL    HW231350   1.980   3.854   8.242  0.3219  3.0456 -0.9102
 6631SOL     OW31351   3.779   4.119   5.216  0.3223 -0.1314  0.7258
 6631SOL    HW131352   3.819   4.032   5.212 -0.0382 -0.3250  1.2635
 6631SOL    HW231353   3.691   4.083   5.233 -0.4037  2.4559  2.5237
 6632SOL     OW31354   1.342   0.929   8.408  0.0609 -0.3684  0.5096
 6632SOL    HW131355   1.312   0.917   8.498  1.7788  1.9026  1.3910
 6632SOL    HW231356   1.378   1.017   8.416 -1.8123  0.2060  2.4521
 6633SOL     OW31357   3.272   3.678   5.383 -0.1043 -0.3701 -0.0518
 6633SOL    HW131358   3.367   3.682   5.383 -0.0670 -1.3153  1.2373
 6633SOL    HW231359   3.252   3.771   5.372  0.9077  0.0807  1.9162
 6634SOL     OW31360   4.104   4.551   0.956  0.4695  0.0588 -1.3694
 6634SOL    HW131361   4.061   4.588   1.032  2.2831 -0.6352 -0.0080
 6634SOL    HW231362   4.030   4.542   0.896 -0.5342 -2.2872  0.2428
 6635SOL     OW31363   2.300   2.656   5.210  1.1714 -0.5522  0.1142
 6635SOL    HW131364   2.381   2.705   5.229 -0.4588  2.7811 -1.5112
 6635SOL    HW231365   2.235   2.721   5.182  2.1730  0.0105 -0.9312
 6636SOL     OW31366   1.391   0.509   9.094 -0.1799  0.7191 -0.4938
 6636SOL    HW131367   1.328   0.475   9.158 -0.0904  0.6612 -0.4373
 6636SOL    HW231368   1.464   0.537   9.148 -0.2600 -2.0854  1.0875
 6637SOL     OW31369   3.881   4.067   0.522  0.1691 -1.1676 -0.7085
 6637SOL    HW131370   3.790   4.053   0.548 -0.3047  0.2807 -1.5827
 6637SOL    HW231371   3.925   4.108   0.597  1.1788  0.5977 -2.2441
 6638SOL     OW31372   2.911   2.117   7.497 -0.1011  0.1934  0.3036
 6638SOL    HW131373   2.928   2.166   7.578  2.9185  1.8427 -1.3279
 6638SOL    HW231374   2.946   2.176   7.430  1.7955 -0.5103  0.6688
 6639SOL     OW31375   2.180   2.728  14.011 -0.0621 -0.4108  0.0243
 6639SOL    HW131376   2.138   2.799  13.963 -1.0483 -1.3767 -0.5383
 6639SOL    HW231377   2.229   2.769  14.082 -0.4829  0.9143 -0.4566
 6640SOL     OW31378   0.347   3.938  13.639  0.1260  0.3302  0.1382
 6640SOL    HW131379   0.310   3.865  13.688 -0.2904  1.4277  1.4755
 6640SOL    HW231380   0.432   3.895  13.632  0.1633  0.7322 -1.7345
 6641SOL     OW31381   3.319   4.068   4.049  0.0897  0.5405 -0.0836
 6641SOL    HW131382   3.353   4.005   4.113 -2.1177  0.5303  1.0823
 6641SOL    HW231383   3.391   4.130   4.043  0.7237 -0.0304  1.4304
 6642SOL     OW31384   0.528   1.294   4.550 -0.7216  0.7161 -0.7158
 6642SOL    HW131385   0.593   1.364   4.563  1.1318 -1.4215  1.5984
 6642SOL    HW231386   0.469   1.347   4.497 -1.1361  0.0792 -0.8885
 6643SOL     OW31387   0.640   0.153   9.094 -0.3996  0.1116 -0.6866
 6643SOL    HW131388   0.577   0.214   9.132 -0.1465 -0.3876  0.5356
 6643SOL    HW231389   0.609   0.150   9.004 -1.7462  2.1219 -0.3066
 6644SOL     OW31390   0.498   0.648   2.568  0.4125  0.3632 -0.4284
 6644SOL    HW131391   0.528   0.694   2.646  1.5678 -0.5192 -0.3401
 6644SOL    HW231392   0.574   0.592   2.551  1.5991  1.5025  1.1393
 6645SOL     OW31393   0.115   1.021  10.293 -0.5342 -0.2642 -0.3417
 6645SOL    HW131394   0.070   1.017  10.378  0.9180 -1.1761  0.3686
 6645SOL    HW231395   0.144   0.930  10.296 -1.4451 -0.6272 -2.2248
 6646SOL     OW31396   1.252   2.819   2.865  0.3002 -0.6322 -0.2013
 6646SOL    HW131397   1.319   2.815   2.934 -0.9146  1.3198  1.0801
 6646SOL    HW231398   1.291   2.811   2.779 -1.8239  0.3380 -1.2479
 6647SOL     OW31399   1.065   2.380  16.247 -0.0566  0.2840  0.2463
 6647SOL    HW131400   1.081   2.453  16.307  1.9332  0.8326 -0.9675
 6647SOL    HW231401   0.971   2.366  16.263 -0.3156  0.9229 -0.6947
 6648SOL     OW31402   0.487   1.088   8.063 -0.3888 -0.2345 -0.0031
 6648SOL    HW131403   0.579   1.092   8.038  0.0168  1.5466  1.7356
 6648SOL    HW231404   0.449   1.156   8.007 -0.3547 -1.1782 -1.1465
 6649SOL     OW31405   1.136   3.392   5.011 -0.2983  0.0953  0.2725
 6649SOL    HW131406   1.176   3.447   4.944  1.5529 -1.8265 -0.2109
 6649SOL    HW231407   1.161   3.302   4.988 -1.0350 -0.5169  1.8514
 6650SOL     OW31408   1.504   1.493   3.710 -0.5184 -0.2379  0.0312
 6650SOL    HW131409   1.500   1.521   3.619  2.6562  0.6215  0.1398
 6650SOL    HW231410   1.582   1.438   3.707 -0.7496 -0.7363  2.8908
 6651SOL     OW31411   4.690   0.809   2.712 -0.5236 -0.6897 -0.5609
 6651SOL    HW131412   4.631   0.837   2.643 -2.1133 -0.4601  0.8732
 6651SOL    HW231413   4.651   0.867   2.778 -0.4082 -0.7532 -0.4367
 6652SOL     OW31414   3.503   2.069   8.647  0.2274 -0.0180 -0.4770
 6652SOL    HW131415   3.544   2.144   8.691  1.2498 -0.3127 -0.9207
 6652SOL    HW231416   3.440   2.041   8.713 -0.6193  0.2798 -1.1608
 6653SOL     OW31417   1.553   4.292   4.485  0.6519 -0.1344  0.0796
 6653SOL    HW131418   1.632   4.307   4.433  1.9480 -1.4196  1.6702
 6653SOL    HW231419   1.582   4.308   4.575 -0.2438  1.1744  0.1331
 6654SOL     OW31420   2.116   4.495   8.967 -0.6757 -0.0347 -0.4526
 6654SOL    HW131421   2.203   4.533   8.958 -1.1641  0.7231 -2.0483
 6654SOL    HW231422   2.137   4.420   9.022 -1.4326  0.4318  0.4740
 6655SOL     OW31423   4.106   4.718  10.990  0.1286  0.8163  0.0520
 6655SOL    HW131424   4.082   4.644  11.046  1.1716  1.3789  1.2509
 6655SOL    HW231425   4.079   0.066  11.051 -0.2755 -0.3926  1.2528
 6656SOL     OW31426   1.344   0.795   4.017 -0.7691  0.4113  0.4868
 6656SOL    HW131427   1.428   0.839   4.011  0.0042 -0.9583  1.2809
 6656SOL    HW231428   1.374   0.719   4.066  2.1786  1.3313  0.0890
 6657SOL     OW31429   0.313   3.573  16.392 -0.5531  0.1717 -0.8730
 6657SOL    HW131430   0.312   3.481  16.366  0.0516 -0.0760 -0.0291
 6657SOL    HW231431   0.225   3.577  16.430  0.3117 -0.6958  1.2700
 6658SOL     OW31432   2.306   0.802   3.766 -0.5121  0.0186 -0.3704
 6658SOL    HW131433   2.296   0.892   3.798 -0.1346  0.3791 -1.2788
 6658SOL    HW231434   2.399   0.786   3.783 -1.3854 -2.4258  2.0274
 6659SOL     OW31435   4.517   0.033  14.942 -0.0654 -0.6178 -0.3476
 6659SOL    HW131436   4.547   0.044  15.032  0.3013  0.2375 -0.5710
 6659SOL    HW231437   4.512   4.659  14.931 -0.5561 -0.7024  0.6672
 6660SOL     OW31438   2.044   2.463   7.942 -0.5402  0.0505  0.3125
 6660SOL    HW131439   2.109   2.393   7.938  0.2868  0.7544  1.2360
 6660SOL    HW231440   2.074   2.507   7.862 -0.6458  1.0954  0.8424
 6661SOL     OW31441   2.525   2.502   8.422 -0.1708 -0.2885 -0.1375
 6661SOL    HW131442   2.551   2.498   8.330 -1.5826  0.3453 -0.5653
 6661SOL    HW231443   2.513   2.597   8.420 -2.9755 -0.6681 -1.1958
 6662SOL     OW31444   3.166   0.054   6.937 -0.4270  0.7404  0.5866
 6662SOL    HW131445   3.252   0.055   6.979 -0.5445  1.9715  0.7961
 6662SOL    HW231446   3.186   0.036   6.845 -0.8071  1.3886  0.3792
 6663SOL     OW31447   3.902   1.210   4.770  0.3964  0.5947  0.5235
 6663SOL    HW131448   3.915   1.131   4.716  2.8194  1.1334  0.3068
 6663SOL    HW231449   3.988   1.221   4.810  1.2445 -0.0047 -1.0969
 6664SOL     OW31450   0.849   4.164   7.451 -0.3232  0.1265  0.3578
 6664SOL    HW131451   0.881   4.101   7.515  0.8795  1.9590  1.5143
 6664SOL    HW231452   0.772   4.115   7.419  0.2278  0.8075 -2.0470
 6665SOL     OW31453   2.577   4.004  16.760 -0.0833  0.6409  0.0685
 6665SOL    HW131454   2.584   3.912  16.785  0.1882 -0.1553 -2.9599
 6665SOL    HW231455   2.553   4.013  16.668 -0.7873 -0.2131  0.1625
 6666SOL     OW31456   3.338   2.806   2.491  0.8954  0.5001 -0.1813
 6666SOL    HW131457   3.337   2.719   2.532  0.5881  0.2994 -0.6201
 6666SOL    HW231458   3.319   2.856   2.571  1.5525  0.9138 -0.2918
 6667SOL     OW31459   3.459   3.217   4.092  0.3113  0.0298 -0.0950
 6667SOL    HW131460   3.453   3.277   4.018 -0.7751  1.3072  1.0414
 6667SOL    HW231461   3.371   3.210   4.127  0.3143 -3.7700 -0.8062
 6668SOL     OW31462   2.025   2.898  10.895  0.4523  0.0290 -0.3086
 6668SOL    HW131463   1.954   2.963  10.892  1.7807  1.5689  1.9700
 6668SOL    HW231464   2.063   2.903  10.982 -0.7084  0.1438  0.1841
 6669SOL     OW31465   0.503   4.568   8.927 -0.1179 -0.4826 -0.2038
 6669SOL    HW131466   0.530   4.647   8.880 -1.5289 -0.4383 -0.9230
 6669SOL    HW231467   0.539   4.576   9.015  2.0767 -2.8473 -0.8841
 6670SOL     OW31468   0.527   3.913   4.830  0.6438 -0.0025 -0.4644
 6670SOL    HW131469   0.465   3.879   4.765 -0.0478  0.1802  0.0995
 6670SOL    HW231470   0.495   3.870   4.909  1.0352  0.4101 -0.0788
 6671SOL     OW31471   1.458   3.784   7.622  0.4369  0.2459 -0.4670
 6671SOL    HW131472   1.541   3.762   7.580  0.4420  0.5796 -0.6304
 6671SOL    HW231473   1.404   3.788   7.543 -0.6973  0.0494  0.3047
 6672SOL     OW31474   3.679   3.008   5.058  0.3587 -0.2260  0.1576
 6672SOL    HW131475   3.753   3.045   5.009 -0.5825  1.7848  0.2668
 6672SOL    HW231476   3.693   3.029   5.150  2.9275 -3.6430  0.5819
 6673SOL     OW31477   1.464   2.450   1.693 -0.2152  0.6506  0.1062
 6673SOL    HW131478   1.399   2.389   1.728  1.8988 -2.5564 -1.5509
 6673SOL    HW231479   1.539   2.417   1.742  0.7718  0.6803 -1.3986
 6674SOL     OW31480   1.145   2.618   1.764 -1.0345  0.1045  0.6416
 6674SOL    HW131481   1.127   2.572   1.846  0.0239 -0.2597  0.6686
 6674SOL    HW231482   1.237   2.643   1.777 -0.7653  0.1674 -1.4072
 6675SOL     OW31483   1.168   0.642  13.710  0.1702 -0.2344  0.0388
 6675SOL    HW131484   1.123   0.725  13.726  0.0972 -0.2872  0.1116
 6675SOL    HW231485   1.258   0.674  13.706  0.1746 -0.4859 -1.8963
 6676SOL     OW31486   2.692   0.013   9.254 -0.2783  0.6466  0.0194
 6676SOL    HW131487   2.726   0.102   9.264  2.6254 -0.3561 -0.7315
 6676SOL    HW231488   2.709   0.003   9.160  0.8204 -1.7187  0.4907
 6677SOL     OW31489   1.087   4.668   9.371  0.1127  0.4639  0.8914
 6677SOL    HW131490   1.176   4.671   9.406  1.4403  1.1131 -2.4609
 6677SOL    HW231491   1.056   0.025   9.416 -1.2946  1.3286 -1.5615
 6678SOL     OW31492   2.151   1.923   9.129 -0.5366  0.2254  0.2329
 6678SOL    HW131493   2.128   1.895   9.041 -2.6226  0.2923  0.7479
 6678SOL    HW231494   2.166   1.846   9.185 -0.1201  0.3413  0.2851
 6679SOL     OW31495   4.605   2.419   6.224 -0.2229  0.1507  0.2057
 6679SOL    HW131496   4.553   2.499   6.218  0.0871  0.3796  0.5723
 6679SOL    HW231497   4.564   2.371   6.297 -0.7714 -2.4431 -1.8008
 6680SOL     OW31498   3.814   3.401   0.968 -0.2303 -0.5662  0.0281
 6680SOL    HW131499   3.753   3.472   0.947 -1.3828 -1.2149  1.2098
 6680SOL    HW231500   3.900   3.443   0.969 -1.2262  1.4382  1.0697
 6681SOL     OW31501   2.892   4.421   8.337 -0.1088  0.3115 -0.4552
 6681SOL    HW131502   2.933   4.377   8.262  0.9082  1.7526 -0.7577
 6681SOL    HW231503   2.904   4.352   8.402 -1.8625  0.1464 -0.3154
 6682SOL     OW31504   1.272   2.405   7.503  0.1277 -0.2602  0.1379
 6682SOL    HW131505   1.178   2.421   7.509  0.1937 -0.1862  0.9806
 6682SOL    HW231506   1.274   2.333   7.439  0.1451  0.2399 -0.4199
 6683SOL     OW31507   1.825   4.337  17.670  0.6227 -0.4214  0.0266
 6683SOL    HW131508   1.797   4.339   0.075  0.3056 -0.6481 -0.0636
 6683SOL    HW231509   1.831   4.245  17.643  0.2758 -0.2321 -0.7101
 6684SOL     OW31510   2.760   0.655   7.563  0.3242  0.2209  0.4822
 6684SOL    HW131511   2.666   0.635   7.562  0.6341 -1.2201  0.3171
 6684SOL    HW231512   2.774   0.590   7.632  0.9033  1.8223  1.8497
 6685SOL     OW31513   3.572   4.078   8.516 -0.1755 -0.3952 -0.1487
 6685SOL    HW131514   3.551   4.149   8.577  1.6512 -0.6525  0.7791
 6685SOL    HW231515   3.614   4.122   8.443 -1.9381 -1.8314 -2.0679
 6686SOL     OW31516   0.156   4.021  10.909  0.5118  0.3513  0.5539
 6686SOL    HW131517   0.142   4.095  10.969  0.9311  0.5287  0.4341
 6686SOL    HW231518   0.128   3.945  10.960  1.4415 -0.6804 -0.4717
 6687SOL     OW31519   2.690   2.682   6.442  0.5181 -0.0550  0.5555
 6687SOL    HW131520   2.680   2.600   6.490  1.2530  0.0902  0.9430
 6687SOL    HW231521   2.662   2.658   6.354 -1.5948 -0.8110  1.4364
 6688SOL     OW31522   3.115   1.427   9.782  0.4383  0.2632  0.1079
 6688SOL    HW131523   3.170   1.490   9.735  0.0651  0.1423 -0.4958
 6688SOL    HW231524   3.042   1.426   9.720  0.7689  0.7274 -0.2842
 6689SOL     OW31525   1.359   0.400  12.011  0.6324  0.3416 -0.0086
 6689SOL    HW131526   1.366   0.427  11.920  0.3799 -0.0953 -0.1591
 6689SOL    HW231527   1.272   0.433  12.033  0.4832  0.7229 -1.1571
 6690SOL     OW31528   2.454   3.491   6.184  0.2330 -0.0141 -0.0493
 6690SOL    HW131529   2.473   3.399   6.199 -0.6484 -0.2910 -0.6184
 6690SOL    HW231530   2.459   3.499   6.088  0.5897 -1.4461 -0.1471
 6691SOL     OW31531   0.999   1.885  15.869  0.0539  0.5713 -0.1290
 6691SOL    HW131532   1.036   1.957  15.920 -1.7085  1.6387 -0.3302
 6691SOL    HW231533   0.908   1.911  15.853 -0.6397  0.6440  4.1474
 6692SOL     OW31534   3.139   1.100   0.709 -0.9438  0.7283  0.3788
 6692SOL    HW131535   3.195   1.023   0.722 -1.4838  0.5911  1.8936
 6692SOL    HW231536   3.069   1.065   0.654 -0.2248 -0.4800  0.2209
 6693SOL     OW31537   0.209   0.337   6.663  0.0810  0.1154  0.0347
 6693SOL    HW131538   0.268   0.337   6.588  0.2183  1.0234  0.1375
 6693SOL    HW231539   0.259   0.272   6.712 -0.5040 -1.0229 -0.8858
 6694SOL     OW31540   2.174   4.604   6.020  0.1598  0.1779  0.3838
 6694SOL    HW131541   2.148   4.583   6.110  0.9479  0.1613  0.6078
 6694SOL    HW231542   2.100   4.574   5.967 -0.5616 -0.2047  1.5977
 6695SOL     OW31543   0.994   2.383   5.716  0.1021 -0.1096 -0.2240
 6695SOL    HW131544   0.977   2.470   5.679 -0.5804 -1.1068 -2.2103
 6695SOL    HW231545   1.047   2.342   5.648 -0.8744 -2.0713  0.2302
 6696SOL     OW31546   4.659   3.706   1.014 -0.1681  0.3582 -0.9052
 6696SOL    HW131547   4.702   3.791   1.003 -1.1400  0.8527 -0.9100
 6696SOL    HW231548   4.612   3.695   0.931 -0.1693  1.4471 -1.0522
 6697SOL     OW31549   2.768   3.006   4.520  0.1026 -0.2233  0.6975
 6697SOL    HW131550   2.859   2.977   4.527 -0.1580 -1.1838  0.1160
 6697SOL    HW231551   2.748   2.990   4.428 -1.0966 -0.4148  0.9941
 6698SOL     OW31552   2.359   1.369   7.272  0.0218  0.6018  0.5383
 6698SOL    HW131553   2.330   1.454   7.238 -0.7291  0.8914  1.8914
 6698SOL    HW231554   2.303   1.305   7.228  1.6446 -1.4969  1.5391
 6699SOL     OW31555   2.324   1.236   7.972  0.8287  0.9516  0.8000
 6699SOL    HW131556   2.279   1.223   7.889  0.9474 -0.9630  1.0478
 6699SOL    HW231557   2.417   1.239   7.948  0.2498  2.7736 -1.2034
 6700SOL     OW31558   3.589   0.712   1.180 -0.3809  0.3119  0.5470
 6700SOL    HW131559   3.669   0.714   1.127  0.5557 -0.6002  1.9345
 6700SOL    HW231560   3.597   0.627   1.221  1.3265 -0.5761 -1.6221
 6701SOL     OW31561   4.215   4.361  11.616 -0.4552  0.1185  0.2319
 6701SOL    HW131562   4.197   4.426  11.548 -0.7918 -0.4243 -0.1995
 6701SOL    HW231563   4.235   4.288  11.557  0.5480  0.0465  0.6623
 6702SOL     OW31564   3.771   2.166   1.472  0.5803  0.1782 -0.0345
 6702SOL    HW131565   3.794   2.257   1.456  2.2932 -0.1996  0.1894
 6702SOL    HW231566   3.824   2.155   1.551  0.0632 -1.5500  0.0755
 6703SOL     OW31567   1.538   2.458   4.565  0.2719 -0.6545 -0.2828
 6703SOL    HW131568   1.549   2.447   4.471  2.2590  1.3608 -0.2602
 6703SOL    HW231569   1.613   2.511   4.589  0.0213  0.0441 -1.0335
 6704SOL     OW31570   1.024   1.168   6.317 -0.3100 -0.1258 -0.7385
 6704SOL    HW131571   1.041   1.074   6.306  2.5820  0.4424 -1.2171
 6704SOL    HW231572   1.091   1.191   6.381 -2.4917  2.1039  0.7283
 6705SOL     OW31573   0.359   0.154   0.874 -0.8166  0.1511  0.6522
 6705SOL    HW131574   0.394   0.201   0.949 -0.3626  0.1028  0.4664
 6705SOL    HW231575   0.264   0.168   0.873 -0.8480 -0.1351 -0.9638
 6706SOL     OW31576   3.342   2.561   6.643  0.8356 -0.2704 -0.4820
 6706SOL    HW131577   3.279   2.492   6.623  0.9727 -0.1899 -1.1931
 6706SOL    HW231578   3.319   2.616   6.569  1.9278  0.2499 -0.4316
 6707SOL     OW31579   3.790   4.661   7.224  0.1786 -0.7118  0.2489
 6707SOL    HW131580   3.855   4.651   7.155  0.7739  0.4493  0.6366
 6707SOL    HW231581   3.805   4.576   7.264  0.3857 -0.5508  0.5136
 6708SOL     OW31582   3.749   4.497   6.910 -0.2221  0.3769 -0.0159
 6708SOL    HW131583   3.713   4.585   6.920 -0.2777  0.5038 -1.3070
 6708SOL    HW231584   3.771   4.509   6.818  1.0809 -0.5985  0.1727
 6709SOL     OW31585   4.410   2.886   3.992  0.1239  0.5827 -0.0719
 6709SOL    HW131586   4.459   2.965   4.014  0.2619  0.8987 -1.5471
 6709SOL    HW231587   4.343   2.897   4.060 -0.6724  0.0757 -0.7769
 6710SOL     OW31588   1.900   0.577   7.190 -0.2567  0.2293  0.6214
 6710SOL    HW131589   1.961   0.591   7.262 -0.3475  0.2727  0.6901
 6710SOL    HW231590   1.831   0.620   7.241 -0.7027  0.2158  0.0314
 6711SOL     OW31591   3.584   1.625   9.003  0.0103 -0.8768  0.0087
 6711SOL    HW131592   3.616   1.589   8.920  0.3879 -0.3007 -0.0917
 6711SOL    HW231593   3.593   1.718   8.985 -0.2316 -0.5750  1.4342
 6712SOL     OW31594   2.849   1.205   0.509  0.0459  0.2348  0.0235
 6712SOL    HW131595   2.788   1.255   0.563  0.2830 -1.2408  1.6404
 6712SOL    HW231596   2.927   1.260   0.509  0.0719  0.2153 -1.7580
 6713SOL     OW31597   3.208   4.671   0.642 -0.2009  0.0157 -0.4386
 6713SOL    HW131598   3.234   0.023   0.699  0.0377 -0.4575  0.0560
 6713SOL    HW231599   3.247   4.689   0.557  0.4843  1.0226  0.0904
 6714SOL     OW31600   4.022   1.504  11.818  0.5223  0.0697 -0.2074
 6714SOL    HW131601   4.068   1.455  11.887  0.8080 -1.1337 -1.2513
 6714SOL    HW231602   4.026   1.589  11.862  0.7101  0.1734 -0.4246
 6715SOL     OW31603   4.120   3.666   0.360 -0.4663 -0.2935  0.0237
 6715SOL    HW131604   4.196   3.685   0.415 -0.6411  1.5067 -0.3489
 6715SOL    HW231605   4.094   3.757   0.344  1.7480 -0.0101 -2.0073
 6716SOL     OW31606   1.807   0.961   4.271  0.6333 -0.3037  0.6468
 6716SOL    HW131607   1.812   1.040   4.325  1.4761 -0.4545  0.7884
 6716SOL    HW231608   1.859   0.983   4.193 -2.0168  2.4878 -0.3647
 6717SOL     OW31609   3.559   2.326   2.640  0.6189 -0.3642  0.2409
 6717SOL    HW131610   3.543   2.406   2.690  4.9255  0.4479  0.3170
 6717SOL    HW231611   3.525   2.253   2.691  1.7045 -0.9560  0.1354
 6718SOL     OW31612   4.063   4.258  11.227  0.3651 -0.1787  0.3360
 6718SOL    HW131613   4.044   4.174  11.187  2.9843 -0.2566 -0.7529
 6718SOL    HW231614   4.137   4.231  11.282  0.1664  1.2021  1.2891
 6719SOL     OW31615   2.991   1.551   3.951 -0.1342  0.1382  0.4052
 6719SOL    HW131616   3.050   1.544   3.875 -0.3673 -1.7599  0.4007
 6719SOL    HW231617   3.028   1.627   3.996  0.4163  0.0435  0.1202
 6720SOL     OW31618   1.698   3.543   4.816  0.1858 -0.0769 -0.4111
 6720SOL    HW131619   1.668   3.622   4.771 -0.1471 -1.4388 -2.5697
 6720SOL    HW231620   1.791   3.561   4.798  0.7867 -1.6611  1.1597
 6721SOL     OW31621   1.779   0.619   8.729 -0.3907 -0.9872  0.5965
 6721SOL    HW131622   1.864   0.652   8.757 -1.4337  0.0258  2.5571
 6721SOL    HW231623   1.769   0.669   8.648  0.7663 -0.5809  0.7083
 6722SOL     OW31624   4.205   3.945  13.954  0.0183  0.6752 -0.1228
 6722SOL    HW131625   4.124   3.924  14.002  0.2550 -2.1188 -0.9323
 6722SOL    HW231626   4.174   3.949  13.863 -1.0319  0.9104  0.2401
 6723SOL     OW31627   3.002   1.072   8.201 -0.1069 -0.4568 -0.0060
 6723SOL    HW131628   2.961   0.987   8.187  1.7205 -1.0240 -1.8822
 6723SOL    HW231629   3.035   1.085   8.112  2.5484  0.0071  1.0542
 6724SOL     OW31630   2.440   4.046   0.340 -0.1892 -0.1886  0.4898
 6724SOL    HW131631   2.354   4.067   0.376 -0.4557 -0.8557  0.2470
 6724SOL    HW231632   2.431   3.953   0.316 -1.8248  0.2188 -0.4417
 6725SOL     OW31633   1.150   0.483   4.160  0.1952  0.7964  0.7484
 6725SOL    HW131634   1.091   0.528   4.100 -0.5311 -1.2738 -0.0711
 6725SOL    HW231635   1.182   0.407   4.112  0.1838  1.2729 -0.0165
 6726SOL     OW31636   0.631   2.156   2.577  0.1857 -0.6912 -0.6342
 6726SOL    HW131637   0.689   2.223   2.611  0.6173 -1.5755  0.3709
 6726SOL    HW231638   0.604   2.186   2.490 -0.4666  1.5569  0.3500
 6727SOL     OW31639   1.460   3.952   6.355  0.0327  0.0689 -0.0072
 6727SOL    HW131640   1.374   3.930   6.391  0.4392 -1.3518  0.0750
 6727SOL    HW231641   1.467   3.901   6.275 -1.4700 -1.5964  0.9242
 6728SOL     OW31642   2.974   3.007   1.839  0.0033 -0.0030 -0.0173
 6728SOL    HW131643   2.912   2.948   1.797 -1.3192  0.8297  0.7506
 6728SOL    HW231644   3.050   2.952   1.859  1.2681  1.6690 -0.2153
 6729SOL     OW31645   4.607   3.687  11.891  0.6428  0.3375  0.6045
 6729SOL    HW131646   4.574   3.686  11.801  0.4828  0.7736  0.6603
 6729SOL    HW231647   4.585   3.777  11.915  2.6091  0.6267  1.3553
 6730SOL     OW31648   4.290   4.576   3.426 -0.1553 -0.0731 -0.0562
 6730SOL    HW131649   4.243   4.503   3.468 -0.9278 -0.1047 -0.9794
 6730SOL    HW231650   4.236   4.600   3.351 -1.2079 -1.9386  0.1060
 6731SOL     OW31651   2.523   1.054   5.036 -0.1171 -0.3969 -0.1405
 6731SOL    HW131652   2.511   1.007   5.119 -0.5732  0.3925  0.2368
 6731SOL    HW231653   2.520   1.144   5.066 -1.9974  0.0869 -1.7403
 6732SOL     OW31654   1.345   0.340  12.536  0.5017 -0.1591  0.2957
 6732SOL    HW131655   1.338   0.280  12.610  1.9260 -0.0493  0.5202
 6732SOL    HW231656   1.258   0.334  12.498 -0.9169 -0.4170  3.6120
 6733SOL     OW31657   4.031   4.285   0.271 -0.5553  0.3066 -0.1772
 6733SOL    HW131658   4.107   4.228   0.263 -0.5213  0.6311 -2.0736
 6733SOL    HW231659   3.991   4.243   0.195  2.5231 -0.8241 -1.1725
 6734SOL     OW31660   4.697   3.711   3.332 -0.3116 -0.0557  0.0189
 6734SOL    HW131661   4.672   3.775   3.266  0.4721  2.7285  2.4014
 6734SOL    HW231662   0.068   3.727   3.313  0.2629 -3.0794  0.2761
 6735SOL     OW31663   2.068   2.731  14.604  0.2887  0.2633 -0.0686
 6735SOL    HW131664   2.114   2.694  14.679  1.0621 -2.1958 -1.7447
 6735SOL    HW231665   2.143   2.763  14.554 -2.4125  0.1466 -4.2585
 6736SOL     OW31666   1.682   3.613   8.483 -0.2990  0.2306 -0.2350
 6736SOL    HW131667   1.662   3.584   8.572  1.9638  0.9022  0.4962
 6736SOL    HW231668   1.593   3.605   8.449  0.2320  0.9168 -1.7511
 6737SOL     OW31669   4.199   3.545   1.215  0.3358 -0.4575 -0.2499
 6737SOL    HW131670   4.265   3.612   1.198 -0.5088  0.1635 -1.0981
 6737SOL    HW231671   4.255   3.468   1.226  0.3585 -0.5605 -1.0523
 6738SOL     OW31672   4.388   3.636   3.890  0.1612  0.3211 -0.4346
 6738SOL    HW131673   4.348   3.641   3.977  1.8913  0.6689  0.3246
 6738SOL    HW231674   4.314   3.633   3.829  0.0003  0.5009 -0.2481
 6739SOL     OW31675   1.896   3.815   8.798 -0.6037 -0.0084 -0.3811
 6739SOL    HW131676   1.868   3.806   8.889 -0.5070 -0.7886 -0.4325
 6739SOL    HW231677   1.947   3.896   8.807  0.8418 -0.9423 -0.1705
 6740SOL     OW31678   1.399   0.545   2.844 -0.0546  0.1021 -0.0442
 6740SOL    HW131679   1.383   0.461   2.888 -0.0169 -0.2353 -0.6866
 6740SOL    HW231680   1.489   0.546   2.812  0.5466 -2.1316  1.5631
 6741SOL     OW31681   3.560   1.868   6.750 -0.1705  0.3595  0.6010
 6741SOL    HW131682   3.616   1.790   6.755 -1.8591 -0.7412  2.3066
 6741SOL    HW231683   3.581   1.890   6.659  0.3730  0.4916  0.7588
 6742SOL     OW31684   1.486   3.398   1.461 -0.0229 -0.1521  0.5443
 6742SOL    HW131685   1.516   3.474   1.411 -1.0683  0.2058  0.4654
 6742SOL    HW231686   1.552   3.398   1.530  0.7665 -0.3430 -0.2102
 6743SOL     OW31687   0.552   4.605   2.215  0.6454  0.2078  0.6071
 6743SOL    HW131688   0.472   4.657   2.224  0.5621 -0.0050  1.1061
 6743SOL    HW231689   0.513   4.526   2.252  1.3405 -0.2016  0.4571
 6744SOL     OW31690   3.604   1.949   5.620 -0.1654  0.1436 -0.4787
 6744SOL    HW131691   3.614   1.869   5.672 -1.1369  0.0584 -0.4329
 6744SOL    HW231692   3.520   1.981   5.652 -0.5819 -2.2197  0.8183
 6745SOL     OW31693   2.037   0.861   4.911  0.2258 -0.2846 -0.5454
 6745SOL    HW131694   2.113   0.917   4.921 -0.3999  0.7457 -1.6312
 6745SOL    HW231695   2.080   0.778   4.891  2.6587  0.9304 -0.3621
 6746SOL     OW31696   0.002   4.709  11.225  0.2227  0.2730  0.3137
 6746SOL    HW131697   4.668   0.053  11.181 -0.2892 -1.3500 -1.4757
 6746SOL    HW231698   0.002   4.630  11.171 -0.4140  0.4385  0.0734
 6747SOL     OW31699   2.635   3.738   8.494 -0.4778  0.4247 -0.1813
 6747SOL    HW131700   2.541   3.744   8.508 -0.8466  0.7843 -2.8346
 6747SOL    HW231701   2.637   3.645   8.472  0.9577 -0.0909  2.1502
 6748SOL     OW31702   3.427   3.465   2.798  0.5038 -0.2944 -0.6473
 6748SOL    HW131703   3.399   3.548   2.759  2.6510 -0.2538 -2.1264
 6748SOL    HW231704   3.519   3.487   2.809 -0.1332  2.3516 -0.6178
 6749SOL     OW31705   3.028   3.956   2.270  0.3401  0.2610 -0.0525
 6749SOL    HW131706   2.958   4.021   2.260  0.1838  0.5303  2.8314
 6749SOL    HW231707   3.103   3.993   2.225  0.6575 -0.4215 -0.0839
 6750SOL     OW31708   2.239   3.632   6.284  0.0107  0.2561 -0.0146
 6750SOL    HW131709   2.296   3.562   6.250 -1.2744  0.4525 -2.6067
 6750SOL    HW231710   2.295   3.666   6.353  1.5165 -3.2615  0.5099
 6751SOL     OW31711   4.625   4.565  13.063 -0.1442 -0.3838 -0.0028
 6751SOL    HW131712   4.595   4.537  12.976 -1.6323 -1.5944  0.9031
 6751SOL    HW231713   4.710   4.606  13.045  0.0769 -1.2973 -1.0632
 6752SOL     OW31714   0.472   2.829   3.454 -0.2953  0.5830 -0.1086
 6752SOL    HW131715   0.452   2.840   3.361 -0.6256  0.8312 -0.0081
 6752SOL    HW231716   0.545   2.890   3.462  0.7009 -0.6816  0.3657
 6753SOL     OW31717   2.619   3.742   3.438 -0.1511  0.2902 -0.2019
 6753SOL    HW131718   2.626   3.690   3.358  2.7321 -0.2230  0.3734
 6753SOL    HW231719   2.617   3.829   3.397  0.1638  0.8353  0.9509
 6754SOL     OW31720   3.288   1.635  15.587 -0.3781 -0.1970  0.3830
 6754SOL    HW131721   3.216   1.584  15.623 -0.5529  0.0599  0.3986
 6754SOL    HW231722   3.353   1.566  15.577  1.1826  1.6758 -2.4970
 6755SOL     OW31723   0.843   3.670   7.241 -0.6428 -0.0496 -0.7350
 6755SOL    HW131724   0.751   3.679   7.267 -0.0996  1.0937  0.7542
 6755SOL    HW231725   0.882   3.748   7.280 -0.6689 -0.0812 -0.6465
 6756SOL     OW31726   0.683   4.206   6.016  0.9287 -0.0476  0.3370
 6756SOL    HW131727   0.680   4.288   5.966 -0.7315  0.6680  1.5975
 6756SOL    HW231728   0.758   4.229   6.070  1.0597  1.0940 -0.3254
 6757SOL     OW31729   1.711   3.192   7.048 -0.0014 -0.6378  0.4859
 6757SOL    HW131730   1.633   3.186   6.994  0.4800 -1.9890 -0.0536
 6757SOL    HW231731   1.682   3.209   7.138  2.4568 -0.3226  1.2163
 6758SOL     OW31732   1.026   2.519   4.688 -0.9611 -0.0068 -0.6934
 6758SOL    HW131733   0.968   2.581   4.731 -0.2786  0.4203 -0.4053
 6758SOL    HW231734   0.969   2.478   4.623 -1.1722  0.0574 -0.5479
 6759SOL     OW31735   1.450   1.586   1.889 -0.1692 -0.2301  0.3575
 6759SOL    HW131736   1.487   1.673   1.904  1.3928 -0.6160 -1.1582
 6759SOL    HW231737   1.358   1.611   1.883  0.2691  1.3511  0.2338
 6760SOL     OW31738   2.238   2.160   5.231  0.0196  0.7345 -0.2930
 6760SOL    HW131739   2.218   2.253   5.228 -0.4692  0.6507  0.3997
 6760SOL    HW231740   2.332   2.156   5.245 -0.1634  0.6728  0.9074
 6761SOL     OW31741   1.720   4.102   3.423 -0.5565 -0.4621 -0.8328
 6761SOL    HW131742   1.810   4.069   3.428 -1.1917 -2.3543 -1.6566
 6761SOL    HW231743   1.727   4.195   3.402  0.2052 -0.2712  0.2748
 6762SOL     OW31744   4.127   0.683   9.311  0.6956 -0.5713  0.0530
 6762SOL    HW131745   4.134   0.777   9.326  1.9738 -0.6069 -0.2970
 6762SOL    HW231746   4.187   0.647   9.376 -1.5384 -0.9555  1.9102
 6763SOL     OW31747   0.852   0.506   7.330  0.0780  0.3294  0.1682
 6763SOL    HW131748   0.846   0.543   7.418 -2.2729  0.5427 -0.1040
 6763SOL    HW231749   0.766   0.465   7.325 -0.0988  0.6351  0.7434
 6764SOL     OW31750   3.631   1.064   6.711 -0.0239 -0.0933  0.0432
 6764SOL    HW131751   3.611   1.018   6.793 -0.6148  0.1207  0.0168
 6764SOL    HW231752   3.697   1.126   6.744 -1.1659  0.4116  1.3719
 6765SOL     OW31753   3.066   2.979  13.391  0.5164  0.1075  0.3229
 6765SOL    HW131754   3.043   2.895  13.430 -1.0715 -1.1061 -3.2278
 6765SOL    HW231755   2.977   3.015  13.386  0.5134  0.3813  2.5629
 6766SOL     OW31756   1.090   2.526   4.213 -0.0298 -0.1616  0.4490
 6766SOL    HW131757   1.089   2.431   4.219 -0.0529 -0.1191  1.1024
 6766SOL    HW231758   1.016   2.537   4.153  1.9015  0.6045 -1.8082
 6767SOL     OW31759   1.399   2.022  10.895 -0.2074 -0.4660  0.1655
 6767SOL    HW131760   1.316   2.063  10.873  0.4595  0.5324 -0.4481
 6767SOL    HW231761   1.458   2.097  10.903 -1.1207  0.2031  0.5406
 6768SOL     OW31762   2.732   0.037   2.543 -0.1144 -0.2961 -0.0365
 6768SOL    HW131763   2.817   0.022   2.501 -0.2874 -1.2180 -0.0616
 6768SOL    HW231764   2.694   0.115   2.502 -0.5601 -0.2764  0.4224
 6769SOL     OW31765   2.152   4.659   8.308 -0.0451  0.4935  0.5394
 6769SOL    HW131766   2.094   4.690   8.377 -0.9060 -0.7843  0.3834
 6769SOL    HW231767   2.193   4.585   8.353  0.7014  1.1321  0.9016
 6770SOL     OW31768   4.216   4.688   3.161  0.1754  0.2322  0.1768
 6770SOL    HW131769   4.133   4.646   3.139 -1.0559  1.7088  1.9386
 6770SOL    HW231770   4.185   0.058   3.169  0.1837  0.5151 -3.0998
 6771SOL     OW31771   1.603   4.550   6.780 -0.0467  0.2740  0.1674
 6771SOL    HW131772   1.682   4.585   6.739  1.1319 -1.2937  1.0733
 6771SOL    HW231773   1.642   4.480   6.833  0.9691 -0.9828 -2.2222
 6772SOL     OW31774   0.373   4.249   3.105  0.6959 -0.3805 -0.2774
 6772SOL    HW131775   0.366   4.234   3.010 -1.0849  1.5422 -0.4418
 6772SOL    HW231776   0.292   4.295   3.124 -0.6079 -1.4381 -3.2711
 6773SOL     OW31777   3.839   1.036  16.995 -0.1286 -0.5470 -0.6579
 6773SOL    HW131778   3.753   0.995  17.006  1.1753 -2.9338  0.4446
 6773SOL    HW231779   3.852   1.018  16.902 -2.3853 -1.5674 -0.7792
 6774SOL     OW31780   0.775   0.205   7.137 -1.0851 -0.0321 -0.1304
 6774SOL    HW131781   0.732   0.152   7.204  0.6120 -0.7036  0.4437
 6774SOL    HW231782   0.867   0.188   7.159 -0.3547  0.8388 -2.5041
 6775SOL     OW31783   0.291   2.309   7.069 -0.1401 -0.4349  0.7018
 6775SOL    HW131784   0.207   2.335   7.107 -2.0522 -3.8599 -1.1841
 6775SOL    HW231785   0.334   2.287   7.151 -2.7151  2.0628  2.7039
 6776SOL     OW31786   0.670   1.436  17.402 -0.3687 -0.7176 -0.4814
 6776SOL    HW131787   0.676   1.442  17.497 -0.5689  0.1526 -0.5214
 6776SOL    HW231788   0.575   1.435  17.390 -1.0178  0.1429  4.7361
 6777SOL     OW31789   1.981   2.698   0.010  0.5712  0.1874 -0.0096
 6777SOL    HW131790   2.076   2.705   0.004  0.2165  1.6614 -3.9307
 6777SOL    HW231791   1.962   2.734   0.097  0.1434  1.7300 -0.7444
 6778SOL     OW31792   1.412   4.110   2.240  0.5330 -0.4111  0.7211
 6778SOL    HW131793   1.461   4.153   2.309  1.2402  1.1108 -0.7291
 6778SOL    HW231794   1.338   4.169   2.237 -2.1770 -3.7800  1.1612
 6779SOL     OW31795   1.326   3.672  15.679 -0.0931 -0.4722 -0.3980
 6779SOL    HW131796   1.410   3.718  15.677  0.2154 -0.9515  1.8727
 6779SOL    HW231797   1.354   3.597  15.627  0.8502  0.2939 -1.0072
 6780SOL     OW31798   0.555   4.616  15.929 -0.2654  0.7853  0.3413
 6780SOL    HW131799   0.556   4.583  15.839  0.1225  1.9145 -0.0751
 6780SOL    HW231800   0.465   4.646  15.943 -0.9478 -0.8397 -0.5629
 6781SOL     OW31801   0.858   0.953   7.414  0.3147 -0.1947 -0.0044
 6781SOL    HW131802   0.861   0.892   7.341  0.3814 -1.0000  0.6640
 6781SOL    HW231803   0.765   0.952   7.434  0.4002  0.0255  0.4173
 6782SOL     OW31804   1.716   2.196   5.755  0.1026  0.1255 -0.0786
 6782SOL    HW131805   1.696   2.190   5.849  1.6905  0.3082  0.2697
 6782SOL    HW231806   1.654   2.129   5.726 -1.2227  0.6418  1.5516
 6783SOL     OW31807   4.481   4.078   0.916 -0.5336  0.1801 -0.1804
 6783SOL    HW131808   4.465   4.104   0.825  1.2763  0.8584 -0.2987
 6783SOL    HW231809   4.569   4.111   0.934 -0.8325  0.8879 -0.0522
 6784SOL     OW31810   0.929   1.585   7.088 -0.2838 -0.3442  0.3426
 6784SOL    HW131811   0.895   1.663   7.044  0.0397 -0.0056  0.6833
 6784SOL    HW231812   0.935   1.527   7.012 -0.3495  1.1056 -0.7823
 6785SOL     OW31813   0.223   1.386  15.882 -0.3161  0.2233  0.5083
 6785SOL    HW131814   0.267   1.357  15.962 -2.5524  2.3465  2.5159
 6785SOL    HW231815   0.138   1.347  15.904  1.0400 -1.5207  2.6401
 6786SOL     OW31816   0.927   0.112  13.432  1.3957  0.4404 -0.2600
 6786SOL    HW131817   0.957   0.167  13.359  1.1278 -1.2104 -1.6335
 6786SOL    HW231818   1.011   0.076  13.460  1.5329  1.7240  0.9365
 6787SOL     OW31819   4.064   3.357   0.571  0.1835  0.2908  0.1900
 6787SOL    HW131820   4.065   3.316   0.484 -0.7797  1.5441 -0.4103
 6787SOL    HW231821   4.157   3.378   0.584  0.7807 -2.5673  0.4994
 6788SOL     OW31822   0.856   2.671  10.800 -0.0654  0.2436  0.6409
 6788SOL    HW131823   0.851   2.711  10.887 -3.1058  1.5605 -0.1268
 6788SOL    HW231824   0.920   2.727  10.756 -1.2535  1.1910  0.1089
 6789SOL     OW31825   3.642   0.899   2.464 -0.2295 -0.5817  0.4546
 6789SOL    HW131826   3.556   0.942   2.465 -1.1377 -2.4186  1.0870
 6789SOL    HW231827   3.632   0.875   2.372  0.2537  1.5376 -0.1517
 6790SOL     OW31828   1.935   4.702  12.017 -0.2702  0.5670  0.7855
 6790SOL    HW131829   1.943   4.633  11.951  1.1592  1.0085  0.5102
 6790SOL    HW231830   1.846   4.678  12.044 -1.5427  0.9940 -3.0379
 6791SOL     OW31831   0.499   1.208   6.468  0.0046 -0.2829  0.1659
 6791SOL    HW131832   0.522   1.128   6.515  0.4635 -0.6682 -0.7184
 6791SOL    HW231833   0.502   1.284   6.526  1.4012  0.0872 -0.3803
 6792SOL     OW31834   1.248   2.108   6.906  0.2633 -0.5043  0.9297
 6792SOL    HW131835   1.336   2.145   6.902  0.6060 -1.2833  1.1822
 6792SOL    HW231836   1.275   2.038   6.966  3.2201 -1.9337 -2.0558
 6793SOL     OW31837   0.543   2.230  16.086 -0.4241  0.0264  0.0550
 6793SOL    HW131838   0.464   2.237  16.032  0.2220 -1.7340 -1.1324
 6793SOL    HW231839   0.612   2.220  16.020  1.6341  1.9845  1.9207
 6794SOL     OW31840   4.529   0.754   8.664 -0.1705  0.6234 -0.1517
 6794SOL    HW131841   4.475   0.727   8.738  0.9972  0.6478  0.7072
 6794SOL    HW231842   4.451   0.777   8.614  1.1723  0.5067 -2.2780
 6795SOL     OW31843   1.561   1.189   9.131  0.0881 -0.0492 -0.8974
 6795SOL    HW131844   1.609   1.113   9.097 -0.1119 -0.4846 -0.2270
 6795SOL    HW231845   1.540   1.154   9.218 -0.6747  0.9307 -0.6940
 6796SOL     OW31846   2.826   1.765   6.834 -0.0562  0.1748  0.3341
 6796SOL    HW131847   2.869   1.775   6.919 -0.9547  0.2341  0.7866
 6796SOL    HW231848   2.849   1.674   6.820  0.3849  0.1538  1.1924
 6797SOL     OW31849   2.209   1.495   2.113  0.4654  0.9074  0.6161
 6797SOL    HW131850   2.221   1.404   2.089 -1.1014  0.6879  0.6799
 6797SOL    HW231851   2.173   1.491   2.202  0.5892  1.3198  0.6887
 6798SOL     OW31852   3.304   3.440   1.586  0.0954  0.4766 -0.2077
 6798SOL    HW131853   3.210   3.431   1.570  0.1451 -0.7971  0.1868
 6798SOL    HW231854   3.327   3.520   1.539  0.7599  0.0321 -0.6556
 6799SOL     OW31855   2.733   1.532   7.709 -0.0504  0.5369 -0.7416
 6799SOL    HW131856   2.748   1.450   7.662  0.7706 -0.0983  0.6227
 6799SOL    HW231857   2.637   1.535   7.702  0.0061  2.4943 -0.6472
 6800SOL     OW31858   1.716   2.654  14.833 -0.0867  0.0186 -0.2685
 6800SOL    HW131859   1.737   2.575  14.882  2.0437  0.3483 -0.6357
 6800SOL    HW231860   1.676   2.612  14.757 -0.6713  0.6157 -0.2955
 6801SOL     OW31861   0.612   4.543  15.034  0.0052  0.5945 -0.4201
 6801SOL    HW131862   0.676   4.535  15.104 -0.2365 -0.9043 -0.3658
 6801SOL    HW231863   0.556   4.595  15.092  1.5014  3.5572 -1.6171
 6802SOL     OW31864   3.745   3.493   8.540  0.2338 -0.0238 -0.1318
 6802SOL    HW131865   3.712   3.536   8.461  1.4385  0.1838 -0.5158
 6802SOL    HW231866   3.797   3.421   8.504 -0.8344 -1.2016  0.6661
 6803SOL     OW31867   0.695   2.536  13.652 -0.2022  0.2914 -0.1155
 6803SOL    HW131868   0.718   2.480  13.578 -1.4607  1.2605 -1.2240
 6803SOL    HW231869   0.740   2.479  13.715  0.3933  1.2363  0.3140
 6804SOL     OW31870   2.789   0.989   8.978  0.1008  0.0555 -0.1296
 6804SOL    HW131871   2.876   0.966   9.010  0.1706  0.9865  0.3441
 6804SOL    HW231872   2.752   1.028   9.058  1.0379 -1.7133  1.1729
 6805SOL     OW31873   1.627   3.960   8.920 -0.2214  0.4076 -0.2733
 6805SOL    HW131874   1.602   4.039   8.872 -1.1837  0.7186  0.7352
 6805SOL    HW231875   1.701   3.996   8.968 -0.9262  0.6053  0.6607
 6806SOL     OW31876   4.424   1.523   1.934  0.1667 -0.1293  0.3935
 6806SOL    HW131877   4.390   1.608   1.905 -0.4578 -0.0657  1.3306
 6806SOL    HW231878   4.519   1.536   1.924  0.3638  0.7516  3.3075
 6807SOL     OW31879   4.206   3.353   4.400 -0.2075  0.5952  0.1112
 6807SOL    HW131880   4.239   3.301   4.327  2.8895  2.5531  0.1701
 6807SOL    HW231881   4.112   3.365   4.383  0.1269  2.7700 -0.1790
 6808SOL     OW31882   3.882   0.293   1.442  0.2495  0.6028  0.6362
 6808SOL    HW131883   3.823   0.229   1.482  1.2641 -0.7973 -0.0996
 6808SOL    HW231884   3.921   0.332   1.520 -0.8538  0.9984  1.0009
 6809SOL     OW31885   0.664   0.658  12.820  0.2777 -0.4080 -0.4176
 6809SOL    HW131886   0.627   0.631  12.904 -2.7938 -0.9445 -1.9226
 6809SOL    HW231887   0.758   0.659  12.835 -0.0554  1.1503  1.4374
 6810SOL     OW31888   0.206   2.056   7.843 -0.6649 -0.0488 -0.1590
 6810SOL    HW131889   0.232   2.139   7.883 -3.1620  0.8403 -0.3477
 6810SOL    HW231890   0.145   2.083   7.774 -2.1927 -1.2606  0.7192
 6811SOL     OW31891   2.444   0.333   5.495  0.4106  0.3100  0.5238
 6811SOL    HW131892   2.436   0.283   5.576 -0.7184  0.9379  0.8029
 6811SOL    HW231893   2.352   0.352   5.477  0.2336  0.2679  1.4000
 6812SOL     OW31894   0.168   1.871   8.779 -0.3728  0.1516 -1.0466
 6812SOL    HW131895   0.184   1.875   8.874 -0.8223  0.8194 -1.0030
 6812SOL    HW231896   0.118   1.790   8.775 -0.5563  0.2070  0.1703
 6813SOL     OW31897   2.431   3.551  17.069 -0.5562 -0.0821 -0.1788
 6813SOL    HW131898   2.505   3.497  17.044  1.3114  1.2829  2.3089
 6813SOL    HW231899   2.448   3.577  17.160  3.7391 -1.1021 -0.7144
 6814SOL     OW31900   0.231   0.587   7.435  0.2494  0.5779  0.3234
 6814SOL    HW131901   0.316   0.624   7.415  0.2435 -0.7275 -2.1509
 6814SOL    HW231902   0.243   0.539   7.517 -1.7946  0.4372  0.5466
 6815SOL     OW31903   1.434   3.436   5.162 -0.0764  0.1378  0.0482
 6815SOL    HW131904   1.407   3.344   5.167 -1.7502  0.5442 -1.4374
 6815SOL    HW231905   1.439   3.455   5.068  0.4709  0.2450  0.1004
 6816SOL     OW31906   4.613   3.891   6.470  0.7135  0.0963 -0.1771
 6816SOL    HW131907   4.536   3.850   6.429  0.3111  0.0990  0.5767
 6816SOL    HW231908   4.610   3.853   6.558 -1.0135 -0.5583 -0.5229
 6817SOL     OW31909   2.872   4.483  16.351 -0.5439  0.3267 -0.6010
 6817SOL    HW131910   2.827   4.407  16.314  2.5666 -1.0951 -1.4962
 6817SOL    HW231911   2.816   4.505  16.425  2.2784  2.1091  1.0109
 6818SOL     OW31912   1.834   2.919   0.958 -0.4792 -0.8329 -0.5990
 6818SOL    HW131913   1.900   2.943   0.894 -0.3569 -1.4131 -0.6895
 6818SOL    HW231914   1.878   2.944   1.040 -0.0292 -0.1069 -1.0577
 6819SOL     OW31915   1.451   0.310  16.547  0.0938  0.4512  0.0184
 6819SOL    HW131916   1.377   0.260  16.582 -2.4232  3.0185 -1.6328
 6819SOL    HW231917   1.437   0.403  16.565 -0.9958  0.7437 -2.3724
 6820SOL     OW31918   0.628   0.596   3.229  0.5193 -0.3724 -0.5602
 6820SOL    HW131919   0.675   0.585   3.146 -1.1733 -2.6537 -1.2042
 6820SOL    HW231920   0.552   0.648   3.203 -0.6890 -1.8937 -0.0969
 6821SOL     OW31921   0.291   0.826  11.533 -0.3214  0.0363  0.3181
 6821SOL    HW131922   0.290   0.910  11.488  4.4294 -1.0617 -1.7758
 6821SOL    HW231923   0.217   0.840  11.592 -0.7513 -2.2561  0.3333
 6822SOL     OW31924   1.539   1.092   9.566  0.6052  0.1075  0.5119
 6822SOL    HW131925   1.454   1.134   9.571 -0.5868 -2.4009  1.4665
 6822SOL    HW231926   1.594   1.171   9.569  2.2009 -1.0008  0.7260
 6823SOL     OW31927   3.233   4.420   8.002 -0.7769 -0.3254 -0.2438
 6823SOL    HW131928   3.201   4.332   7.980 -0.7544 -0.9079  1.9699
 6823SOL    HW231929   3.271   4.399   8.088  0.5621  0.5463 -0.6302
 6824SOL     OW31930   3.910   3.459  11.171 -0.5154 -0.5558 -0.2533
 6824SOL    HW131931   3.970   3.482  11.100 -1.4347 -2.2215 -1.5986
 6824SOL    HW231932   3.962   3.392  11.215 -1.0152 -0.1898  0.8854
 6825SOL     OW31933   1.946   2.250   3.420 -0.4956  0.0046  0.2702
 6825SOL    HW131934   2.013   2.302   3.463  1.9407 -1.4869 -1.7122
 6825SOL    HW231935   1.885   2.321   3.399 -1.2398 -0.9553 -0.8639
 6826SOL     OW31936   3.863   1.528   6.841 -0.0246  0.4306 -0.5457
 6826SOL    HW131937   3.877   1.581   6.920 -0.5886 -1.1395  0.5914
 6826SOL    HW231938   3.955   1.529   6.814  0.3331 -0.7785  0.6262
 6827SOL     OW31939   4.204   0.309   1.231 -0.1002  0.1776  0.0879
 6827SOL    HW131940   4.175   0.350   1.150  0.8266  0.7153  0.0352
 6827SOL    HW231941   4.118   0.280   1.262 -0.0374  1.0608  1.0829
 6828SOL     OW31942   0.757   0.076   7.704 -0.0179 -0.2150  0.1168
 6828SOL    HW131943   0.777   0.129   7.627  0.6271  0.6733  0.9038
 6828SOL    HW231944   0.836   0.099   7.751 -0.0370 -0.1680  0.1259
 6829SOL     OW31945   0.492   0.734  13.077 -0.4120 -0.2191 -0.3363
 6829SOL    HW131946   0.454   0.765  13.159 -0.2593 -1.1492  0.0897
 6829SOL    HW231947   0.551   0.670  13.118 -0.1151  0.6636  0.6541
 6830SOL     OW31948   1.686   0.211  11.754 -0.0069  0.0502 -0.4172
 6830SOL    HW131949   1.695   0.297  11.713  0.5261  0.2139  0.0456
 6830SOL    HW231950   1.720   0.226  11.842 -1.4574 -1.9696  0.4886
 6831SOL     OW31951   3.702   4.671   2.036 -0.0514  0.1467  0.6257
 6831SOL    HW131952   3.784   4.687   2.082  0.0837  0.3526  0.3054
 6831SOL    HW231953   3.674   0.038   2.014 -0.0641  0.4201  1.7022
 6832SOL     OW31954   1.376   0.793   9.877 -0.1782 -0.0191  0.0444
 6832SOL    HW131955   1.399   0.757   9.962  0.9910  0.3208 -0.1175
 6832SOL    HW231956   1.339   0.876   9.907  2.1460  0.5273  1.3743
 6833SOL     OW31957   1.971   3.109  13.630  0.9122  0.1137  0.2567
 6833SOL    HW131958   1.886   3.069  13.643  0.8051 -0.2820 -1.5914
 6833SOL    HW231959   1.967   3.172  13.702 -1.4229  2.2610 -1.7468
 6834SOL     OW31960   0.692   0.725  15.088 -0.7759  0.8343 -0.4250
 6834SOL    HW131961   0.762   0.677  15.132  0.6769  2.7951 -0.6088
 6834SOL    HW231962   0.734   0.811  15.091 -0.5555  0.6976  0.2688
 6835SOL     OW31963   0.191   0.050   1.582 -0.3037  0.0618  0.4783
 6835SOL    HW131964   0.219   0.105   1.655  1.5134  1.9641 -1.6649
 6835SOL    HW231965   0.130   0.106   1.534  0.0481 -0.0440 -0.0983
 6836SOL     OW31966   3.136   0.076  12.296 -0.1955  0.2651  0.3946
 6836SOL    HW131967   3.153   0.135  12.369 -0.5255  2.4435 -1.3038
 6836SOL    HW231968   3.202   0.087  12.227 -0.7474 -0.6604 -0.2881
 6837SOL     OW31969   1.357   0.844   4.440 -0.0740 -0.4015  0.4597
 6837SOL    HW131970   1.401   0.881   4.363  1.7998  0.1378  1.7690
 6837SOL    HW231971   1.310   0.771   4.400  0.2986  0.9703 -2.4657
 6838SOL     OW31972   3.499   4.270   6.316 -0.7350 -0.5222  0.8999
 6838SOL    HW131973   3.495   4.199   6.252 -0.6433  0.3626 -0.0788
 6838SOL    HW231974   3.465   4.232   6.397 -2.6329  2.9695  1.7719
 6839SOL     OW31975   2.300   2.927  11.633 -0.0432 -0.2447 -0.5339
 6839SOL    HW131976   2.367   2.950  11.697  2.0143  0.0544 -2.8390
 6839SOL    HW231977   2.330   2.982  11.561 -0.5859  0.4697 -0.2154
 6840SOL     OW31978   2.269   2.600  11.050 -0.2139 -0.1933 -0.2894
 6840SOL    HW131979   2.312   2.627  11.131 -0.3496 -0.2734 -0.1903
 6840SOL    HW231980   2.290   2.681  11.004  0.6858 -0.8718 -1.0625
 6841SOL     OW31981   3.468   0.359   6.451  0.8255 -0.1243 -0.3582
 6841SOL    HW131982   3.517   0.377   6.371 -0.9855 -1.2988 -1.7179
 6841SOL    HW231983   3.515   0.412   6.515  0.5681  1.4163 -1.4359
 6842SOL     OW31984   4.051   1.386   8.280  0.3536  0.3321 -0.2809
 6842SOL    HW131985   4.063   1.358   8.189 -0.1346  0.2734 -0.3272
 6842SOL    HW231986   3.968   1.434   8.277  0.6217  0.8189  0.3984
 6843SOL     OW31987   4.612   1.177   3.728 -0.1726 -0.0231 -0.9124
 6843SOL    HW131988   4.558   1.202   3.654 -0.6484 -3.0573 -1.5789
 6843SOL    HW231989   4.617   1.258   3.779  1.2656 -0.9992  0.4973
 6844SOL     OW31990   4.395   4.598   5.503 -0.0258 -0.1679 -0.0822
 6844SOL    HW131991   4.460   4.536   5.471 -0.4936 -2.0291  2.5185
 6844SOL    HW231992   4.429   4.613   5.592 -0.8696  0.6090  0.1121
 6845SOL     OW31993   1.363   1.669   9.907 -0.0039 -0.0963  0.1759
 6845SOL    HW131994   1.407   1.739   9.955 -1.4574  0.6745  0.3661
 6845SOL    HW231995   1.281   1.715   9.888 -0.3659 -0.9473 -0.3144
 6846SOL     OW31996   4.429   0.301   5.372 -0.0809 -0.2093 -0.2812
 6846SOL    HW131997   4.406   0.391   5.395 -1.0115 -0.6363  0.4508
 6846SOL    HW231998   4.388   0.253   5.444  0.8548 -1.2168 -0.4233
 6847SOL     OW31999   4.414   3.341   8.969  0.1658  0.1612  0.8106
 6847SOL    HW132000   4.439   3.357   8.878  1.7550 -1.7636  0.9132
 6847SOL    HW232001   4.479   3.380   9.028 -0.4562 -0.6501  2.0140
 6848SOL     OW32002   0.382   3.608   8.721 -0.1021  0.3912  0.5003
 6848SOL    HW132003   0.390   3.623   8.627  0.0762  2.2563  0.8224
 6848SOL    HW232004   0.406   3.515   8.720  0.9678  0.6660  0.5793
 6849SOL     OW32005   4.548   4.017  16.199  0.1434 -0.5246 -0.3368
 6849SOL    HW132006   4.545   3.939  16.255  0.5811 -1.1054 -1.1148
 6849SOL    HW232007   4.590   4.076  16.261 -0.6330 -0.2357 -0.0875
 6850SOL     OW32008   3.382   1.556   9.822  0.2010  0.0381 -0.4057
 6850SOL    HW132009   3.326   1.568   9.900  0.9824  1.5502 -0.0725
 6850SOL    HW232010   3.354   1.634   9.774  2.3724  0.3940 -1.0738
 6851SOL     OW32011   0.029   1.152   0.929  0.0177  0.0777 -0.0820
 6851SOL    HW132012   0.071   1.181   1.010  0.0483 -0.6993  0.1733
 6851SOL    HW232013   0.106   1.168   0.875  0.3048 -2.9347 -0.5525
 6852SOL     OW32014   2.971   0.782   7.652  0.5416 -0.3168  0.1857
 6852SOL    HW132015   2.887   0.745   7.624  0.0368 -0.1200  1.4664
 6852SOL    HW232016   3.015   0.781   7.567  0.1881 -1.4974  0.0168
 6853SOL     OW32017   2.041   4.651   5.095 -0.0832  0.6347 -0.0028
 6853SOL    HW132018   2.075   4.630   5.008  2.5813  1.0929  0.9076
 6853SOL    HW232019   1.955   4.610   5.098 -0.1509  0.8344  0.8217
 6854SOL     OW32020   3.895   3.253   2.099  0.5377 -0.3452  0.2431
 6854SOL    HW132021   3.839   3.225   2.172 -0.2754 -0.2368 -0.3355
 6854SOL    HW232022   3.840   3.232   2.023  1.3473 -1.1933 -0.0948
 6855SOL     OW32023   3.243   0.575   6.339 -0.2327 -0.5434 -0.2427
 6855SOL    HW132024   3.314   0.535   6.389 -0.2421 -0.6095 -0.2816
 6855SOL    HW232025   3.281   0.662   6.327 -2.8852  0.4758 -1.1851
 6856SOL     OW32026   4.011   1.358   2.689  0.2321  0.0150 -0.1471
 6856SOL    HW132027   4.055   1.308   2.620 -1.7235  0.8599 -2.0432
 6856SOL    HW232028   4.050   1.316   2.765  1.2041  1.2834  0.0482
 6857SOL     OW32029   4.313   3.053  15.917  0.1632 -0.3474 -0.4392
 6857SOL    HW132030   4.406   3.033  15.920 -0.0338 -1.2569 -0.2576
 6857SOL    HW232031   4.274   2.976  15.875 -2.4189  0.4900  0.3862
 6858SOL     OW32032   4.563   4.553  12.263  0.4617  0.0300  0.2929
 6858SOL    HW132033   4.497   4.510  12.317 -0.2519  0.8974  0.1024
 6858SOL    HW232034   4.527   4.529  12.177  2.6182  1.1997 -0.9337
 6859SOL     OW32035   0.438   1.886  12.941  0.4842 -0.0834 -0.7034
 6859SOL    HW132036   0.455   1.978  12.957 -1.5607  0.1443  0.1696
 6859SOL    HW232037   0.434   1.887  12.845 -1.6031  2.5038 -0.5616
 6860SOL     OW32038   0.496   0.512  15.660 -0.1561  0.0478  0.5738
 6860SOL    HW132039   0.550   0.516  15.739  2.2328 -2.2891 -0.9308
 6860SOL    HW232040   0.514   0.602  15.632 -4.2006  1.7797  3.5783
 6861SOL     OW32041   2.221   4.304   2.796 -0.0426 -0.0512  0.6163
 6861SOL    HW132042   2.235   4.399   2.788  0.5549 -0.3080 -1.3202
 6861SOL    HW232043   2.135   4.302   2.838  0.4765  1.5319  1.7875
 6862SOL     OW32044   0.289   2.910   4.738 -0.5900 -0.7527  0.2362
 6862SOL    HW132045   0.296   2.883   4.830  1.2763 -2.2362 -0.3374
 6862SOL    HW232046   0.272   3.003   4.752 -0.3706 -0.5251 -1.0294
 6863SOL     OW32047   2.434   3.911  11.992  0.3323  0.2162  0.3191
 6863SOL    HW132048   2.522   3.947  12.003  0.0906  1.5792 -2.2296
 6863SOL    HW232049   2.401   3.924  12.081 -1.5831 -0.3461 -0.3000
 6864SOL     OW32050   2.377   1.237   1.419  0.0302 -0.6441 -0.2651
 6864SOL    HW132051   2.305   1.186   1.455 -0.0148  0.2012  0.8515
 6864SOL    HW232052   2.421   1.275   1.496 -0.4317 -1.4825  0.4140
 6865SOL     OW32053   1.925   0.862  16.318 -0.3386  0.7574 -0.0029
 6865SOL    HW132054   1.925   0.951  16.282  2.8321  1.4111  1.6120
 6865SOL    HW232055   1.915   0.810  16.239  0.1330  0.9244 -0.1723
 6866SOL     OW32056   1.007   0.049   8.855 -0.2735  0.0597 -0.3411
 6866SOL    HW132057   0.914   0.071   8.851  0.1939  2.3338  1.0116
 6866SOL    HW232058   1.055   0.123   8.815  0.7108 -0.0086  0.7060
 6867SOL     OW32059   1.621   0.698  11.456 -0.3752 -0.3263  0.5201
 6867SOL    HW132060   1.593   0.698  11.364  2.1226  1.8505 -0.2374
 6867SOL    HW232061   1.660   0.785  11.461 -0.0863 -0.6138  3.1275
 6868SOL     OW32062   0.572   1.908   0.968 -0.3293  0.5168 -0.4351
 6868SOL    HW132063   0.581   1.852   0.891 -1.2795  0.6586 -0.6433
 6868SOL    HW232064   0.579   1.839   1.034  0.2965  0.0539 -0.9835
 6869SOL     OW32065   4.410   0.651  14.939  0.6616  0.3064  0.2956
 6869SOL    HW132066   4.448   0.733  14.910 -0.6913  1.6489  2.3294
 6869SOL    HW232067   4.480   0.589  14.916  0.0228 -0.2565 -0.1512
 6870SOL     OW32068   0.798   0.172   2.255 -0.3288  0.1653 -0.1775
 6870SOL    HW132069   0.798   0.116   2.333  0.8881 -1.7544 -1.5699
 6870SOL    HW232070   0.880   0.218   2.273 -0.8845  1.2527 -0.4226
 6871SOL     OW32071   1.672   1.403   6.294  0.4256 -0.6096  0.1181
 6871SOL    HW132072   1.759   1.425   6.329  0.5810 -1.0950  0.0433
 6871SOL    HW232073   1.663   1.447   6.210 -1.9537 -1.0192  0.1520
 6872SOL     OW32074   4.379   3.359  13.785  0.3026 -0.2744 -0.4573
 6872SOL    HW132075   4.379   3.435  13.845  1.2182 -1.6869  1.3276
 6872SOL    HW232076   4.312   3.392  13.725 -0.0074  1.3297  0.7507
 6873SOL     OW32077   3.951   2.871  15.837 -0.5645  0.1160 -0.0099
 6873SOL    HW132078   3.944   2.790  15.888 -1.4965  2.0289  2.8577
 6873SOL    HW232079   3.865   2.881  15.796  0.3493  1.6304 -1.5643
 6874SOL     OW32080   3.390   3.754   2.430 -0.2551  0.3650 -0.5940
 6874SOL    HW132081   3.353   3.665   2.432  0.6415  0.0190  0.5383
 6874SOL    HW232082   3.376   3.764   2.335 -0.3187 -0.7043 -0.7074
 6875SOL     OW32083   4.073   2.995   6.656  0.4451 -0.5474  0.2931
 6875SOL    HW132084   4.029   2.923   6.611  0.2662  0.1533 -0.6461
 6875SOL    HW232085   4.001   3.012   6.717 -1.7632 -1.7551 -1.9874
 6876SOL     OW32086   0.836   2.031   5.898 -0.2298  0.3091  0.0497
 6876SOL    HW132087   0.834   1.949   5.849 -1.7230  1.0630 -1.1415
 6876SOL    HW232088   0.753   2.020   5.945 -0.9805  3.3133 -0.5604
 6877SOL     OW32089   2.011   2.031   2.522 -0.2059 -0.1123 -0.5974
 6877SOL    HW132090   2.077   1.967   2.547 -0.1018  0.1214 -0.2733
 6877SOL    HW232091   1.938   2.024   2.584 -0.6853 -0.1789 -1.1712
 6878SOL     OW32092   3.168   0.453   3.727  0.0502 -0.0666  0.5484
 6878SOL    HW132093   3.142   0.503   3.650  0.7878  0.1194  0.4125
 6878SOL    HW232094   3.252   0.419   3.695 -1.1169 -2.1723 -0.2409
 6879SOL     OW32095   3.796   0.948   9.538 -0.8258  0.1711 -0.1018
 6879SOL    HW132096   3.733   1.019   9.549 -1.2121 -0.3794  1.2029
 6879SOL    HW232097   3.874   1.000   9.559  1.0148 -2.8296  0.5522
 6880SOL     OW32098   4.086   2.473   3.647 -0.0993  0.0786 -0.0973
 6880SOL    HW132099   4.139   2.498   3.571  1.5152 -0.9478  0.6791
 6880SOL    HW232100   4.017   2.414   3.616  1.0181  0.4290 -3.2116
 6881SOL     OW32101   3.830   0.304  14.119  0.0089 -0.0295  0.5743
 6881SOL    HW132102   3.871   0.253  14.189  0.9722  0.9309  0.7051
 6881SOL    HW232103   3.749   0.326  14.164  0.4519  0.1005  1.3047
 6882SOL     OW32104   0.943   0.525   6.868 -0.1159  0.8346  0.1155
 6882SOL    HW132105   0.849   0.517   6.850 -0.3805 -0.8736  2.2062
 6882SOL    HW232106   0.950   0.483   6.954  1.6391 -1.3071 -1.0611
 6883SOL     OW32107   2.866   3.175  13.068  0.1186  0.6240  0.0566
 6883SOL    HW132108   2.832   3.200  12.982 -0.1780  0.0303  0.0020
 6883SOL    HW232109   2.932   3.242  13.084  0.9150 -0.3959  0.9792
 6884SOL     OW32110   4.088   4.424   0.504  0.1978 -0.4607 -0.1066
 6884SOL    HW132111   4.171   4.429   0.457  0.1571  1.9343  0.0783
 6884SOL    HW232112   4.046   4.367   0.440  0.3115  1.3711 -1.7934
 6885SOL     OW32113   1.415   4.023   7.800 -0.2642  0.0880  0.3592
 6885SOL    HW132114   1.416   3.964   7.875  0.9039 -0.3684 -0.0186
 6885SOL    HW232115   1.427   3.963   7.727  3.0573  0.4889  0.6123
 6886SOL     OW32116   1.786   3.247   5.413  0.4783 -0.2365  0.2232
 6886SOL    HW132117   1.730   3.176   5.445  1.3860 -0.4479  1.3318
 6886SOL    HW232118   1.723   3.317   5.431  1.4416  1.2671 -2.3531
 6887SOL     OW32119   3.152   4.347  13.282 -0.4024 -0.1433 -0.5982
 6887SOL    HW132120   3.147   4.278  13.216  0.4823 -0.3368 -0.4647
 6887SOL    HW232121   3.219   4.306  13.337 -2.2950 -0.5440  1.3771
 6888SOL     OW32122   3.707   1.423   8.313 -0.4902  0.4208 -0.0283
 6888SOL    HW132123   3.647   1.419   8.387  0.6074  1.5283  0.9168
 6888SOL    HW232124   3.682   1.503   8.266  0.4148  0.3998 -0.5627
 6889SOL     OW32125   2.229   0.116   5.573  0.0785  0.3128 -0.1455
 6889SOL    HW132126   2.203   0.185   5.513 -1.3772 -0.4871 -0.4441
 6889SOL    HW232127   2.318   0.136   5.601  0.6093 -1.0040 -0.8717
 6890SOL     OW32128   3.643   1.421   5.510  0.0480 -0.1388 -0.3320
 6890SOL    HW132129   3.560   1.441   5.467 -0.0695 -1.1492 -0.5827
 6890SOL    HW232130   3.688   1.389   5.432  1.3212  0.2683  0.2403
 6891SOL     OW32131   0.659   3.023  12.159 -0.0616  0.0324  0.4102
 6891SOL    HW132132   0.683   3.062  12.075 -1.6504 -0.2926 -0.1958
 6891SOL    HW232133   0.741   3.033  12.207 -0.3535  0.8827  0.7472
 6892SOL     OW32134   2.494   1.004  11.510 -0.4583  0.0782 -0.0381
 6892SOL    HW132135   2.427   0.982  11.575  0.3672 -0.5052  0.6159
 6892SOL    HW232136   2.559   0.937  11.531 -0.9915 -0.2773  0.5032
 6893SOL     OW32137   1.125   4.313   8.801  0.2326 -0.1864 -0.2674
 6893SOL    HW132138   1.199   4.280   8.750 -0.2472 -1.3679 -0.2027
 6893SOL    HW232139   1.130   4.401   8.764 -0.2208  1.1175  2.7378
 6894SOL     OW32140   3.822   1.201   5.614 -0.1411 -0.2844  0.1156
 6894SOL    HW132141   3.757   1.248   5.561  0.5225 -0.7192 -1.0830
 6894SOL    HW232142   3.765   1.133   5.650  0.0251  0.1049  1.1048
 6895SOL     OW32143   3.748   1.732  16.793  0.3794  0.5198  0.0291
 6895SOL    HW132144   3.721   1.733  16.885 -0.4067  0.9525 -0.2104
 6895SOL    HW232145   3.676   1.687  16.750 -0.2005  1.4976 -0.0126
 6896SOL     OW32146   2.200   4.051   4.143  0.2326  0.0566  0.0566
 6896SOL    HW132147   2.160   4.033   4.058 -1.6583 -0.1197  0.9739
 6896SOL    HW232148   2.261   4.120   4.118 -0.0850 -0.3424 -1.8307
 6897SOL     OW32149   2.490   4.277  14.900 -0.5777 -0.2512 -0.1610
 6897SOL    HW132150   2.442   4.207  14.944  1.5071 -1.7093 -0.1944
 6897SOL    HW232151   2.573   4.260  14.945 -1.9510 -1.9034  1.7541
 6898SOL     OW32152   4.701   1.775  16.211 -0.4827  0.3119 -0.2246
 6898SOL    HW132153   4.647   1.704  16.246 -1.5203  1.7109  0.9884
 6898SOL    HW232154   0.066   1.739  16.232 -0.4714 -0.4492 -1.5927
 6899SOL     OW32155   0.313   2.702   3.633 -0.2243 -0.1309  0.4409
 6899SOL    HW132156   0.352   2.616   3.616 -2.7490 -1.4015  0.9735
 6899SOL    HW232157   0.373   2.745   3.572 -0.8605  2.5165  1.6940
 6900SOL     OW32158   3.809   0.044   8.202 -0.1777 -0.2281  0.1372
 6900SOL    HW132159   3.891   0.008   8.168  0.1036  1.8021 -1.2658
 6900SOL    HW232160   3.778   0.103   8.134 -0.9312 -1.9015 -0.9802
 6901SOL     OW32161   0.804   2.131   5.568 -0.4626  0.6910 -0.0551
 6901SOL    HW132162   0.895   2.137   5.538  0.4633 -1.2978  2.3999
 6901SOL    HW232163   0.829   2.137   5.660  1.6955  1.4471 -0.7014
 6902SOL     OW32164   3.480   2.922   5.731 -0.2776 -0.0429  0.0987
 6902SOL    HW132165   3.487   2.897   5.823  0.5749  0.8581  0.2791
 6902SOL    HW232166   3.416   2.858   5.700  1.1563 -1.0606 -0.7640
 6903SOL     OW32167   4.480   1.214   7.532 -0.4298  0.1603  0.2541
 6903SOL    HW132168   4.570   1.246   7.524 -0.1977 -0.2401  1.2727
 6903SOL    HW232169   4.430   1.292   7.507 -0.9533  0.1980  1.4386
 6904SOL     OW32170   3.359   3.244   5.990  0.0158  0.2086 -0.2632
 6904SOL    HW132171   3.351   3.337   5.966  0.5508  0.2599 -0.2410
 6904SOL    HW232172   3.442   3.212   5.956  1.7667  3.9084  0.4965
 6905SOL     OW32173   3.979   4.313   7.550 -0.2213 -0.1083 -0.2117
 6905SOL    HW132174   3.914   4.374   7.585  1.9775  2.1132 -0.0117
 6905SOL    HW232175   4.052   4.320   7.612  0.1963 -1.7065 -0.5150
 6906SOL     OW32176   3.141   1.510   3.701  0.7103 -0.3463  0.0935
 6906SOL    HW132177   3.106   1.512   3.612 -0.8852 -0.9801  0.6941
 6906SOL    HW232178   3.219   1.456   3.687 -0.1133 -0.9827 -2.0594
 6907SOL     OW32179   4.013   0.269   6.356 -0.2601  0.5200 -0.2407
 6907SOL    HW132180   4.032   0.223   6.438  1.3265  2.1305  0.2871
 6907SOL    HW232181   3.972   0.199   6.304  0.4718 -0.2294  0.1846
 6908SOL     OW32182   2.782   4.290   9.648 -0.2753  0.7248 -0.0694
 6908SOL    HW132183   2.807   4.351   9.717 -1.4414 -1.6927  2.5130
 6908SOL    HW232184   2.813   4.206   9.683  1.6096  0.9649 -1.1892
 6909SOL     OW32185   0.765   1.128   4.214  0.4043 -0.0898  0.8887
 6909SOL    HW132186   0.743   1.151   4.123 -1.6038 -1.3370  1.0632
 6909SOL    HW232187   0.746   1.036   4.196  0.8551 -0.6213  3.1815
 6910SOL     OW32188   0.013   2.734   7.657  0.0302  0.2841 -0.1955
 6910SOL    HW132189   0.002   2.744   7.562 -1.7858 -2.0171 -0.2353
 6910SOL    HW232190   4.676   2.657   7.662  0.8123 -0.3112 -0.3545
 6911SOL     OW32191   2.278   0.906   3.449 -0.8386 -0.5949 -0.3496
 6911SOL    HW132192   2.320   0.936   3.530  0.7013 -1.3065 -0.8670
 6911SOL    HW232193   2.289   0.975   3.383 -1.4762 -1.3594 -1.2555
 6912SOL     OW32194   0.253   4.210  14.200  0.0136 -0.1517  0.4379
 6912SOL    HW132195   0.339   4.176  14.225  1.4220  1.0049 -2.8266
 6912SOL    HW232196   0.239   4.283  14.261  1.0634  1.4340 -1.2072
 6913SOL     OW32197   4.156   4.511  17.424 -0.2550 -0.0548  0.1170
 6913SOL    HW132198   4.173   4.473  17.338 -0.9807  1.9162 -0.9038
 6913SOL    HW232199   4.229   4.480  17.477  0.3506 -0.2408 -0.8266
 6914SOL     OW32200   3.770   2.348  11.522 -0.6044 -0.0024 -0.4753
 6914SOL    HW132201   3.779   2.438  11.551  0.7210 -0.0361 -0.7479
 6914SOL    HW232202   3.741   2.300  11.599 -0.0269  1.5434  0.6824
 6915SOL     OW32203   1.424   4.081   0.941 -0.1696 -0.2457  0.4959
 6915SOL    HW132204   1.362   4.120   1.003  0.0081  0.5439  0.1837
 6915SOL    HW232205   1.372   4.010   0.904  0.3760 -0.0283 -0.6921
 6916SOL     OW32206   3.152   0.779   3.956  0.8953 -0.2645  0.5343
 6916SOL    HW132207   3.081   0.772   3.892  2.9132  2.0960 -1.9412
 6916SOL    HW232208   3.169   0.873   3.961  1.3931 -0.3617  0.6160
 6917SOL     OW32209   1.979   0.431   5.293 -0.0557  0.0788 -0.0845
 6917SOL    HW132210   2.025   0.504   5.252 -1.6366  0.2656 -1.5206
 6917SOL    HW232211   1.941   0.392   5.215 -1.2549  0.5036  0.2766
 6918SOL     OW32212   4.541   2.621   5.398  0.0867  1.0076 -0.1687
 6918SOL    HW132213   4.561   2.534   5.433 -1.3619  0.7857  0.0998
 6918SOL    HW232214   4.546   2.668   5.481 -1.9323  1.9401 -0.5711
 6919SOL     OW32215   2.224   2.696   2.200 -0.0640  0.1270 -0.0938
 6919SOL    HW132216   2.307   2.705   2.154  1.0777 -3.6056  1.1983
 6919SOL    HW232217   2.181   2.779   2.181 -0.2535 -0.3209 -1.6558
 6920SOL     OW32218   1.868   3.461  11.241 -0.0494 -0.0567  0.0527
 6920SOL    HW132219   1.865   3.367  11.221  0.4844 -0.2443  0.8944
 6920SOL    HW232220   1.779   3.481  11.212 -0.4620 -0.9401  0.6913
 6921SOL     OW32221   1.083   1.859   8.091  0.3942  0.2144 -0.1657
 6921SOL    HW132222   1.058   1.933   8.146 -0.9543  0.7913 -1.5547
 6921SOL    HW232223   1.116   1.791   8.149  0.7103  1.7861  1.4974
 6922SOL     OW32224   4.719   2.128   8.665 -0.2869 -0.0176 -0.0985
 6922SOL    HW132225   0.068   2.067   8.689 -0.6695  0.4641  2.2711
 6922SOL    HW232226   4.674   2.075   8.599 -1.1278  0.5231  0.0350
 6923SOL     OW32227   4.231   4.052   0.254  0.1995  0.3197  0.1387
 6923SOL    HW132228   4.306   3.993   0.258  0.2933  0.2464 -2.7980
 6923SOL    HW232229   4.154   4.003   0.282  1.0773 -0.2551  1.5501
 6924SOL     OW32230   1.410   1.587   2.650 -0.1447 -0.0506  0.5073
 6924SOL    HW132231   1.384   1.679   2.651 -1.0129 -0.3107  1.1813
 6924SOL    HW232232   1.342   1.551   2.593  0.1714 -0.7942  0.6032
 6925SOL     OW32233   4.617   2.961   1.586 -0.0205 -0.2314 -0.1599
 6925SOL    HW132234   4.577   2.924   1.664 -1.7974  0.0600 -0.9472
 6925SOL    HW232235   4.694   2.996   1.632  0.3893 -0.8554 -0.3730
 6926SOL     OW32236   4.137   2.597   9.094  0.3293 -0.0191 -0.6618
 6926SOL    HW132237   4.054   2.613   9.138  1.0556  1.4877  0.1753
 6926SOL    HW232238   4.145   2.677   9.042 -1.4473  0.4336 -0.2401
 6927SOL     OW32239   0.838   1.725   4.920  0.2186 -0.0871  0.3759
 6927SOL    HW132240   0.810   1.805   4.964 -0.1202 -0.9556  1.7519
 6927SOL    HW232241   0.883   1.753   4.841 -0.1131  0.2994  0.3255
 6928SOL     OW32242   3.859   4.183   4.659  0.1320 -0.3734  0.4100
 6928SOL    HW132243   3.865   4.207   4.752  1.6092  1.7461 -0.2295
 6928SOL    HW232244   3.927   4.241   4.626  1.4761 -1.5287  1.1280
 6929SOL     OW32245   3.995   0.220  12.154 -0.4422 -0.1826  0.3373
 6929SOL    HW132246   4.011   0.165  12.231  1.5021  1.3992  1.0818
 6929SOL    HW232247   4.046   0.178  12.085  1.5532  1.4972  0.7717
 6930SOL     OW32248   2.921   3.149   3.981 -0.1787 -0.6457 -0.0185
 6930SOL    HW132249   2.926   3.216   4.049 -1.5094 -0.4009 -0.1593
 6930SOL    HW232250   2.959   3.202   3.912  2.1003 -1.3658  0.6884
 6931SOL     OW32251   1.772   0.726   5.360  0.3419  0.5495 -0.4062
 6931SOL    HW132252   1.687   0.760   5.332  0.3805 -0.3410 -1.6109
 6931SOL    HW232253   1.797   0.675   5.283  0.3591 -1.2317  0.7697
 6932SOL     OW32254   3.031   4.445   6.322 -0.2432 -0.4588  0.3527
 6932SOL    HW132255   3.034   4.516   6.258  0.5831 -1.3475 -0.5707
 6932SOL    HW232256   2.994   4.385   6.258 -0.6312  1.9275 -1.6586
 6933SOL     OW32257   4.217   2.599   2.726  0.3964 -0.0636  0.6622
 6933SOL    HW132258   4.260   2.683   2.709 -0.7397 -0.0231 -2.0711
 6933SOL    HW232259   4.291   2.540   2.733  2.5835  2.7545  1.3459
 6934SOL     OW32260   4.678   3.619   1.855 -0.0016 -0.1155 -0.3279
 6934SOL    HW132261   4.696   3.553   1.788 -1.1508  1.0609 -1.8013
 6934SOL    HW232262   4.646   3.693   1.804 -1.4198 -0.4317  0.1048
 6935SOL     OW32263   0.718   1.984  17.269 -0.3723  0.0752  0.1053
 6935SOL    HW132264   0.741   2.074  17.243 -0.1495  0.5190  1.8606
 6935SOL    HW232265   0.785   1.931  17.226 -2.0005 -2.0228  0.1447
 6936SOL     OW32266   0.969   2.858  12.862 -0.5939  0.9464 -0.1791
 6936SOL    HW132267   1.050   2.843  12.813  0.5034 -0.3072  2.0491
 6936SOL    HW232268   0.963   2.779  12.915  0.0438  1.4441  0.6257
 6937SOL     OW32269   4.639   3.993  17.133 -0.1052  0.3949 -0.3017
 6937SOL    HW132270   4.619   3.911  17.087  0.7313  0.1910 -0.3092
 6937SOL    HW232271   4.582   3.973  17.207  1.9871 -1.2359  0.8946
 6938SOL     OW32272   1.452   0.034   7.804 -0.2539 -0.4750 -1.1152
 6938SOL    HW132273   1.421   0.073   7.722  4.7252  2.2336 -1.6780
 6938SOL    HW232274   1.418   4.666   7.790 -1.1605 -0.4972  1.1555
 6939SOL     OW32275   3.440   3.348   7.705  0.4178 -0.7501 -0.1101
 6939SOL    HW132276   3.486   3.269   7.676 -1.7496 -1.6458 -1.1131
 6939SOL    HW232277   3.356   3.340   7.661 -0.5820  0.3144  1.5755
 6940SOL     OW32278   1.784   0.655   6.945  0.6532 -0.2671 -0.4754
 6940SOL    HW132279   1.724   0.723   6.977  0.0198 -0.2108 -1.7953
 6940SOL    HW232280   1.824   0.633   7.029  1.2654 -0.3459 -0.7914
 6941SOL     OW32281   0.343   4.461  11.099 -0.0614 -0.2554  0.5474
 6941SOL    HW132282   0.356   4.416  11.016 -0.0007  0.4265  0.1859
 6941SOL    HW232283   0.433   4.462  11.131  0.0814  1.3437  0.1084
 6942SOL     OW32284   4.016   4.599   7.102 -0.2252 -0.2706 -0.5671
 6942SOL    HW132285   4.065   4.531   7.148 -2.4577  0.2993  2.6560
 6942SOL    HW232286   4.074   4.674   7.117  1.0680 -1.9922  3.0519
 6943SOL     OW32287   1.619   0.303   4.657  0.2664  0.4025 -0.8130
 6943SOL    HW132288   1.633   0.336   4.568 -3.2555 -0.9125 -1.8665
 6943SOL    HW232289   1.524   0.297   4.658  0.4182 -2.0722  0.2085
 6944SOL     OW32290   0.066   0.867   5.707 -0.1638  0.4506  0.1831
 6944SOL    HW132291   0.019   0.831   5.782 -4.9405  0.0070 -3.0646
 6944SOL    HW232292   0.104   0.946   5.745  0.6020 -0.3574  1.0751
 6945SOL     OW32293   3.184   3.149   2.416 -0.2131  0.2332  0.4021
 6945SOL    HW132294   3.147   3.216   2.359 -2.8049  0.7102  2.6110
 6945SOL    HW232295   3.217   3.206   2.486 -1.8979 -0.0827  1.4651
 6946SOL     OW32296   4.324   2.888  14.867 -0.3029  0.6246  0.5454
 6946SOL    HW132297   4.340   2.796  14.888 -0.0835  0.4807 -0.2590
 6946SOL    HW232298   4.252   2.909  14.926 -1.3945 -2.5190  0.3095
 6947SOL     OW32299   0.612   2.970   2.188  0.5446  0.0150  0.0195
 6947SOL    HW132300   0.575   2.882   2.179  2.6408 -1.0082  1.2332
 6947SOL    HW232301   0.621   2.998   2.279  0.6981 -2.5826  0.8164
 6948SOL     OW32302   2.364   3.152   5.148  0.2614 -0.4956  0.3969
 6948SOL    HW132303   2.352   3.174   5.240  0.5537  0.9229  0.0985
 6948SOL    HW232304   2.373   3.234   5.100  0.6822 -1.4051 -1.1156
 6949SOL     OW32305   4.676   3.285   1.294 -0.5490 -0.4504 -0.2623
 6949SOL    HW132306   4.621   3.361   1.277 -0.0996  0.0848  0.6422
 6949SOL    HW232307   4.617   3.231   1.347  1.8218  0.0536  2.8833
 6950SOL     OW32308   0.758   2.364   1.217 -0.2309  0.0555  0.1425
 6950SOL    HW132309   0.668   2.369   1.183  0.6002 -1.9080 -2.3805
 6950SOL    HW232310   0.807   2.409   1.149 -0.9205 -0.6971 -0.8650
 6951SOL     OW32311   2.258   3.329  15.277 -0.2172  0.0411 -0.1059
 6951SOL    HW132312   2.229   3.297  15.362 -0.2298  0.8347  0.1843
 6951SOL    HW232313   2.193   3.297  15.214 -1.5260  0.9438  0.7938
 6952SOL     OW32314   2.973   3.514   0.711  0.1861 -0.6113 -0.4279
 6952SOL    HW132315   2.920   3.475   0.781  0.2374 -0.7931 -0.4881
 6952SOL    HW232316   3.059   3.491   0.748  0.0138 -1.7536 -0.7325
 6953SOL     OW32317   3.128   2.033   9.085 -0.8045 -0.1151  0.6051
 6953SOL    HW132318   3.140   1.952   9.135 -0.5214 -0.3604  0.1330
 6953SOL    HW232319   3.034   2.027   9.066 -0.4222  2.1053 -1.8941
 6954SOL     OW32320   3.191   2.462   8.554 -0.1635 -0.0928 -0.1619
 6954SOL    HW132321   3.179   2.375   8.594  0.1494 -0.3770 -0.6850
 6954SOL    HW232322   3.195   2.510   8.637 -0.8158 -0.6625  0.1933
 6955SOL     OW32323   0.306   0.631   2.896 -0.1204 -0.1171  0.2072
 6955SOL    HW132324   0.211   0.617   2.888 -0.0672 -0.2416 -0.2514
 6955SOL    HW232325   0.331   0.545   2.862 -0.5194 -0.9667  2.0533
 6956SOL     OW32326   0.089   0.194  15.270 -0.1961 -0.1536 -0.4185
 6956SOL    HW132327   0.007   0.243  15.264  1.0564  2.0563  0.2924
 6956SOL    HW232328   0.110   0.197  15.364 -1.3360 -0.0590 -0.1699
 6957SOL     OW32329   2.433   1.944  12.065  0.3780  0.3729  0.4787
 6957SOL    HW132330   2.398   2.033  12.073  0.1705  0.3166  0.2364
 6957SOL    HW232331   2.405   1.895  12.142 -0.9822 -0.1635 -0.3499
 6958SOL     OW32332   0.581   1.915   0.449  0.9540  0.2791  0.3227
 6958SOL    HW132333   0.530   1.991   0.476 -1.1135 -0.5596 -1.2276
 6958SOL    HW232334   0.645   1.959   0.393  1.5114 -0.7338  0.1648
 6959SOL     OW32335   1.338   1.002   7.615 -0.2939  0.1963  0.0021
 6959SOL    HW132336   1.321   0.934   7.551  0.8598  0.4864 -0.6139
 6959SOL    HW232337   1.393   1.061   7.564 -0.3012  1.1521  1.0838
 6960SOL     OW32338   0.394   3.542   0.271 -0.2877  0.6141 -0.2230
 6960SOL    HW132339   0.413   3.625   0.315  1.4309 -0.1257  0.3988
 6960SOL    HW232340   0.406   3.480   0.343  1.7572 -0.0836 -1.1642
 6961SOL     OW32341   4.164   1.451   4.744  0.0756  0.8013 -0.6916
 6961SOL    HW132342   4.168   1.361   4.711  2.3096 -0.1134  2.0533
 6961SOL    HW232343   4.234   1.446   4.809  1.6755  1.7528 -2.3833
 6962SOL     OW32344   2.964   2.936   9.372 -0.1702  0.6633 -0.1308
 6962SOL    HW132345   3.059   2.937   9.359 -0.2974 -1.2579 -1.2573
 6962SOL    HW232346   2.945   2.998   9.442 -0.4345  0.4194  0.0134
 6963SOL     OW32347   3.085   3.513   3.972 -0.0093  0.2097  0.2094
 6963SOL    HW132348   3.142   3.569   3.919 -0.8651  1.0313  0.1384
 6963SOL    HW232349   3.022   3.567   4.020  1.7702  1.4477  1.1580
 6964SOL     OW32350   1.690   1.534   3.128 -0.2492 -0.6520 -0.3141
 6964SOL    HW132351   1.777   1.495   3.119  0.2780  0.9185 -2.1097
 6964SOL    HW232352   1.642   1.487   3.061 -0.9538 -0.7549  0.2612
 6965SOL     OW32353   3.289   3.293  10.145 -0.1792  0.2653  0.0143
 6965SOL    HW132354   3.301   3.202  10.170  2.3084  0.1220 -1.7111
 6965SOL    HW232355   3.194   3.305  10.146 -0.2700 -0.2742 -1.8975
 6966SOL     OW32356   4.637   4.069   7.499  0.7367  0.5552  0.0476
 6966SOL    HW132357   4.585   4.010   7.554  0.0613  0.4405 -0.7097
 6966SOL    HW232358   4.596   4.153   7.519  2.2713  1.6551 -1.4335
 6967SOL     OW32359   3.160   2.711   0.617 -0.5058 -0.0872 -0.0611
 6967SOL    HW132360   3.091   2.678   0.675  0.1447 -1.4743 -0.0874
 6967SOL    HW232361   3.231   2.661   0.656 -0.6209 -0.1669  0.0497
 6968SOL     OW32362   2.544   4.313   8.600 -0.2736 -0.4580  0.0937
 6968SOL    HW132363   2.615   4.373   8.625 -0.0773 -0.3920 -0.6461
 6968SOL    HW232364   2.540   4.311   8.505 -0.7859  0.0832  0.1054
 6969SOL     OW32365   2.795   1.971   4.300  0.5710  0.6292 -0.2088
 6969SOL    HW132366   2.774   1.950   4.210 -0.1465  0.7239 -0.0592
 6969SOL    HW232367   2.866   1.914   4.330 -0.1968 -0.2563 -0.1150
 6970SOL     OW32368   2.600   0.248   4.646  0.5609 -0.0509 -0.2209
 6970SOL    HW132369   2.529   0.297   4.688  2.2210  1.1215  1.1755
 6970SOL    HW232370   2.582   0.271   4.555 -4.6434  1.3597  1.1691
 6971SOL     OW32371   3.354   1.752  15.861  0.4194  0.1584  0.0995
 6971SOL    HW132372   3.319   1.837  15.834 -0.1163 -0.1324 -0.1260
 6971SOL    HW232373   3.346   1.706  15.778 -0.8722 -0.0540  0.3409
 6972SOL     OW32374   1.088   0.317  17.055  0.1442 -0.1493 -0.0082
 6972SOL    HW132375   1.180   0.297  17.073 -0.4604 -1.1453  1.9768
 6972SOL    HW232376   1.097   0.368  16.974 -2.0807  0.0011 -0.1620
 6973SOL     OW32377   0.803   0.399   8.813 -0.4673  0.0748 -0.1001
 6973SOL    HW132378   0.792   0.323   8.755 -2.4033 -0.0717  0.4462
 6973SOL    HW232379   0.720   0.443   8.792 -0.0632  0.3948 -1.0377
 6974SOL     OW32380   2.657   2.744  13.519  0.4863  0.2477  0.6311
 6974SOL    HW132381   2.708   2.663  13.516  0.4600  0.2052  1.3448
 6974SOL    HW232382   2.568   2.712  13.503  0.7938  0.3202 -1.2011
 6975SOL     OW32383   2.533   4.045   3.660  0.5858 -0.2211  0.1936
 6975SOL    HW132384   2.560   3.959   3.690 -1.8954 -0.4182  1.9021
 6975SOL    HW232385   2.443   4.034   3.692  0.3158 -0.3248 -0.5827
 6976SOL     OW32386   1.721   2.252   3.861  0.1690 -0.1770  0.1553
 6976SOL    HW132387   1.648   2.190   3.854 -0.6586  0.8604 -0.3581
 6976SOL    HW232388   1.715   2.286   3.772  2.7407 -1.7442 -0.6347
 6977SOL     OW32389   0.502   2.676   3.088 -0.2614  0.1624 -0.5883
 6977SOL    HW132390   0.454   2.756   3.108  0.9550  0.6808  0.3105
 6977SOL    HW232391   0.492   2.617   3.163 -0.3701  1.5265  0.4804
 6978SOL     OW32392   1.759   0.900   4.846 -0.3933  0.5473 -0.1514
 6978SOL    HW132393   1.852   0.910   4.869 -0.6500 -0.4653  1.3339
 6978SOL    HW232394   1.745   0.955   4.769  2.7607  0.5965 -0.7129
 6979SOL     OW32395   4.588   4.667  12.802 -0.0202  0.5902  0.3496
 6979SOL    HW132396   4.512   4.706  12.760 -0.1782 -0.0941  0.0138
 6979SOL    HW232397   4.653   4.668  12.732  0.4884 -0.9435  0.8018
 6980SOL     OW32398   2.830   3.718   1.457 -0.1501  0.3908 -0.0329
 6980SOL    HW132399   2.902   3.676   1.504  0.1605 -0.7950 -1.5754
 6980SOL    HW232400   2.763   3.743   1.522 -1.0728  1.2426 -1.3129
 6981SOL     OW32401   2.029   4.525   4.579  0.0347  0.1504 -0.1149
 6981SOL    HW132402   1.965   4.539   4.649  1.1785  1.3696  0.6769
 6981SOL    HW232403   2.044   4.433   4.601 -1.6386 -0.6908 -2.4491
 6982SOL     OW32404   4.166   0.408   2.952  0.3365 -0.0920  0.3699
 6982SOL    HW132405   4.255   0.393   2.919 -0.0202 -1.7522  0.1544
 6982SOL    HW232406   4.118   0.337   2.909  0.5647 -1.0696  1.7201
 6983SOL     OW32407   1.656   0.354  17.532  0.1802 -0.1462 -0.0346
 6983SOL    HW132408   1.634   0.261  17.541 -0.2991  0.0532  0.8778
 6983SOL    HW232409   1.573   0.401  17.521  1.1296  0.7869 -3.3531
 6984SOL     OW32410   1.861   4.678   6.801  0.2095 -0.2645 -0.0235
 6984SOL    HW132411   1.939   4.686   6.747 -0.3646  1.3072 -0.6310
 6984SOL    HW232412   1.902   4.633   6.875 -1.8851  0.0109  1.2938
 6985SOL     OW32413   2.266   3.789   7.894  0.1543 -0.3829  0.6577
 6985SOL    HW132414   2.188   3.733   7.899  0.4523 -0.7731  0.9476
 6985SOL    HW232415   2.257   3.819   7.985 -0.0921  0.7810  0.2511
 6986SOL     OW32416   4.228   2.525   7.958  0.2009 -0.9697  0.8121
 6986SOL    HW132417   4.283   2.577   7.899 -3.1478  0.5088 -1.0748
 6986SOL    HW232418   4.192   2.457   7.901  0.3128 -0.6832  0.3951
 6987SOL     OW32419   1.933   2.163   9.158 -0.6343  0.4005 -0.0299
 6987SOL    HW132420   1.889   2.079   9.144  1.6768 -1.4226  3.7662
 6987SOL    HW232421   1.881   2.201   9.229 -0.5772 -0.2724  0.3745
 6988SOL     OW32422   3.134   2.178   4.345 -0.0320  0.9706 -0.1799
 6988SOL    HW132423   3.115   2.198   4.254  2.0642  1.7052 -0.4458
 6988SOL    HW232424   3.228   2.163   4.350 -0.1206 -0.1872 -1.9795
 6989SOL     OW32425   2.266   0.517   6.717  0.0029  0.0926 -0.1930
 6989SOL    HW132426   2.268   0.607   6.749 -0.9145  0.2392 -0.5424
 6989SOL    HW232427   2.182   0.484   6.750  0.6998 -1.2525  0.2496
 6990SOL     OW32428   2.463   2.128   3.810 -0.1555  0.1119 -0.0284
 6990SOL    HW132429   2.464   2.223   3.794 -1.9844  0.0725 -0.4081
 6990SOL    HW232430   2.498   2.100   3.726 -3.2579 -0.3025 -1.2028
 6991SOL     OW32431   2.500   2.108   8.538 -0.0303  0.1802  0.0745
 6991SOL    HW132432   2.507   2.014   8.553  0.9685  0.4360  1.1971
 6991SOL    HW232433   2.593   2.130   8.541  0.4734 -2.2273  2.1380
 6992SOL     OW32434   4.134   1.865  14.971 -0.1183 -0.4353  0.2419
 6992SOL    HW132435   4.225   1.858  14.943  0.3935  0.6684  1.6250
 6992SOL    HW232436   4.100   1.776  14.968 -0.5251 -0.3152  1.1391
 6993SOL     OW32437   1.473   2.743   3.750  0.4919  0.1886  0.0833
 6993SOL    HW132438   1.567   2.733   3.735  0.1632  1.3420 -2.7954
 6993SOL    HW232439   1.462   2.812   3.815  0.3027 -0.1076  0.3586
 6994SOL     OW32440   0.394   4.486   1.519  0.1895  0.1676  0.1610
 6994SOL    HW132441   0.464   4.551   1.526 -0.1415  0.5963 -0.4764
 6994SOL    HW232442   0.380   4.452   1.607 -1.9200 -2.4046 -1.1359
 6995SOL     OW32443   3.128   1.582  12.319  0.4110 -0.9688  0.1117
 6995SOL    HW132444   3.068   1.652  12.345  1.6422 -0.4599  1.5390
 6995SOL    HW232445   3.159   1.544  12.401  1.0083  2.0508  1.2761
 6996SOL     OW32446   1.757   0.298   7.333 -0.1137  0.0858 -0.7038
 6996SOL    HW132447   1.724   0.388   7.343 -0.7241 -0.2169  0.0379
 6996SOL    HW232448   1.721   0.276   7.247  0.4727  2.6696 -1.6025
 6997SOL     OW32449   1.528   3.701  12.659  0.3210 -0.1608 -0.0938
 6997SOL    HW132450   1.495   3.629  12.712 -0.9467  0.0038 -0.6624
 6997SOL    HW232451   1.585   3.738  12.726  2.2317 -1.2856 -1.0864
 6998SOL     OW32452   0.690   0.731   3.550 -0.5358  0.6353  0.4315
 6998SOL    HW132453   0.713   0.714   3.459 -0.4715 -2.4025  0.9982
 6998SOL    HW232454   0.632   0.806   3.543  0.2740  1.2177  0.0694
 6999SOL     OW32455   4.290   2.261   3.678  0.0702  0.8598 -0.1348
 6999SOL    HW132456   4.352   2.313   3.728 -1.0019  0.8753  1.1923
 6999SOL    HW232457   4.349   2.210   3.623 -2.5792 -0.8043 -1.4650
 7000SOL     OW32458   3.447   2.576   4.528  0.6064 -0.1321 -0.0553
 7000SOL    HW132459   3.417   2.655   4.572  0.6710 -0.4730  0.5934
 7000SOL    HW232460   3.369   2.561   4.475  0.7248  0.2890 -0.3466
 7001SOL     OW32461   0.033   4.465   8.855 -0.4944 -0.3090 -0.2823
 7001SOL    HW132462   4.681   4.410   8.883 -1.6433  1.4350  0.1529
 7001SOL    HW232463   0.106   4.403   8.849 -0.3572  0.0087 -1.8474
 7002SOL     OW32464   2.170   1.684   0.881 -0.0340 -0.1834 -0.0102
 7002SOL    HW132465   2.096   1.627   0.902 -0.1810 -0.3420 -0.9980
 7002SOL    HW232466   2.127   1.764   0.910  0.3251 -0.5189  1.4688
 7003SOL     OW32467   2.285   2.172   7.965  0.0564 -0.4568 -0.3581
 7003SOL    HW132468   2.264   2.179   8.058  0.6885 -2.0629 -0.0813
 7003SOL    HW232469   2.376   2.196   7.982 -0.5754  1.8126 -0.1560
 7004SOL     OW32470   4.318   0.827   8.488  0.2661  0.5729 -0.3611
 7004SOL    HW132471   4.282   0.914   8.470  0.1494  0.5043 -0.4557
 7004SOL    HW232472   4.271   0.790   8.413  1.3557  1.0322 -1.2744
 7005SOL     OW32473   1.301   2.835   5.276  0.5286 -0.4002  0.4653
 7005SOL    HW132474   1.240   2.822   5.203 -1.0027 -0.6768  1.8086
 7005SOL    HW232475   1.386   2.847   5.234 -0.3320  1.7433 -0.6627
 7006SOL     OW32476   0.004   2.016   1.836 -0.4588  0.5401  0.3034
 7006SOL    HW132477   0.002   2.032   1.931 -0.2788 -0.7017  0.5175
 7006SOL    HW232478   4.651   2.069   1.810 -1.1587 -0.1673  0.8391
 7007SOL     OW32479   3.843   2.113  15.231  0.2646 -1.0571  0.4301
 7007SOL    HW132480   3.850   2.027  15.189  2.3984 -0.8278  0.2843
 7007SOL    HW232481   3.935   2.140  15.224  0.1660 -1.4619 -2.7592
 7008SOL     OW32482   2.046   0.292   8.158 -0.1944 -0.1252  0.3536
 7008SOL    HW132483   1.976   0.352   8.182  1.7267  1.2466  2.5344
 7008SOL    HW232484   2.008   0.208   8.183  0.4396 -0.4640  0.2054
 7009SOL     OW32485   1.739   0.132   8.848 -0.5254  0.0532 -0.3797
 7009SOL    HW132486   1.695   0.193   8.908 -0.6634 -0.7612  0.3353
 7009SOL    HW232487   1.778   0.080   8.918 -1.9209  0.5233  0.7472
 7010SOL     OW32488   2.369   4.283  13.841  0.4071 -0.1305  0.6347
 7010SOL    HW132489   2.285   4.238  13.831  0.1677  0.1076  1.5905
 7010SOL    HW232490   2.404   4.278  13.752 -1.1723 -2.6134  0.1747
 7011SOL     OW32491   2.715   4.032   3.010  0.5384  0.1036  0.4551
 7011SOL    HW132492   2.759   4.108   2.973  1.5771 -0.9987 -0.5746
 7011SOL    HW232493   2.645   4.021   2.946  1.1409 -0.3609 -0.1178
 7012SOL     OW32494   0.988   0.487  15.913  0.4585  0.8571 -0.9257
 7012SOL    HW132495   0.932   0.559  15.884 -0.7782 -0.3131 -1.4588
 7012SOL    HW232496   0.993   0.431  15.835  0.6067 -2.7559  1.6987
 7013SOL     OW32497   0.537   1.419   8.447  0.0626 -0.1751  0.0878
 7013SOL    HW132498   0.470   1.414   8.378 -0.4799  1.1877  0.5277
 7013SOL    HW232499   0.528   1.325   8.465  1.5147 -0.3067  0.0957
 7014SOL     OW32500   0.258   2.201   9.778 -0.5681 -0.0436 -0.2882
 7014SOL    HW132501   0.211   2.246   9.849 -2.7128 -2.2257 -0.2815
 7014SOL    HW232502   0.323   2.257   9.738  0.4264  0.0680  1.4534
 7015SOL     OW32503   0.285   2.691   7.748 -0.1438  0.4705 -0.4823
 7015SOL    HW132504   0.208   2.736   7.717 -0.6807 -0.0276  0.1196
 7015SOL    HW232505   0.269   2.654   7.835  0.7779  1.6276  0.1819
 7016SOL     OW32506   1.033   0.979   2.166 -0.7025 -0.0548 -0.3463
 7016SOL    HW132507   0.976   0.987   2.090 -1.2738 -1.8036 -0.1158
 7016SOL    HW232508   1.120   1.000   2.133 -0.6921  1.1283  0.4113
 7017SOL     OW32509   2.378   3.099  14.447  0.0640 -0.2810  0.0382
 7017SOL    HW132510   2.351   3.186  14.419  1.0249  0.5613  1.7364
 7017SOL    HW232511   2.458   3.069  14.404  1.7481  0.7117  2.4866
 7018SOL     OW32512   4.535   0.679   0.294 -0.7355  0.4349 -0.4502
 7018SOL    HW132513   4.627   0.665   0.317 -0.6449  2.2158  0.2459
 7018SOL    HW232514   4.513   0.769   0.317 -3.5843 -0.4911  0.4410
 7019SOL     OW32515   3.654   0.511   3.471 -0.0276  0.0301  0.0554
 7019SOL    HW132516   3.596   0.495   3.397  0.1009 -1.6538  0.3125
 7019SOL    HW232517   3.635   0.603   3.490  0.0850 -0.0243  0.4408
 7020SOL     OW32518   1.362   2.944   0.732 -0.5764  0.6868 -0.6298
 7020SOL    HW132519   1.336   3.032   0.759  0.4052  0.3057  1.5631
 7020SOL    HW232520   1.303   2.884   0.778 -0.6474  1.6078  0.4903
 7021SOL     OW32521   4.049   3.797   6.511 -0.1764 -0.5344  0.4793
 7021SOL    HW132522   3.964   3.769   6.477  0.4968 -1.6920 -0.2560
 7021SOL    HW232523   4.065   3.882   6.470  2.1061 -1.7010 -1.0547
 7022SOL     OW32524   3.439   1.610  12.778  0.4731  0.1861  0.0761
 7022SOL    HW132525   3.423   1.531  12.830  0.2539 -0.7495 -1.4097
 7022SOL    HW232526   3.529   1.601  12.745 -0.3239 -0.8841 -1.8037
 7023SOL     OW32527   4.380   3.781   6.961 -0.4703 -0.5052  0.6778
 7023SOL    HW132528   4.383   3.737   7.046  0.4086  0.1211  0.9628
 7023SOL    HW232529   4.422   3.715   6.906 -2.4571  0.1778 -1.6488
 7024SOL     OW32530   3.163   3.123  13.082 -0.1696  0.8389 -0.5120
 7024SOL    HW132531   3.125   3.208  13.103 -0.4380  1.1802 -2.3625
 7024SOL    HW232532   3.122   3.110  12.997 -0.1455 -0.4151 -0.3266
 7025SOL     OW32533   1.186   2.217   8.427 -0.2136  0.3168  0.3802
 7025SOL    HW132534   1.160   2.196   8.517  1.2117  0.8613  0.9256
 7025SOL    HW232535   1.191   2.313   8.421  0.6397  0.2327 -0.2334
 7026SOL     OW32536   3.460   3.999   0.390  0.5503 -0.1424 -0.4367
 7026SOL    HW132537   3.376   4.019   0.432  0.6113 -2.8494  0.9880
 7026SOL    HW232538   3.504   4.083   0.403  1.0721 -0.5533  0.4600
 7027SOL     OW32539   2.075   3.981   0.601  0.1059  0.6870 -0.5334
 7027SOL    HW132540   2.017   4.044   0.645 -0.5350 -0.3218  0.0619
 7027SOL    HW232541   2.040   3.899   0.635  2.7876 -0.4440 -0.4661
 7028SOL     OW32542   2.528   3.179   2.805 -0.3319 -0.2450 -0.1718
 7028SOL    HW132543   2.552   3.211   2.892 -0.6075  0.9126 -0.5191
 7028SOL    HW232544   2.465   3.111   2.830 -2.8437  2.3468  0.4597
 7029SOL     OW32545   1.649   2.780   8.299 -0.0525  0.2079 -0.1649
 7029SOL    HW132546   1.563   2.774   8.341 -0.4103 -1.4617 -1.1336
 7029SOL    HW232547   1.644   2.713   8.230 -0.1677 -1.9961  1.9706
 7030SOL     OW32548   3.498   3.904   7.550 -0.0380  0.0793  0.2615
 7030SOL    HW132549   3.520   3.993   7.523  1.0727 -0.3656 -0.2775
 7030SOL    HW232550   3.405   3.899   7.572  0.1654 -2.2394  0.5532
 7031SOL     OW32551   3.278   1.261  14.913  0.2284 -0.3686 -0.4037
 7031SOL    HW132552   3.296   1.181  14.864 -0.4728 -1.0650  0.4884
 7031SOL    HW232553   3.355   1.308  14.881  0.1877 -1.2015 -1.7186
 7032SOL     OW32554   2.835   0.117   4.154 -0.5195  0.4807 -0.2384
 7032SOL    HW132555   2.919   0.125   4.199 -0.2789 -2.9789 -0.0534
 7032SOL    HW232556   2.874   0.085   4.073  1.0202 -1.5420  1.3023
 7033SOL     OW32557   0.908   1.816   7.671  0.5124  0.0810 -0.1321
 7033SOL    HW132558   0.990   1.820   7.720 -1.2656 -0.3233  2.8554
 7033SOL    HW232559   0.843   1.783   7.733  0.0330  1.3143  0.0076
 7034SOL     OW32560   3.102   3.259   8.275 -0.7078 -1.2551 -0.2693
 7034SOL    HW132561   3.106   3.294   8.364 -1.7237  0.3154 -0.8433
 7034SOL    HW232562   3.009   3.237   8.267 -0.3003 -2.6258 -1.0585
 7035SOL     OW32563   3.126   4.473   5.950  0.8270  0.1491  0.0624
 7035SOL    HW132564   3.128   4.392   6.000 -1.2315  0.2698  0.3505
 7035SOL    HW232565   3.059   4.526   5.993 -0.7681 -2.0741  0.2976
 7036SOL     OW32566   3.809   3.589   2.237 -0.6508 -0.6586 -0.0917
 7036SOL    HW132567   3.789   3.638   2.158 -1.1459  0.8228  0.9415
 7036SOL    HW232568   3.902   3.567   2.229 -0.8460 -0.7744 -1.9086
 7037SOL     OW32569   1.440   0.058   2.565 -0.4529 -0.1605 -0.0817
 7037SOL    HW132570   1.434   0.013   2.480  0.6814  2.7183 -1.6886
 7037SOL    HW232571   1.391   0.140   2.553  0.3652  0.1435 -1.4157
 7038SOL     OW32572   3.512   2.351  10.499 -0.6614  0.6754  0.3097
 7038SOL    HW132573   3.576   2.291  10.539  1.7947  0.8444 -3.4094
 7038SOL    HW232574   3.554   2.347  10.413 -1.4736  0.4842 -0.0722
 7039SOL     OW32575   4.586   3.913   0.584 -0.1591  0.2638 -0.3742
 7039SOL    HW132576   4.675   3.942   0.602  0.9091 -2.3209 -1.6579
 7039SOL    HW232577   4.534   3.992   0.604  0.9176  0.4465  1.6829
 7040SOL     OW32578   2.308   1.558   5.777  0.1303  0.0140 -0.1357
 7040SOL    HW132579   2.350   1.576   5.860 -0.1711  2.1231 -0.4545
 7040SOL    HW232580   2.244   1.628   5.783 -0.5844 -0.6698  0.3024
 7041SOL     OW32581   3.124   3.801  10.397  0.0349  0.2611  0.6944
 7041SOL    HW132582   3.095   3.872  10.339  1.0717 -0.7466 -1.0716
 7041SOL    HW232583   3.052   3.740  10.413 -0.3684  0.4715 -0.3168
 7042SOL     OW32584   4.204   0.168   9.392 -0.3757 -0.2945  0.1238
 7042SOL    HW132585   4.287   0.199   9.356  0.0399 -0.3387  1.0444
 7042SOL    HW232586   4.222   0.185   9.485  2.3115 -0.6048 -0.3298
 7043SOL     OW32587   0.274   3.999   7.683  0.3765  0.6141  0.2653
 7043SOL    HW132588   0.270   4.029   7.774 -0.6711  0.3248  0.3084
 7043SOL    HW232589   0.246   3.909   7.698 -1.4595  1.0501 -0.5771
 7044SOL     OW32590   1.381   4.115   2.591  0.6157 -0.9308 -0.2218
 7044SOL    HW132591   1.427   4.130   2.674  2.0125  0.0289 -1.1901
 7044SOL    HW232592   1.446   4.138   2.525  1.1569 -1.4286  0.1317
 7045SOL     OW32593   4.066   0.449   0.711  0.7556 -0.2368  0.2126
 7045SOL    HW132594   4.161   0.439   0.711  1.0980  3.0213  0.0170
 7045SOL    HW232595   4.040   0.415   0.625 -2.9047  0.7486  0.9301
 7046SOL     OW32596   4.128   4.548   6.569  1.0903  0.4070 -0.4976
 7046SOL    HW132597   4.139   4.551   6.474 -1.7613  1.0827 -0.7920
 7046SOL    HW232598   4.220   4.564   6.593  0.7665  2.9030 -0.9109
 7047SOL     OW32599   0.118   1.281  15.122 -0.1946  0.1224  0.2738
 7047SOL    HW132600   0.086   1.240  15.042 -0.7713  5.1214 -2.1059
 7047SOL    HW232601   0.159   1.362  15.089 -0.0209 -0.1840 -0.2788
 7048SOL     OW32602   0.983   1.292  10.314  0.7885 -0.7836  0.1312
 7048SOL    HW132603   1.061   1.335  10.278  0.6852 -2.2294 -1.7961
 7048SOL    HW232604   0.931   1.366  10.344  0.4645 -1.2052  0.6173
 7049SOL     OW32605   4.491   1.858  16.340  0.1762 -0.5917  0.8374
 7049SOL    HW132606   4.567   1.850  16.282  0.0226 -1.1183  0.7047
 7049SOL    HW232607   4.519   1.939  16.381  1.3541  0.7831 -2.6117
 7050SOL     OW32608   1.439   1.169   7.833  0.7401 -0.4455 -0.4306
 7050SOL    HW132609   1.379   1.098   7.810 -0.4421 -0.0345  1.3856
 7050SOL    HW232610   1.521   1.124   7.850  0.5082 -0.8375 -0.3403
 7051SOL     OW32611   0.036   3.040   6.895  0.0142  0.0008  0.4339
 7051SOL    HW132612   0.128   3.016   6.894  0.2312  0.8682 -0.3675
 7051SOL    HW232613   4.720   2.984   6.963 -0.3881 -1.6455 -1.1170
 7052SOL     OW32614   2.872   2.550  11.731  0.4199  0.5249  0.1455
 7052SOL    HW132615   2.778   2.552  11.717  0.3966  1.6157  0.5200
 7052SOL    HW232616   2.906   2.576  11.645  1.4764 -0.2495  0.3303
 7053SOL     OW32617   0.031   2.400   7.171 -0.0562 -0.7556 -0.1519
 7053SOL    HW132618   4.683   2.344   7.135 -0.6103 -1.0205  1.2908
 7053SOL    HW232619   0.005   2.477   7.121  2.7612 -1.1101 -2.1703
 7054SOL     OW32620   0.532   3.081   4.266  0.4190 -0.1118  0.4746
 7054SOL    HW132621   0.489   3.108   4.347 -3.7499 -1.0121 -1.4560
 7054SOL    HW232622   0.467   3.048   4.205 -0.9380  5.4883 -1.0587
 7055SOL     OW32623   4.646   3.742  16.426  0.2391  0.0425 -0.2055
 7055SOL    HW132624   4.573   3.713  16.372  0.6209 -4.1897  1.5252
 7055SOL    HW232625   4.703   3.784  16.363  2.3719 -1.1606  0.9318
 7056SOL     OW32626   0.142   4.124   1.709  0.5539 -0.6028  0.1062
 7056SOL    HW132627   0.100   4.135   1.795 -0.3064  0.2278 -0.4311
 7056SOL    HW232628   0.231   4.147   1.736  0.6455 -0.1497 -0.5994
 7057SOL     OW32629   2.100   0.347   9.023  0.3026 -0.2812 -0.0617
 7057SOL    HW132630   2.092   0.297   9.105 -0.0806  0.0993  0.1328
 7057SOL    HW232631   2.177   0.300   8.989 -0.3524 -0.3090 -1.4702
 7058SOL     OW32632   3.012   2.209   9.552 -0.2917  0.3573  0.0909
 7058SOL    HW132633   3.076   2.147   9.518 -0.2240 -0.7786  2.3040
 7058SOL    HW232634   3.047   2.233   9.638  4.3147  0.8026 -1.9453
 7059SOL     OW32635   3.999   1.369   3.903 -0.1064 -0.0201  0.2215
 7059SOL    HW132636   4.087   1.353   3.936 -0.1041  0.0421  0.2463
 7059SOL    HW232637   3.985   1.280   3.869  0.5663  0.0723 -0.2818
 7060SOL     OW32638   0.738   4.234  14.953  0.3271 -0.3963 -0.5708
 7060SOL    HW132639   0.832   4.235  14.974  0.3531  0.2839 -0.7105
 7060SOL    HW232640   0.737   4.318  14.908  0.9762  0.7041  1.4552
 7061SOL     OW32641   3.841   3.910   6.911  0.5223  0.2817 -0.4393
 7061SOL    HW132642   3.825   3.816   6.910  0.3447  0.2918  1.9014
 7061SOL    HW232643   3.839   3.913   7.006  1.0902 -0.0945 -0.4163
 7062SOL     OW32644   3.044   4.204   6.636 -0.1237  0.0173 -0.0199
 7062SOL    HW132645   2.977   4.269   6.612 -0.1677  0.4517  1.3187
 7062SOL    HW232646   3.013   4.170   6.720  3.2414 -0.2405  1.0983
 7063SOL     OW32647   0.279   3.094   8.280  0.3664  0.5855 -0.6113
 7063SOL    HW132648   0.256   3.142   8.201  1.6674  1.0297 -0.7259
 7063SOL    HW232649   0.240   3.147   8.349 -0.0700 -0.8685  0.2426
 7064SOL     OW32650   1.899   1.303   8.591 -0.2316 -0.2654  0.1730
 7064SOL    HW132651   1.892   1.326   8.499  0.9144  2.2776  0.7053
 7064SOL    HW232652   1.872   1.386   8.631  0.7932  0.3145 -0.3605
 7065SOL     OW32653   1.877   0.672   2.955 -0.0600  0.1358 -0.5464
 7065SOL    HW132654   1.915   0.758   2.971 -0.0891  0.1417 -0.5092
 7065SOL    HW232655   1.791   0.686   2.995  0.4633  0.5122  0.4603
 7066SOL     OW32656   1.911   3.178   7.312  0.0112  0.0928  0.2766
 7066SOL    HW132657   1.893   3.133   7.229 -1.0387  0.6868  0.1833
 7066SOL    HW232658   1.962   3.109   7.355 -1.2226 -0.6850  0.5064
 7067SOL     OW32659   3.946   4.004  11.904 -0.0580  0.6732 -0.3164
 7067SOL    HW132660   3.959   4.099  11.915  0.6988  0.7407 -1.7555
 7067SOL    HW232661   3.970   3.974  11.992  0.2791 -0.0031 -0.6379
 7068SOL     OW32662   4.106   1.639   8.863  0.1778  0.5174 -0.3439
 7068SOL    HW132663   4.025   1.633   8.914 -0.3958  0.5687 -1.2284
 7068SOL    HW232664   4.172   1.628   8.930  0.6579  0.2035 -0.8650
 7069SOL     OW32665   4.587   0.137  11.056  0.2614  0.1234 -0.3337
 7069SOL    HW132666   4.608   0.195  10.983 -0.6251 -1.1716 -1.6256
 7069SOL    HW232667   4.514   0.089  11.018  0.4358 -0.2426 -0.2016
 7070SOL     OW32668   4.087   4.301   4.086 -0.4141  0.2150 -0.5098
 7070SOL    HW132669   4.009   4.299   4.143  1.2959 -0.3609  1.8242
 7070SOL    HW232670   4.099   4.394   4.066  0.6087  0.1986  0.0304
 7071SOL     OW32671   3.852   0.120   1.701 -0.0050  0.1667 -0.5103
 7071SOL    HW132672   3.918   0.084   1.761 -1.3298 -1.4804 -0.0453
 7071SOL    HW232673   3.898   0.200   1.677 -0.0830  0.1462 -0.7341
 7072SOL     OW32674   2.607   2.445   6.014 -0.2350  0.5330 -0.4537
 7072SOL    HW132675   2.603   2.353   5.990 -0.5522  0.2132  0.8450
 7072SOL    HW232676   2.581   2.493   5.936 -1.5097  0.7274  0.0973
 7073SOL     OW32677   4.226   3.196   6.522  0.1030  0.0255 -0.0931
 7073SOL    HW132678   4.180   3.113   6.513 -1.3430  0.6147  1.9532
 7073SOL    HW232679   4.148   3.251   6.515  1.2814  1.7282  0.1071
 7074SOL     OW32680   3.991   0.475   0.460 -0.1520  0.4869  0.0168
 7074SOL    HW132681   3.995   0.569   0.440  1.7402  0.7740  1.6993
 7074SOL    HW232682   4.029   0.440   0.380  0.8174 -1.2526  1.2263
 7075SOL     OW32683   2.618   2.269   5.073  0.5635  0.0221 -0.5601
 7075SOL    HW132684   2.682   2.275   5.003  0.9832 -0.5667 -0.2320
 7075SOL    HW232685   2.545   2.299   5.019  1.1749 -0.2796 -1.5565
 7076SOL     OW32686   4.584   2.274   3.769  0.2274  0.1434 -0.1957
 7076SOL    HW132687   4.563   2.312   3.855  0.3227 -1.6893  0.6312
 7076SOL    HW232688   4.612   2.350   3.719  0.0704  0.3777  0.0705
 7077SOL     OW32689   2.120   1.688   9.257  0.1591  0.6068  0.1504
 7077SOL    HW132690   2.140   1.642   9.339 -1.1567  2.2380  1.3828
 7077SOL    HW232691   2.030   1.660   9.244 -0.0546  0.2327  2.3563
 7078SOL     OW32692   2.133   2.474   1.939 -0.0854  0.1260  0.6391
 7078SOL    HW132693   2.149   2.462   2.033 -0.5990 -1.9289  0.4709
 7078SOL    HW232694   2.041   2.450   1.931  0.3293 -1.7677  1.4632
 7079SOL     OW32695   3.002   3.067   5.134 -0.1581  0.1963 -0.1276
 7079SOL    HW132696   3.011   2.972   5.141 -0.2131  0.3920  2.8067
 7079SOL    HW232697   3.061   3.096   5.203  0.0536  1.1476 -0.7190
 7080SOL     OW32698   0.708   0.748   6.745 -0.6202  0.0423  0.7803
 7080SOL    HW132699   0.784   0.748   6.687  0.1153 -3.2768  1.7210
 7080SOL    HW232700   0.711   0.828   6.797  0.6197  0.5043 -0.0058
 7081SOL     OW32701   3.300   4.164   4.552 -0.2721  0.3943  0.8128
 7081SOL    HW132702   3.280   4.077   4.517  0.5799 -0.0569  1.4403
 7081SOL    HW232703   3.368   4.138   4.614  1.2272 -0.7539 -1.3299
 7082SOL     OW32704   2.182   3.616   4.875  0.4612  0.2072  0.0628
 7082SOL    HW132705   2.206   3.546   4.935 -0.7185 -0.0766  0.2059
 7082SOL    HW232706   2.247   3.678   4.909  0.5551  1.8029 -3.0511
 7083SOL     OW32707   2.329   4.111   1.651 -0.2664  0.3458 -1.0192
 7083SOL    HW132708   2.341   4.036   1.710 -1.1882  0.5306 -0.5967
 7083SOL    HW232709   2.236   4.127   1.664  0.7941  1.8134  4.4954
 7084SOL     OW32710   4.195   3.636  10.506  0.2660 -0.2522 -0.3145
 7084SOL    HW132711   4.151   3.697  10.447  0.4645 -0.4085 -0.6225
 7084SOL    HW232712   4.119   3.583  10.529 -0.4929 -0.0316 -2.4087
 7085SOL     OW32713   1.747   1.879   7.938 -0.0426 -0.3501 -0.2658
 7085SOL    HW132714   1.793   1.868   8.022  1.0892  1.3381 -0.6646
 7085SOL    HW232715   1.799   1.829   7.875 -0.4889 -0.4947 -0.5168
 7086SOL     OW32716   3.995   2.093   7.620  0.2356  0.1705 -0.6883
 7086SOL    HW132717   3.922   2.146   7.588 -0.3143  0.9489  1.8982
 7086SOL    HW232718   3.942   2.019   7.651 -3.0717  3.3362  1.1948
 7087SOL     OW32719   3.913   3.309   6.745 -0.2454 -0.3129 -0.1662
 7087SOL    HW132720   3.848   3.377   6.763  1.1595  1.6114 -2.3768
 7087SOL    HW232721   3.957   3.343   6.667 -1.0027  0.5768 -0.2036
 7088SOL     OW32722   2.917   0.220   7.667 -0.0438  0.4339  0.2223
 7088SOL    HW132723   2.992   0.267   7.704 -0.7820  0.8667  1.1664
 7088SOL    HW232724   2.857   0.295   7.667 -2.2186 -1.2926 -1.3271
 7089SOL     OW32725   4.304   4.666  11.828 -0.2079  0.5888  0.4072
 7089SOL    HW132726   4.258   4.683  11.745 -0.6524 -2.2513  0.0723
 7089SOL    HW232727   4.230   4.662  11.889 -0.7007 -0.0980 -0.2279
 7090SOL     OW32728   3.811   3.031  11.803  0.1928  0.9540 -0.2711
 7090SOL    HW132729   3.725   2.990  11.808  1.0950 -1.0009 -0.5818
 7090SOL    HW232730   3.841   3.019  11.893 -0.2712 -1.3941 -0.4343
 7091SOL     OW32731   4.718   0.255   3.133  0.1811 -0.5238 -0.2527
 7091SOL    HW132732   4.705   0.166   3.102  0.7715 -0.5345 -0.4791
 7091SOL    HW232733   4.672   0.322   3.082  0.5518  0.4477  0.7010
 7092SOL     OW32734   1.240   0.973   8.162 -0.0225 -0.0332 -0.5140
 7092SOL    HW132735   1.265   0.966   8.254 -0.9787  2.8846 -0.0364
 7092SOL    HW232736   1.205   1.061   8.158  0.3747  0.1265 -0.5094
 7093SOL     OW32737   3.426   3.774   9.319 -0.1299  0.2616 -0.0389
 7093SOL    HW132738   3.494   3.721   9.278 -0.3706 -1.2626  1.5222
 7093SOL    HW232739   3.377   3.813   9.247 -1.3050  0.0218  0.6206
 7094SOL     OW32740   1.390   1.901   7.084 -0.0285  0.2706  0.1000
 7094SOL    HW132741   1.310   1.849   7.095 -1.0535  1.9880  0.8120
 7094SOL    HW232742   1.430   1.877   7.168 -2.3486 -0.1982  1.0752
 7095SOL     OW32743   0.864   2.323   3.774  0.4841 -0.1275 -0.0640
 7095SOL    HW132744   0.863   2.274   3.692 -2.2868  1.8574 -1.2221
 7095SOL    HW232745   0.869   2.258   3.844  0.7365 -0.2505 -0.1952
 7096SOL     OW32746   2.447   1.820   5.637 -0.0210 -0.1289  0.0559
 7096SOL    HW132747   2.425   1.728   5.620 -4.4824  1.0712 -0.6740
 7096SOL    HW232748   2.540   1.820   5.614  0.0050  1.9287  0.1712
 7097SOL     OW32749   4.223   2.829  15.803 -0.5839  0.4350 -0.2281
 7097SOL    HW132750   4.128   2.837  15.810 -0.5032  0.4992  0.8567
 7097SOL    HW232751   4.238   2.744  15.844  0.0505  0.6780  0.0362
 7098SOL     OW32752   1.264   0.308   8.915  0.4862 -0.3268  0.2780
 7098SOL    HW132753   1.242   0.400   8.931 -1.4383 -0.8700  0.7216
 7098SOL    HW232754   1.338   0.290   8.973 -0.7183 -0.1672  1.8592
 7099SOL     OW32755   1.274   1.455  11.162 -0.2986  0.9717  0.3434
 7099SOL    HW132756   1.252   1.435  11.253  1.3828 -0.0433  0.5266
 7099SOL    HW232757   1.369   1.449  11.171 -0.4347  0.4342  1.3889
 7100SOL     OW32758   0.865   0.307   9.082 -0.2564 -0.0189  0.4912
 7100SOL    HW132759   0.832   0.309   8.992 -0.8426  1.3933  0.7358
 7100SOL    HW232760   0.797   0.253   9.123  2.1023 -2.3000  1.3648
 7101SOL     OW32761   2.417   0.433   7.944 -0.7046  0.3691 -0.1220
 7101SOL    HW132762   2.333   0.392   7.922  0.6912 -3.0293  0.8691
 7101SOL    HW232763   2.374   0.516   7.924  3.9029  2.3472 -1.8732
 7102SOL     OW32764   2.471   0.364   4.425  0.1710 -0.1326  0.6367
 7102SOL    HW132765   2.469   0.428   4.354  0.6270  0.9055  1.5619
 7102SOL    HW232766   2.388   0.388   4.466 -0.2589  0.5913 -0.6702
 7103SOL     OW32767   0.553   2.987   2.462  0.2579  0.3356  0.4691
 7103SOL    HW132768   0.564   2.947   2.548 -1.3768  1.5116  1.2078
 7103SOL    HW232769   0.463   2.970   2.438 -0.0314  1.4959  0.7028
 7104SOL     OW32770   3.484   1.345   1.822  0.1189 -0.0500  0.5283
 7104SOL    HW132771   3.539   1.287   1.767  2.5265  1.0565  1.7637
 7104SOL    HW232772   3.450   1.279   1.882  0.0780 -0.3971  0.1252
 7105SOL     OW32773   4.237   3.743  12.030 -0.2720 -0.0093 -0.1899
 7105SOL    HW132774   4.207   3.653  12.046 -3.0826  1.1140  0.9661
 7105SOL    HW232775   4.183   3.753  11.951 -1.8350 -2.0410  0.6107
 7106SOL     OW32776   1.462   3.055  14.185 -0.4664 -0.2526  0.3828
 7106SOL    HW132777   1.430   3.145  14.190 -0.2944 -0.1293 -0.6629
 7106SOL    HW232778   1.556   3.070  14.187 -0.1993 -1.8563 -0.3030
 7107SOL     OW32779   2.631   3.565   4.082  0.1339  0.0415 -0.2161
 7107SOL    HW132780   2.539   3.574   4.057 -0.6613 -3.5423  1.4931
 7107SOL    HW232781   2.628   3.546   4.176  0.7648  1.6596  0.1457
 7108SOL     OW32782   4.497   1.980   7.950  0.7449  0.3289  0.4047
 7108SOL    HW132783   4.504   1.949   8.040  3.3550 -1.6554 -0.4661
 7108SOL    HW232784   4.409   2.018   7.946 -0.1542 -1.4768  3.3664
 7109SOL     OW32785   1.927   3.441  15.587  0.3025 -0.6871 -0.1950
 7109SOL    HW132786   2.015   3.409  15.608 -0.2613  0.4510  3.9868
 7109SOL    HW232787   1.896   3.384  15.517  1.3172  2.7152 -3.3509
 7110SOL     OW32788   1.381   0.998   6.247 -0.2980 -0.5430 -0.3105
 7110SOL    HW132789   1.431   0.971   6.170  2.2017 -0.8431  1.4198
 7110SOL    HW232790   1.436   1.071   6.277  1.2459 -2.5323  1.7240
 7111SOL     OW32791   0.138   0.230   4.087 -0.7365 -0.1102 -0.1208
 7111SOL    HW132792   0.177   0.183   4.013 -1.1677 -0.8014  0.0917
 7111SOL    HW232793   0.049   0.196   4.079 -1.6565  2.4230 -0.5446
 7112SOL     OW32794   0.740   2.264   3.103 -0.2966  0.1623  0.0272
 7112SOL    HW132795   0.654   2.264   3.145  1.0457 -0.1814  2.7433
 7112SOL    HW232796   0.738   2.182   3.053 -2.3978 -0.3451  0.9742
 7113SOL     OW32797   1.551   1.134   7.239 -0.0345 -0.6854  0.1299
 7113SOL    HW132798   1.600   1.159   7.160  1.2334  1.2559  1.5256
 7113SOL    HW232799   1.497   1.060   7.213  1.0314 -1.7009  0.8382
 7114SOL     OW32800   1.655   3.810   4.701  0.0713  0.1565  0.1057
 7114SOL    HW132801   1.639   3.763   4.619 -0.9672 -0.9034  0.9123
 7114SOL    HW232802   1.580   3.870   4.697  0.1158  0.2452  0.6077
 7115SOL     OW32803   3.408   2.942   9.085  0.0136  0.5214 -0.7488
 7115SOL    HW132804   3.340   2.881   9.114  0.0634  1.0814  0.5469
 7115SOL    HW232805   3.364   3.026   9.099 -1.2693  0.1309 -2.4490
 7116SOL     OW32806   4.302   1.225  16.014  0.2730 -0.3319  0.3379
 7116SOL    HW132807   4.240   1.185  15.954 -0.3111  0.4688  0.4096
 7116SOL    HW232808   4.367   1.251  15.949 -1.6855  0.1958 -1.4088
 7117SOL     OW32809   1.260   1.561   8.891  0.6553 -0.3539 -0.1947
 7117SOL    HW132810   1.292   1.474   8.915  1.1570  0.3604  1.7630
 7117SOL    HW232811   1.314   1.583   8.815  2.6680 -0.4638  1.2026
 7118SOL     OW32812   3.584   3.976   0.688 -0.8449 -0.0824 -0.6907
 7118SOL    HW132813   3.511   4.037   0.691  0.6082  1.6743 -1.5478
 7118SOL    HW232814   3.565   3.933   0.604 -0.3517  0.9968 -1.3497
 7119SOL     OW32815   1.053   3.616   3.489 -0.0768  0.1727 -0.1440
 7119SOL    HW132816   1.142   3.647   3.507 -0.5027  2.0026 -1.2355
 7119SOL    HW232817   1.044   3.528   3.526  2.6069  0.2520  0.6868
 7120SOL     OW32818   0.945   0.290   3.571 -0.1620 -0.2229  0.2786
 7120SOL    HW132819   0.956   0.300   3.666  0.9617 -0.6035  0.1896
 7120SOL    HW232820   1.006   0.356   3.541 -1.2196  0.1941 -0.9300
 7121SOL     OW32821   0.289   3.441   5.843  0.2287  0.0860  0.2468
 7121SOL    HW132822   0.341   3.521   5.848  1.2410 -0.5864  0.6007
 7121SOL    HW232823   0.297   3.401   5.930 -0.3658 -0.5235  0.0194
 7122SOL     OW32824   1.122   4.502   2.405  0.6214 -0.1119  0.1333
 7122SOL    HW132825   1.111   4.587   2.363 -2.3459 -0.4071  0.3209
 7122SOL    HW232826   1.150   4.532   2.491 -2.3141 -0.8971  1.3639
 7123SOL     OW32827   1.972   2.733   8.534 -0.2406 -0.5014  1.1496
 7123SOL    HW132828   1.936   2.788   8.465  1.3238  1.7013  2.1025
 7123SOL    HW232829   1.949   2.789   8.608 -0.5357  1.0655 -0.1305
 7124SOL     OW32830   2.349   4.037  14.720  0.1438  0.1079  0.0491
 7124SOL    HW132831   2.406   3.985  14.662  0.4937  0.0100  0.4759
 7124SOL    HW232832   2.390   4.123  14.715  1.7620 -0.6512  0.1905
 7125SOL     OW32833   2.401   0.863   0.034  0.1137 -0.3979  0.1007
 7125SOL    HW132834   2.384   0.956   0.024  2.5636 -0.1368 -1.8268
 7125SOL    HW232835   2.495   0.848   0.020  0.4057  1.7260 -0.2051
 7126SOL     OW32836   4.379   3.446  17.117  0.1233  0.1338 -0.4047
 7126SOL    HW132837   4.344   3.357  17.108  2.1564 -0.6863 -0.2255
 7126SOL    HW232838   4.364   3.467  17.209  0.6264  1.9341 -0.7353
 7127SOL     OW32839   0.811   4.525  13.289  0.3456  0.4077  0.1645
 7127SOL    HW132840   0.777   4.579  13.361 -3.9887  0.7681 -2.1754
 7127SOL    HW232841   0.891   4.573  13.269  1.2380 -1.4614 -0.7225
 7128SOL     OW32842   1.241   0.164   7.951 -0.2178  0.2648 -0.3232
 7128SOL    HW132843   1.304   0.122   7.892  0.3823 -0.5434  0.8995
 7128SOL    HW232844   1.225   0.112   8.030  0.5856 -1.4155 -1.2813
 7129SOL     OW32845   0.100   4.613   5.400 -0.4289 -0.4544 -0.3374
 7129SOL    HW132846   0.023   4.658   5.364 -1.1600 -0.8262  0.7344
 7129SOL    HW232847   0.125   4.560   5.325  2.8038  0.6464 -0.0106
 7130SOL     OW32848   1.260   1.467   0.319 -0.1638 -0.0456 -0.0396
 7130SOL    HW132849   1.293   1.378   0.331 -2.0986 -0.8044 -0.3829
 7130SOL    HW232850   1.344   1.512   0.303 -0.6491  0.6360 -0.6472
 7131SOL     OW32851   2.426   2.632   2.412 -0.4886 -0.0457  0.1246
 7131SOL    HW132852   2.375   2.640   2.492 -1.8610 -4.5147 -0.2955
 7131SOL    HW232853   2.393   2.704   2.358  0.8521  0.9388  0.6188
 7132SOL     OW32854   3.295   0.401   9.097  0.3675  0.5812  0.0439
 7132SOL    HW132855   3.325   0.315   9.068 -1.5262  0.1440 -0.5774
 7132SOL    HW232856   3.262   0.382   9.185 -0.5510 -0.9436 -0.6294
 7133SOL     OW32857   4.005   1.086   8.712  0.5894  0.0566  0.0975
 7133SOL    HW132858   4.005   1.020   8.643  0.0063  0.9830 -0.7846
 7133SOL    HW232859   4.029   1.164   8.663  1.0030  0.1311  0.4137
 7134SOL     OW32860   3.753   1.559   6.315  0.0968  0.0073  0.9019
 7134SOL    HW132861   3.826   1.498   6.316  0.8503  0.8981  0.4903
 7134SOL    HW232862   3.701   1.522   6.244 -0.7469  1.4809  0.7491
 7135SOL     OW32863   3.975   3.169  11.656  0.1084  0.3889  0.1118
 7135SOL    HW132864   3.904   3.115  11.689  3.0951 -1.7858  2.9941
 7135SOL    HW232865   4.049   3.125  11.698  0.0640 -1.4796 -1.7564
 7136SOL     OW32866   1.875   0.540   7.491  0.0615  0.0814  0.6303
 7136SOL    HW132867   1.947   0.595   7.521 -0.6292  1.6797 -0.6807
 7136SOL    HW232868   1.822   0.531   7.570 -0.5766  0.5970  0.2591
 7137SOL     OW32869   4.190   4.138   1.415 -0.2943 -0.1809 -0.6099
 7137SOL    HW132870   4.095   4.141   1.404 -0.1171  0.2742 -2.0827
 7137SOL    HW232871   4.209   4.122   1.322 -1.8297  1.9097 -1.3033
 7138SOL     OW32872   3.534   0.896   8.721 -0.4422  0.0823 -0.3369
 7138SOL    HW132873   3.523   0.808   8.686 -1.2820 -0.3169  0.9442
 7138SOL    HW232874   3.563   0.875   8.810  2.2054  2.0657 -0.7451
 7139SOL     OW32875   4.317   2.060   3.056  1.0633 -0.1882 -0.3915
 7139SOL    HW132876   4.376   2.102   3.119  0.9002 -0.4890 -0.0406
 7139SOL    HW232877   4.233   2.062   3.102  0.1045 -1.4548 -2.0974
 7140SOL     OW32878   0.919   2.547   4.014 -1.0043  0.1486 -0.1313
 7140SOL    HW132879   0.968   2.470   3.983  0.8835  1.3090 -0.0543
 7140SOL    HW232880   0.838   2.517   3.973 -1.1540  0.2690  0.0792
 7141SOL     OW32881   4.710   0.824   1.042 -0.6457  0.1891  0.1142
 7141SOL    HW132882   0.056   0.830   0.973 -1.3561 -0.4340 -0.6233
 7141SOL    HW232883   4.708   0.729   1.051 -0.7494  0.5168  3.3780
 7142SOL     OW32884   4.185   2.372  11.406  0.4416  0.1743 -0.4105
 7142SOL    HW132885   4.247   2.377  11.333  0.4617 -1.6031 -0.5042
 7142SOL    HW232886   4.240   2.373  11.485 -1.1020 -2.3641  0.6767
 7143SOL     OW32887   0.736   3.323  13.289 -0.0325  0.0276  0.2624
 7143SOL    HW132888   0.812   3.269  13.267 -0.0093 -0.2031  0.9378
 7143SOL    HW232889   0.690   3.329  13.205 -0.3831 -2.5043  0.2967
 7144SOL     OW32890   0.267   1.159   8.428 -0.2395  0.7474  0.1886
 7144SOL    HW132891   0.274   1.233   8.367 -1.0074  0.8063  0.1733
 7144SOL    HW232892   0.205   1.207   8.484 -0.0106  2.2995 -0.8789
 7145SOL     OW32893   4.034   2.291   2.361  0.0711  0.1314 -0.0647
 7145SOL    HW132894   3.949   2.305   2.402 -0.6265 -1.3483 -1.0288
 7145SOL    HW232895   4.087   2.353   2.411  1.4104  0.2901 -1.6686
 7146SOL     OW32896   2.518   1.899  15.973  0.3092 -0.2902  0.7121
 7146SOL    HW132897   2.496   1.930  16.061  0.6779 -0.0452  0.7173
 7146SOL    HW232898   2.470   1.961  15.919  0.3387  0.5122  1.6126
 7147SOL     OW32899   1.151   1.301   2.207  0.1739  0.3426 -0.2024
 7147SOL    HW132900   1.110   1.274   2.125  1.8777 -1.4331 -0.4717
 7147SOL    HW232901   1.165   1.392   2.181 -0.0516  0.6045  0.5834
 7148SOL     OW32902   0.454   0.835   0.332 -0.3232 -0.1529 -0.3539
 7148SOL    HW132903   0.394   0.901   0.366  0.2799 -0.7705  1.8681
 7148SOL    HW232904   0.505   0.870   0.258 -0.6563  1.1902  0.0609
 7149SOL     OW32905   2.146   0.772   9.377  0.7808  0.8071  0.4954
 7149SOL    HW132906   2.153   0.730   9.463  4.0391 -1.3561 -0.8229
 7149SOL    HW232907   2.223   0.829   9.385  0.0563  2.0997 -1.6697
 7150SOL     OW32908   2.596   3.778   3.706 -0.0607  0.2661 -0.2753
 7150SOL    HW132909   2.631   3.790   3.618 -0.1008  1.2660 -0.1558
 7150SOL    HW232910   2.523   3.719   3.690  1.6549 -2.1318  0.8088
 7151SOL     OW32911   4.709   2.497   8.280  0.5664 -0.1686  0.0925
 7151SOL    HW132912   0.079   2.475   8.300  1.0573  1.8162  0.0108
 7151SOL    HW232913   4.667   2.462   8.358  0.1909 -2.0510 -0.9499
 7152SOL     OW32914   1.188   3.899   0.005 -0.6639  0.6794 -0.3458
 7152SOL    HW132915   1.192   3.989  17.658  0.5602  0.3534 -1.0987
 7152SOL    HW232916   1.192   3.908   0.100  0.9880  0.9320 -0.4329
 7153SOL     OW32917   1.134   3.316   1.182  0.3486 -0.3711  0.2005
 7153SOL    HW132918   1.190   3.390   1.204  0.4562 -0.4430  0.1677
 7153SOL    HW232919   1.059   3.368   1.152  1.4975  0.1957 -1.6904
 7154SOL     OW32920   2.623   4.143   7.805 -0.9263  0.3517 -0.8116
 7154SOL    HW132921   2.595   4.134   7.896  0.1924 -0.9461 -0.5993
 7154SOL    HW232922   2.571   4.213   7.766 -1.9571  0.4260  0.7238
 7155SOL     OW32923   0.666   3.945   7.403  0.1661 -0.0280  0.4919
 7155SOL    HW132924   0.657   3.852   7.381  0.1068  0.5754 -2.0613
 7155SOL    HW232925   0.611   3.976   7.330  1.0408 -0.1131 -0.1963
 7156SOL     OW32926   0.941   2.239   9.428  0.2595 -0.5975  0.1907
 7156SOL    HW132927   1.036   2.222   9.431  0.1472 -1.7801 -2.8646
 7156SOL    HW232928   0.906   2.195   9.505 -0.9143 -2.4181 -1.3831
 7157SOL     OW32929   3.809   2.538   2.263  0.0011 -0.3321  0.6262
 7157SOL    HW132930   3.796   2.464   2.321  0.7586 -0.1308  1.0592
 7157SOL    HW232931   3.892   2.520   2.218 -0.9949 -0.8947 -0.9633
 7158SOL     OW32932   3.657   0.469   7.634 -0.0022  0.2415  0.6063
 7158SOL    HW132933   3.741   0.443   7.597 -0.7394 -2.1186  0.5929
 7158SOL    HW232934   3.625   0.509   7.553  0.0479 -0.4162  0.2691
 7159SOL     OW32935   3.945   3.460   8.834 -0.3414  0.1240 -0.5399
 7159SOL    HW132936   3.873   3.506   8.877  0.8121  0.7485  0.7270
 7159SOL    HW232937   3.990   3.531   8.788 -0.3121 -0.7154 -1.8387
 7160SOL     OW32938   3.670   3.027   8.332  0.1276  0.3613 -0.0541
 7160SOL    HW132939   3.589   3.033   8.382 -0.5066  0.5098 -1.1047
 7160SOL    HW232940   3.639   3.047   8.243 -0.0058 -0.3383 -0.1608
 7161SOL     OW32941   0.140   3.213  12.522  0.1215 -0.1752 -0.1773
 7161SOL    HW132942   0.186   3.296  12.508 -1.0703  0.7011  1.0764
 7161SOL    HW232943   0.051   3.247  12.534 -0.1588 -0.7814 -0.5771
 7162SOL     OW32944   1.501   1.745   2.979 -0.2950  0.2806  0.6922
 7162SOL    HW132945   1.423   1.714   3.025 -0.7667 -1.5365 -1.3279
 7162SOL    HW232946   1.511   1.667   2.924 -2.6139 -0.2103  0.9558
 7163SOL     OW32947   4.246   3.133   1.556 -0.3610  0.0412 -0.0443
 7163SOL    HW132948   4.181   3.072   1.589 -1.4972  1.6478  0.6920
 7163SOL    HW232949   4.208   3.170   1.476  0.1630 -1.3907 -0.9464
 7164SOL     OW32950   3.239   1.802   4.606  0.2931 -0.2897  0.0877
 7164SOL    HW132951   3.333   1.793   4.623  0.1318 -0.6121  0.7950
 7164SOL    HW232952   3.216   1.878   4.661 -1.3158 -1.4296  0.9812
 7165SOL     OW32953   1.525   2.515   6.847 -0.4449 -0.5105  0.0588
 7165SOL    HW132954   1.563   2.468   6.773 -0.0346 -0.8819  0.5069
 7165SOL    HW232955   1.476   2.586   6.805  0.2543  0.3063  0.6212
 7166SOL     OW32956   1.372   0.972   9.186 -0.2168  0.0901  0.4442
 7166SOL    HW132957   1.441   0.932   9.239 -0.5319  0.6390  1.2814
 7166SOL    HW232958   1.298   0.943   9.239 -0.5828  1.3669  0.6474
 7167SOL     OW32959   0.322   3.418   2.212 -1.4263 -0.2945 -0.0220
 7167SOL    HW132960   0.369   3.336   2.199  0.2016  0.5831  0.2488
 7167SOL    HW232961   0.231   3.388   2.217 -1.1097 -1.4076 -1.0415
 7168SOL     OW32962   0.163   3.154   3.439  0.2745  0.2890  0.2980
 7168SOL    HW132963   0.105   3.224   3.410  0.9515  0.3525 -0.9082
 7168SOL    HW232964   0.244   3.153   3.388  0.7556 -1.5539  1.1117
 7169SOL     OW32965   0.100   1.666   7.036  0.4469 -0.1955  0.1676
 7169SOL    HW132966   0.030   1.715   7.080  1.5702  2.1650 -0.6805
 7169SOL    HW232967   0.149   1.739   6.998 -0.8119  0.4851 -0.1353
 7170SOL     OW32968   2.712   3.272   9.413  0.2120  0.0184 -0.1529
 7170SOL    HW132969   2.697   3.263   9.319 -0.9127  1.1295 -0.0730
 7170SOL    HW232970   2.627   3.254   9.452  0.5824  1.5563  1.3871
 7171SOL     OW32971   2.356   3.546   1.700 -0.0414 -0.1672  0.8508
 7171SOL    HW132972   2.450   3.528   1.694 -0.0201  0.0715  0.4755
 7171SOL    HW232973   2.335   3.521   1.790 -0.1892  4.4650  2.0996
 7172SOL     OW32974   2.192   2.900   5.143 -0.8004 -0.1513  0.2310
 7172SOL    HW132975   2.176   2.938   5.229  1.7984  2.0957 -0.2575
 7172SOL    HW232976   2.251   2.966   5.105 -1.9811  1.5602  1.3515
 7173SOL     OW32977   1.193   4.177  10.543 -0.2050  0.3079 -0.1428
 7173SOL    HW132978   1.258   4.200  10.476 -0.2350 -0.2610 -0.3666
 7173SOL    HW232979   1.229   4.207  10.627  1.0611  3.3838 -1.7916
 7174SOL     OW32980   0.682   1.247   3.981  0.1044  0.3682  0.2241
 7174SOL    HW132981   0.700   1.340   3.997  3.0930 -0.1838  0.1659
 7174SOL    HW232982   0.675   1.232   3.887 -1.5225  0.4854  0.3286
 7175SOL     OW32983   3.419   0.327   1.089  0.3664 -0.4415  0.2184
 7175SOL    HW132984   3.442   0.292   1.175 -0.8740 -1.6378  0.0754
 7175SOL    HW232985   3.439   0.255   1.029  1.0650  0.5326 -0.7212
 7176SOL     OW32986   3.158   0.196  14.053  0.1528 -0.1694  0.5916
 7176SOL    HW132987   3.157   0.272  13.995 -2.0464 -1.7344 -1.4072
 7176SOL    HW232988   3.238   0.218  14.102  0.0637  0.7096  0.3426
 7177SOL     OW32989   3.804   4.321  11.713  0.1349  0.0421 -0.1071
 7177SOL    HW132990   3.859   4.301  11.789  0.2849 -1.0492 -0.4965
 7177SOL    HW232991   3.864   4.375  11.661 -0.4217 -1.3925 -2.2499
 7178SOL     OW32992   4.421   4.428   0.793  0.3505 -0.0835 -0.6265
 7178SOL    HW132993   4.381   4.498   0.741  0.6011  2.2886  2.3887
 7178SOL    HW232994   4.404   4.466   0.879 -1.0690  1.8667 -1.7828
 7179SOL     OW32995   4.325   4.220   4.440  0.7518  0.0280  0.7687
 7179SOL    HW132996   4.305   4.225   4.347 -0.7543 -0.5670  1.0563
 7179SOL    HW232997   4.263   4.155   4.474  1.2831 -0.0166  1.6756
 7180SOL     OW32998   4.285   3.755   7.545  0.3501 -0.1462  0.3996
 7180SOL    HW132999   4.311   3.807   7.469  0.8228 -0.0241  0.6455
 7180SOL    HW233000   4.205   3.803   7.567  1.4426  0.4274  3.1855
 7181SOL     OW33001   1.087   2.469  16.678  0.3142 -0.3547  0.3637
 7181SOL    HW133002   1.068   2.390  16.728 -2.5254 -1.8221 -3.0119
 7181SOL    HW233003   1.088   2.535  16.747  1.7799 -1.2490  1.1890
 7182SOL     OW33004   0.853   1.515  10.399 -0.2567  0.5076 -0.3943
 7182SOL    HW133005   0.771   1.533  10.445 -0.1358 -0.8454  0.3380
 7182SOL    HW233006   0.866   1.599  10.355 -0.1972 -0.0997 -1.5378
 7183SOL     OW33007   1.143   3.235   6.148 -0.2688 -0.2967  0.2507
 7183SOL    HW133008   1.235   3.218   6.125 -0.5970  0.1316 -1.3588
 7183SOL    HW233009   1.123   3.161   6.206  0.2810  1.0077  2.0992
 7184SOL     OW33010   3.082   3.091   4.643 -0.3283 -0.3310 -0.0903
 7184SOL    HW133011   3.046   3.023   4.699 -0.0402 -0.3088  0.1191
 7184SOL    HW233012   3.129   3.150   4.702 -3.3194  0.9060  1.0142
 7185SOL     OW33013   1.946   2.371   2.740  0.0355  0.2468 -0.5936
 7185SOL    HW133014   1.963   2.299   2.800  0.3599 -0.2921 -1.3345
 7185SOL    HW233015   1.855   2.365   2.710  0.0723  0.8591 -0.8149
 7186SOL     OW33016   1.684   3.060   6.732 -0.4214  0.0005  0.3833
 7186SOL    HW133017   1.753   3.094   6.675 -0.1546 -4.7285 -2.1366
 7186SOL    HW233018   1.656   3.148   6.757 -1.1167  0.4470 -1.9108
 7187SOL     OW33019   0.419   1.136   9.553 -0.3666  0.1240  0.5041
 7187SOL    HW133020   0.452   1.139   9.463  0.5969 -1.8543  0.8100
 7187SOL    HW233021   0.380   1.049   9.559  0.4794 -0.3150 -0.2834
 7188SOL     OW33022   1.644   4.423   7.666  0.3601 -0.3195  0.0728
 7188SOL    HW133023   1.644   4.344   7.721 -0.2338 -1.3528 -1.4338
 7188SOL    HW233024   1.557   4.460   7.677  1.4499  3.0128 -2.8201
 7189SOL     OW33025   1.611   1.442   9.256  0.0060  0.1599  0.2340
 7189SOL    HW133026   1.550   1.502   9.213  0.9055  2.2730  1.9061
 7189SOL    HW233027   1.596   1.359   9.211 -1.8896  0.5998  0.0570
 7190SOL     OW33028   4.424   3.326   8.580 -0.3359 -0.2685  0.2847
 7190SOL    HW133029   4.348   3.379   8.606 -0.3525 -0.1550  0.0107
 7190SOL    HW233030   4.487   3.398   8.585  0.9167 -1.4603  1.5013
 7191SOL     OW33031   0.967   2.878   7.138 -0.0011 -0.1954 -0.0427
 7191SOL    HW133032   1.024   2.828   7.079 -2.3240  0.5000 -2.8146
 7191SOL    HW233033   1.037   2.911   7.195 -1.3643  3.3646 -0.4884
 7192SOL     OW33034   2.552   2.427  11.583 -0.3412  0.1710  0.3894
 7192SOL    HW133035   2.627   2.428  11.524  0.1217  0.8049  0.9820
 7192SOL    HW233036   2.497   2.375  11.525  0.4427  0.7196 -0.8482
 7193SOL     OW33037   2.443   1.260   8.351  0.1582 -0.1168  0.4894
 7193SOL    HW133038   2.359   1.288   8.385  0.0181 -0.2736  0.2717
 7193SOL    HW233039   2.497   1.262   8.430 -1.2365  0.6463  1.4083
 7194SOL     OW33040   4.313   2.125  17.279 -0.0570 -0.4294  0.0658
 7194SOL    HW133041   4.219   2.140  17.291 -0.3509 -1.1705 -1.2759
 7194SOL    HW233042   4.318   2.132  17.184  2.8051  0.9449  0.3267
 7195SOL     OW33043   4.717   0.947   8.746  0.4539  0.2412 -0.0284
 7195SOL    HW133044   4.702   1.007   8.673 -0.6588 -0.9343 -0.7818
 7195SOL    HW233045   4.667   0.870   8.717  0.6113 -0.5334  1.7342
 7196SOL     OW33046   4.108   2.593   7.457 -0.1962 -0.4090  0.6196
 7196SOL    HW133047   4.052   2.668   7.478 -0.7442 -0.6219 -0.0553
 7196SOL    HW233048   4.073   2.574   7.369  0.4539  2.5206 -0.2737
 7197SOL     OW33049   1.191   4.244   5.554 -0.3439  0.0653  0.2174
 7197SOL    HW133050   1.117   4.306   5.561  1.0103  1.7705 -0.5948
 7197SOL    HW233051   1.261   4.307   5.540  1.1265 -1.9002 -1.1846
 7198SOL     OW33052   3.380   4.587   5.207  0.3123  0.4009  0.3532
 7198SOL    HW133053   3.313   4.570   5.273 -0.9839 -2.6201 -1.7248
 7198SOL    HW233054   3.365   4.677   5.179  1.3542  0.2616 -0.6654
 7199SOL     OW33055   2.956   0.227   8.908  0.0539  0.0661  0.2242
 7199SOL    HW133056   3.008   0.176   8.846  0.0123 -2.0154  1.8778
 7199SOL    HW233057   2.959   0.316   8.873 -0.6187 -0.5022 -1.3178
 7200SOL     OW33058   4.366   3.798   5.674 -0.5192  0.3952  0.1484
 7200SOL    HW133059   4.346   3.886   5.641  0.3087  0.6146  0.2360
 7200SOL    HW233060   4.459   3.806   5.694 -0.4139 -0.3980 -0.0292
 7201SOL     OW33061   1.172   3.402   3.283 -0.3345  0.3749 -0.0081
 7201SOL    HW133062   1.182   3.317   3.239 -0.6318 -0.5556  1.7205
 7201SOL    HW233063   1.166   3.378   3.375  1.3221 -1.3444 -0.3349
 7202SOL     OW33064   0.305   0.068   4.276 -0.1950 -0.3711  0.1425
 7202SOL    HW133065   0.246   0.006   4.319  1.4518  0.1186  3.1379
 7202SOL    HW233066   0.374   0.008   4.247  0.0085  0.5507 -1.2660
 7203SOL     OW33067   0.162   1.131  12.451 -0.3216  0.3299 -0.0736
 7203SOL    HW133068   0.191   1.060  12.508 -2.3020 -1.3149 -1.1082
 7203SOL    HW233069   0.249   1.167  12.434 -0.3290  0.6639  0.5711
 7204SOL     OW33070   2.124   0.847  10.060  0.3785 -0.2158  0.4338
 7204SOL    HW133071   2.119   0.901   9.981 -1.6055  1.4971  1.6987
 7204SOL    HW233072   2.053   0.880  10.115  1.2726  0.3178  1.2647
 7205SOL     OW33073   3.429   1.602   2.840 -0.4205 -0.5863  0.9802
 7205SOL    HW133074   3.497   1.535   2.834 -0.3349 -0.3374 -1.1005
 7205SOL    HW233075   3.349   1.550   2.838 -0.7719 -0.0644  1.8089
 7206SOL     OW33076   4.109   3.488   6.203 -0.1554  0.5368 -0.3386
 7206SOL    HW133077   4.186   3.486   6.146  1.2188 -0.5687  1.5556
 7206SOL    HW233078   4.089   3.395   6.214  0.5847  0.2107 -1.7722
 7207SOL     OW33079   0.313   3.111  10.988  0.3170 -0.0565 -0.5371
 7207SOL    HW133080   0.384   3.174  11.003  0.5043 -0.9212  2.2748
 7207SOL    HW233081   0.352   3.033  10.949 -0.8134 -0.0403 -1.7038
 7208SOL     OW33082   3.833   0.481   3.905  0.3521  0.9719  0.1971
 7208SOL    HW133083   3.748   0.513   3.872 -0.9966 -2.5038  0.2963
 7208SOL    HW233084   3.807   0.401   3.951  0.7194 -1.1569 -3.2957
 7209SOL     OW33085   3.141   1.231  10.225 -0.3547  0.2342 -0.7916
 7209SOL    HW133086   3.153   1.147  10.269 -0.1178  0.0437 -1.2162
 7209SOL    HW233087   3.116   1.203  10.137 -1.0336 -1.3030 -0.1091
 7210SOL     OW33088   0.700   3.010   7.266 -0.0512  0.1166 -0.0464
 7210SOL    HW133089   0.667   2.991   7.353  0.6029 -3.4935 -0.5997
 7210SOL    HW233090   0.777   2.954   7.258 -1.1341 -1.2243 -0.9757
 7211SOL     OW33091   0.894   3.786   0.198  0.4057  0.0198  0.3300
 7211SOL    HW133092   0.837   3.780   0.275 -0.7589  0.4092 -0.4847
 7211SOL    HW233093   0.852   3.723   0.139  0.0918  1.4441 -0.9761
 7212SOL     OW33094   4.020   3.384   3.161  0.9815  0.0770 -0.1250
 7212SOL    HW133095   3.937   3.427   3.138  0.1546 -1.2037  0.4371
 7212SOL    HW233096   4.062   3.446   3.220  0.5681  0.1783  0.0642
 7213SOL     OW33097   3.047   2.970   8.483  0.7686 -0.2373 -0.3756
 7213SOL    HW133098   3.125   3.015   8.514  0.4637  0.6395 -0.8698
 7213SOL    HW233099   2.987   3.044   8.468 -0.9247 -0.6186  4.5189
 7214SOL     OW33100   2.207   1.042   8.261 -0.8066 -0.2166 -0.0514
 7214SOL    HW133101   2.225   1.032   8.355  1.6028  1.6536 -0.3324
 7214SOL    HW233102   2.263   1.115   8.237 -0.0499 -0.5962  0.5318
 7215SOL     OW33103   4.437   0.115   7.553 -0.4984  0.1487  0.0065
 7215SOL    HW133104   4.437   0.031   7.600  0.1860  0.3340  0.3299
 7215SOL    HW233105   4.405   0.166   7.628 -1.3642 -2.0294  1.1422
 7216SOL     OW33106   4.118   2.779   6.065  0.0443 -0.8236  0.6632
 7216SOL    HW133107   4.086   2.727   6.139 -1.9283  0.3179  0.6043
 7216SOL    HW233108   4.138   2.869   6.091  2.8269 -0.6297 -2.2191
 7217SOL     OW33109   4.270   4.048   5.567  0.3391 -0.1766  0.0626
 7217SOL    HW133110   4.194   4.078   5.516  0.4624  0.9846  0.5629
 7217SOL    HW233111   4.255   4.089   5.652 -0.0664 -1.3311  0.5516
 7218SOL     OW33112   2.252   2.491   3.020  0.1492 -0.2838  0.3772
 7218SOL    HW133113   2.262   2.401   3.049  1.3623  0.0484  0.9745
 7218SOL    HW233114   2.328   2.514   2.966  0.6530 -3.2390 -0.1684
 7219SOL     OW33115   1.587   2.856   6.921 -0.1076  0.6818  0.2909
 7219SOL    HW133116   1.678   2.873   6.948  0.0236  1.8418 -0.9198
 7219SOL    HW233117   1.593   2.888   6.831  0.6175  1.0050  0.4492
 7220SOL     OW33118   2.340   2.724   7.639  0.2264  0.0950  0.4655
 7220SOL    HW133119   2.261   2.743   7.689  0.5393  3.1624 -0.1945
 7220SOL    HW233120   2.368   2.810   7.608  0.0665 -0.0513 -0.0905
 7221SOL     OW33121   0.309   1.805   3.404  0.6122 -0.1411 -0.6893
 7221SOL    HW133122   0.390   1.759   3.427 -0.3339 -2.1406 -1.4128
 7221SOL    HW233123   0.281   1.768   3.321  2.9163 -0.0738 -1.5153
 7222SOL     OW33124   0.552   0.497   8.845  0.1960 -0.1748  0.3331
 7222SOL    HW133125   0.471   0.543   8.867  0.6731  0.4300  0.8356
 7222SOL    HW233126   0.568   0.455   8.929  1.4856 -1.8489 -0.7428
 7223SOL     OW33127   0.061   1.019   8.142  0.3710 -0.6113 -0.6183
 7223SOL    HW133128   4.687   1.020   8.159  0.6327  0.9690  0.7730
 7223SOL    HW233129   0.056   0.972   8.059 -0.4109 -0.2508 -0.7769
 7224SOL     OW33130   2.183   4.160   3.532 -0.1401  0.5215 -0.1758
 7224SOL    HW133131   2.106   4.175   3.587 -1.4713  1.8428 -2.3960
 7224SOL    HW233132   2.246   4.117   3.590 -1.7333 -0.3308  0.9026
 7225SOL     OW33133   3.968   0.947   5.870 -0.9115  0.3921 -0.4006
 7225SOL    HW133134   3.888   0.951   5.816 -1.4845 -2.3688  0.2725
 7225SOL    HW233135   3.924   0.894   5.936  2.1163  1.1107  2.1642
 7226SOL     OW33136   0.610   3.363   6.928 -0.0830 -0.5700  0.3608
 7226SOL    HW133137   0.518   3.345   6.909  0.1238 -3.1205  1.8297
 7226SOL    HW233138   0.615   3.321   7.014 -0.2053  0.5215  0.9056
 7227SOL     OW33139   3.835   0.189   9.117  0.3147 -0.2019 -0.4157
 7227SOL    HW133140   3.807   0.219   9.030 -1.2608  1.7369  0.7336
 7227SOL    HW233141   3.745   0.178   9.148 -0.0338 -1.3671 -1.8253
 7228SOL     OW33142   4.036   3.941   7.228  0.5728  0.1089 -0.4051
 7228SOL    HW133143   4.031   4.019   7.284  0.8779  0.1171 -0.3899
 7228SOL    HW233144   3.945   3.939   7.197  0.5778 -0.2317 -0.3887
 7229SOL     OW33145   2.697   4.464  10.686  0.0398 -0.0304 -0.3456
 7229SOL    HW133146   2.658   4.391  10.638  2.3690 -1.1703 -0.4837
 7229SOL    HW233147   2.768   4.419  10.731 -1.3786 -0.4098  1.5473
 7230SOL     OW33148   1.048   3.317   3.580  0.3364  0.2152 -0.2824
 7230SOL    HW133149   1.049   3.321   3.676  1.0313  1.8642 -0.3465
 7230SOL    HW233150   1.121   3.259   3.563 -1.3027 -1.8789 -0.1394
 7231SOL     OW33151   2.470   1.504   1.327  0.0547  0.4044 -0.3777
 7231SOL    HW133152   2.445   1.546   1.409  2.2801 -0.2485  0.6318
 7231SOL    HW233153   2.415   1.426   1.324  1.0615 -0.4083  2.6122
 7232SOL     OW33154   0.028   3.089   2.234  0.3322 -0.4285  0.6602
 7232SOL    HW133155   0.050   3.120   2.322 -1.1872 -1.5400  1.4272
 7232SOL    HW233156   0.014   2.998   2.257 -0.2511 -0.2101  1.1777
 7233SOL     OW33157   2.779   0.861   8.145 -0.0305 -0.2143  0.2466
 7233SOL    HW133158   2.710   0.803   8.114  0.5024 -1.3084  1.1065
 7233SOL    HW233159   2.751   0.891   8.231  0.2234 -3.2026  1.3701
 7234SOL     OW33160   3.686   3.775  10.005 -0.6725  0.2725 -0.0937
 7234SOL    HW133161   3.602   3.745   9.971 -1.2927  3.2021 -1.1933
 7234SOL    HW233162   3.666   3.763  10.098 -0.4188 -1.1851 -0.2267
 7235SOL     OW33163   3.685   0.145   4.764  0.4251 -0.0951 -0.4880
 7235SOL    HW133164   3.691   0.083   4.836  1.6336 -1.8411 -2.0771
 7235SOL    HW233165   3.604   0.110   4.728 -1.2517  0.5683  2.6466
 7236SOL     OW33166   4.072   1.183   2.066  0.3561 -0.3418  0.0359
 7236SOL    HW133167   4.136   1.241   2.024  1.9646 -0.3160  2.5449
 7236SOL    HW233168   4.117   1.153   2.145 -0.1294 -0.2162  0.3569
 7237SOL     OW33169   2.629   3.590   2.444  0.1796 -0.0149 -0.4267
 7237SOL    HW133170   2.597   3.667   2.398  0.0245  0.8093  1.0672
 7237SOL    HW233171   2.647   3.527   2.374  0.5519 -0.6630  0.2521
 7238SOL     OW33172   2.909   3.396   2.646 -0.0999  0.5079  0.2060
 7238SOL    HW133173   2.852   3.371   2.573 -0.1766 -0.4984  0.6078
 7238SOL    HW233174   2.887   3.485   2.671 -1.6949  0.8025 -2.2005
 7239SOL     OW33175   1.255   0.972   5.317 -0.0881  0.0640  0.1382
 7239SOL    HW133176   1.264   1.057   5.274 -0.7456  1.7101  3.1756
 7239SOL    HW233177   1.344   0.945   5.339 -1.0333  0.1257  4.0373
 7240SOL     OW33178   1.803   3.184  11.142 -0.2432 -0.0093  0.1519
 7240SOL    HW133179   1.753   3.108  11.172 -0.1867  0.0606  0.4267
 7240SOL    HW233180   1.820   3.162  11.050  0.2808  0.9666  0.0069
 7241SOL     OW33181   2.373   0.411   3.229  0.2266  0.0160  0.4888
 7241SOL    HW133182   2.359   0.500   3.259  0.9240 -0.0107  0.8857
 7241SOL    HW233183   2.388   0.361   3.310  0.4846  1.4304  1.3047
 7242SOL     OW33184   3.606   1.236   2.145 -0.0241 -0.1592 -0.1502
 7242SOL    HW133185   3.652   1.168   2.097 -1.1409 -1.2226  0.2890
 7242SOL    HW233186   3.515   1.213   2.123 -0.4243 -1.9915  3.3474
 7243SOL     OW33187   0.804   0.631   7.581  0.1287 -0.0701 -0.0805
 7243SOL    HW133188   0.854   0.550   7.595 -0.9325 -0.7354 -0.1656
 7243SOL    HW233189   0.738   0.625   7.649  0.0431 -1.3051 -0.2743
 7244SOL     OW33190   0.278   4.270   2.806  0.2706  0.0814 -0.6814
 7244SOL    HW133191   0.364   4.287   2.769  0.0075  0.8292 -0.9499
 7244SOL    HW233192   0.262   4.176   2.795  1.2653 -0.2167  0.5031
 7245SOL     OW33193   4.599   1.105   5.348 -0.2958  0.0589  0.7413
 7245SOL    HW133194   4.604   1.147   5.435  2.4264  1.5984 -0.1423
 7245SOL    HW233195   4.690   1.082   5.330  0.1587  1.5197  1.1099
 7246SOL     OW33196   3.626   1.670   8.222 -0.7718 -0.2135 -0.0710
 7246SOL    HW133197   3.543   1.699   8.185  1.1765  3.3912 -1.5998
 7246SOL    HW233198   3.677   1.751   8.226  0.0787 -0.6386 -2.2614
 7247SOL     OW33199   2.089   1.973   5.106 -0.9919 -0.1212  0.2923
 7247SOL    HW133200   2.147   1.907   5.144 -0.2192 -0.6473 -1.7987
 7247SOL    HW233201   2.117   2.048   5.160  1.1159  0.1476 -1.1600
 7248SOL     OW33202   4.060   3.558  10.948 -0.1216 -0.3276  0.3048
 7248SOL    HW133203   4.084   3.483  10.894  1.4527 -0.8921  1.7577
 7248SOL    HW233204   4.131   3.622  10.940 -1.9612  1.5113 -1.1957
 7249SOL     OW33205   2.331   1.095   3.237 -0.0618 -0.0241  0.0868
 7249SOL    HW133206   2.343   1.089   3.142  1.0133  3.1009  0.0270
 7249SOL    HW233207   2.418   1.081   3.275 -0.1813 -1.8064 -0.3119
 7250SOL     OW33208   3.542   1.572   2.138 -0.5684  0.5332  0.8285
 7250SOL    HW133209   3.585   1.525   2.066 -0.4095 -0.5096  1.6104
 7250SOL    HW233210   3.597   1.534   2.206 -0.9251 -1.3804  0.0508
 7251SOL     OW33211   4.157   1.029   6.848 -0.4464  0.0429 -0.8009
 7251SOL    HW133212   4.236   0.975   6.856  0.5765  1.2628 -2.5498
 7251SOL    HW233213   4.093   0.959   6.836  1.0285 -1.7113  1.5183
 7252SOL     OW33214   0.060   4.189   1.234 -0.3376  0.3827  0.0846
 7252SOL    HW133215   0.003   4.115   1.255 -0.4146  0.1639 -0.8789
 7252SOL    HW233216   0.006   4.253   1.187 -1.6932  1.1448  2.7183
 7253SOL     OW33217   2.537   2.903   9.599 -0.2938  0.2890  0.0492
 7253SOL    HW133218   2.471   2.838   9.623  0.8292 -0.8738 -0.0356
 7253SOL    HW233219   2.479   2.975   9.575 -2.0870 -1.3918 -0.6713
 7254SOL     OW33220   1.918   2.823   2.012  0.0167 -0.2418 -0.3564
 7254SOL    HW133221   1.941   2.753   1.950 -1.3163 -1.3786  0.4347
 7254SOL    HW233222   1.824   2.815   2.026  0.3067  0.2317  1.8152
 7255SOL     OW33223   4.002   4.533  16.249 -0.1560  0.2160 -0.6296
 7255SOL    HW133224   3.940   4.480  16.199  2.0369 -2.9612  0.0428
 7255SOL    HW233225   4.064   4.561  16.182  0.7793  1.3610  0.7255
 7256SOL     OW33226   0.415   1.035   7.125 -0.5286 -0.8499 -0.7395
 7256SOL    HW133227   0.362   0.999   7.053 -0.7603 -0.0376 -0.9771
 7256SOL    HW233228   0.372   1.116   7.150 -1.8019 -0.7402 -3.1966
 7257SOL     OW33229   0.710   2.317   8.431  0.1556  0.2605 -0.0312
 7257SOL    HW133230   0.631   2.366   8.454 -0.0056  1.8604 -4.0022
 7257SOL    HW233231   0.684   2.322   8.339  3.4665 -0.7634 -1.0048
 7258SOL     OW33232   2.784   2.839  14.397  0.0035  0.2193 -0.4115
 7258SOL    HW133233   2.779   2.832  14.493  0.0143 -0.2760 -0.4433
 7258SOL    HW233234   2.790   2.747  14.372  0.0585 -0.0697  0.6419
 7259SOL     OW33235   2.059   1.210   2.586  0.5681  0.3528 -0.5509
 7259SOL    HW133236   2.064   1.148   2.513 -1.7900 -0.2677 -0.2083
 7259SOL    HW233237   1.972   1.185   2.616  0.5502  0.7308 -0.2875
 7260SOL     OW33238   2.437   0.274   2.998  0.2493  0.5814  0.1785
 7260SOL    HW133239   2.395   0.309   3.077  0.8779  1.2240  0.2304
 7260SOL    HW233240   2.513   0.329   2.980 -1.2079  2.4086 -0.3694
 7261SOL     OW33241   0.710   0.103  10.630 -0.1865  0.4985 -0.6181
 7261SOL    HW133242   0.746   0.030  10.681 -3.0062 -0.1968  0.3708
 7261SOL    HW233243   0.776   0.172  10.640  0.2263 -0.2247  1.6771
 7262SOL     OW33244   1.766   2.724   2.978  0.2068  0.4877 -0.3056
 7262SOL    HW133245   1.855   2.690   2.991 -0.1013 -0.1925  0.0453
 7262SOL    HW233246   1.721   2.643   2.956  1.5853 -0.2469 -0.4634
 7263SOL     OW33247   3.248   1.169  12.610  0.5096 -0.2622  0.3701
 7263SOL    HW133248   3.196   1.192  12.533 -0.3200  1.0929  1.3356
 7263SOL    HW233249   3.200   1.210  12.682  0.0366 -0.0552 -0.0614
 7264SOL     OW33250   2.860   1.057  15.849  0.1890 -0.2631  0.2006
 7264SOL    HW133251   2.927   1.092  15.908 -2.4355  3.5644  0.8543
 7264SOL    HW233252   2.880   1.104  15.767  1.6734 -1.3158 -0.0495
 7265SOL     OW33253   3.836   0.623   0.756 -0.3569 -0.4000  0.2728
 7265SOL    HW133254   3.880   0.538   0.750  0.7353  0.1052  1.0704
 7265SOL    HW233255   3.753   0.612   0.709 -0.0398  0.4822 -0.4797
 7266SOL     OW33256   4.344   2.815   2.637 -0.6568  0.0782  0.3032
 7266SOL    HW133257   4.420   2.768   2.671 -0.0903  0.4150 -0.5146
 7266SOL    HW233258   4.337   2.768   2.554 -2.0297  1.1287 -0.1809
 7267SOL     OW33259   2.414   0.731   4.950 -0.4336  0.0183  0.2362
 7267SOL    HW133260   2.373   0.816   4.963  2.3337  1.0093  2.4212
 7267SOL    HW233261   2.426   0.750   4.857 -1.8212  0.2571  0.1078
 7268SOL     OW33262   1.517   3.937   9.428  0.2251  0.3209  0.1844
 7268SOL    HW133263   1.586   3.995   9.460  1.4081 -1.3370  0.6306
 7268SOL    HW233264   1.525   3.935   9.333 -1.6989  0.6779  0.0207
 7269SOL     OW33265   0.098   1.815   5.712 -0.0107  0.3816  0.2227
 7269SOL    HW133266   0.163   1.881   5.735  0.0078  0.3185  0.3553
 7269SOL    HW233267   0.022   1.872   5.700  0.0974 -0.1615 -3.0320
 7270SOL     OW33268   2.490   0.135   7.934 -0.3180 -0.5059 -0.0894
 7270SOL    HW133269   2.583   0.133   7.956 -0.5367 -0.2927  0.8226
 7270SOL    HW233270   2.461   0.208   7.989 -2.3802 -0.3305 -1.4134
 7271SOL     OW33271   1.103   0.928   6.030 -0.1072  0.1044  0.1845
 7271SOL    HW133272   1.183   0.881   6.053  0.0400  0.6911  0.8673
 7271SOL    HW233273   1.137   1.017   6.029  1.9848 -0.7114 -1.6331
 7272SOL     OW33274   4.025   2.036  11.497 -0.1536 -0.1957 -0.0068
 7272SOL    HW133275   3.987   1.948  11.500 -0.4345 -0.0971 -0.6390
 7272SOL    HW233276   4.098   2.015  11.439 -0.1438  2.1431 -0.8181
 7273SOL     OW33277   1.302   1.575   8.116 -0.4038  0.5088 -0.0791
 7273SOL    HW133278   1.314   1.575   8.211  0.9452  1.2275 -0.2456
 7273SOL    HW233279   1.302   1.481   8.099 -2.0886  0.1339  2.0270
 7274SOL     OW33280   1.199   1.718   4.752 -0.1370 -0.3905  0.6475
 7274SOL    HW133281   1.277   1.663   4.746  0.2604  0.1820  0.5263
 7274SOL    HW233282   1.236   1.807   4.745  0.7462 -0.5141  3.5475
 7275SOL     OW33283   2.448   0.616   6.277 -0.7249 -0.3603 -0.7345
 7275SOL    HW133284   2.359   0.620   6.313 -0.8605 -0.0037 -1.1043
 7275SOL    HW233285   2.474   0.534   6.318  0.7896  1.5159  2.0318
 7276SOL     OW33286   1.786   2.934   0.448  0.0556  0.1271 -0.4399
 7276SOL    HW133287   1.771   2.957   0.357  0.5957 -0.7417 -0.7519
 7276SOL    HW233288   1.861   2.990   0.465  2.4714 -2.5956 -2.0729
 7277SOL     OW33289   1.500   4.135   4.908  0.2001  0.2224 -0.5322
 7277SOL    HW133290   1.428   4.183   4.949  1.0523 -0.9035  2.3131
 7277SOL    HW233291   1.475   4.047   4.937 -0.9865  0.3588 -1.1485
 7278SOL     OW33292   1.953   2.707   2.601 -0.2796  0.0599 -0.2164
 7278SOL    HW133293   1.903   2.719   2.520 -0.6948 -2.1051 -0.2840
 7278SOL    HW233294   1.911   2.777   2.652 -1.1783 -1.4147  1.0650
 7279SOL     OW33295   3.245   1.790   8.593  0.0891 -0.2851 -0.3432
 7279SOL    HW133296   3.334   1.799   8.556  0.4605  1.9278  1.0594
 7279SOL    HW233297   3.201   1.866   8.554 -0.2876 -0.4896 -0.3040
 7280SOL     OW33298   1.809   3.422   8.976 -0.1153 -0.2934  0.3238
 7280SOL    HW133299   1.879   3.440   9.040  1.1483 -0.3398 -1.0396
 7280SOL    HW233300   1.738   3.466   9.024 -0.5362 -0.5059 -0.1136
 7281SOL     OW33301   1.085   3.802   4.247 -0.3531  0.4737  0.3849
 7281SOL    HW133302   1.117   3.886   4.217 -2.2982  0.3931 -1.9074
 7281SOL    HW233303   1.016   3.773   4.187  0.7979  1.0508 -1.1973
 7282SOL     OW33304   4.275   0.943  13.892 -0.4659 -0.4154 -0.0279
 7282SOL    HW133305   4.206   0.898  13.844  1.0797 -2.6867 -0.1371
 7282SOL    HW233306   4.235   1.027  13.914 -2.6954 -1.7487  0.9932
 7283SOL     OW33307   1.968   3.971   6.121 -0.0323  0.1502  0.2380
 7283SOL    HW133308   1.986   4.016   6.039  0.1358 -0.2550  0.0525
 7283SOL    HW233309   2.014   3.887   6.114 -0.7634 -0.2151 -0.0951
 7284SOL     OW33310   4.480   4.451   2.991 -0.0796 -0.3636  0.1133
 7284SOL    HW133311   4.503   4.501   3.069 -1.3352 -0.7292  0.7169
 7284SOL    HW233312   4.555   4.391   2.988  0.5052  0.1849  3.1574
 7285SOL     OW33313   1.652   1.637   4.718 -0.2732 -0.1575  0.1864
 7285SOL    HW133314   1.634   1.609   4.628  0.6978  0.6580 -0.2484
 7285SOL    HW233315   1.746   1.623   4.723  0.0156  0.9431 -1.9902
 7286SOL     OW33316   2.211   3.270   8.178  0.2335 -0.3328 -0.5483
 7286SOL    HW133317   2.176   3.188   8.142 -0.1063 -0.5788  0.3533
 7286SOL    HW233318   2.288   3.222   8.207  0.5732  0.0422 -0.8362
 7287SOL     OW33319   1.605   4.526   9.550 -0.4700  0.4555  0.2366
 7287SOL    HW133320   1.543   4.589   9.512 -1.5515 -0.2401  0.8636
 7287SOL    HW233321   1.657   4.569   9.617  0.4617 -0.6278  0.1947
 7288SOL     OW33322   0.983   4.494   5.569 -0.1382 -0.0388 -0.2324
 7288SOL    HW133323   0.914   4.431   5.590 -1.9549  2.0411  0.0257
 7288SOL    HW233324   0.937   4.567   5.610 -2.1694 -0.0896 -2.3740
 7289SOL     OW33325   3.907   2.637   9.199 -0.1598  0.0517  0.2028
 7289SOL    HW133326   3.871   2.678   9.121  0.5002  2.9632  1.4340
 7289SOL    HW233327   3.848   2.675   9.264 -1.1343 -2.4412  0.7838
 7290SOL     OW33328   0.908   1.484   8.884  0.1525  0.1375 -0.0553
 7290SOL    HW133329   0.956   1.407   8.855  0.1877 -1.2329  3.6553
 7290SOL    HW233330   0.820   1.448   8.892  0.4148  0.2224  3.0827
 7291SOL     OW33331   0.121   2.738  16.328 -0.0538 -0.0999 -0.0600
 7291SOL    HW133332   0.195   2.717  16.271 -1.6283  0.2949 -2.2279
 7291SOL    HW233333   0.165   2.757  16.411  0.3830  1.2233 -0.5960
 7292SOL     OW33334   0.119   3.249   0.117 -0.1781  0.2072 -0.5524
 7292SOL    HW133335   0.094   3.341   0.104  0.1554  0.2569 -0.8270
 7292SOL    HW233336   0.039   3.204   0.091 -1.4684  2.2100 -0.0873
 7293SOL     OW33337   0.929   3.936   2.861  0.4925  0.2884 -0.6725
 7293SOL    HW133338   0.902   3.866   2.801  0.2187 -1.5617  1.6383
 7293SOL    HW233339   0.876   3.914   2.937 -0.7510  0.0674 -1.5857
 7294SOL     OW33340   3.191   1.542   3.423 -0.4723 -0.3142  0.6517
 7294SOL    HW133341   3.285   1.546   3.440 -0.5527  1.4683  0.6764
 7294SOL    HW233342   3.178   1.603   3.351 -0.0221 -0.1148  0.7385
 7295SOL     OW33343   4.250   0.637   3.894 -0.2274  0.0226 -0.6616
 7295SOL    HW133344   4.299   0.566   3.935 -0.7432  1.1194  1.8466
 7295SOL    HW233345   4.321   0.688   3.855  1.1716 -2.9539 -2.0048
 7296SOL     OW33346   1.373   4.546   4.939 -0.1087  0.3043 -0.0587
 7296SOL    HW133347   1.467   4.556   4.921  0.4324 -2.1543  1.3281
 7296SOL    HW233348   1.370   4.586   5.026  1.8951  1.4979 -0.5403
 7297SOL     OW33349   1.411   3.981   2.944  0.0823 -0.0286  0.0554
 7297SOL    HW133350   1.333   4.030   2.919  0.9318  0.7202 -1.0718
 7297SOL    HW233351   1.411   3.989   3.039  0.2261 -2.1281  0.2517
 7298SOL     OW33352   3.695   1.286   7.218  0.4164 -0.2690 -0.0661
 7298SOL    HW133353   3.715   1.360   7.274  0.8014 -1.3738  1.2455
 7298SOL    HW233354   3.620   1.320   7.170 -0.0330 -1.7297 -0.4232
 7299SOL     OW33355   1.523   4.128   5.583 -0.7647  0.6062 -0.4308
 7299SOL    HW133356   1.605   4.168   5.553  0.3228  0.0678  1.8548
 7299SOL    HW233357   1.492   4.197   5.642 -1.9033  0.8689 -1.3304
 7300SOL     OW33358   4.255   4.318   2.889 -0.4164 -0.0315  0.6111
 7300SOL    HW133359   4.184   4.381   2.904 -1.1381 -0.8396  0.6083
 7300SOL    HW233360   4.335   4.353   2.928  0.0075  0.0572 -0.3395
 7301SOL     OW33361   0.625   2.271  13.678 -0.8505 -0.5958  0.0293
 7301SOL    HW133362   0.577   2.339  13.630  0.6247 -0.3636 -1.0957
 7301SOL    HW233363   0.666   2.309  13.756 -0.5912 -0.2637 -0.2691
 7302SOL     OW33364   0.807   3.737   9.491  0.7943  0.1535  0.1746
 7302SOL    HW133365   0.762   3.667   9.539  1.2451 -2.3380 -3.1027
 7302SOL    HW233366   0.828   3.687   9.413 -0.4291 -0.2512  0.1074
 7303SOL     OW33367   1.187   0.424   4.748  0.6856 -0.3225 -0.1152
 7303SOL    HW133368   1.100   0.383   4.750  0.2500  0.5474 -1.0774
 7303SOL    HW233369   1.190   0.487   4.676  0.6011 -2.1573 -1.7236
 7304SOL     OW33370   0.109   1.480  13.741  0.1662 -0.1969 -0.0353
 7304SOL    HW133371   0.113   1.576  13.731 -0.5824 -0.0230  1.4277
 7304SOL    HW233372   0.113   1.484  13.836 -2.0703  3.1674 -0.0767
 7305SOL     OW33373   4.486   2.846   1.802 -0.1723  0.3382 -0.0498
 7305SOL    HW133374   4.449   2.917   1.855 -0.5354  1.1861 -1.4519
 7305SOL    HW233375   4.411   2.788   1.788 -0.8314  0.9996  0.7541
 7306SOL     OW33376   3.799   3.736   1.231  0.1291  0.3905  0.7073
 7306SOL    HW133377   3.765   3.817   1.268 -0.9585 -0.1989  1.0016
 7306SOL    HW233378   3.885   3.762   1.199 -0.9208  1.5189 -1.1585
 7307SOL     OW33379   2.323   4.595   3.230  0.0752  0.8919 -0.1576
 7307SOL    HW133380   2.285   4.508   3.227 -0.4267  1.1178 -0.2912
 7307SOL    HW233381   2.343   4.612   3.137 -1.0377  0.2312 -0.5079
 7308SOL     OW33382   2.723   2.650   1.291 -0.6654  0.5371 -0.4004
 7308SOL    HW133383   2.728   2.570   1.343 -0.2413 -0.2397 -1.6527
 7308SOL    HW233384   2.695   2.710   1.360 -0.2935  0.9951 -0.6446
 7309SOL     OW33385   4.545   4.386   5.480 -0.0628  0.0678  0.0252
 7309SOL    HW133386   4.506   4.299   5.469  0.2957 -0.0464 -0.3135
 7309SOL    HW233387   4.578   4.394   5.569  1.0036  0.0097 -0.3629
 7310SOL     OW33388   4.152   2.943   7.145 -0.2425 -0.2898  0.5202
 7310SOL    HW133389   4.244   2.945   7.117 -1.4560  0.2085 -3.5220
 7310SOL    HW233390   4.130   3.036   7.145  1.4136  0.1093  0.7798
 7311SOL     OW33391   0.958   2.178   6.360  0.7797 -0.0581  0.3163
 7311SOL    HW133392   0.997   2.257   6.322  1.4506 -1.1056 -1.1637
 7311SOL    HW233393   0.873   2.215   6.383  0.5598 -1.2574  1.4566
 7312SOL     OW33394   0.460   0.816   7.710  0.4658 -0.0650  0.2625
 7312SOL    HW133395   0.391   0.759   7.742  0.6854 -0.1317  0.6172
 7312SOL    HW233396   0.408   0.882   7.664  1.2927 -0.4671 -1.2534
 7313SOL     OW33397   2.862   1.674   2.805  0.1501 -0.7215  0.4595
 7313SOL    HW133398   2.914   1.724   2.743 -0.6890  2.0150  1.9780
 7313SOL    HW233399   2.912   1.592   2.804 -0.1362 -0.8964  0.3579
 7314SOL     OW33400   0.500   0.371   3.354  0.3452 -0.1439  0.0263
 7314SOL    HW133401   0.548   0.451   3.332 -1.6374  1.2336  0.7356
 7314SOL    HW233402   0.411   0.396   3.329 -0.1966  0.9346  3.1375
 7315SOL     OW33403   0.878   1.680  13.096 -0.2348 -0.3551  0.5805
 7315SOL    HW133404   0.785   1.702  13.093  0.2327  1.4669 -0.1149
 7315SOL    HW233405   0.907   1.769  13.078  2.6511 -1.3334  0.4466
 7316SOL     OW33406   3.488   3.318   9.743  0.4797 -0.2148  0.3086
 7316SOL    HW133407   3.453   3.393   9.696 -1.3046 -0.9907  0.4159
 7316SOL    HW233408   3.576   3.307   9.706  1.4590  3.0824  1.6985
 7317SOL     OW33409   2.635   0.679  15.883  0.3168  0.3866 -0.4675
 7317SOL    HW133410   2.583   0.759  15.880 -0.1422  0.0779 -0.6157
 7317SOL    HW233411   2.658   0.675  15.790 -2.3722  0.8904 -1.1380
 7318SOL     OW33412   4.417   4.585  13.215  0.2869  0.2475 -0.6832
 7318SOL    HW133413   4.413   4.491  13.227  1.0598  0.7110  3.2340
 7318SOL    HW233414   4.507   4.605  13.190  0.2257 -1.2351 -2.0477
 7319SOL     OW33415   0.402   2.029   3.771  0.3022 -0.5361 -0.0639
 7319SOL    HW133416   0.310   2.012   3.751  0.9040 -1.4186 -2.0960
 7319SOL    HW233417   0.408   1.936   3.793 -0.3744 -0.5781 -0.0615
 7320SOL     OW33418   1.886   4.085   0.777 -0.2419 -0.2552  0.4560
 7320SOL    HW133419   1.797   4.089   0.742 -1.1333 -1.7752  2.5590
 7320SOL    HW233420   1.890   4.045   0.864 -2.6410  1.1093  1.2061
 7321SOL     OW33421   0.194   0.366   2.216  0.0019  0.1143 -0.0819
 7321SOL    HW133422   0.277   0.379   2.262 -1.3990  2.7793  1.7008
 7321SOL    HW233423   0.131   0.363   2.288  0.5962 -1.4153  0.3720
 7322SOL     OW33424   2.779   0.624   6.028 -0.1064 -0.0398  0.0088
 7322SOL    HW133425   2.756   0.573   6.105 -0.8053  1.1458  0.5828
 7322SOL    HW233426   2.873   0.641   6.043  0.1617 -0.6708 -1.0004
 7323SOL     OW33427   3.679   0.860   7.304  0.4194  0.3625 -0.3839
 7323SOL    HW133428   3.733   0.922   7.255  3.3069 -0.5280  1.6660
 7323SOL    HW233429   3.740   0.786   7.309  0.7681  0.8069  1.9733
 7324SOL     OW33430   4.300   2.364   3.308  0.3247 -0.5409  0.3711
 7324SOL    HW133431   4.384   2.352   3.351 -0.4798 -1.1004  1.7839
 7324SOL    HW233432   4.259   2.434   3.359 -1.1133 -0.0167 -1.4787
 7325SOL     OW33433   2.603   4.475   9.238  0.3772  0.2802 -0.2192
 7325SOL    HW133434   2.683   4.444   9.282  1.7194  2.7648 -0.9338
 7325SOL    HW233435   2.619   4.566   9.262  2.2239  0.1782 -1.1126
 7326SOL     OW33436   4.168   1.855   5.928 -0.0723  0.4974  0.0136
 7326SOL    HW133437   4.166   1.935   5.876  0.5754  0.9247  0.6394
 7326SOL    HW233438   4.086   1.876   5.973 -1.2032 -0.4516 -1.5838
 7327SOL     OW33439   1.520   3.931   9.154  0.2330 -0.1485 -0.1983
 7327SOL    HW133440   1.518   4.025   9.136  0.6384  0.1569  1.2942
 7327SOL    HW233441   1.570   3.909   9.075 -1.3404 -0.7135 -1.0265
 7328SOL     OW33442   2.488   1.087  14.946  0.1159 -0.4645 -0.2890
 7328SOL    HW133443   2.525   1.031  15.014 -1.8541  0.7427  1.7799
 7328SOL    HW233444   2.570   1.104  14.899  1.5048  0.7938  2.5865
 7329SOL     OW33445   3.963   3.284   6.033 -0.3264  0.9268 -0.3520
 7329SOL    HW133446   3.945   3.372   5.999 -1.5596  0.4038 -1.0281
 7329SOL    HW233447   3.873   3.251   6.030  0.4398 -1.0897 -0.4780
 7330SOL     OW33448   0.216   0.050   5.595 -0.5168 -0.2584 -0.6832
 7330SOL    HW133449   0.254   0.118   5.541 -0.2544 -0.2386 -0.4739
 7330SOL    HW233450   0.197   4.709   5.525  0.1605 -1.2220 -0.0138
 7331SOL     OW33451   0.584   4.342   7.003  0.2837 -0.1490 -0.1413
 7331SOL    HW133452   0.494   4.337   7.035  0.4037  2.0319  0.5224
 7331SOL    HW233453   0.602   4.431   7.032 -2.2619  0.6607 -1.0353
 7332SOL     OW33454   1.922   2.575   1.206 -0.6512 -0.1747 -0.2339
 7332SOL    HW133455   1.908   2.631   1.283  0.3409  1.0864 -0.9657
 7332SOL    HW233456   1.834   2.574   1.170 -1.3393 -1.1021  1.4860
 7333SOL     OW33457   4.282   1.869  15.795  0.8811  0.1855  0.2823
 7333SOL    HW133458   4.290   1.774  15.806  0.1059 -0.0490 -1.2070
 7333SOL    HW233459   4.240   1.873  15.709 -1.5697  0.6070  1.5086
 7334SOL     OW33460   4.267   0.016   5.318 -0.4377  0.0747 -0.2166
 7334SOL    HW133461   4.333   4.708   5.381  0.5084 -0.5615 -1.5168
 7334SOL    HW233462   4.235   0.092   5.367 -1.2064 -0.5946  0.3271
 7335SOL     OW33463   3.818   2.096   2.863 -0.7258 -0.1593 -0.0725
 7335SOL    HW133464   3.905   2.125   2.889 -0.4825 -0.1457 -0.9105
 7335SOL    HW233465   3.767   2.121   2.940  0.7720  0.8226  0.6027
 7336SOL     OW33466   2.498   2.375   2.469  0.3532 -0.1046  0.1865
 7336SOL    HW133467   2.407   2.362   2.495  0.4224 -0.8345  0.0642
 7336SOL    HW233468   2.489   2.465   2.438  2.2964  0.3080  0.8188
 7337SOL     OW33469   2.932   0.359   9.382 -1.0675 -0.6545  0.2570
 7337SOL    HW133470   2.918   0.454   9.386  0.7676 -0.4237  1.0948
 7337SOL    HW233471   3.027   0.349   9.387 -1.0573  0.1884  1.9125
 7338SOL     OW33472   2.867   0.683  11.073 -0.4835 -0.1238 -0.4490
 7338SOL    HW133473   2.793   0.626  11.056 -2.4185  1.6622  1.8817
 7338SOL    HW233474   2.822   0.745  11.131  2.2040  1.6045 -0.2003
 7339SOL     OW33475   2.387   4.155   5.976 -0.3887  1.2460  0.2461
 7339SOL    HW133476   2.365   4.090   6.043  1.3438 -0.8404 -1.1815
 7339SOL    HW233477   2.475   4.120   5.958 -1.4800 -1.6095  0.4721
 7340SOL     OW33478   4.572   2.401   3.443 -0.0204  0.0505 -0.2717
 7340SOL    HW133479   4.580   2.487   3.402  4.4844  0.4343  1.3780
 7340SOL    HW233480   4.637   2.411   3.513  0.7065 -1.0596 -0.7904
 7341SOL     OW33481   0.239   1.036   4.308  0.3849 -0.0986 -0.2514
 7341SOL    HW133482   0.277   1.000   4.389 -0.0009  0.0480 -0.0040
 7341SOL    HW233483   0.153   0.995   4.301  0.1374  0.2118  0.9455
 7342SOL     OW33484   1.400   4.433   0.790  0.4545 -0.0641 -0.1734
 7342SOL    HW133485   1.465   4.391   0.733  1.8999 -1.9055  2.8373
 7342SOL    HW233486   1.358   4.492   0.728  2.1524 -1.2969 -2.5360
 7343SOL     OW33487   0.586   4.716   7.421  0.0502 -0.1132 -0.0032
 7343SOL    HW133488   0.653   0.061   7.432 -0.2839 -0.2217  2.7796
 7343SOL    HW233489   0.614   4.651   7.486 -0.6013 -0.4713 -0.0774
 7344SOL     OW33490   3.080   4.311   4.369 -0.2176  0.2728  0.2184
 7344SOL    HW133491   3.043   4.233   4.327 -1.3030 -0.5004  2.6248
 7344SOL    HW233492   3.151   4.277   4.425 -0.9639  0.9342  1.5470
 7345SOL     OW33493   4.122   3.855  11.450 -0.1754  0.0069  0.4447
 7345SOL    HW133494   4.177   3.791  11.496  0.8788  2.0738  2.0969
 7345SOL    HW233495   4.036   3.816  11.438 -0.9066  1.2152  1.8079
 7346SOL     OW33496   0.427   0.854   2.799  0.2248 -0.4240 -0.0174
 7346SOL    HW133497   0.392   0.779   2.847 -0.7807 -0.6780 -1.1403
 7346SOL    HW233498   0.356   0.907   2.762  0.1822 -1.2586 -1.1253
 7347SOL     OW33499   0.013   4.361   6.940 -0.0388 -0.2580 -0.0354
 7347SOL    HW133500   4.683   4.313   7.005 -0.0174  1.2495  1.0804
 7347SOL    HW233501   0.002   4.291   6.876  1.6187 -1.2865  0.7775
 7348SOL     OW33502   4.667   3.340   7.664 -0.1966  0.0150 -0.3424
 7348SOL    HW133503   0.014   3.293   7.615 -0.2731 -0.0264 -0.4082
 7348SOL    HW233504   4.667   3.287   7.744 -0.4495 -1.7166 -1.4774
 7349SOL     OW33505   0.486   4.159   4.426  0.3184  0.0204  0.2826
 7349SOL    HW133506   0.547   4.085   4.437 -2.4622 -2.0763  1.7420
 7349SOL    HW233507   0.412   4.135   4.482 -1.7276  2.1817 -1.5123
 7350SOL     OW33508   0.076   3.640   6.611 -0.2073 -0.0738  0.1828
 7350SOL    HW133509   0.108   3.627   6.522  1.6655  0.3700  0.7789
 7350SOL    HW233510   0.012   3.570   6.624  0.0357 -0.2440  0.4731
 7351SOL     OW33511   4.618   3.959   1.825 -0.4746 -0.1858  0.3193
 7351SOL    HW133512   4.628   3.993   1.914 -4.1116  1.1292  0.2204
 7351SOL    HW233513   4.523   3.946   1.816 -0.6804  1.2525  0.4511
 7352SOL     OW33514   2.298   4.465  10.561 -0.3050 -0.5399  0.3443
 7352SOL    HW133515   2.375   4.523  10.560 -1.3302  0.7934 -0.5573
 7352SOL    HW233516   2.234   4.527  10.527 -0.0745 -0.3913  0.1801
 7353SOL     OW33517   2.448   0.909  10.789  0.0545 -0.3540  0.0451
 7353SOL    HW133518   2.515   0.842  10.797 -0.7624 -1.0607  0.9708
 7353SOL    HW233519   2.388   0.878  10.857 -0.1946  0.1786  0.0702
 7354SOL     OW33520   2.855   3.967   3.603 -0.2686  0.1106 -0.1025
 7354SOL    HW133521   2.922   3.978   3.535 -1.1802  0.3306 -0.9679
 7354SOL    HW233522   2.820   4.056   3.599 -2.7279 -0.7800  1.4523
 7355SOL     OW33523   0.795   2.336  14.245  0.3339  0.4012 -0.4290
 7355SOL    HW133524   0.857   2.263  14.240 -0.5785 -0.4914  1.4237
 7355SOL    HW233525   0.839   2.373  14.321  1.8240  0.0894 -1.1346
 7356SOL     OW33526   2.792   1.481   5.656 -0.3741  0.7952 -0.0509
 7356SOL    HW133527   2.730   1.422   5.613 -1.9915  3.4527 -1.3195
 7356SOL    HW233528   2.769   1.466   5.748  0.8986  0.0802  0.1540
 7357SOL     OW33529   0.926   4.423   4.149  0.1764  0.9185  0.0142
 7357SOL    HW133530   0.899   4.353   4.209  3.1100 -0.6028 -0.4520
 7357SOL    HW233531   1.021   4.426   4.154  0.1462 -0.4385  1.1874
 7358SOL     OW33532   0.162   3.459  11.025 -0.2564  0.0051 -0.0287
 7358SOL    HW133533   0.230   3.413  11.073  0.3753  0.1993 -0.7429
 7358SOL    HW233534   0.221   3.505  10.966  1.0724 -1.9442 -0.2295
 7359SOL     OW33535   0.183   0.596  12.526  0.4829  0.2044 -0.0932
 7359SOL    HW133536   0.231   0.605  12.608 -0.4022 -2.2209  0.6675
 7359SOL    HW233537   0.118   0.666  12.536  1.7473  1.4825 -0.8435
 7360SOL     OW33538   1.019   2.604   6.394 -0.4593  0.0176 -0.1320
 7360SOL    HW133539   1.026   2.521   6.346  1.9283  1.0542 -1.5209
 7360SOL    HW233540   1.103   2.613   6.438  0.0188  1.8151 -1.4511
 7361SOL     OW33541   0.489   3.141   3.737  0.4972  0.6459 -0.2584
 7361SOL    HW133542   0.571   3.113   3.778  0.0164 -1.2112 -0.5713
 7361SOL    HW233543   0.523   3.189   3.661 -0.9071  0.0011 -1.2938
 7362SOL     OW33544   2.387   2.539   7.455 -0.1769  0.0663  0.0084
 7362SOL    HW133545   2.345   2.593   7.522 -1.0335 -2.7010  1.7467
 7362SOL    HW233546   2.449   2.600   7.417  1.7515 -1.3311  0.8857
 7363SOL     OW33547   3.708   2.579  16.465 -0.2720  0.0192  0.0811
 7363SOL    HW133548   3.619   2.559  16.436  0.7545  0.6629 -3.5132
 7363SOL    HW233549   3.704   2.511  16.533 -0.2838  0.9631  1.0175
 7364SOL     OW33550   0.686   3.308   6.625 -0.3634  0.3288  0.2231
 7364SOL    HW133551   0.599   3.332   6.595 -1.1555 -3.8050 -0.7957
 7364SOL    HW233552   0.679   3.322   6.720 -1.4009  0.9430  0.0453
 7365SOL     OW33553   2.075   3.260   7.053 -0.5145 -0.4783 -0.1972
 7365SOL    HW133554   2.077   3.285   6.960  1.2253 -0.6401 -0.2170
 7365SOL    HW233555   2.113   3.173   7.056  0.6924  0.0035 -1.6079
 7366SOL     OW33556   3.869   4.669   4.342  0.2518  0.6059  0.0273
 7366SOL    HW133557   3.894   0.031   4.384 -1.2860  0.4920  1.1879
 7366SOL    HW233558   3.776   4.689   4.330  0.4304  1.0381 -0.6410
 7367SOL     OW33559   2.701   3.264   7.475  0.1984 -0.1565 -0.3150
 7367SOL    HW133560   2.648   3.265   7.555  0.0794  2.3081 -0.4248
 7367SOL    HW233561   2.630   3.302   7.423 -0.6570 -0.5847  0.5126
 7368SOL     OW33562   3.906   1.173   8.960  0.2781 -0.8190 -0.2127
 7368SOL    HW133563   3.978   1.142   9.016  2.4781  2.1119 -1.4000
 7368SOL    HW233564   3.945   1.158   8.874  0.6941 -0.9678 -0.0001
 7369SOL     OW33565   2.836   4.582   7.580 -0.5297  0.5311 -0.2777
 7369SOL    HW133566   2.765   4.646   7.573 -0.6822  0.2534 -1.3258
 7369SOL    HW233567   2.909   4.626   7.537  0.8495 -0.7747  0.7593
 7370SOL     OW33568   3.300   2.999   5.263  0.5553 -0.3287 -0.0009
 7370SOL    HW133569   3.229   2.958   5.312  0.4659  0.3677  0.4634
 7370SOL    HW233570   3.264   3.088   5.267 -1.7390 -1.2331 -0.7709
 7371SOL     OW33571   4.417   2.415   2.780 -0.6411  0.5970  0.5391
 7371SOL    HW133572   4.430   2.328   2.742  1.1673  0.6699  0.9864
 7371SOL    HW233573   4.401   2.403   2.874  2.4629  2.1252  1.2777
 7372SOL     OW33574   1.938   1.489   3.047  0.1940 -0.2999 -0.3695
 7372SOL    HW133575   1.993   1.528   3.115 -1.4541  1.2791  0.0423
 7372SOL    HW233576   1.990   1.414   3.016 -0.2315 -0.0238 -1.7721
 7373SOL     OW33577   0.997   2.634   8.476  0.1969  0.1574  0.3011
 7373SOL    HW133578   0.953   2.688   8.411  0.7423  0.0781 -0.1358
 7373SOL    HW233579   0.966   2.684   8.552 -0.8867 -1.0281  0.6490
 7374SOL     OW33580   2.895   1.944   8.334 -0.3266  0.2810  0.0653
 7374SOL    HW133581   2.844   1.910   8.407 -1.0710  1.8466  0.2563
 7374SOL    HW233582   2.976   1.962   8.381 -1.6178 -1.1213  2.8294
 7375SOL     OW33583   0.885   3.258   3.380  0.1161 -0.3576  0.2906
 7375SOL    HW133584   0.927   3.172   3.369  1.1433  0.2191 -0.1967
 7375SOL    HW233585   0.929   3.284   3.461 -1.7225 -1.2406  1.5875
 7376SOL     OW33586   0.236   1.037  17.126 -0.3599  0.1296 -0.1863
 7376SOL    HW133587   0.297   1.039  17.200  1.7944 -3.6420 -1.8430
 7376SOL    HW233588   0.263   0.952  17.091  2.9445  1.0103  0.2479
 7377SOL     OW33589   0.088   3.083   1.744  0.0020 -0.3475 -0.0712
 7377SOL    HW133590   0.136   3.066   1.825 -0.4460 -0.6908  0.1243
 7377SOL    HW233591   0.044   3.166   1.763 -0.0950 -0.0958 -1.4081
 7378SOL     OW33592   0.747   1.946   6.259  0.4165  0.4078 -0.6592
 7378SOL    HW133593   0.816   1.949   6.326 -1.7381  1.2326  1.5096
 7378SOL    HW233594   0.686   1.880   6.292 -0.5150  1.5165 -0.1543
 7379SOL     OW33595   0.769   2.013   8.365 -0.2464 -0.1582 -0.5113
 7379SOL    HW133596   0.741   2.098   8.400 -0.2543  0.0763 -1.0928
 7379SOL    HW233597   0.800   2.041   8.280 -0.1011  0.0028 -0.4059
 7380SOL     OW33598   0.695   4.719  16.727 -0.1234  0.6284 -0.1929
 7380SOL    HW133599   0.647   4.661  16.668  1.3331  0.0210 -0.7838
 7380SOL    HW233600   0.783   4.682  16.724 -0.7190 -0.7527 -0.4908
 7381SOL     OW33601   0.078   4.143   2.376 -0.2594  0.4231  0.2259
 7381SOL    HW133602   0.162   4.188   2.386 -0.2330  0.9617 -2.4748
 7381SOL    HW233603   0.105   4.053   2.393  1.1217  0.7441 -0.3241
 7382SOL     OW33604   3.083   4.049   9.617  0.4067 -0.0161  0.7434
 7382SOL    HW133605   3.137   3.973   9.641 -0.3375 -0.6101  0.5660
 7382SOL    HW233606   2.999   4.026   9.657 -0.2174  0.2803 -0.4156
 7383SOL     OW33607   1.615   2.599   8.083 -0.3832 -0.3538 -0.5866
 7383SOL    HW133608   1.690   2.543   8.061  2.3724  3.3663 -0.5463
 7383SOL    HW233609   1.621   2.667   8.016  1.1545 -2.1084 -2.2274
 7384SOL     OW33610   2.025   3.753   9.165 -0.0351  0.4459  0.1110
 7384SOL    HW133611   1.960   3.783   9.228  0.9668 -1.5155  2.0644
 7384SOL    HW233612   2.014   3.658   9.167 -1.2289  0.5741 -0.2687
 7385SOL     OW33613   1.570   2.458   4.300  0.1397 -0.3509  0.2786
 7385SOL    HW133614   1.558   2.391   4.232  0.4241 -0.5693  0.4400
 7385SOL    HW233615   1.653   2.496   4.270  0.2878 -1.2160 -0.4274
 7386SOL     OW33616   2.353   3.561  11.393  0.1977  0.4944 -0.5399
 7386SOL    HW133617   2.278   3.605  11.434  0.5251  1.5794 -1.1100
 7386SOL    HW233618   2.415   3.634  11.400 -0.4529  1.3252 -3.4993
 7387SOL     OW33619   2.913   0.899   6.924 -0.0664  0.0500  0.8226
 7387SOL    HW133620   2.895   0.875   6.833 -0.8465  2.6909  0.2741
 7387SOL    HW233621   2.827   0.911   6.964 -1.2634  0.0673 -1.7852
 7388SOL     OW33622   1.104   1.720  10.105 -0.4405 -0.3193 -0.2162
 7388SOL    HW133623   1.039   1.756  10.165  0.2335  1.2244 -0.4236
 7388SOL    HW233624   1.046   1.684  10.037  0.8296 -1.5554 -0.6472
 7389SOL     OW33625   2.107   1.650  15.398  0.0823  0.1106  0.3901
 7389SOL    HW133626   2.183   1.614  15.444 -1.8539 -0.5576  3.0928
 7389SOL    HW233627   2.143   1.701  15.325 -1.5563  0.9424  0.1794
 7390SOL     OW33628   0.848   3.745   6.619 -0.2145 -0.4924  0.0539
 7390SOL    HW133629   0.822   3.827   6.660 -3.5662 -1.2082 -0.5992
 7390SOL    HW233630   0.760   3.711   6.599 -0.7845  1.9814 -1.6774
 7391SOL     OW33631   2.513   2.000   6.616 -0.2296  0.0915 -0.2550
 7391SOL    HW133632   2.476   1.989   6.704  0.2907  0.3861 -0.0011
 7391SOL    HW233633   2.605   1.978   6.633 -0.8037  0.2212  2.9979
 7392SOL     OW33634   0.276   2.911   5.649 -0.2407 -0.2640 -0.2688
 7392SOL    HW133635   0.203   2.937   5.593  0.3115  2.0912  0.0901
 7392SOL    HW233636   0.238   2.926   5.736 -1.3724 -0.0712 -0.7962
 7393SOL     OW33637   3.384   4.084   8.282  0.3456  0.3316 -0.1137
 7393SOL    HW133638   3.386   4.065   8.376  2.2733  3.9007  0.5697
 7393SOL    HW233639   3.452   4.152   8.279 -0.6678  1.4071  1.4078
 7394SOL     OW33640   3.561   2.234   9.583 -0.5119 -0.1710 -0.3204
 7394SOL    HW133641   3.586   2.164   9.644 -0.4349  1.3557  1.3788
 7394SOL    HW233642   3.484   2.195   9.543 -0.6411 -1.6561  1.3786
 7395SOL     OW33643   1.764   2.639   4.014 -0.6087  0.1722  0.1333
 7395SOL    HW133644   1.729   2.555   4.043 -0.8652  0.5972  1.0315
 7395SOL    HW233645   1.763   2.674   4.102  0.9950 -1.8358  0.9715
 7396SOL     OW33646   0.627   1.721   6.357 -0.9994  0.2579 -0.1361
 7396SOL    HW133647   0.695   1.657   6.379  0.2692  1.0151 -1.8368
 7396SOL    HW233648   0.601   1.693   6.269  0.0714 -0.4235 -0.2430
 7397SOL     OW33649   3.374   4.535   4.696 -0.2888 -0.7605  0.2888
 7397SOL    HW133650   3.378   4.631   4.699  0.4669 -0.6863 -2.3309
 7397SOL    HW233651   3.422   4.519   4.614  3.2585  2.0904  1.8126
 7398SOL     OW33652   3.340   2.889   1.670  0.3621 -0.3476 -0.1913
 7398SOL    HW133653   3.297   2.869   1.753 -1.3864  0.0732 -0.9845
 7398SOL    HW233654   3.301   2.974   1.648  0.3253 -0.3430 -0.1054
 7399SOL     OW33655   2.443   4.518   8.806  0.1688  0.4104 -0.8268
 7399SOL    HW133656   2.538   4.515   8.818  0.3100  1.0319 -1.7636
 7399SOL    HW233657   2.431   4.458   8.732  0.8693 -0.0286 -0.5826
 7400SOL     OW33658   2.503   2.015  15.704  0.6233  0.1834  0.0743
 7400SOL    HW133659   2.578   2.045  15.653  0.1767 -1.4546 -1.5397
 7400SOL    HW233660   2.445   2.091  15.711  0.7267  0.4767 -2.0700
 7401SOL     OW33661   0.513   2.262   4.835 -0.2248  0.3666  0.1742
 7401SOL    HW133662   0.517   2.314   4.755 -0.9342 -4.2966 -2.8565
 7401SOL    HW233663   0.510   2.331   4.902 -2.6674 -1.0362  1.4642
 7402SOL     OW33664   1.616   1.072  13.282 -0.4497 -0.1519  0.0833
 7402SOL    HW133665   1.611   1.167  13.272 -1.2065 -0.1826  0.1953
 7402SOL    HW233666   1.665   1.066  13.364  0.9119 -1.5699 -0.8246
 7403SOL     OW33667   3.798   1.546  10.354 -0.1147 -0.1530 -0.6193
 7403SOL    HW133668   3.810   1.641  10.345 -3.9046  0.6672  2.5563
 7403SOL    HW233669   3.754   1.531  10.271 -0.0082 -0.1208 -0.6804
 7404SOL     OW33670   2.090   0.687   4.429 -0.0664  0.1673 -0.2093
 7404SOL    HW133671   2.006   0.731   4.438 -0.4716 -0.3697 -1.3934
 7404SOL    HW233672   2.133   0.727   4.505  1.6777  0.1899 -1.2051
 7405SOL     OW33673   4.658   0.238   1.470  0.2196 -0.0955  0.8133
 7405SOL    HW133674   4.606   0.305   1.426  0.6860 -1.1392 -1.3286
 7405SOL    HW233675   4.696   0.273   1.551 -2.8116  2.5302  1.0874
 7406SOL     OW33676   1.891   1.015   5.985  0.3620 -0.1882  0.2543
 7406SOL    HW133677   1.932   0.944   5.935  0.9079  0.8253 -0.7234
 7406SOL    HW233678   1.953   1.011   6.058 -2.8372  1.8405  3.1139
 7407SOL     OW33679   0.156   2.043   2.836 -0.2174 -0.0240 -0.0368
 7407SOL    HW133680   0.237   2.087   2.861 -0.6125  1.2802 -1.0313
 7407SOL    HW233681   0.140   1.993   2.916 -1.6156  1.8814  0.8588
 7408SOL     OW33682   1.213   0.424   4.428 -0.0093 -0.4091 -0.5774
 7408SOL    HW133683   1.198   0.461   4.341  0.3134  0.7531 -0.1355
 7408SOL    HW233684   1.146   0.475   4.474  0.5868  0.9260 -1.2029
 7409SOL     OW33685   0.599   1.221  15.947  0.2780 -0.3512 -0.8770
 7409SOL    HW133686   0.660   1.150  15.964 -0.3335 -1.2306 -2.3017
 7409SOL    HW233687   0.646   1.258  15.872  2.9162 -1.6730  0.1610
 7410SOL     OW33688   1.753   1.154   1.302 -0.2555 -0.2797 -0.1607
 7410SOL    HW133689   1.848   1.152   1.299 -0.3031  1.8721 -3.1005
 7410SOL    HW233690   1.730   1.188   1.215 -1.8136 -1.4067 -0.1996
 7411SOL     OW33691   0.083   2.834   2.425 -0.2454 -0.3792  0.2348
 7411SOL    HW133692   0.154   2.799   2.477 -0.4241  2.2107  2.2330
 7411SOL    HW233693   0.040   2.754   2.396  1.4803 -0.5386 -1.9077
 7412SOL     OW33694   3.449   0.846   3.229 -0.6530  0.3484 -0.1736
 7412SOL    HW133695   3.364   0.881   3.206  0.4556  2.7274 -0.6420
 7412SOL    HW233696   3.488   0.845   3.142 -1.8339  0.2411 -0.6970
 7413SOL     OW33697   0.565   4.608   6.997  0.4610  0.4200  0.0851
 7413SOL    HW133698   0.529   4.663   7.066  1.2027  0.6792  0.2626
 7413SOL    HW233699   0.497   4.603   6.930 -1.6907 -0.4969  2.3445
 7414SOL     OW33700   3.593   0.543   3.764  0.0302  0.1269  0.2883
 7414SOL    HW133701   3.662   0.547   3.698 -1.1534  0.8913 -0.9102
 7414SOL    HW233702   3.515   0.514   3.716  0.6420 -1.5380  0.3291
 7415SOL     OW33703   0.212   0.602  11.406  0.2972 -0.1551 -0.1943
 7415SOL    HW133704   0.223   0.643  11.320  0.5187  0.4918  0.1482
 7415SOL    HW233705   0.233   0.675  11.463 -2.6642  1.4382 -1.1614
 7416SOL     OW33706   0.910   1.862  17.136 -0.4365 -0.4871 -0.1813
 7416SOL    HW133707   1.000   1.892  17.147 -1.4063  1.4642  2.3528
 7416SOL    HW233708   0.914   1.785  17.192  0.3811 -0.4673 -0.2166
 7417SOL     OW33709   2.464   2.479   1.827 -0.2658  0.2545 -0.0675
 7417SOL    HW133710   2.445   2.400   1.776 -0.8137 -0.1049  0.6866
 7417SOL    HW233711   2.430   2.545   1.767  1.9137  1.0656 -0.4012
 7418SOL     OW33712   0.594   2.507  14.139 -0.1835  0.1907  0.2584
 7418SOL    HW133713   0.623   2.417  14.154  0.9394  1.0029  2.9016
 7418SOL    HW233714   0.499   2.497  14.142  0.0449 -2.2221 -0.5511
 7419SOL     OW33715   3.058   1.089   3.661  0.9747  0.4455  0.3082
 7419SOL    HW133716   3.086   0.998   3.657  0.1997  0.2933 -1.3681
 7419SOL    HW233717   3.082   1.117   3.749 -0.8979 -0.0122  0.9807
 7420SOL     OW33718   1.043   4.526   3.912  0.2038  0.0753  0.0565
 7420SOL    HW133719   0.995   4.498   3.990 -0.3932 -0.5469 -0.5310
 7420SOL    HW233720   1.065   4.613   3.945  3.9034  0.0250 -2.3114
 7421SOL     OW33721   4.019   0.844   7.302  0.1901 -0.0055 -0.4652
 7421SOL    HW133722   4.102   0.877   7.266 -0.1891  0.4437 -0.9294
 7421SOL    HW233723   4.008   0.762   7.254  0.3184 -0.6872  0.6596
 7422SOL     OW33724   1.646   0.510   0.123  0.1893 -0.0480 -0.3031
 7422SOL    HW133725   1.735   0.502   0.156  0.5698  1.1386 -1.0338
 7422SOL    HW233726   1.676   0.482   0.036 -2.2357 -0.6784 -0.9306
 7423SOL     OW33727   3.715   2.202   4.180  0.9765  0.2446  0.1581
 7423SOL    HW133728   3.685   2.121   4.141  1.0507  0.4235 -0.2677
 7423SOL    HW233729   3.736   2.256   4.104 -0.4514 -0.3596 -0.6446
 7424SOL     OW33730   4.325   1.327  10.930 -0.2077  0.0223 -0.1838
 7424SOL    HW133731   4.341   1.255  10.869 -0.8227  0.2527 -0.6264
 7424SOL    HW233732   4.234   1.356  10.917  0.0244  0.6602 -0.4106
 7425SOL     OW33733   3.920   0.853   2.458 -0.0680  0.5940 -0.1831
 7425SOL    HW133734   3.830   0.871   2.485 -0.1951 -0.3313 -0.0122
 7425SOL    HW233735   3.923   0.758   2.452 -0.6441  0.7100 -2.4052
 7426SOL     OW33736   0.233   2.145   3.180 -0.1469 -0.0154 -0.1948
 7426SOL    HW133737   0.145   2.154   3.216 -0.8723 -0.9087 -1.7464
 7426SOL    HW233738   0.250   2.051   3.168  0.9853  0.0912  0.6262
 7427SOL     OW33739   2.943   4.499  10.379 -0.4093 -0.1109  0.2600
 7427SOL    HW133740   2.999   4.460  10.312  0.3686 -0.8797  1.3661
 7427SOL    HW233741   2.960   4.437  10.450  0.7097 -1.0161 -0.8079
 7428SOL     OW33742   0.903   0.278   8.128  0.4180  0.0182 -0.0481
 7428SOL    HW133743   0.945   0.357   8.163 -0.1545  0.1819  0.2702
 7428SOL    HW233744   0.908   0.226   8.208 -0.1086 -1.4080 -0.9469
 7429SOL     OW33745   2.714   0.376   1.887 -0.1404  0.8615 -0.1983
 7429SOL    HW133746   2.733   0.469   1.870  2.6114  0.5171  0.9177
 7429SOL    HW233747   2.770   0.334   1.821 -0.7821  0.1060 -0.2564
 7430SOL     OW33748   2.054   4.617   4.839  0.1213 -0.1118  0.4105
 7430SOL    HW133749   1.980   4.556   4.835  0.5934 -0.4785 -2.6952
 7430SOL    HW233750   2.104   4.583   4.764  0.9130  0.3684  0.7140
 7431SOL     OW33751   4.070   1.812  10.119 -0.0812 -0.5150  0.4913
 7431SOL    HW133752   4.056   1.799  10.025 -0.2112 -0.0373  0.4446
 7431SOL    HW233753   4.159   1.846  10.125 -0.1953  0.1364 -1.3983
 7432SOL     OW33754   0.134   3.521   3.161  0.0170 -0.0922  0.2072
 7432SOL    HW133755   0.162   3.430   3.153  1.7064  0.5823 -1.5467
 7432SOL    HW233756   0.129   3.545   3.068 -1.5594 -1.1880 -0.0044
 7433SOL     OW33757   0.298   0.619   7.780 -0.6954  0.2232  0.0006
 7433SOL    HW133758   0.263   0.546   7.729 -0.3050 -1.4395  2.1394
 7433SOL    HW233759   0.280   0.599   7.872  2.8602 -0.5567  0.5386
 7434SOL     OW33760   1.855   0.072   4.160  0.6828 -0.2912 -0.2401
 7434SOL    HW133761   1.864   0.163   4.133 -0.1564 -0.0642  0.2449
 7434SOL    HW233762   1.823   0.030   4.080  1.6773 -2.1838  0.3550
 7435SOL     OW33763   0.416   2.942  13.538  0.2590 -0.0104 -0.1934
 7435SOL    HW133764   0.427   3.009  13.471 -0.9545  1.6051  1.2272
 7435SOL    HW233765   0.442   2.862  13.492  0.9247 -1.0979  2.0555
 7436SOL     OW33766   0.100   2.124  10.548 -0.6121 -0.2336  0.1453
 7436SOL    HW133767   0.030   2.173  10.592 -0.6639  1.3254 -1.6628
 7436SOL    HW233768   0.047   2.097  10.473  1.3239  0.5088 -1.4863
 7437SOL     OW33769   3.540   4.279  11.259  0.1397 -0.4594  0.3636
 7437SOL    HW133770   3.530   4.191  11.224  0.3709 -0.4380  0.2424
 7437SOL    HW233771   3.609   4.318  11.206 -0.5020  0.6598  0.3377
 7438SOL     OW33772   3.195   2.090   9.395  0.3342 -0.2741 -0.3610
 7438SOL    HW133773   3.254   2.035   9.447  1.2603  0.6250 -0.4656
 7438SOL    HW233774   3.249   2.131   9.327 -1.5267  4.0961  0.8122
 7439SOL     OW33775   2.525   2.213   5.335  0.1600 -0.7709 -0.0653
 7439SOL    HW133776   2.511   2.302   5.368  0.2452 -1.2395  1.2218
 7439SOL    HW233777   2.556   2.231   5.246  0.8452 -1.7827 -0.0239
 7440SOL     OW33778   4.303   0.987   4.931  0.0654 -0.3475  0.9646
 7440SOL    HW133779   4.236   0.936   4.978 -1.5024  0.7591 -0.0724
 7440SOL    HW233780   4.357   1.023   5.001  1.0900 -0.2077  0.0867
 7441SOL     OW33781   2.986   3.740  15.820 -0.8750  0.0121  0.1081
 7441SOL    HW133782   3.062   3.710  15.870  0.2429  1.4333 -0.7268
 7441SOL    HW233783   3.018   3.761  15.733 -1.3449 -4.1373 -1.0689
 7442SOL     OW33784   3.467   3.740   0.296  0.0623 -0.1377 -0.0174
 7442SOL    HW133785   3.454   3.832   0.317 -0.3748 -0.3144  0.4891
 7442SOL    HW233786   3.454   3.699   0.381 -0.9240  0.9594  0.3667
 7443SOL     OW33787   1.268   1.463   9.696  0.2532 -0.6963 -0.4003
 7443SOL    HW133788   1.315   1.491   9.774 -3.2335 -2.0216  2.1588
 7443SOL    HW233789   1.217   1.542   9.682 -1.0167 -0.7982  3.6876
 7444SOL     OW33790   0.627   3.825   1.900  0.5073  0.1661 -0.4661
 7444SOL    HW133791   0.604   3.783   1.817  1.1998 -0.9798 -0.0860
 7444SOL    HW233792   0.604   3.767   1.973 -1.8114  1.4273 -0.2170
 7445SOL     OW33793   4.630   2.073   2.083 -0.2571  0.7723 -0.5432
 7445SOL    HW133794   4.588   2.073   2.169  2.5650 -0.2523  0.8122
 7445SOL    HW233795   4.557   2.098   2.025  0.4516  0.4128 -1.5908
 7446SOL     OW33796   0.094   0.675   0.152  0.4485 -0.5456  0.2585
 7446SOL    HW133797   0.123   0.690   0.242 -2.9500 -0.1214  1.2789
 7446SOL    HW233798   0.103   0.580   0.154 -1.7741 -0.7929 -0.8959
 7447SOL     OW33799   1.522   3.631   7.868 -0.1070 -0.5061 -0.3433
 7447SOL    HW133800   1.519   3.716   7.824  0.7194 -0.5910 -0.5709
 7447SOL    HW233801   1.464   3.647   7.942 -0.3724 -0.3529 -0.5854
 7448SOL     OW33802   3.239   4.133   2.111 -0.2266 -0.3770  0.1912
 7448SOL    HW133803   3.328   4.100   2.098 -0.5452 -1.1358 -0.0372
 7448SOL    HW233804   3.248   4.194   2.184 -0.5081  0.8680 -0.8053
 7449SOL     OW33805   3.265   2.789   5.661 -0.7844  0.0318 -1.3115
 7449SOL    HW133806   3.194   2.742   5.705  0.2313  0.3841  0.6974
 7449SOL    HW233807   3.243   2.787   5.568 -1.5818  1.1750 -1.1464
 7450SOL     OW33808   4.356   1.132   5.219 -0.5099  1.0158 -0.1082
 7450SOL    HW133809   4.444   1.137   5.256 -0.4380 -3.5996  0.3838
 7450SOL    HW233810   4.324   1.217   5.249 -2.4919  0.3307 -0.2693
 7451SOL     OW33811   1.736   0.052   6.492 -0.0558  0.2955 -0.0814
 7451SOL    HW133812   1.678   0.049   6.416  0.2799  0.0405 -0.3256
 7451SOL    HW233813   1.681   0.105   6.550 -1.1382 -1.0195  0.0823
 7452SOL     OW33814   2.384   4.313  12.860  0.2974 -0.2020 -0.0105
 7452SOL    HW133815   2.443   4.382  12.829  0.3547 -0.3720 -0.2816
 7452SOL    HW233816   2.336   4.295  12.779 -1.7610 -0.5527  1.3054
 7453SOL     OW33817   3.892   4.404   7.286  0.0960 -0.2164  0.1776
 7453SOL    HW133818   3.929   4.384   7.372 -1.5732 -2.4667  0.3924
 7453SOL    HW233819   3.969   4.388   7.231 -0.7571  0.2290 -1.1506
 7454SOL     OW33820   3.196   4.609   4.420  0.4019 -0.2944 -0.8729
 7454SOL    HW133821   3.233   4.587   4.506  0.7483 -0.9215 -1.1798
 7454SOL    HW233822   3.226   4.546   4.355 -1.3223  0.1584 -2.0845
 7455SOL     OW33823   0.557   2.450   0.848 -0.1407 -0.0404 -0.0352
 7455SOL    HW133824   0.579   2.401   0.769  0.2881  1.2126 -0.6930
 7455SOL    HW233825   0.615   2.523   0.829 -1.9337  0.9297 -1.7283
 7456SOL     OW33826   1.266   0.931   2.763 -0.1434 -0.2823  0.7106
 7456SOL    HW133827   1.268   0.860   2.827  2.2100 -0.9707 -0.1266
 7456SOL    HW233828   1.347   0.981   2.773 -0.3257 -0.1579  1.5761
 7457SOL     OW33829   2.498   4.374   1.039 -0.2577  0.0493  0.3155
 7457SOL    HW133830   2.569   4.432   1.013 -1.4371  1.2249 -0.2855
 7457SOL    HW233831   2.541   4.291   1.019  1.3981  0.9132  0.3173
 7458SOL     OW33832   1.828   4.009   7.121  0.2572  0.0421  0.2453
 7458SOL    HW133833   1.900   4.009   7.057  0.4757  0.8238  0.4935
 7458SOL    HW233834   1.803   3.917   7.126  0.2177  0.1168  1.4530
 7459SOL     OW33835   3.272   1.794   5.432 -0.4382  0.2158 -0.2382
 7459SOL    HW133836   3.341   1.728   5.437  1.7252  2.6061  1.5123
 7459SOL    HW233837   3.187   1.754   5.448  0.2310 -2.0836 -2.3128
 7460SOL     OW33838   4.513   0.730   8.075  0.0704 -0.0427 -0.0688
 7460SOL    HW133839   4.514   0.800   8.140  4.3689 -0.1349 -0.0442
 7460SOL    HW233840   4.479   0.773   7.996 -2.6505  1.1453  1.7675
 7461SOL     OW33841   2.647   1.481   9.884 -0.5130 -0.4873 -0.2822
 7461SOL    HW133842   2.645   1.567   9.925  0.1241  0.2818 -1.8851
 7461SOL    HW233843   2.684   1.507   9.800  0.1955  1.4051  0.6189
 7462SOL     OW33844   1.943   2.911   6.781 -0.1693  0.3267 -0.2244
 7462SOL    HW133845   1.900   2.935   6.863  0.9409 -0.3061  0.5382
 7462SOL    HW233846   1.924   2.818   6.788 -0.4863  0.5883  2.4684
 7463SOL     OW33847   3.812   0.069   3.936 -0.2740 -0.7641 -0.1629
 7463SOL    HW133848   3.890   0.073   3.991 -1.0323  1.1736  0.7925
 7463SOL    HW233849   3.785   0.160   3.952 -0.9805 -0.7855 -1.2563
 7464SOL     OW33850   2.771   3.595   5.107 -0.8830  0.2965  0.4755
 7464SOL    HW133851   2.696   3.570   5.053  1.6817 -1.4650 -2.2263
 7464SOL    HW233852   2.807   3.511   5.135 -0.8010 -0.0387 -0.6494
 7465SOL     OW33853   2.668   2.621   7.685  0.6212  1.0152  0.0889
 7465SOL    HW133854   2.676   2.693   7.621 -0.7405  0.3782 -0.7947
 7465SOL    HW233855   2.673   2.536   7.640 -1.4716 -0.0365  1.8519
 7466SOL     OW33856   2.637   4.180  10.694 -0.1172  0.0866  0.0568
 7466SOL    HW133857   2.561   4.157  10.747  0.1864  0.3567  0.6146
 7466SOL    HW233858   2.614   4.150  10.606  0.7084  1.1737 -0.5325
 7467SOL     OW33859   0.798   0.041  17.316 -0.0493 -0.1816  0.1349
 7467SOL    HW133860   0.732   0.101  17.281 -0.4094 -0.4165  0.4090
 7467SOL    HW233861   0.865   0.103  17.345  1.3912 -1.6238 -0.1639
 7468SOL     OW33862   1.346   2.211  11.788  0.7227 -0.3176 -0.1830
 7468SOL    HW133863   1.363   2.155  11.712 -1.6589 -0.1345 -0.8435
 7468SOL    HW233864   1.437   2.217  11.817  0.7321  3.8254 -1.1453
 7469SOL     OW33865   2.509   3.762   4.324 -0.5002  0.0738 -0.3747
 7469SOL    HW133866   2.497   3.694   4.258  2.4956 -0.4875 -0.3339
 7469SOL    HW233867   2.497   3.712   4.405  0.3164  0.7074  0.1424
 7470SOL     OW33868   0.544   4.015   2.904  0.5508  0.0907 -0.0579
 7470SOL    HW133869   0.548   3.991   2.811  0.2615 -2.6488  0.6166
 7470SOL    HW233870   0.597   4.094   2.904  1.5130 -0.5354  1.8308
 7471SOL     OW33871   1.127   2.364  14.154  1.1206  0.2110  0.2450
 7471SOL    HW133872   1.083   2.388  14.236 -1.0028 -0.1300 -0.7895
 7471SOL    HW233873   1.065   2.402  14.092 -0.2231 -1.3646  0.6358
 7472SOL     OW33874   1.181   1.545  13.408 -0.2197  0.0907 -0.4943
 7472SOL    HW133875   1.258   1.549  13.465 -1.8300 -3.1294  1.8598
 7472SOL    HW233876   1.167   1.636  13.380 -1.0148 -0.6549 -2.5648
 7473SOL     OW33877   1.256   3.192   3.457  0.1572  0.4264 -0.2822
 7473SOL    HW133878   1.243   3.110   3.410  1.8419  0.5108 -0.9209
 7473SOL    HW233879   1.346   3.184   3.490 -0.4915 -1.5443  0.9906
 7474SOL     OW33880   3.522   2.511   3.769  0.0264  0.0920  0.0504
 7474SOL    HW133881   3.455   2.445   3.789 -2.3076  2.1704 -0.9211
 7474SOL    HW233882   3.581   2.508   3.844  0.2226 -1.6670 -0.1740
 7475SOL     OW33883   2.699   2.979   3.924 -0.3079 -0.0410 -0.1571
 7475SOL    HW133884   2.766   3.039   3.956  1.8356 -1.1598 -2.6498
 7475SOL    HW233885   2.681   3.020   3.840  1.3775 -0.9740 -0.9720
 7476SOL     OW33886   1.791   2.046   4.911 -0.6459 -0.0544  0.8387
 7476SOL    HW133887   1.755   1.986   4.846 -0.2007  0.3873  0.1706
 7476SOL    HW233888   1.873   2.075   4.869 -0.3696 -0.1140  1.3410
 7477SOL     OW33889   1.256   0.035   6.930  0.1118  0.5149  0.1194
 7477SOL    HW133890   1.298   4.673   6.908  0.0302  0.5576 -0.1997
 7477SOL    HW233891   1.307   0.058   7.007 -0.6728  0.1990  0.7297
 7478SOL     OW33892   0.872   1.479   8.435  0.0802  0.5592 -0.1723
 7478SOL    HW133893   0.845   1.447   8.521  0.7132 -2.6402 -1.1581
 7478SOL    HW233894   0.893   1.401   8.384 -1.7796  0.4308 -0.7433
 7479SOL     OW33895   0.424   4.021  14.266 -0.0080  0.6619 -0.1447
 7479SOL    HW133896   0.379   3.943  14.235 -1.1190  1.5139 -0.6709
 7479SOL    HW233897   0.494   4.024  14.201  0.8220 -2.8225  0.5915
 7480SOL     OW33898   2.818   3.864   5.152  0.8842  0.2251 -0.7383
 7480SOL    HW133899   2.892   3.912   5.115 -1.3350  1.8947 -2.9743
 7480SOL    HW233900   2.815   3.782   5.102  1.3824 -0.7567  0.8109
 7481SOL     OW33901   4.683   4.448   7.985 -0.3632  0.1095 -0.2889
 7481SOL    HW133902   0.042   4.456   8.037 -0.1060 -0.5811 -0.5797
 7481SOL    HW233903   4.719   4.375   7.935  0.2982 -0.2347  0.6847
 7482SOL     OW33904   0.867   1.560   9.435  0.9609 -0.2894  0.0539
 7482SOL    HW133905   0.786   1.508   9.438  1.5226 -1.0470  2.3779
 7482SOL    HW233906   0.865   1.574   9.340 -2.4524 -0.9821 -0.0017
 7483SOL     OW33907   1.050   0.239  14.220  0.4651 -0.3279 -0.1596
 7483SOL    HW133908   1.013   0.325  14.200 -0.3659 -0.8796 -1.0001
 7483SOL    HW233909   0.975   0.185  14.244  0.9997 -1.2025 -0.4581
 7484SOL     OW33910   4.032   4.682   8.109  0.3567 -0.0446  0.3987
 7484SOL    HW133911   4.098   4.695   8.040  1.1605 -1.2264  0.9267
 7484SOL    HW233912   4.074   0.008   8.181  1.0478 -1.8555  1.1761
 7485SOL     OW33913   2.246   0.871   6.576 -0.1788  0.2891 -0.1157
 7485SOL    HW133914   2.216   0.786   6.543 -0.0702  0.2163 -0.0279
 7485SOL    HW233915   2.275   0.849   6.665 -0.7280  0.4563  0.1015
 7486SOL     OW33916   0.900   4.177  12.524 -0.4863  0.3398  0.1296
 7486SOL    HW133917   0.820   4.157  12.475  1.2028 -0.4118 -2.3516
 7486SOL    HW233918   0.969   4.134  12.473 -1.0746 -2.7790  1.9722
 7487SOL     OW33919   0.665   3.251   4.028 -0.2212 -0.4106 -0.2305
 7487SOL    HW133920   0.656   3.206   4.112  0.0876  1.7656  0.9768
 7487SOL    HW233921   0.581   3.297   4.018  0.0121 -0.1463 -0.9534
 7488SOL     OW33922   3.678   2.511   4.842  0.6491  0.3060 -0.3061
 7488SOL    HW133923   3.668   2.596   4.800 -0.0723 -0.3636 -1.5157
 7488SOL    HW233924   3.601   2.473   4.799 -0.6930  3.7488 -0.9163
 7489SOL     OW33925   4.010   2.768   3.648  0.4733  0.2360  0.1889
 7489SOL    HW133926   4.081   2.806   3.701  1.0981 -0.9807  0.2215
 7489SOL    HW233927   4.025   2.675   3.666  0.8933  0.3659  0.5137
 7490SOL     OW33928   2.914   1.252   8.648 -0.2670 -0.7080 -0.7690
 7490SOL    HW133929   2.980   1.320   8.662 -0.8962 -0.0506 -0.9923
 7490SOL    HW233930   2.968   1.173   8.653  1.5717  0.4404 -2.3748
 7491SOL     OW33931   3.502   3.172   6.573  0.1825 -0.0784 -0.0114
 7491SOL    HW133932   3.481   3.086   6.608  3.1075  0.2046  2.4169
 7491SOL    HW233933   3.422   3.216   6.546 -0.8041 -2.2877 -0.6813
 7492SOL     OW33934   3.639   1.052  12.918  0.4408 -0.1034  0.0592
 7492SOL    HW133935   3.544   1.050  12.908  0.2920  0.2289  1.3711
 7492SOL    HW233936   3.662   0.964  12.890  1.1806 -0.4131  1.6630
 7493SOL     OW33937   3.327   0.138   5.129 -0.3792 -0.0511  0.0066
 7493SOL    HW133938   3.238   0.158   5.100 -1.0365 -1.1410  1.2589
 7493SOL    HW233939   3.376   0.207   5.085  2.7875 -1.2749  1.5462
 7494SOL     OW33940   4.345   0.671   4.227 -0.1528 -0.0773 -0.2290
 7494SOL    HW133941   4.263   0.705   4.190 -0.7605 -0.9622  0.3031
 7494SOL    HW233942   4.323   0.663   4.320  0.4268  1.0525  0.0069
 7495SOL     OW33943   3.411   3.427   3.947 -0.1299  0.9929 -0.0698
 7495SOL    HW133944   3.380   3.470   3.867 -2.2641 -1.7732 -0.7305
 7495SOL    HW233945   3.375   3.485   4.014 -0.3381  0.2115  0.4933
 7496SOL     OW33946   3.142   3.693   2.700 -0.0674  0.2611 -0.2293
 7496SOL    HW133947   3.120   3.777   2.659 -0.9626 -0.4211 -1.1812
 7496SOL    HW233948   3.237   3.695   2.710  0.1402 -0.3197 -2.0186
 7497SOL     OW33949   1.111   2.019   4.026  0.0182  0.0377  0.5722
 7497SOL    HW133950   1.114   1.931   3.988  2.4169 -0.0256  0.8991
 7497SOL    HW233951   1.081   1.995   4.114 -1.5747  0.5704  0.1815
 7498SOL     OW33952   4.384   4.599   4.351  0.4155 -0.1090 -0.1687
 7498SOL    HW133953   4.472   4.621   4.321  1.0310 -3.0989 -0.5954
 7498SOL    HW233954   4.388   4.512   4.311  0.3710 -0.2110  0.0496
 7499SOL     OW33955   3.627   1.675   3.810 -0.4912  0.6221 -0.3452
 7499SOL    HW133956   3.681   1.619   3.754  1.7262  0.9421  1.5064
 7499SOL    HW233957   3.599   1.620   3.883  0.9059  0.6244  0.1890
 7500SOL     OW33958   4.638   2.695  12.633 -0.3859  0.0330 -0.1321
 7500SOL    HW133959   4.711   2.686  12.694  0.6991  1.7817 -1.1992
 7500SOL    HW233960   4.673   2.773  12.590  0.4421  1.4869  3.1261
 7501SOL     OW33961   2.046   0.196   3.671  0.0825 -0.0107  0.1440
 7501SOL    HW133962   2.097   0.184   3.590  1.1614 -0.6251  0.9159
 7501SOL    HW233963   2.102   0.262   3.710  0.5508 -0.8822  0.9381
 7502SOL     OW33964   0.791   3.973   3.827 -0.3870 -0.3534 -0.5497
 7502SOL    HW133965   0.760   4.011   3.744  1.7788 -1.8811 -2.0425
 7502SOL    HW233966   0.707   3.961   3.872  0.3912  0.4872  1.1372
 7503SOL     OW33967   1.715   4.572   8.491 -0.1011  0.1157 -0.2389
 7503SOL    HW133968   1.646   4.554   8.555 -0.6992  0.6039 -0.7305
 7503SOL    HW233969   1.664   4.600   8.414  2.1119 -1.2489 -2.2138
 7504SOL     OW33970   1.588   2.552   3.157  0.2680  0.0547 -0.1186
 7504SOL    HW133971   1.524   2.520   3.093 -0.4894 -1.7619  1.5506
 7504SOL    HW233972   1.527   2.574   3.227 -0.0441 -0.2071 -0.3127
 7505SOL     OW33973   3.539   4.085   7.135  0.2151 -0.1463 -0.1748
 7505SOL    HW133974   3.572   4.174   7.121 -1.4797 -0.0080 -3.3112
 7505SOL    HW233975   3.480   4.101   7.209  1.5502 -1.1892  1.0995
 7506SOL     OW33976   1.235   3.054  12.954 -0.0981 -0.2622  0.4824
 7506SOL    HW133977   1.275   2.986  12.899 -1.6388 -1.1238  0.4179
 7506SOL    HW233978   1.313   3.096  12.988  1.5244 -2.9400  0.0542
 7507SOL     OW33979   2.274   3.537  15.484 -0.3032  0.7647  0.1394
 7507SOL    HW133980   2.204   3.573  15.429  1.0556  0.3585 -1.8354
 7507SOL    HW233981   2.239   3.450  15.501 -0.6223  0.6744 -0.9671
 7508SOL     OW33982   1.630   0.836   7.054 -0.0594  0.4227 -0.3424
 7508SOL    HW133983   1.554   0.777   7.057 -0.2664  0.6979 -0.1708
 7508SOL    HW233984   1.581   0.916   7.036 -1.1406  0.0652  0.9678
 7509SOL     OW33985   1.090   0.588   9.638 -0.2303 -0.6545 -0.2712
 7509SOL    HW133986   1.162   0.545   9.684 -0.8166 -1.1074  0.2351
 7509SOL    HW233987   1.033   0.606   9.713  2.0007  2.2446  0.7094
 7510SOL     OW33988   1.382   4.081  14.776 -0.0041  0.0100 -0.2223
 7510SOL    HW133989   1.361   4.095  14.684  1.5853 -1.0263 -0.7506
 7510SOL    HW233990   1.478   4.082  14.765  0.0395  1.3644  0.3510
 7511SOL     OW33991   2.129   2.332   8.771  0.0271  0.9445  0.3943
 7511SOL    HW133992   2.185   2.362   8.700  0.1008  0.8050  0.3930
 7511SOL    HW233993   2.068   2.405   8.777  1.3914  2.0741  0.3072
 7512SOL     OW33994   1.539   2.995   7.758  0.0524 -0.3438  0.2441
 7512SOL    HW133995   1.528   3.078   7.804  0.7196 -0.1658  0.0781
 7512SOL    HW233996   1.489   2.939   7.817 -0.3873 -1.0315 -0.7923
 7513SOL     OW33997   3.353   0.923   5.538  0.5533 -0.3964  0.6353
 7513SOL    HW133998   3.308   0.841   5.561 -1.1820  0.0682 -1.0854
 7513SOL    HW233999   3.281   0.959   5.485  3.0473  2.4874 -0.7951
 7514SOL     OW34000   0.979   4.588  14.968  0.4444 -0.3666  0.0419
 7514SOL    HW134001   0.977   4.661  15.030  0.3941 -1.1013  0.8918
 7514SOL    HW234002   1.063   4.607  14.927  0.1034  2.2317  0.5402
 7515SOL     OW34003   0.897   1.662  17.322  0.6903 -0.3454 -0.7006
 7515SOL    HW134004   0.867   1.670  17.413 -0.8471 -0.8418 -1.1727
 7515SOL    HW234005   0.973   1.604  17.333  0.1494 -0.4257  2.6015
 7516SOL     OW34006   0.500   2.511   8.407 -0.1339 -0.1580 -0.2870
 7516SOL    HW134007   0.527   2.591   8.452  1.8447 -0.8471 -0.2419
 7516SOL    HW234008   0.405   2.513   8.415 -0.4127 -0.6272 -3.8263
 7517SOL     OW34009   1.998   2.906  13.450  0.5830  0.5967 -0.5273
 7517SOL    HW134010   1.904   2.888  13.442  0.5506  0.2567  0.6595
 7517SOL    HW234011   1.996   2.992  13.491 -2.6217  0.1719  0.2047
 7518SOL     OW34012   3.321   1.506   2.300  0.2320 -0.9114  0.0109
 7518SOL    HW134013   3.366   1.528   2.381 -1.4541 -0.9680  0.9655
 7518SOL    HW234014   3.390   1.507   2.234 -1.1203  0.2272 -1.3794
 7519SOL     OW34015   0.636   4.160  13.035  0.3515  0.5181  0.7185
 7519SOL    HW134016   0.622   4.241  12.985 -2.1006  0.0512  0.6211
 7519SOL    HW234017   0.699   4.187  13.101 -0.2237  0.2359  1.3725
 7520SOL     OW34018   2.305   1.011   2.867  0.0897  0.2517 -0.1167
 7520SOL    HW134019   2.373   0.999   2.801 -0.0471  0.2389 -0.2546
 7520SOL    HW234020   2.291   0.921   2.897  0.5424  0.8958  2.0385
 7521SOL     OW34021   4.433   1.748   5.948 -0.4549  0.1903 -0.0557
 7521SOL    HW134022   4.419   1.703   6.031  1.4166 -1.4210 -0.6170
 7521SOL    HW234023   4.344   1.784   5.949 -1.2005 -1.6577 -0.5840
 7522SOL     OW34024   3.680   1.310   4.222 -0.2158  0.1003  0.2783
 7522SOL    HW134025   3.656   1.239   4.162 -3.1744 -0.4763  2.1738
 7522SOL    HW234026   3.611   1.372   4.198 -1.0795  0.0222  2.5439
 7523SOL     OW34027   4.565   2.642   2.752 -0.0356 -0.0010 -0.4012
 7523SOL    HW134028   4.517   2.560   2.765  1.5880 -0.5956  1.8328
 7523SOL    HW234029   4.648   2.611   2.788  0.7015  2.4813  0.0014
 7524SOL     OW34030   1.161   2.012   7.442 -0.3492  0.4905 -0.0315
 7524SOL    HW134031   1.191   1.925   7.469  0.1141  0.7749  0.3917
 7524SOL    HW234032   1.232   2.049   7.389 -1.1533  0.6641 -0.9796
 7525SOL     OW34033   2.792   3.403   4.748  0.2263  0.2892  0.1780
 7525SOL    HW134034   2.798   3.476   4.687  0.5785 -0.1105 -0.2655
 7525SOL    HW234035   2.873   3.410   4.798  1.4397  1.9139 -2.0487
 7526SOL     OW34036   2.377   2.794  13.234 -0.0752  0.0844  0.2757
 7526SOL    HW134037   2.436   2.815  13.161  0.7213  1.3445  1.2830
 7526SOL    HW234038   2.342   2.878  13.264  0.6659  0.7512 -0.7456
 7527SOL     OW34039   1.297   0.867  14.037  0.0268  0.0089 -0.0152
 7527SOL    HW134040   1.313   0.861  14.131 -0.0398 -1.9319 -0.1219
 7527SOL    HW234041   1.374   0.819  14.008  0.8637  2.0469 -1.1860
 7528SOL     OW34042   0.351   2.590   2.845 -0.4268  0.6705 -0.6383
 7528SOL    HW134043   0.421   2.599   2.910  0.8417  0.7470 -1.9972
 7528SOL    HW234044   0.292   2.652   2.886 -0.1135 -0.2499  1.2075
 7529SOL     OW34045   1.329   3.902  12.978  0.2409  0.1983 -0.0883
 7529SOL    HW134046   1.420   3.933  12.970  0.5541 -1.4416 -2.6528
 7529SOL    HW234047   1.333   3.816  12.938  1.5819  0.0950  0.2452
 7530SOL     OW34048   0.697   0.494   1.213  0.1850  0.6917  0.0223
 7530SOL    HW134049   0.736   0.503   1.125 -1.5930  0.8416 -0.7528
 7530SOL    HW234050   0.671   0.585   1.231 -1.8613  0.3344 -1.0777
 7531SOL     OW34051   1.257   0.172   6.432 -0.5127 -0.0665  0.0101
 7531SOL    HW134052   1.343   0.167   6.392 -0.5666  2.9220 -0.4591
 7531SOL    HW234053   1.277   0.179   6.525  1.2234 -0.2365 -0.3498
 7532SOL     OW34054   2.954   0.172   9.160  0.1319 -0.3032 -0.3772
 7532SOL    HW134055   2.957   0.210   9.072 -0.8485 -0.4061 -0.4545
 7532SOL    HW234056   2.978   0.249   9.211  0.1612  0.6091 -1.7663
 7533SOL     OW34057   3.021   0.000   5.287 -0.1502 -0.3675  1.2741
 7533SOL    HW134058   2.949   4.670   5.250 -0.8164  1.1631  0.4710
 7533SOL    HW234059   2.999   0.023   5.378  0.2456  0.1856  1.2354
 7534SOL     OW34060   4.391   0.139   6.759 -0.4245  0.3189 -0.0681
 7534SOL    HW134061   4.429   0.180   6.681  0.3172  1.8483  1.0828
 7534SOL    HW234062   4.367   0.223   6.799 -0.3017  0.5815 -0.5428
 7535SOL     OW34063   2.338   4.357   3.739  0.2094 -0.6204  0.3735
 7535SOL    HW134064   2.369   4.310   3.661  0.2951 -0.7678  0.4962
 7535SOL    HW234065   2.366   4.446   3.719 -1.0088 -0.5944 -1.2858
 7536SOL     OW34066   0.914   1.442   0.687 -0.2810  0.0581 -0.1045
 7536SOL    HW134067   0.976   1.447   0.759  0.3673 -2.2854 -0.4919
 7536SOL    HW234068   0.968   1.451   0.608 -0.1913 -1.3015 -0.2000
 7537SOL     OW34069   2.904   0.055  16.301  0.3980 -0.1517 -0.0939
 7537SOL    HW134070   2.809   0.061  16.304  0.2718 -2.7235  1.0644
 7537SOL    HW234071   2.928   4.684  16.311  0.5237  0.0379  1.3684
 7538SOL     OW34072   3.905   0.545   6.462 -0.3313 -0.6119 -0.0495
 7538SOL    HW134073   3.938   0.469   6.413  0.4553 -0.3175  0.0283
 7538SOL    HW234074   3.975   0.604   6.434  0.1553 -1.7062 -1.1279
 7539SOL     OW34075   0.740   1.886   4.086 -0.8516  0.5318  0.2658
 7539SOL    HW134076   0.758   1.793   4.079  1.4162  0.8964  1.3348
 7539SOL    HW234077   0.651   1.875   4.120  0.1310  0.5891  2.8584
 7540SOL     OW34078   3.429   1.703   3.575 -0.3069  0.4482  0.5046
 7540SOL    HW134079   3.436   1.678   3.482  0.4373 -0.3052  0.7632
 7540SOL    HW234080   3.512   1.742   3.601  0.1724  0.4267 -0.9673
 7541SOL     OW34081   0.448   0.892  17.605 -0.0385  0.2456  0.6338
 7541SOL    HW134082   0.534   0.855  17.624 -0.7873 -2.3657 -1.0020
 7541SOL    HW234083   0.401   0.810  17.622 -1.6958  1.1437  0.3278
 7542SOL     OW34084   0.113   3.276  13.742  0.4196  0.4198  0.2091
 7542SOL    HW134085   0.197   3.316  13.720  0.4928  0.1461 -0.0137
 7542SOL    HW234086   0.148   3.199  13.788  2.1594  0.2267 -1.4251
 7543SOL     OW34087   0.218   1.315   9.600  0.3484 -0.1915  0.0034
 7543SOL    HW134088   0.276   1.268   9.540  0.1617 -0.7844  0.2952
 7543SOL    HW234089   0.276   1.375   9.646 -0.8128  1.6475 -0.9161
 7544SOL     OW34090   2.161   2.400   6.304 -0.2773  0.2877  0.0513
 7544SOL    HW134091   2.143   2.308   6.324  1.6123  0.6399  3.3888
 7544SOL    HW234092   2.148   2.420   6.211  2.8006 -1.7748 -0.8180
 7545SOL     OW34093   0.433   0.339   0.120  0.1901  0.0191  0.3564
 7545SOL    HW134094   0.424   0.431   0.146 -0.0251  0.3663 -0.9713
 7545SOL    HW234095   0.373   0.345   0.046 -1.0703 -2.5943  1.1853
 7546SOL     OW34096   3.676   3.688   0.526  0.4821 -0.7138  0.0606
 7546SOL    HW134097   3.763   3.670   0.561 -0.3646  1.3938  3.2117
 7546SOL    HW234098   3.634   3.629   0.589  0.7881  1.0344  1.8928
 7547SOL     OW34099   3.566   2.688  17.213 -0.0628  0.3990  0.2305
 7547SOL    HW134100   3.659   2.665  17.211 -0.4828 -1.4418  1.4040
 7547SOL    HW234101   3.525   2.616  17.261 -1.0540  0.7655 -0.0587
 7548SOL     OW34102   0.566   0.387  12.729 -0.2740 -0.7585  0.3340
 7548SOL    HW134103   0.593   0.478  12.740 -1.2423 -0.0584 -3.1175
 7548SOL    HW234104   0.505   0.374  12.801  0.4541  1.5418  1.3747
 7549SOL     OW34105   1.482   3.197   6.301  0.2305  0.0582 -0.0906
 7549SOL    HW134106   1.541   3.131   6.338  2.2177  0.3868 -2.6881
 7549SOL    HW234107   1.488   3.189   6.206  0.8819  1.9977 -0.2133
 7550SOL     OW34108   2.980   4.282   5.794  0.2577 -0.3695 -0.1503
 7550SOL    HW134109   2.910   4.308   5.854  1.3654 -1.3081  1.5557
 7550SOL    HW234110   3.003   4.371   5.767  0.5935  0.0987  1.6913
 7551SOL     OW34111   4.020   3.198   2.841 -0.6184 -0.3144 -0.0301
 7551SOL    HW134112   4.070   3.280   2.840 -1.4302  0.1684 -1.1163
 7551SOL    HW234113   4.093   3.142   2.815 -0.7792 -0.1816 -0.7611
 7552SOL     OW34114   3.031   3.832   6.266  0.0229 -0.0124  0.3256
 7552SOL    HW134115   3.096   3.766   6.244  1.2806  1.1378  0.6168
 7552SOL    HW234116   3.049   3.841   6.360 -0.9974  0.6893  0.4557
 7553SOL     OW34117   0.486   3.706  12.163 -0.2584  0.1680 -0.0330
 7553SOL    HW134118   0.454   3.781  12.214 -0.8976 -0.2825  0.2322
 7553SOL    HW234119   0.579   3.729  12.156 -0.2531  0.2135  0.1793
 7554SOL     OW34120   0.074   2.769   5.240 -0.0105 -0.2761 -0.3923
 7554SOL    HW134121   0.010   2.702   5.216  1.1694 -0.2693 -3.5151
 7554SOL    HW234122   0.131   2.760   5.164  1.0840  1.5848  0.2095
 7555SOL     OW34123   0.877   3.346  13.638  0.2780 -0.2743  0.4444
 7555SOL    HW134124   0.959   3.339  13.590 -0.8702 -0.3395 -1.4953
 7555SOL    HW234125   0.899   3.345  13.731  0.1070 -0.2252  0.4869
 7556SOL     OW34126   4.392   3.355   1.285 -0.3092 -0.6227 -0.0234
 7556SOL    HW134127   4.416   3.264   1.305 -1.4747 -0.6073  1.4839
 7556SOL    HW234128   4.380   3.397   1.370  1.1943  1.3171 -0.7850
 7557SOL     OW34129   3.500   2.373   6.920 -0.0955  0.2858  0.0021
 7557SOL    HW134130   3.421   2.319   6.915  0.8268 -1.0501 -0.2355
 7557SOL    HW234131   3.553   2.348   6.844  2.5172  3.8963  0.6419
 7558SOL     OW34132   0.098   2.213   4.060  0.4597  0.0062  0.4841
 7558SOL    HW134133   0.073   2.121   4.066 -0.8740  0.5033  2.1469
 7558SOL    HW234134   0.017   2.264   4.058 -0.4022 -1.3179  1.6536
 7559SOL     OW34135   0.552   0.324   4.299 -0.6182  0.3176  0.4084
 7559SOL    HW134136   0.546   0.328   4.395  0.9318  2.4827  0.4096
 7559SOL    HW234137   0.635   0.366   4.279  0.5520 -2.2020 -0.0721
 7560SOL     OW34138   2.872   1.937   3.402 -0.0979  0.0260 -0.6073
 7560SOL    HW134139   2.878   1.857   3.455 -0.4358 -1.0527 -2.2073
 7560SOL    HW234140   2.904   2.004   3.463  2.1563 -3.1065  1.6719
 7561SOL     OW34141   0.455   4.094  14.560 -0.4069 -0.0687 -0.1940
 7561SOL    HW134142   0.504   4.156  14.506  1.9252 -1.0422  0.8007
 7561SOL    HW234143   0.466   4.016  14.505  0.2562  0.5924 -0.9969
 7562SOL     OW34144   3.222   4.212   2.578  0.4472  0.3759 -0.0561
 7562SOL    HW134145   3.279   4.202   2.655  0.9633 -0.4640 -0.5469
 7562SOL    HW234146   3.135   4.181   2.604  0.1091  0.5857 -0.9451
 7563SOL     OW34147   2.786   4.264  16.599 -0.1500 -0.1910 -0.5126
 7563SOL    HW134148   2.811   4.278  16.690 -1.9920 -0.1568 -0.0304
 7563SOL    HW234149   2.763   4.355  16.581 -3.1236 -0.7899  0.4236
 7564SOL     OW34150   0.192   2.063   3.526 -0.1315 -0.0488  0.0561
 7564SOL    HW134151   0.103   2.045   3.498  0.4922 -0.9371 -1.3546
 7564SOL    HW234152   0.239   1.979   3.532 -0.3875 -0.1698  0.3778
 7565SOL     OW34153   4.003   0.952   6.307  0.5101 -0.1037 -0.3990
 7565SOL    HW134154   4.053   1.033   6.321 -0.5763  1.2009 -4.2265
 7565SOL    HW234155   3.941   0.964   6.378  0.8878 -2.4090  0.3118
 7566SOL     OW34156   0.137   0.005   8.818  0.0971  1.0216 -0.3606
 7566SOL    HW134157   0.067   0.040   8.763 -0.9387 -0.4187  0.0687
 7566SOL    HW234158   0.097   4.645   8.849  0.4063  0.9205 -0.2238
 7567SOL     OW34159   0.420   3.493   3.275  0.1280  0.2366  0.4343
 7567SOL    HW134160   0.410   3.471   3.368  2.6065  1.5346  1.0060
 7567SOL    HW234161   0.498   3.548   3.274 -0.2777  0.7977 -0.2570
 7568SOL     OW34162   3.982   3.391   7.296  0.4071 -0.1146 -0.0813
 7568SOL    HW134163   3.888   3.398   7.307  0.3376 -2.8493  1.2379
 7568SOL    HW234164   4.001   3.479   7.265 -0.5053  0.5952  1.3904
 7569SOL     OW34165   2.427   3.838  10.541  0.0267 -0.2573  0.0066
 7569SOL    HW134166   2.439   3.873  10.630 -1.0435  0.2802 -0.0475
 7569SOL    HW234167   2.513   3.855  10.504 -0.0946 -0.9421 -0.5782
 7570SOL     OW34168   0.494   3.964   6.709 -0.3034 -0.2168  0.3059
 7570SOL    HW134169   0.445   3.989   6.787  0.7774  0.5101  0.7517
 7570SOL    HW234170   0.507   3.873   6.734 -0.1296 -0.5021 -0.8065
 7571SOL     OW34171   3.119   0.673   4.289 -0.3684  0.0237  0.0334
 7571SOL    HW134172   3.143   0.746   4.345  1.8104 -2.0352  1.7556
 7571SOL    HW234173   3.210   0.649   4.270  0.0923  1.1866  0.7753
 7572SOL     OW34174   2.996   1.620   5.968  0.2265  0.4559  0.2325
 7572SOL    HW134175   2.958   1.652   6.049  0.1219  0.5608  0.1428
 7572SOL    HW234176   2.967   1.529   5.966  0.0097  0.5024  1.3678
 7573SOL     OW34177   4.231   3.438  11.714 -0.3263  0.1074 -0.5698
 7573SOL    HW134178   4.301   3.453  11.777 -0.2165  1.5855 -1.0417
 7573SOL    HW234179   4.235   3.343  11.699 -0.0578 -0.2104  1.5833
 7574SOL     OW34180   1.097   3.596  15.225 -0.9834 -0.6934  0.1254
 7574SOL    HW134181   1.045   3.600  15.305  0.9254  1.6565  1.2772
 7574SOL    HW234182   1.153   3.672  15.243 -1.3483 -0.6821  1.2245
 7575SOL     OW34183   4.447   3.698  16.226  0.6109 -0.8900 -0.1477
 7575SOL    HW134184   4.413   3.751  16.153 -0.1912 -0.8674  0.2351
 7575SOL    HW234185   4.463   3.617  16.178  1.2179  0.3167 -2.0006
 7576SOL     OW34186   3.987   0.372   7.307  0.4020 -0.2632 -0.2563
 7576SOL    HW134187   3.896   0.362   7.337  1.2939 -1.0774  2.1247
 7576SOL    HW234188   4.032   0.372   7.391  1.0201 -3.7464 -0.5994
 7577SOL     OW34189   0.442   2.008  12.677 -0.0972  0.2518 -0.1413
 7577SOL    HW134190   0.383   2.068  12.722 -1.2760  0.0705 -1.4131
 7577SOL    HW234191   0.429   2.057  12.596  0.6096  0.7500  0.0463
 7578SOL     OW34192   0.169   0.333  12.432  0.5278  0.1124  0.0297
 7578SOL    HW134193   0.262   0.316  12.447  0.1244 -0.8907  1.4029
 7578SOL    HW234194   0.175   0.427  12.417 -0.9603  0.6697  2.8510
 7579SOL     OW34195   4.260   2.854   3.760 -0.2078 -0.2073 -0.2528
 7579SOL    HW134196   4.316   2.809   3.697  1.2374 -0.9903  1.5723
 7579SOL    HW234197   4.318   2.882   3.830 -1.3587  1.5799 -0.0148
 7580SOL     OW34198   4.442   4.285  14.092  0.4591  0.2177 -0.8058
 7580SOL    HW134199   4.461   4.331  14.174  1.2374 -0.0908 -0.8087
 7580SOL    HW234200   4.529   4.277  14.053  0.0005 -2.7025 -1.2172
 7581SOL     OW34201   0.728   2.938   7.540  0.2177 -0.1772 -0.0567
 7581SOL    HW134202   0.796   2.895   7.592 -0.2839 -0.0704  0.6825
 7581SOL    HW234203   0.770   3.024   7.537  0.6763 -0.3954  0.0063
 7582SOL     OW34204   2.014   2.951   0.733 -0.4702  0.0532 -0.5640
 7582SOL    HW134205   2.018   2.986   0.644 -1.6296 -0.3812 -0.7851
 7582SOL    HW234206   2.096   2.989   0.764 -0.9046 -1.7698  2.7358
 7583SOL     OW34207   1.517   0.133   8.640  0.2928 -0.3225 -0.0724
 7583SOL    HW134208   1.461   0.087   8.702 -1.1099 -0.5712 -1.5225
 7583SOL    HW234209   1.597   0.137   8.692 -0.4314 -0.6502  1.0655
 7584SOL     OW34210   2.347   4.372   2.399 -0.0478 -0.2196  0.6376
 7584SOL    HW134211   2.303   4.307   2.453 -2.2173  1.1566  0.5376
 7584SOL    HW234212   2.275   4.406   2.346  0.8360  0.7677  0.0639
 7585SOL     OW34213   3.436   4.632   2.837  0.2220 -0.2920 -0.3039
 7585SOL    HW134214   3.443   4.699   2.770  0.3109 -0.1482 -0.1508
 7585SOL    HW234215   3.519   4.634   2.884 -0.6455  0.1529  1.2342
 7586SOL     OW34216   4.536   2.620  13.239 -0.6035 -0.7983 -0.5658
 7586SOL    HW134217   4.486   2.640  13.318  0.6687 -1.1199  0.3053
 7586SOL    HW234218   4.503   2.694  13.188 -0.7786  0.3655  1.2371
 7587SOL     OW34219   3.428   3.849  10.145 -0.6013  0.1555  0.5880
 7587SOL    HW134220   3.471   3.786  10.202  0.4491 -3.1359 -3.7874
 7587SOL    HW234221   3.487   3.924  10.150 -0.1453 -0.2701  1.4338
 7588SOL     OW34222   4.373   3.435   6.619  0.6465  0.7179 -0.0765
 7588SOL    HW134223   4.310   3.366   6.639  1.7780 -0.6212 -1.1018
 7588SOL    HW234224   4.319   3.497   6.569 -1.8404  0.4680  2.3278
 7589SOL     OW34225   2.913   1.514   6.796  0.4873 -0.6943  0.1456
 7589SOL    HW134226   2.996   1.510   6.749  1.3346 -1.2259  1.6993
 7589SOL    HW234227   2.924   1.448   6.865 -2.3337 -2.5878 -1.1893
 7590SOL     OW34228   0.538   3.310   6.079 -0.2039  0.3779 -0.6028
 7590SOL    HW134229   0.533   3.219   6.049 -1.8080  0.8236 -1.6609
 7590SOL    HW234230   0.629   3.327   6.056 -0.6512  1.7941 -1.2990
 7591SOL     OW34231   3.835   0.767   8.836  0.0628  0.6613  0.1370
 7591SOL    HW134232   3.788   0.842   8.873  0.6264  0.6819  0.7994
 7591SOL    HW234233   3.764   0.703   8.841  0.4045  0.4258  1.9136
 7592SOL     OW34234   2.778   4.206  14.631  0.1657 -0.7207  0.5293
 7592SOL    HW134235   2.772   4.131  14.571  0.3672  0.5999 -1.1491
 7592SOL    HW234236   2.837   4.187  14.704 -1.5037 -1.5695  1.6720
 7593SOL     OW34237   0.335   4.216  17.393 -0.3547  0.2668  0.5046
 7593SOL    HW134238   0.246   4.213  17.358 -0.4498 -0.2144  0.7897
 7593SOL    HW234239   0.387   4.226  17.313  1.6784  1.7879  2.0333
 7594SOL     OW34240   3.882   4.584   5.431 -0.2746 -0.6844  0.1247
 7594SOL    HW134241   3.862   4.585   5.525  0.6129  1.3251  0.2937
 7594SOL    HW234242   3.975   4.560   5.438  0.0740  0.3050 -1.0266
 7595SOL     OW34243   2.329   2.921   1.657  0.5160  0.4823  0.2353
 7595SOL    HW134244   2.341   2.999   1.603  1.5561 -0.2682 -0.6190
 7595SOL    HW234245   2.236   2.905   1.639  0.3643  0.4702  1.0516
 7596SOL     OW34246   3.434   0.787   6.320  0.0355 -0.2687  0.2703
 7596SOL    HW134247   3.513   0.819   6.365 -0.2956  1.7577 -0.6164
 7596SOL    HW234248   3.458   0.798   6.228  1.6464  0.8150  0.8220
 7597SOL     OW34249   4.564   3.012   3.647  0.0483  0.0817  0.9135
 7597SOL    HW134250   4.653   3.010   3.682  0.2140 -0.3636  0.4599
 7597SOL    HW234251   4.566   3.090   3.592  2.5200 -0.8929 -0.3632
 7598SOL     OW34252   0.047   4.143   5.141 -0.0469  0.3286  0.4546
 7598SOL    HW134253   0.066   4.122   5.049 -1.1743 -1.5588  0.6482
 7598SOL    HW234254   4.693   4.085   5.151 -0.7609  0.9346 -1.2373
 7599SOL     OW34255   0.700   1.545   6.780 -0.1050  0.0554  0.0998
 7599SOL    HW134256   0.668   1.631   6.752  0.4377  0.1848 -0.1414
 7599SOL    HW234257   0.782   1.573   6.821 -0.5634 -2.7749  2.9083
 7600SOL     OW34258   0.675   3.978   5.454  0.0225 -0.0503 -0.0830
 7600SOL    HW134259   0.714   3.917   5.517 -0.6385  1.3387  1.6669
 7600SOL    HW234260   0.583   3.958   5.470 -0.6868  2.5194 -0.9972
 7601SOL     OW34261   0.967   1.410   3.080 -0.2226 -0.1468 -0.4923
 7601SOL    HW134262   0.982   1.443   2.991  0.9229  0.1287 -0.1873
 7601SOL    HW234263   1.026   1.337   3.098 -1.0217 -1.2950 -2.4667
 7602SOL     OW34264   1.861   0.419  16.063  0.6299 -0.6022  0.4160
 7602SOL    HW134265   1.894   0.509  16.058 -1.4857  0.1229 -0.3612
 7602SOL    HW234266   1.847   0.399  15.970  1.8828  2.4385 -0.4388
 7603SOL     OW34267   2.679   4.701  16.781  0.0887  0.0300 -0.1062
 7603SOL    HW134268   2.673   0.075  16.793 -3.1273 -0.0472 -0.8786
 7603SOL    HW234269   2.607   4.672  16.838  1.0599 -0.7796  0.7081
 7604SOL     OW34270   4.639   2.033   5.474  0.0362  0.3826  0.2102
 7604SOL    HW134271   4.635   2.072   5.561 -3.0172 -0.2852  0.3589
 7604SOL    HW234272   4.656   1.940   5.489  1.5796  0.4334 -1.3007
 7605SOL     OW34273   0.849   0.196   3.039 -0.0520  0.2376  0.0262
 7605SOL    HW134274   0.758   0.220   3.056  0.0882  0.8265 -0.0526
 7605SOL    HW234275   0.886   0.250   3.109 -1.0738 -0.5370  1.1707
 7606SOL     OW34276   2.992   1.773   5.747  0.6735  0.6928 -0.7154
 7606SOL    HW134277   3.005   1.697   5.803  0.3119  2.7681  2.1758
 7606SOL    HW234278   3.007   1.840   5.815 -1.3355  0.3566  0.0620
 7607SOL     OW34279   1.660   0.500   2.814  0.1791  0.1108 -0.2874
 7607SOL    HW134280   1.737   0.545   2.849  0.1562 -0.6118  0.6850
 7607SOL    HW234281   1.683   0.408   2.828  0.3518  0.3616  1.0726
 7608SOL     OW34282   1.176   2.978   7.260  0.0251  0.2037 -0.0809
 7608SOL    HW134283   1.185   3.068   7.290 -1.3275 -0.1299  1.2958
 7608SOL    HW234284   1.264   2.962   7.227  0.3395  1.1060  0.3152
 7609SOL     OW34285   3.265   3.883   9.803 -0.4107  0.0492  1.1596
 7609SOL    HW134286   3.292   3.974   9.809  1.3594 -0.2298 -2.1256
 7609SOL    HW234287   3.334   3.849   9.745  0.7830  0.2781  2.4401
 7610SOL     OW34288   0.612   3.805  10.712 -0.1291  0.2013  0.1117
 7610SOL    HW134289   0.543   3.783  10.649  0.3765 -0.3566 -0.2375
 7610SOL    HW234290   0.554   3.848  10.776 -1.6690  0.7474 -1.6448
 7611SOL     OW34291   1.503   0.052   4.534 -0.5682  0.2513 -0.1264
 7611SOL    HW134292   1.428   0.005   4.499  0.1418  0.3697 -1.8064
 7611SOL    HW234293   1.460   0.127   4.575  0.4316  0.8790 -0.2126
 7612SOL     OW34294   4.324   2.931   6.749  0.7577  0.2499  0.4190
 7612SOL    HW134295   4.346   2.882   6.670 -2.5399 -0.3574 -0.1196
 7612SOL    HW234296   4.240   2.967   6.720  1.8449  2.1289 -0.4463
 7613SOL     OW34297   1.864   1.374   2.082  0.4851  0.4981  0.1685
 7613SOL    HW134298   1.835   1.400   2.169  1.4785 -1.3531  1.0424
 7613SOL    HW234299   1.900   1.460   2.061 -1.1952  1.1316 -0.1877
 7614SOL     OW34300   3.854   2.845   4.813  0.4265 -0.1816 -0.5910
 7614SOL    HW134301   3.818   2.931   4.790 -0.5515 -0.3787  0.2141
 7614SOL    HW234302   3.777   2.809   4.857  0.7050  1.9345  1.6705
 7615SOL     OW34303   1.084   0.645   6.355 -0.3169  0.3047 -0.3221
 7615SOL    HW134304   1.141   0.572   6.332  0.6384  0.7225  0.7527
 7615SOL    HW234305   1.019   0.654   6.286 -1.0131 -0.3501  0.2455
 7616SOL     OW34306   3.309   3.875   8.062  0.0135  0.3797  0.0691
 7616SOL    HW134307   3.311   3.954   8.116 -1.0757  0.3886  0.1071
 7616SOL    HW234308   3.315   3.915   7.975 -1.3899 -1.5442 -0.9184
 7617SOL     OW34309   1.975   0.082   4.407 -0.0268  0.0984  0.4703
 7617SOL    HW134310   1.959   0.001   4.455 -1.8832  0.9576  1.2947
 7617SOL    HW234311   1.954   0.050   4.320 -1.1352 -0.7065  1.0239
 7618SOL     OW34312   4.388   0.044  13.417 -0.2867 -0.0901 -0.0969
 7618SOL    HW134313   4.364   4.696  13.478  1.2181 -0.6169 -0.0893
 7618SOL    HW234314   4.400   4.708  13.341  0.7172 -0.0968  0.0684
 7619SOL     OW34315   3.907   1.695   7.076  0.1025 -0.1492  0.4522
 7619SOL    HW134316   3.824   1.686   7.123 -0.8709  1.7034 -0.9189
 7619SOL    HW234317   3.966   1.655   7.140 -1.7668 -0.1640  2.1859
 7620SOL     OW34318   1.692   2.114   5.438  0.1253  0.0418  0.0378
 7620SOL    HW134319   1.759   2.077   5.495 -0.7819  2.2986  2.5416
 7620SOL    HW234320   1.743   2.155   5.368  0.9228 -0.6394  0.2091
 7621SOL     OW34321   4.477   1.666   0.518  0.6874 -0.0067 -0.0792
 7621SOL    HW134322   4.464   1.572   0.519 -1.5095  0.2824 -0.2897
 7621SOL    HW234323   4.565   1.671   0.553  0.4260  0.7402  0.4810
 7622SOL     OW34324   3.406   3.796   2.167  0.5381 -0.0797 -0.1297
 7622SOL    HW134325   3.334   3.785   2.104  0.8940  0.8933 -0.7060
 7622SOL    HW234326   3.458   3.721   2.138 -1.5683 -1.0277 -1.4635
 7623SOL     OW34327   2.605   3.693  13.722 -0.9067 -0.4003 -0.1708
 7623SOL    HW134328   2.650   3.693  13.638 -2.2921  0.0344 -0.9126
 7623SOL    HW234329   2.638   3.774  13.760  0.5002 -0.7748 -0.6061
 7624SOL     OW34330   1.081   1.654   9.573 -0.0328  0.7356  0.3414
 7624SOL    HW134331   1.148   1.684   9.511  1.1016  1.2805  1.8469
 7624SOL    HW234332   1.021   1.598   9.523  2.3790 -1.4326 -0.0912
 7625SOL     OW34333   2.464   3.225   7.339  0.1330  0.1183 -0.0546
 7625SOL    HW134334   2.490   3.232   7.248 -1.4916  0.4840 -0.4999
 7625SOL    HW234335   2.370   3.241   7.345  0.1590  0.6828 -1.2119
 7626SOL     OW34336   4.390   3.294   3.798  0.4096  0.6527 -0.2432
 7626SOL    HW134337   4.346   3.226   3.747  0.5293 -0.2017  0.7860
 7626SOL    HW234338   4.481   3.279   3.773  0.6228  0.6986  0.4899
 7627SOL     OW34339   3.392   4.049   7.845 -0.2806  0.4269  0.3298
 7627SOL    HW134340   3.412   4.113   7.777 -0.5981 -0.6507 -0.7809
 7627SOL    HW234341   3.428   3.974   7.798 -1.5276 -0.4070  0.7177
 7628SOL     OW34342   1.473   1.566   5.772 -0.1205  0.2479 -0.1988
 7628SOL    HW134343   1.547   1.505   5.762 -0.1108  0.0123  1.3785
 7628SOL    HW234344   1.403   1.505   5.796  1.1654 -0.0740  2.7630
 7629SOL     OW34345   2.112   1.801   8.886 -0.1117 -0.1434  0.5090
 7629SOL    HW134346   2.028   1.797   8.842 -0.9030  0.1616  2.0092
 7629SOL    HW234347   2.123   1.715   8.925  0.8002  0.1157  0.8425
 7630SOL     OW34348   1.834   1.844  15.238  0.9524  0.1535 -0.4606
 7630SOL    HW134349   1.897   1.777  15.214  1.4323  0.7713 -0.9082
 7630SOL    HW234350   1.890   1.921  15.250  0.5505  0.4928 -0.7560
 7631SOL     OW34351   1.412   1.587  13.554 -0.2025 -0.6705  0.6088
 7631SOL    HW134352   1.371   1.637  13.624 -0.8674  0.6917 -0.7375
 7631SOL    HW234353   1.505   1.588  13.574 -0.3189 -0.4320  1.1156
 7632SOL     OW34354   1.781   2.396   4.708 -0.2931 -0.0119 -0.1363
 7632SOL    HW134355   1.829   2.478   4.693  0.4522 -0.3274  0.5207
 7632SOL    HW234356   1.848   2.337   4.743 -0.1083  0.1449 -0.2259
 7633SOL     OW34357   1.063   4.283  17.643  0.3626 -0.0869 -0.4909
 7633SOL    HW134358   1.031   4.321  17.561 -0.8164 -0.3240 -0.1334
 7633SOL    HW234359   1.146   4.250  17.609  0.3128  0.9881 -1.6983
 7634SOL     OW34360   1.925   4.384   1.679  0.1400 -0.3301  0.5261
 7634SOL    HW134361   1.998   4.392   1.617 -1.3267 -1.0358 -1.3053
 7634SOL    HW234362   1.917   4.295   1.713  1.8108 -0.0455  1.6426
 7635SOL     OW34363   0.190   3.068   1.998 -0.4567 -0.0555 -0.0647
 7635SOL    HW134364   0.267   3.091   2.049 -0.9312  1.6014 -0.1043
 7635SOL    HW234365   0.118   3.080   2.060  0.6978  0.8450  1.0895
 7636SOL     OW34366   3.209   2.321   3.437  0.0781 -0.4842  0.2535
 7636SOL    HW134367   3.187   2.348   3.347  1.5241 -1.1421 -0.2984
 7636SOL    HW234368   3.296   2.361   3.443 -0.2255 -0.0615  1.7298
 7637SOL     OW34369   0.151   4.048  13.489 -0.5921 -0.0687  0.3918
 7637SOL    HW134370   0.166   4.142  13.501 -0.2395 -0.3595  2.1898
 7637SOL    HW234371   0.226   4.009  13.535  1.1184  2.1450 -0.5279
 7638SOL     OW34372   0.686   3.846  12.028  0.1804  0.3146  0.1183
 7638SOL    HW134373   0.706   3.762  11.987  0.6686  0.5973 -0.2169
 7638SOL    HW234374   0.651   3.901  11.958 -0.9143 -1.0048 -0.3825
 7639SOL     OW34375   3.032   3.889   2.566 -0.2469  0.0893 -0.5169
 7639SOL    HW134376   3.035   3.916   2.474  1.0507  1.1950 -0.1512
 7639SOL    HW234377   2.968   3.819   2.559 -2.9498  2.4435  0.6139
 7640SOL     OW34378   2.898   1.975   0.701 -0.1533  0.0573 -0.0013
 7640SOL    HW134379   2.803   1.980   0.713 -0.4402 -1.6583 -1.3586
 7640SOL    HW234380   2.939   2.006   0.781 -0.6230 -2.0389  1.0450
 7641SOL     OW34381   3.980   0.152   9.984 -0.3916  0.3106 -0.0310
 7641SOL    HW134382   3.915   0.127   9.918 -0.1417  1.9763 -0.9051
 7641SOL    HW234383   3.930   0.128  10.063 -0.7917  0.3426 -0.2728
 7642SOL     OW34384   1.974   1.020   4.042  0.4565 -0.2148 -0.0572
 7642SOL    HW134385   1.967   1.108   4.004  0.7035 -0.5046 -0.7804
 7642SOL    HW234386   2.059   1.014   4.085  0.6651  1.4388 -0.2307
 7643SOL     OW34387   2.002   0.085   2.958 -0.6201  0.9111 -0.3752
 7643SOL    HW134388   2.085   0.131   2.951 -0.4940  0.3092 -2.8569
 7643SOL    HW234389   1.977   0.080   2.865  1.7502  2.5064 -1.0699
 7644SOL     OW34390   3.932   0.218   8.448 -0.0400 -0.0239 -0.3471
 7644SOL    HW134391   3.863   0.151   8.446  0.1992 -0.2914  0.4766
 7644SOL    HW234392   3.941   0.250   8.358  2.1840  2.4573  0.7690
 7645SOL     OW34393   4.531   2.077   4.530  0.2521 -0.4091 -0.2399
 7645SOL    HW134394   4.484   2.035   4.458 -1.3188  0.3308  0.3416
 7645SOL    HW234395   4.503   2.166   4.507 -1.4651 -1.1138 -0.8957
 7646SOL     OW34396   0.791   2.983   2.852  0.8131  0.6158 -1.0129
 7646SOL    HW134397   0.733   2.933   2.794 -1.2794 -0.1653  1.7232
 7646SOL    HW234398   0.856   2.920   2.884  0.0162  0.5323  0.4704
 7647SOL     OW34399   3.384   1.268   8.406 -0.0086 -0.5014  0.5585
 7647SOL    HW134400   3.338   1.352   8.402  0.6035 -0.3183 -2.8478
 7647SOL    HW234401   3.308   1.213   8.425  0.1605 -0.3662  1.6302
 7648SOL     OW34402   4.183   2.799  13.569 -0.3063 -0.2300 -0.5296
 7648SOL    HW134403   4.245   2.731  13.545  1.9902  1.7693 -0.2994
 7648SOL    HW234404   4.224   2.877  13.531  0.7945 -1.4514 -1.8291
 7649SOL     OW34405   4.481   3.241   9.331  0.0249  0.3718 -0.0089
 7649SOL    HW134406   4.391   3.207   9.328  0.4146 -0.4970 -1.7787
 7649SOL    HW234407   4.471   3.332   9.300  0.9488  0.1367 -1.0133
 7650SOL     OW34408   2.512   0.755   4.663  0.0291  0.2759 -0.2963
 7650SOL    HW134409   2.555   0.838   4.684  1.1913 -0.5348  0.5258
 7650SOL    HW234410   2.546   0.734   4.576 -0.8489  0.5298 -0.7053
 7651SOL     OW34411   1.082   2.716  11.828  0.1418 -0.6816  0.0941
 7651SOL    HW134412   1.168   2.750  11.853 -0.6576  1.2641  0.1573
 7651SOL    HW234413   1.083   2.747  11.738  1.7345  1.5234  0.8615
 7652SOL     OW34414   3.953   4.416   4.479  0.4581 -0.4010 -0.6164
 7652SOL    HW134415   3.878   4.379   4.433 -0.8377  1.0876  0.2664
 7652SOL    HW234416   3.943   4.510   4.460 -0.2549 -0.1396  1.0001
 7653SOL     OW34417   0.864   1.064   5.795  0.2910  0.0347  0.1813
 7653SOL    HW134418   0.787   1.121   5.797 -1.1459 -1.7854 -3.0005
 7653SOL    HW234419   0.837   1.011   5.719  0.7640  0.6395 -0.4070
 7654SOL     OW34420   0.898   1.264   5.101  0.4742 -0.5069 -0.2440
 7654SOL    HW134421   0.824   1.322   5.124  1.1688  0.5750 -0.7630
 7654SOL    HW234422   0.933   1.307   5.023 -1.4753  0.3050 -0.6793
 7655SOL     OW34423   3.704   0.776   8.179 -0.2415  0.1818 -0.3865
 7655SOL    HW134424   3.631   0.791   8.119 -1.3939 -2.1689  0.4612
 7655SOL    HW234425   3.674   0.840   8.244 -1.6163 -1.3632  0.4821
 7656SOL     OW34426   2.990   0.248   8.352  0.2143 -0.4102  0.3688
 7656SOL    HW134427   3.003   0.253   8.447 -0.0263  0.2422  0.3612
 7656SOL    HW234428   2.951   0.334   8.340 -2.7010 -1.5571  1.5328
 7657SOL     OW34429   2.133   2.446   1.283 -0.2847  0.2203  0.2887
 7657SOL    HW134430   2.142   2.488   1.368 -1.4479  0.6525  0.1985
 7657SOL    HW234431   2.061   2.500   1.250  0.5180  0.6058 -0.8409
 7658SOL     OW34432   3.528   1.164   8.219 -0.3716 -0.2862  0.5631
 7658SOL    HW134433   3.590   1.105   8.262  1.5324  1.5112  0.3195
 7658SOL    HW234434   3.482   1.208   8.291  1.9530  0.7015  1.4600
 7659SOL     OW34435   3.123   0.705  10.992 -0.1966  0.5838  0.5590
 7659SOL    HW134436   3.151   0.666  11.075 -2.3874  0.8334  1.4244
 7659SOL    HW234437   3.028   0.705  11.002 -0.2175  2.3602  0.3245
 7660SOL     OW34438   1.220   3.823  15.278 -0.6211 -0.0847  0.1555
 7660SOL    HW134439   1.300   3.827  15.330 -0.4437 -0.6387 -0.0707
 7660SOL    HW234440   1.257   3.815  15.190  1.9504 -0.9989  1.3174
 7661SOL     OW34441   3.143   0.822   3.557 -0.0619 -0.1492  0.4332
 7661SOL    HW134442   3.201   0.747   3.545  0.0282 -0.2416  1.4170
 7661SOL    HW234443   3.067   0.794   3.506  2.0616 -0.4699 -2.5255
 7662SOL     OW34444   0.364   4.330   7.138 -0.3728 -0.0782  0.4688
 7662SOL    HW134445   0.343   4.374   7.221  1.2682 -0.8369  1.2907
 7662SOL    HW234446   0.275   4.310   7.112 -0.3454  0.4353 -0.0102
 7663SOL     OW34447   4.596   4.310   9.002 -0.7344  0.4010  0.2491
 7663SOL    HW134448   4.628   4.221   9.016 -1.4810  0.2991  1.3296
 7663SOL    HW234449   4.511   4.323   9.045  0.2642 -2.0838  3.0222
 7664SOL     OW34450   0.223   4.422   3.246 -0.2860  0.0514  0.5374
 7664SOL    HW134451   0.157   4.465   3.300 -2.2847  1.4031 -3.0538
 7664SOL    HW234452   0.284   4.384   3.310  1.4983  1.3405 -0.4390
 7665SOL     OW34453   3.008   1.695   0.446  0.0534 -0.0757  0.1288
 7665SOL    HW134454   3.037   1.607   0.423 -0.6148 -0.2265 -0.1252
 7665SOL    HW234455   3.077   1.749   0.407 -1.4093  1.2829 -0.5856
 7666SOL     OW34456   1.535   2.347   1.325 -0.5166  0.1691  0.4032
 7666SOL    HW134457   1.551   2.299   1.406 -1.5194 -1.9596 -0.6303
 7666SOL    HW234458   1.524   2.275   1.262 -0.1233  0.4345  0.0345
 7667SOL     OW34459   3.962   3.601   5.045  0.1322  0.2516  0.1756
 7667SOL    HW134460   3.940   3.589   4.952  0.1911  0.4529  0.1352
 7667SOL    HW234461   3.921   3.522   5.081 -0.8455  0.2768 -0.8437
 7668SOL     OW34462   4.141   1.993   4.703  0.0363 -0.0919 -0.0685
 7668SOL    HW134463   4.149   2.072   4.757 -0.3609 -0.7157  0.9109
 7668SOL    HW234464   4.216   1.941   4.729  1.4810  1.0549 -1.9603
 7669SOL     OW34465   0.633   1.234  13.328  0.4663 -0.2224 -0.3566
 7669SOL    HW134466   0.684   1.154  13.333  0.5794 -0.0345  1.4198
 7669SOL    HW234467   0.706   1.288  13.297 -0.6058  2.3808  1.6284
 7670SOL     OW34468   4.507   0.939   0.407  0.3032  0.3562  0.1706
 7670SOL    HW134469   4.481   1.031   0.414 -1.6496 -0.0577 -1.7873
 7670SOL    HW234470   4.583   0.933   0.465  2.5783 -1.8607 -2.9975
 7671SOL     OW34471   4.058   1.682   8.575 -0.3643 -0.1525 -0.0562
 7671SOL    HW134472   3.965   1.661   8.577 -0.3978 -0.1684 -2.4929
 7671SOL    HW234473   4.083   1.676   8.668 -3.0172  1.2423  0.7513
 7672SOL     OW34474   1.224   1.539   4.330 -0.3705 -0.2063  0.0379
 7672SOL    HW134475   1.291   1.477   4.300 -0.5564 -1.0862  1.4008
 7672SOL    HW234476   1.155   1.482   4.366  0.8431 -1.0763  1.0252
 7673SOL     OW34477   0.263   0.770  16.702  0.3761  0.0698 -0.2067
 7673SOL    HW134478   0.168   0.760  16.708  0.6248 -1.7506  0.6910
 7673SOL    HW234479   0.288   0.836  16.767 -0.7986  1.0286 -0.7319
 7674SOL     OW34480   3.923   2.086   6.777 -0.1610 -0.1832 -0.6430
 7674SOL    HW134481   3.925   2.177   6.805  0.2084 -0.6629  0.9327
 7674SOL    HW234482   3.880   2.044   6.852 -0.5339  1.8574  0.2764
 7675SOL     OW34483   1.500   1.503   5.394 -1.0686 -0.0138  0.0541
 7675SOL    HW134484   1.563   1.549   5.339 -0.7930 -0.8625 -0.3450
 7675SOL    HW234485   1.495   1.421   5.344  0.7837 -0.9188  1.3839
 7676SOL     OW34486   0.243   2.274  11.459 -0.3074 -0.2558  0.0978
 7676SOL    HW134487   0.251   2.312  11.547 -0.0245 -0.1591  0.0271
 7676SOL    HW234488   0.263   2.182  11.476  1.0594 -0.2156 -1.4125
 7677SOL     OW34489   2.352   4.192  14.251  0.2265 -0.1492  0.0201
 7677SOL    HW134490   2.276   4.170  14.197 -1.7402  1.4698  2.1429
 7677SOL    HW234491   2.418   4.192  14.182 -1.5722 -0.9527 -1.7424
 7678SOL     OW34492   3.644   0.770   3.459 -0.5180 -0.1916  0.1832
 7678SOL    HW134493   3.585   0.802   3.528 -0.2724  0.1274  0.2439
 7678SOL    HW234494   3.597   0.813   3.389 -0.3952 -0.1670  0.1161
 7679SOL     OW34495   0.558   1.921  17.507 -0.5309  0.1561 -0.1264
 7679SOL    HW134496   0.594   1.939  17.595  1.2808 -2.4425 -0.3241
 7679SOL    HW234497   0.631   1.936  17.446 -1.2363 -2.6005 -1.5922
 7680SOL     OW34498   3.002   0.417  14.294  0.4552 -0.0888  0.1311
 7680SOL    HW134499   2.966   0.506  14.290  0.3280 -0.1794 -0.8205
 7680SOL    HW234500   2.952   0.379  14.366 -0.2473 -0.6170 -0.6404
 7681SOL     OW34501   1.161   4.405   3.360  0.1035  0.5303  0.0871
 7681SOL    HW134502   1.239   4.358   3.330 -0.2492 -1.4086  2.2242
 7681SOL    HW234503   1.145   4.450   3.277 -1.0725 -0.1833 -0.0903
 7682SOL     OW34504   3.881   1.463   4.607  0.5518  0.3071 -0.0382
 7682SOL    HW134505   3.900   1.397   4.673 -0.0741 -0.7451 -0.9085
 7682SOL    HW234506   3.906   1.420   4.526  0.1152 -1.5068  0.8024
 7683SOL     OW34507   0.549   1.585   5.649  0.1300 -0.1337 -0.0589
 7683SOL    HW134508   0.480   1.608   5.712 -1.6327 -1.7808 -1.3776
 7683SOL    HW234509   0.515   1.616   5.565 -0.5662  2.6733  1.2661
 7684SOL     OW34510   3.149   2.862   6.170  0.1565 -0.5129  0.8824
 7684SOL    HW134511   3.057   2.835   6.178 -0.1709  1.0025  2.1977
 7684SOL    HW234512   3.145   2.937   6.110 -1.0404 -1.5576 -0.3573
 7685SOL     OW34513   3.256   1.795  10.184 -0.0160  0.1512  0.0594
 7685SOL    HW134514   3.186   1.771  10.123  0.5788 -0.8411 -0.2405
 7685SOL    HW234515   3.286   1.708  10.208  0.4229 -0.4701 -2.7504
 7686SOL     OW34516   2.640   2.537   7.155  0.2887  0.2929  0.2432
 7686SOL    HW134517   2.586   2.557   7.231 -0.1374  2.4187 -0.6300
 7686SOL    HW234518   2.680   2.451   7.171 -2.0318 -0.5605  1.4074
 7687SOL     OW34519   2.348   3.175   4.096  0.4303  0.5110  0.1607
 7687SOL    HW134520   2.257   3.202   4.112  0.2080  1.0550 -1.9928
 7687SOL    HW234521   2.376   3.244   4.036 -1.0754  0.5399 -0.4935
 7688SOL     OW34522   0.637   2.800   4.775 -0.1642  0.0287  0.1998
 7688SOL    HW134523   0.647   2.895   4.787  1.4462 -0.5092  3.2057
 7688SOL    HW234524   0.593   2.783   4.858  1.0358 -0.5902  0.7132
 7689SOL     OW34525   3.472   4.591   5.474 -0.0562  0.0080  0.1505
 7689SOL    HW134526   3.499   4.514   5.426  0.1356 -0.0262  0.3130
 7689SOL    HW234527   3.548   4.609   5.529  0.3026  0.4198 -0.4824
 7690SOL     OW34528   1.885   0.995   5.218  0.2783 -0.2166  0.4324
 7690SOL    HW134529   1.850   1.078   5.184 -1.8355 -0.6945  1.4569
 7690SOL    HW234530   1.805   0.955   5.253 -1.1304  1.1447 -1.2044
 7691SOL     OW34531   3.909   2.368  11.303 -0.1336  0.0217  0.0028
 7691SOL    HW134532   4.001   2.358  11.325 -0.5837 -0.0701  1.8607
 7691SOL    HW234533   3.865   2.333  11.381  0.5280  0.2883  0.4921
 7692SOL     OW34534   1.310   1.727  11.012  0.1507  0.5262  0.6008
 7692SOL    HW134535   1.310   1.638  11.048 -0.5734 -0.0585 -0.8454
 7692SOL    HW234536   1.330   1.719  10.919  0.5831  1.7582  0.5820
 7693SOL     OW34537   2.501   3.150  13.616 -0.8575  0.3887  0.0679
 7693SOL    HW134538   2.406   3.161  13.605 -0.7066 -0.1485 -1.7000
 7693SOL    HW234539   2.529   3.224  13.563  0.8762 -0.5841 -0.3554
 7694SOL     OW34540   1.369   1.543   4.607 -0.4638  0.0282  0.2316
 7694SOL    HW134541   1.297   1.537   4.545 -1.1259  0.1900  0.9964
 7694SOL    HW234542   1.443   1.527   4.548 -0.7751 -0.0701 -0.1358
 7695SOL     OW34543   1.961   4.360   6.629 -0.2601 -0.2405 -0.3889
 7695SOL    HW134544   2.051   4.381   6.654 -0.2342 -2.0862  1.0407
 7695SOL    HW234545   1.936   4.299   6.699  1.4107  0.3677  0.7436
 7696SOL     OW34546   0.519   2.420   4.613 -0.7602  0.1374  0.1481
 7696SOL    HW134547   0.572   2.494   4.584  1.1593 -1.2177  0.2087
 7696SOL    HW234548   0.431   2.448   4.588  0.0471  1.3528 -1.3012
 7697SOL     OW34549   2.695   3.846   8.238  0.3261  0.3916  0.5957
 7697SOL    HW134550   2.788   3.860   8.219  0.1630 -0.2252 -0.6515
 7697SOL    HW234551   2.687   3.798   8.321  4.2936 -0.3945  0.5323
 7698SOL     OW34552   3.319   0.218   8.556 -0.0349 -0.4478  0.4031
 7698SOL    HW134553   3.352   0.129   8.570  1.5599  0.0351 -0.3575
 7698SOL    HW234554   3.392   0.260   8.512 -0.0541 -1.5758 -0.7221
 7699SOL     OW34555   3.041   0.267   4.556 -0.1531  0.2716  0.3502
 7699SOL    HW134556   2.967   0.259   4.617  1.2061  0.6258  2.0330
 7699SOL    HW234557   3.107   0.219   4.605  0.7408 -0.1452 -1.2864
 7700SOL     OW34558   1.070   1.381   4.923  0.0730 -0.0949  0.3600
 7700SOL    HW134559   1.074   1.467   4.963 -0.8092  0.3808 -0.5697
 7700SOL    HW234560   1.098   1.391   4.832  0.5013 -0.1643  0.4836
 7701SOL     OW34561   0.027   2.962   4.117  0.2070  0.1895  0.3777
 7701SOL    HW134562   0.005   2.963   4.024 -0.8983  1.2489  0.6509
 7701SOL    HW234563   0.050   3.053   4.133  1.4284 -0.1644  0.6636
 7702SOL     OW34564   4.142   1.169   6.427 -0.2784 -0.4433  0.2684
 7702SOL    HW134565   4.173   1.247   6.381 -1.0015 -0.1403  0.2850
 7702SOL    HW234566   4.174   1.195   6.513 -0.5309 -1.0992  0.5585
 7703SOL     OW34567   3.918   1.391   7.705 -0.3433 -0.6808  0.1484
 7703SOL    HW134568   3.845   1.329   7.702 -0.7714 -0.1928  0.4689
 7703SOL    HW234569   3.879   1.466   7.750 -0.5236 -1.0899  0.6801
 7704SOL     OW34570   1.872   2.765   6.056  0.4215 -0.0435  0.2583
 7704SOL    HW134571   1.797   2.739   6.108  0.2183 -1.4761 -0.7366
 7704SOL    HW234572   1.823   2.769   5.974 -1.3467 -0.4232  1.2897
 7705SOL     OW34573   4.097   3.304  16.493 -0.5354  0.3360 -0.1533
 7705SOL    HW134574   4.032   3.373  16.499  0.4555  1.2624 -0.0309
 7705SOL    HW234575   4.134   3.328  16.408  0.5928  2.3338  0.9110
 7706SOL     OW34576   2.535   2.955   4.124  0.3772  0.1450 -0.6080
 7706SOL    HW134577   2.488   3.034   4.095  0.1023 -0.5498 -2.0396
 7706SOL    HW234578   2.602   2.951   4.055  0.6256 -2.1520 -0.2002
 7707SOL     OW34579   2.725   2.739  17.470 -1.0545 -0.0657  0.1989
 7707SOL    HW134580   2.757   2.829  17.461  1.6235 -1.2301 -1.9424
 7707SOL    HW234581   2.787   2.690  17.416  1.3600  0.6387  2.3478
 7708SOL     OW34582   1.987   2.080  16.336  0.5708  0.7554  0.1483
 7708SOL    HW134583   1.969   2.031  16.256 -0.8881 -1.0373  1.5729
 7708SOL    HW234584   1.926   2.153  16.324  2.0787  1.3780 -3.6638
 7709SOL     OW34585   3.643   3.334   3.732  0.4525 -0.4405 -0.1706
 7709SOL    HW134586   3.579   3.272   3.698  0.3964  0.0929 -1.0511
 7709SOL    HW234587   3.707   3.281   3.779 -0.2548 -1.1805 -0.0468
 7710SOL     OW34588   2.879   0.404   2.963  0.1037 -0.0204  0.3695
 7710SOL    HW134589   2.810   0.402   3.029  0.7432 -0.5820  1.0183
 7710SOL    HW234590   2.955   0.460   2.981  1.6802 -2.0257  0.0033
 7711SOL     OW34591   2.166   1.642   9.784 -0.3959  0.2897  0.3068
 7711SOL    HW134592   2.189   1.703   9.855 -2.2861 -0.3370  1.4751
 7711SOL    HW234593   2.183   1.559   9.829 -1.6389  0.3146  0.8269
 7712SOL     OW34594   1.040   0.070   4.337  1.2659  0.1871 -0.9631
 7712SOL    HW134595   0.946   0.088   4.343  1.4009  0.1022  1.5438
 7712SOL    HW234596   1.073   0.147   4.384  0.6860 -1.2704  1.7916
 7713SOL     OW34597   0.786   3.440   2.917 -0.6294 -0.0766  0.4439
 7713SOL    HW134598   0.822   3.367   2.866  0.4769  0.0242  1.0693
 7713SOL    HW234599   0.839   3.428   2.996 -0.7665 -2.6831  0.1374
 7714SOL     OW34600   1.968   4.573   8.744  0.2293 -0.0593 -0.0381
 7714SOL    HW134601   1.959   4.478   8.730 -0.1794 -0.2935  1.7344
 7714SOL    HW234602   2.018   4.575   8.826 -1.7283 -0.3284  1.1991
 7715SOL     OW34603   2.699   1.081  10.831 -1.2104 -0.0025 -0.7116
 7715SOL    HW134604   2.647   1.094  10.911 -1.8725  1.0482 -1.3244
 7715SOL    HW234605   2.634   1.050  10.768  1.5528 -3.4423 -1.8245
 7716SOL     OW34606   3.987   3.604   6.691  0.3066  0.0861 -0.1361
 7716SOL    HW134607   4.055   3.590   6.757  0.3483 -1.3564 -0.5044
 7716SOL    HW234608   4.011   3.689   6.653 -0.2468  0.6412  0.7554
 7717SOL     OW34609   0.725   0.587  13.925 -0.0396  0.3690  0.0759
 7717SOL    HW134610   0.802   0.573  13.870 -0.2089 -3.7359  0.9086
 7717SOL    HW234611   0.690   0.662  13.877 -2.6908 -0.3424  0.8831
 7718SOL     OW34612   2.386   3.906  14.398 -0.3809  0.4211  0.2164
 7718SOL    HW134613   2.310   3.848  14.394 -1.2737  1.3391  3.7809
 7718SOL    HW234614   2.360   3.973  14.334  1.1265  0.2284 -0.6111
 7719SOL     OW34615   2.404   0.122   0.480  0.1641  0.1459 -0.5948
 7719SOL    HW134616   2.497   0.140   0.492  0.5237 -2.0014 -0.1760
 7719SOL    HW234617   2.385   0.132   0.387 -0.1366  1.2882 -0.4099
 7720SOL     OW34618   1.588   0.643  16.639  0.1004 -0.0804 -0.1960
 7720SOL    HW134619   1.505   0.619  16.597 -0.7186  1.9751  0.2360
 7720SOL    HW234620   1.624   0.714  16.586 -0.3808  0.4756  0.2149
 7721SOL     OW34621   0.181   0.568   3.691 -0.2848  0.0669 -0.0587
 7721SOL    HW134622   0.110   0.504   3.696  0.2777 -0.9041 -4.6777
 7721SOL    HW234623   0.265   0.522   3.698  1.5128  3.1255 -1.3573
 7722SOL     OW34624   0.089   1.485   3.523  0.1085 -0.0077  0.2152
 7722SOL    HW134625   0.110   1.576   3.542  0.9105 -0.0256 -0.5748
 7722SOL    HW234626   4.716   1.499   3.536  0.0223  0.4461 -0.9375
 7723SOL     OW34627   2.131   4.651  15.698  0.3537 -0.3793 -0.3148
 7723SOL    HW134628   2.216   4.619  15.728 -0.0940 -0.0294  1.2773
 7723SOL    HW234629   2.124   0.004  15.758 -2.3486 -2.2128  1.5958
 7724SOL     OW34630   4.258   4.025  12.181  0.6188 -0.6076 -0.1592
 7724SOL    HW134631   4.254   3.932  12.157  1.0127 -0.3093 -1.3952
 7724SOL    HW234632   4.348   4.020  12.213  0.2344 -1.7216  0.7608
 7725SOL     OW34633   4.543   0.739   5.862 -0.0539  0.4378 -0.0839
 7725SOL    HW134634   4.499   0.822   5.844 -0.0297  0.1782 -1.3581
 7725SOL    HW234635   4.481   0.682   5.817 -0.2657 -0.2948  1.1541
 7726SOL     OW34636   2.863   3.487   8.259  0.7487 -0.1104  0.0476
 7726SOL    HW134637   2.814   3.476   8.340 -1.6206 -1.9561 -1.6142
 7726SOL    HW234638   2.797   3.437   8.211 -1.6527  2.8031  0.3063
 7727SOL     OW34639   3.550   4.046   2.107 -0.2874  0.2012 -0.3112
 7727SOL    HW134640   3.517   3.964   2.143 -1.6606 -0.4252 -2.9647
 7727SOL    HW234641   3.518   4.038   2.017  2.0759  0.7438 -1.1829
 7728SOL     OW34642   4.254   0.372   6.821  0.0136  0.5629  0.4200
 7728SOL    HW134643   4.211   0.391   6.904 -0.5219 -0.3341  0.3463
 7728SOL    HW234644   4.182   0.334   6.770 -0.2848 -0.1322  1.3612
 7729SOL     OW34645   2.308   2.352  10.620  0.1928  0.1123  0.2669
 7729SOL    HW134646   2.261   2.284  10.667  1.4222 -0.5694  0.5309
 7729SOL    HW234647   2.300   2.314  10.533 -3.6108 -0.4161  0.8517
 7730SOL     OW34648   1.747   0.543   0.939 -0.6720 -0.2441  0.8827
 7730SOL    HW134649   1.719   0.620   0.988  0.5049  1.1120 -0.5948
 7730SOL    HW234650   1.666   0.493   0.928 -0.0310 -0.7250 -1.5669
 7731SOL     OW34651   2.821   2.213   5.277 -0.1191  0.0113 -0.4733
 7731SOL    HW134652   2.750   2.222   5.214 -0.3165 -0.4851 -0.3261
 7731SOL    HW234653   2.878   2.288   5.259  1.0662 -0.6963  0.3286
 7732SOL     OW34654   2.876   3.153   6.555  0.1496 -0.2360  1.3476
 7732SOL    HW134655   2.856   3.210   6.629 -1.5616 -1.7006  2.0263
 7732SOL    HW234656   2.812   3.176   6.488  1.3042 -0.0670  0.3068
 7733SOL     OW34657   3.570   2.369  16.945 -0.6986  0.2523 -0.0286
 7733SOL    HW134658   3.521   2.451  16.945 -0.1838  0.5578 -0.5056
 7733SOL    HW234659   3.527   2.332  17.022  0.8464  2.1534  1.7361
 7734SOL     OW34660   1.509   1.031  14.782  1.0125  0.0824 -0.0754
 7734SOL    HW134661   1.452   1.080  14.842 -0.2614 -1.2227 -0.2033
 7734SOL    HW234662   1.573   0.996  14.845 -1.3710 -0.5514  2.0128
 7735SOL     OW34663   3.869   4.046  14.843  0.1190 -0.3020 -0.3104
 7735SOL    HW134664   3.951   4.095  14.852 -0.5952  0.7699  0.3537
 7735SOL    HW234665   3.886   3.974  14.903 -0.3508 -3.3032 -3.7583
 7736SOL     OW34666   3.454   1.696   4.810  0.1964 -0.8524 -0.1593
 7736SOL    HW134667   3.482   1.617   4.856  1.8242  0.4166  1.0149
 7736SOL    HW234668   3.426   1.749   4.885  1.8450 -2.3927  1.5215
 7737SOL     OW34669   1.005   4.327  16.320 -0.5967 -0.5212  0.1616
 7737SOL    HW134670   1.017   4.236  16.349 -0.6607 -0.5516  0.0934
 7737SOL    HW234671   0.974   4.369  16.400  3.0374 -1.0481  1.8513
 7738SOL     OW34672   1.451   1.475  10.474  0.5778  0.4765 -0.6309
 7738SOL    HW134673   1.409   1.544  10.422 -0.9677  0.3680  0.5059
 7738SOL    HW234674   1.542   1.494  10.448 -0.6699  2.5680 -3.4520
 7739SOL     OW34675   1.726   4.311   6.004 -0.2457 -0.1634  0.1039
 7739SOL    HW134676   1.663   4.249   6.041  1.3078 -1.5290  0.4332
 7739SOL    HW234677   1.668   4.380   5.972 -0.6762 -0.9082 -0.7208
 7740SOL     OW34678   1.124   1.221  16.318  0.0009 -0.3797  0.4985
 7740SOL    HW134679   1.079   1.276  16.383 -2.9140 -2.1856  0.0111
 7740SOL    HW234680   1.206   1.271  16.313 -0.3825  0.3096  1.1182
 7741SOL     OW34681   2.593   0.912  12.310  0.7355 -0.3547  0.1014
 7741SOL    HW134682   2.503   0.943  12.296  0.9040  0.1427  0.0878
 7741SOL    HW234683   2.600   0.832  12.259 -0.3671 -1.1638  1.2326
 7742SOL     OW34684   4.635   1.303   1.820  0.3639  0.4212 -0.2132
 7742SOL    HW134685   4.559   1.281   1.873  1.4410 -1.0684  0.6880
 7742SOL    HW234686   4.702   1.259   1.872  0.1901  2.0293  1.3481
 7743SOL     OW34687   4.576   0.705   4.120 -0.8381 -0.0826 -0.4490
 7743SOL    HW134688   4.490   0.664   4.131 -1.5102  1.5062  0.1592
 7743SOL    HW234689   4.560   0.795   4.148 -2.3139 -0.5325  0.1553
 7744SOL     OW34690   2.207   3.648   2.754 -0.4338 -0.3280  0.4487
 7744SOL    HW134691   2.275   3.633   2.820  1.8844  1.0233 -1.6299
 7744SOL    HW234692   2.165   3.731   2.775 -2.3929 -0.5725 -2.4704
 7745SOL     OW34693   2.021   0.893   1.699  0.3976 -0.2807 -0.2737
 7745SOL    HW134694   1.942   0.875   1.648  0.3253 -1.1167  0.1358
 7745SOL    HW234695   2.089   0.916   1.636  1.0110 -0.0219  0.4850
 7746SOL     OW34696   4.320   0.175   4.239 -0.5215 -0.3524 -0.1104
 7746SOL    HW134697   4.258   0.221   4.296  0.5695  1.3162 -0.2663
 7746SOL    HW234698   4.350   0.097   4.286 -2.1755 -0.8318  0.1649
 7747SOL     OW34699   4.491   2.280   5.752  0.1180  0.0942  0.5575
 7747SOL    HW134700   4.410   2.328   5.770  1.0566  2.3411 -1.2028
 7747SOL    HW234701   4.542   2.313   5.826 -0.0116 -0.8282  1.0642
 7748SOL     OW34702   3.466   0.872   2.962  0.0880 -0.3964  0.5399
 7748SOL    HW134703   3.382   0.917   2.953  1.4942  2.3689  1.1936
 7748SOL    HW234704   3.500   0.876   2.873 -0.5040  2.6209  0.4622
 7749SOL     OW34705   2.073   4.194   7.656 -0.0873 -0.1510  0.2061
 7749SOL    HW134706   2.118   4.231   7.732  1.3010 -0.5995 -0.3984
 7749SOL    HW234707   2.133   4.125   7.628  0.7915  0.2653  1.0461
 7750SOL     OW34708   0.479   2.244   3.251 -0.8155  0.2692  0.1940
 7750SOL    HW134709   0.401   2.192   3.234  1.8920 -3.7246  0.2100
 7750SOL    HW234710   0.443   2.319   3.300  1.4464  1.0585  0.6501
 7751SOL     OW34711   1.930   1.227   3.454 -0.3609 -0.0044  0.1464
 7751SOL    HW134712   1.850   1.188   3.490  1.2648 -3.2774  0.2283
 7751SOL    HW234713   1.907   1.212   3.363  0.3714 -0.0397 -0.0333
 7752SOL     OW34714   0.249   2.028   4.545 -0.4937 -0.1861 -0.9669
 7752SOL    HW134715   0.333   2.047   4.502  1.5429 -0.1072  3.1006
 7752SOL    HW234716   0.251   1.944   4.591  3.3808  0.3973 -0.1052
 7753SOL     OW34717   2.570   3.631  16.433 -0.2735  0.1629 -0.0992
 7753SOL    HW134718   2.531   3.714  16.407 -0.4540 -0.4805 -1.8926
 7753SOL    HW234719   2.653   3.657  16.473  0.2596 -0.4089 -0.8211
 7754SOL     OW34720   0.240   3.231   5.700  0.3543 -0.6604 -0.3024
 7754SOL    HW134721   0.320   3.179   5.700 -0.7701 -2.4027  0.1170
 7754SOL    HW234722   0.271   3.307   5.748 -0.7042 -0.5846  0.2571
 7755SOL     OW34723   4.391   3.255  13.384  0.5261  0.4128  0.3128
 7755SOL    HW134724   4.471   3.260  13.331 -0.3868 -3.1027 -1.3730
 7755SOL    HW234725   4.404   3.333  13.438  5.1623 -0.0394 -0.1989
 7756SOL     OW34726   2.195   3.986   9.161 -0.2615 -0.2277  0.3729
 7756SOL    HW134727   2.184   3.893   9.146  0.4367 -0.1326 -0.7315
 7756SOL    HW234728   2.280   3.980   9.204  0.3898  0.8805 -0.7174
 7757SOL     OW34729   1.429   2.889   7.169 -0.5128  0.2022  0.2136
 7757SOL    HW134730   1.448   2.870   7.077 -0.4408  0.2843  0.2108
 7757SOL    HW234731   1.470   2.812   7.208  0.9901 -0.2422 -2.2893
 7758SOL     OW34732   0.050   1.748   3.348 -0.2988 -0.7975  0.0553
 7758SOL    HW134733   0.108   1.700   3.288  2.0185  0.6912  1.0997
 7758SOL    HW234734   0.116   1.789   3.404 -0.6907  1.7817 -1.3932
 7759SOL     OW34735   3.011   0.549   8.368 -0.4205  0.6472  0.3826
 7759SOL    HW134736   3.052   0.622   8.321  0.3154 -0.3294 -0.4819
 7759SOL    HW234737   2.965   0.602   8.433  3.0276  1.7640  1.9436
 7760SOL     OW34738   0.243   2.857   6.740 -0.1151  0.9663  0.0638
 7760SOL    HW134739   0.161   2.813   6.716 -0.1722  0.5614  0.9994
 7760SOL    HW234740   0.288   2.869   6.657  0.6855 -2.3413  0.0125
 7761SOL     OW34741   4.070   3.504   2.224  0.0318 -0.2239 -0.4127
 7761SOL    HW134742   4.062   3.414   2.255  1.5969 -0.3342 -0.3390
 7761SOL    HW234743   4.135   3.544   2.282  1.0955 -1.2419 -0.9010
 7762SOL     OW34744   2.381   2.652   4.284 -0.3700  0.0789 -0.3815
 7762SOL    HW134745   2.467   2.695   4.294 -0.5216  0.6155 -1.3274
 7762SOL    HW234746   2.401   2.598   4.207 -1.5215  1.1564 -1.4383
 7763SOL     OW34747   0.655   3.880   6.397 -0.4668 -0.0188  0.3162
 7763SOL    HW134748   0.698   3.959   6.366  0.8241  0.4058  3.1880
 7763SOL    HW234749   0.616   3.912   6.479 -0.8094 -1.5538  0.7616
 7764SOL     OW34750   2.792   4.695   4.571 -0.1717 -0.3344 -0.6610
 7764SOL    HW134751   2.708   4.671   4.532  0.1886 -0.7805 -1.1779
 7764SOL    HW234752   2.780   0.065   4.599 -1.8459 -0.7116 -0.1574
 7765SOL     OW34753   3.453   1.715   6.303 -0.3101  0.3969 -0.2224
 7765SOL    HW134754   3.491   1.672   6.226 -1.4358  0.9544 -1.0809
 7765SOL    HW234755   3.361   1.725   6.282 -0.3870 -1.2097 -0.6300
 7766SOL     OW34756   2.671   4.686   3.923  0.1114  0.1869  0.4635
 7766SOL    HW134757   2.674   4.591   3.931 -1.1490  0.1892  0.9515
 7766SOL    HW234758   2.759   0.002   3.935  0.4360 -0.5769  0.4325
 7767SOL     OW34759   1.301   1.405   5.096 -0.2216  0.7301  0.6485
 7767SOL    HW134760   1.255   1.437   5.018  1.5331 -0.0307 -0.7299
 7767SOL    HW234761   1.361   1.477   5.116  1.3454 -0.0040 -1.3365
 7768SOL     OW34762   2.280   4.410   1.822  0.5392  0.2127 -0.7734
 7768SOL    HW134763   2.246   4.353   1.752  0.4691  2.2899 -2.4385
 7768SOL    HW234764   2.356   4.446   1.777  1.4291 -1.2359 -0.4299
 7769SOL     OW34765   4.659   2.982   5.061  0.3813 -0.0906 -0.0904
 7769SOL    HW134766   4.603   2.946   4.993  0.6975  0.0419 -0.4224
 7769SOL    HW234767   4.621   2.949   5.143 -0.0672 -2.0984 -1.1086
 7770SOL     OW34768   2.822   3.011   4.252  0.4021 -0.5265  0.1117
 7770SOL    HW134769   2.812   2.916   4.242  0.3562 -0.2239 -2.8899
 7770SOL    HW234770   2.798   3.052   4.169  0.4009 -1.5126 -0.3714
 7771SOL     OW34771   0.694   1.698   3.795 -0.4766 -0.0284  0.5362
 7771SOL    HW134772   0.719   1.652   3.714 -0.4949 -0.3164  0.6931
 7771SOL    HW234773   0.707   1.628   3.859  1.4521  0.7111  0.9337
 7772SOL     OW34774   3.315   0.304   6.107  0.0183  0.2946 -0.2951
 7772SOL    HW134775   3.291   0.386   6.150  0.9976  0.8727 -0.8328
 7772SOL    HW234776   3.313   0.243   6.181 -0.5917  0.9258  0.2061
 7773SOL     OW34777   1.660   0.312   1.868  0.7993  0.4684  0.0458
 7773SOL    HW134778   1.703   0.374   1.809  0.8551  0.9513  0.5793
 7773SOL    HW234779   1.569   0.338   1.856  0.3739 -0.2409  1.7514
 7774SOL     OW34780   1.893   3.863   6.600 -0.1986  0.3350  0.4677
 7774SOL    HW134781   1.802   3.834   6.600  0.5934 -2.1319 -2.7675
 7774SOL    HW234782   1.897   3.896   6.510  4.0673 -1.3638  0.0140
 7775SOL     OW34783   3.196   2.510  17.310  0.3545  0.1893  0.7655
 7775SOL    HW134784   3.283   2.533  17.341  1.0201 -0.0806 -0.9231
 7775SOL    HW234785   3.199   2.552  17.225 -0.5513 -0.8723  0.1987
 7776SOL     OW34786   0.104   3.481   4.555  0.4977 -0.3519  0.5713
 7776SOL    HW134787   0.042   3.464   4.626 -1.0599  0.2343 -0.6343
 7776SOL    HW234788   0.061   3.555   4.513  1.9704  0.8581  1.2026
 7777SOL     OW34789   0.777   0.461   4.584  0.1234  0.6196  0.6237
 7777SOL    HW134790   0.681   0.467   4.588  0.2096  2.4412 -0.0254
 7777SOL    HW234791   0.787   0.450   4.489 -1.7068 -2.4829  0.7886
 7778SOL     OW34792   4.673   1.068  10.500 -0.2174  0.1508  0.3985
 7778SOL    HW134793   4.712   1.139  10.551 -0.9182  0.6470  0.2395
 7778SOL    HW234794   4.581   1.052  10.517 -0.0984 -0.6466  0.3304
 7779SOL     OW34795   1.086   3.412   6.517 -0.1294 -0.2451  0.3407
 7779SOL    HW134796   1.059   3.504   6.505  1.7508 -0.2721 -4.0230
 7779SOL    HW234797   1.006   3.362   6.499  0.5775 -1.0414 -0.5919
 7780SOL     OW34798   3.264   3.830   5.066 -0.0570  0.1790  0.2903
 7780SOL    HW134799   3.183   3.881   5.074  1.7293  2.8156  1.5259
 7780SOL    HW234800   3.229   3.746   5.098  1.2965 -1.6310 -3.0141
 7781SOL     OW34801   1.847   4.464   5.146  1.1772 -0.1076 -0.6700
 7781SOL    HW134802   1.885   4.409   5.078  0.6413 -0.5663 -0.6033
 7781SOL    HW234803   1.754   4.444   5.132  0.7620  0.0215  1.9761
 7782SOL     OW34804   1.107   0.478  10.199 -0.3792 -0.4174 -0.6049
 7782SOL    HW134805   1.065   0.441  10.121  0.0128  0.3938 -1.1987
 7782SOL    HW234806   1.046   0.544  10.231 -0.5677 -0.5923 -0.6021
 7783SOL     OW34807   0.695   1.763   9.256 -0.0748  0.8453  0.2619
 7783SOL    HW134808   0.766   1.713   9.215  0.2455  1.5673 -0.0477
 7783SOL    HW234809   0.720   1.849   9.223 -0.0510  0.9274  0.4968
 7784SOL     OW34810   3.094   0.004   8.267  0.2954  0.0171  1.0994
 7784SOL    HW134811   3.070   0.095   8.285  0.1547 -0.1735  1.9056
 7784SOL    HW234812   3.125   4.717   8.177 -1.4860 -0.7468  0.5544
 7785SOL     OW34813   1.769   4.345   6.924 -0.0072 -0.2173 -0.2420
 7785SOL    HW134814   1.833   4.274   6.914  0.5478  0.3701 -0.8871
 7785SOL    HW234815   1.711   4.303   6.987  0.6210 -1.5913 -0.5699
 7786SOL     OW34816   2.587   0.567  12.411 -0.0216 -0.2243 -0.0018
 7786SOL    HW134817   2.584   0.481  12.370  2.3411 -1.1752  1.8279
 7786SOL    HW234818   2.603   0.623  12.335  1.3293  0.7121  0.9829
 7787SOL     OW34819   3.743   2.867   4.251 -0.2522  0.6341  0.1086
 7787SOL    HW134820   3.665   2.834   4.206  2.1327 -2.8799 -1.4468
 7787SOL    HW234821   3.759   2.798   4.315  0.8245  1.5880  0.8574
 7788SOL     OW34822   2.258   2.228   5.730 -0.5947 -0.1022  0.0192
 7788SOL    HW134823   2.294   2.145   5.761 -1.7966 -1.0873 -1.1722
 7788SOL    HW234824   2.210   2.189   5.657  0.8221  2.0863 -2.0906
 7789SOL     OW34825   1.689   1.046   6.349 -0.2659  0.2768  0.6077
 7789SOL    HW134826   1.704   1.064   6.256 -1.0620  2.9191  0.9738
 7789SOL    HW234827   1.675   0.952   6.339 -1.4667  0.4502  0.6274
 7790SOL     OW34828   2.448   0.662  11.829 -0.5667 -0.0578 -0.7091
 7790SOL    HW134829   2.378   0.713  11.787  0.7618  1.0530 -1.5833
 7790SOL    HW234830   2.497   0.633  11.752 -0.4811  2.6518 -1.6919
 7791SOL     OW34831   1.933   3.376   6.344 -0.1101 -0.0527  0.4996
 7791SOL    HW134832   1.952   3.427   6.265  1.4262 -1.8590 -0.3013
 7791SOL    HW234833   1.876   3.437   6.391  0.9834  1.2086  0.1743
 7792SOL     OW34834   2.465   1.555   5.501  0.0601  0.1317  0.2285
 7792SOL    HW134835   2.440   1.484   5.441  1.0705 -0.7672  0.8722
 7792SOL    HW234836   2.455   1.504   5.581 -1.5897 -0.2881 -0.2437
 7793SOL     OW34837   4.656   3.720   7.472  0.0213 -0.3367  0.6301
 7793SOL    HW134838   4.702   3.640   7.445  0.6091 -0.1327  1.0214
 7793SOL    HW234839   4.637   3.757   7.386  0.1776  0.7366  1.0584
 7794SOL     OW34840   0.881   3.247   8.795 -0.3197  0.7177 -0.1791
 7794SOL    HW134841   0.865   3.215   8.884 -1.1397 -1.6143 -1.1510
 7794SOL    HW234842   0.815   3.315   8.804 -1.5958 -0.1969 -2.6776
 7795SOL     OW34843   2.355   3.906  11.711  0.2318 -0.4319  0.3309
 7795SOL    HW134844   2.415   3.851  11.660  1.9598  0.4321  1.4291
 7795SOL    HW234845   2.386   3.903  11.801 -2.2873  0.0054  1.2108
 7796SOL     OW34846   4.248   1.369   6.267 -0.0583 -0.3876  0.3627
 7796SOL    HW134847   4.265   1.462   6.247  0.5542 -0.4124  0.7499
 7796SOL    HW234848   4.320   1.333   6.214 -0.6036 -1.2073  0.1866
 7797SOL     OW34849   0.904   3.832   6.250  0.0207  0.0201  0.0445
 7797SOL    HW134850   0.824   3.813   6.299 -0.2508  0.0668 -0.3807
 7797SOL    HW234851   0.910   3.926   6.269  1.5139  0.0676 -0.7150
 7798SOL     OW34852   2.064   2.966   9.909 -0.0753 -0.9008  0.0157
 7798SOL    HW134853   2.104   2.890   9.867 -0.0814 -0.4313 -0.8328
 7798SOL    HW234854   2.130   2.975   9.978  0.3168 -0.0621 -0.4742
 7799SOL     OW34855   0.155   1.181   6.890  0.6638 -0.0961 -0.1532
 7799SOL    HW134856   0.217   1.112   6.866 -0.8176 -1.1898 -0.9036
 7799SOL    HW234857   0.178   1.252   6.830 -2.9974  0.8954 -0.4289
 7800SOL     OW34858   0.510   4.299  11.782 -0.0022 -0.0060  0.4787
 7800SOL    HW134859   0.568   4.364  11.743  0.9590 -0.6152  0.8982
 7800SOL    HW234860   0.554   4.295  11.867 -1.8083  0.7768  1.4463
 7801SOL     OW34861   1.114   3.015   8.357 -0.3783 -0.0760 -0.0296
 7801SOL    HW134862   1.026   3.013   8.394 -0.5161  1.6961 -0.2587
 7801SOL    HW234863   1.104   3.091   8.300 -1.7666 -1.2111 -1.2848
 7802SOL     OW34864   2.750   1.747   5.645  0.1440 -0.4276 -0.7406
 7802SOL    HW134865   2.755   1.652   5.630  0.2548 -0.1891 -2.1233
 7802SOL    HW234866   2.835   1.756   5.689 -2.0434  2.9522  2.8238
 7803SOL     OW34867   1.429   2.028   9.978  0.2533  0.6400  0.2577
 7803SOL    HW134868   1.393   2.035   9.889 -0.3825  2.7136  0.6907
 7803SOL    HW234869   1.491   1.957   9.965 -0.7613 -0.2672  0.3482
 7804SOL     OW34870   3.048   0.646   6.100  0.1352  0.0662 -0.0673
 7804SOL    HW134871   3.069   0.736   6.076  1.0726 -0.5381 -1.4816
 7804SOL    HW234872   3.092   0.629   6.183  2.9483 -0.0063 -1.5616
 7805SOL     OW34873   2.423   3.247   6.994 -0.3361 -0.1831 -0.1612
 7805SOL    HW134874   2.380   3.173   6.951  1.0049 -0.5606 -0.8469
 7805SOL    HW234875   2.352   3.309   6.974  0.6868  1.4838  1.3556
 7806SOL     OW34876   2.657   0.551   6.879 -0.1632  0.4731  0.0926
 7806SOL    HW134877   2.661   0.646   6.870 -1.6684  0.5358 -0.0239
 7806SOL    HW234878   2.749   0.528   6.867  0.0567  1.7479 -0.6431
 7807SOL     OW34879   3.764   3.940   7.176  0.0140  0.3085  0.5182
 7807SOL    HW134880   3.688   3.988   7.143 -0.8343  0.1218  2.1542
 7807SOL    HW234881   3.720   3.868   7.222 -0.7390 -0.2102 -1.0059
 7808SOL     OW34882   4.087   3.259   2.541  0.2248  0.6722 -0.0746
 7808SOL    HW134883   4.166   3.207   2.558 -1.4376 -2.5622 -2.3006
 7808SOL    HW234884   4.037   3.188   2.501 -0.1338  0.9064 -0.0438
 7809SOL     OW34885   2.416   2.484   7.773  0.0243  0.1074 -0.2448
 7809SOL    HW134886   2.404   2.573   7.738  0.8738  0.4567  0.3589
 7809SOL    HW234887   2.426   2.493   7.868  1.1235 -0.8789 -0.2716
 7810SOL     OW34888   0.770   2.565  16.753 -0.1675 -0.0631 -0.1007
 7810SOL    HW134889   0.776   2.480  16.797  1.6147  0.6812  1.0670
 7810SOL    HW234890   0.704   2.609  16.807  0.5454 -1.9105  2.2832
 7811SOL     OW34891   0.052   2.609   3.559 -0.0635  0.5037  0.1364
 7811SOL    HW134892   0.060   2.619   3.464  1.7779 -1.0216  0.1280
 7811SOL    HW234893   0.140   2.636   3.586  0.1998  1.4181 -1.6513
 7812SOL     OW34894   4.136   0.761  15.197 -0.6617 -0.6878  0.2470
 7812SOL    HW134895   4.083   0.788  15.123 -2.7789 -0.2754  1.9010
 7812SOL    HW234896   4.150   0.838  15.253 -0.4997  0.2284 -1.0586
 7813SOL     OW34897   4.714   0.471   5.599 -0.2379  0.5400  0.1506
 7813SOL    HW134898   4.653   0.535   5.563 -1.4778 -0.5039  0.3970
 7813SOL    HW234899   4.693   0.384   5.567 -0.0194  0.6058 -0.1700
 7814SOL     OW34900   2.140   2.770   1.328  0.0967  0.3234  0.0667
 7814SOL    HW134901   2.044   2.767   1.337  0.0764  1.0098  0.0724
 7814SOL    HW234902   2.164   2.704   1.393  0.7357 -0.0177 -0.5159
 7815SOL     OW34903   0.152   2.711   2.110  0.4017  0.0443  0.3521
 7815SOL    HW134904   0.154   2.628   2.063  0.8818 -0.3833  1.1293
 7815SOL    HW234905   0.063   2.697   2.144 -0.2044 -0.6162 -1.5194
 7816SOL     OW34906   2.119   4.537  14.709 -0.4277 -0.2974 -0.3278
 7816SOL    HW134907   2.108   4.501  14.797  0.1975 -1.0809 -0.5754
 7816SOL    HW234908   2.210   4.517  14.689  0.6818  2.5018  1.9945
 7817SOL     OW34909   3.750   4.449   3.463  0.7116 -0.7923  0.2881
 7817SOL    HW134910   3.665   4.452   3.509  2.1284 -0.9125  2.9229
 7817SOL    HW234911   3.794   4.390   3.523  0.4908 -0.9062  0.3389
 7818SOL     OW34912   4.613   2.402   5.533  0.2094  0.5544  0.4373
 7818SOL    HW134913   4.552   2.347   5.581 -0.8560  0.6279 -0.8330
 7818SOL    HW234914   4.700   2.363   5.530  0.1447  0.4615 -0.2430
 7819SOL     OW34915   4.301   2.691   8.206  0.2040  0.4126 -0.0116
 7819SOL    HW134916   4.309   2.730   8.293  0.3165 -0.8738  0.5497
 7819SOL    HW234917   4.210   2.664   8.197 -0.5432  2.2672  2.1907
 7820SOL     OW34918   4.136   0.943   1.668  0.7668  0.6140 -0.0818
 7820SOL    HW134919   4.229   0.958   1.649  0.5723  2.2804  0.2661
 7820SOL    HW234920   4.149   0.882   1.741 -1.2990 -2.2763 -2.1158
 7821SOL     OW34921   2.227   1.249   2.045 -0.2326  0.5017  0.4443
 7821SOL    HW134922   2.165   1.204   2.103  0.5773  1.8771  2.3725
 7821SOL    HW234923   2.217   1.186   1.974 -0.1434 -0.6660  1.4609
 7822SOL     OW34924   3.281   1.831   6.913  0.0709  0.3241 -0.3562
 7822SOL    HW134925   3.368   1.821   6.873  0.2719  1.0341 -0.1048
 7822SOL    HW234926   3.301   1.901   6.975  2.5487  0.8358 -1.7100
 7823SOL     OW34927   0.305   0.897   5.004  0.5676 -0.3075 -0.4305
 7823SOL    HW134928   0.269   0.848   5.079 -0.4725 -1.4278 -1.6642
 7823SOL    HW234929   0.271   0.853   4.926 -0.4396 -0.1088 -0.1100
 7824SOL     OW34930   0.082   3.221   8.468 -0.0470 -0.0289  0.4420
 7824SOL    HW134931   0.092   3.301   8.521 -1.3098  0.1422  0.4137
 7824SOL    HW234932   0.009   3.184   8.516  1.0133 -0.3350  1.8288
 7825SOL     OW34933   3.008   2.796   5.118 -0.0962 -0.6658  0.1718
 7825SOL    HW134934   2.942   2.726   5.119 -0.1113 -0.6384  1.4405
 7825SOL    HW234935   3.086   2.740   5.122 -0.6045 -1.3314  0.8267
 7826SOL     OW34936   2.936   3.851   9.023  0.0106 -0.0400 -0.2200
 7826SOL    HW134937   2.947   3.804   9.106 -0.1310  1.2149  0.5025
 7826SOL    HW234938   3.011   3.910   9.016  0.2032 -0.2958 -0.3104
 7827SOL     OW34939   1.368   2.938   8.350  0.3602  0.0187 -0.3635
 7827SOL    HW134940   1.285   2.982   8.368 -0.5358 -1.5519 -0.6431
 7827SOL    HW234941   1.440   2.991   8.382 -0.2305  0.7742 -0.2639
 7828SOL     OW34942   0.276   1.939   0.109  0.4402 -0.3304 -0.0387
 7828SOL    HW134943   0.201   1.998   0.112  0.0101 -0.9150  0.7590
 7828SOL    HW234944   0.253   1.866   0.166 -2.3965  2.5728  2.5354
 7829SOL     OW34945   1.784   2.820   7.340  0.1340  0.5604 -0.6652
 7829SOL    HW134946   1.790   2.884   7.411  0.7049 -1.2138  0.8859
 7829SOL    HW234947   1.843   2.749   7.368  0.0060  0.5970 -0.3025
 7830SOL     OW34948   2.588   3.029   5.818 -0.7385  0.6333 -0.1332
 7830SOL    HW134949   2.641   3.108   5.805 -1.6155  1.6276  2.2813
 7830SOL    HW234950   2.640   2.963   5.773 -3.5728  0.3751 -2.9632
 7831SOL     OW34951   1.235   2.680   7.762  0.2749  0.2877 -0.4531
 7831SOL    HW134952   1.285   2.668   7.682 -0.1749 -0.3689 -0.6319
 7831SOL    HW234953   1.261   2.608   7.821  2.9921  0.7211 -1.1542
 7832SOL     OW34954   3.990   1.658   4.870  0.1424  0.0965 -0.1653
 7832SOL    HW134955   4.079   1.687   4.892 -0.5129  0.6521  1.7058
 7832SOL    HW234956   4.006   1.568   4.839  0.8527 -0.3871  1.6065
 7833SOL     OW34957   3.115   4.006   2.807 -0.2865  0.9232  0.2801
 7833SOL    HW134958   3.036   4.053   2.834  0.0252  3.3662 -3.0596
 7833SOL    HW234959   3.079   3.973   2.724  1.4661  1.2018 -0.5940
 7834SOL     OW34960   0.776   2.237   8.155  0.2121 -0.0074  0.3426
 7834SOL    HW134961   0.699   2.253   8.101  0.3249 -0.2104  0.1252
 7834SOL    HW234962   0.842   2.259   8.090  1.6270 -1.9819  1.1197
 7835SOL     OW34963   4.427   0.682   7.612  0.2657 -0.0681  0.0680
 7835SOL    HW134964   4.440   0.645   7.699 -1.6130  3.0492  1.6558
 7835SOL    HW234965   4.338   0.717   7.610  0.7598  1.1061 -0.8271
 7836SOL     OW34966   2.293   2.161   4.509 -0.3835 -0.5602 -0.0427
 7836SOL    HW134967   2.227   2.136   4.573  0.2363 -0.3770  0.6733
 7836SOL    HW234968   2.376   2.125   4.539 -0.4145 -0.4803  0.1371
 7837SOL     OW34969   1.307   1.969   5.938  0.2106 -0.1014  0.3876
 7837SOL    HW134970   1.223   1.992   5.978  0.0068 -2.5861  1.3880
 7837SOL    HW234971   1.355   2.051   5.951 -0.8489  0.2096  2.2977
 7838SOL     OW34972   0.661   2.630   2.559  0.2377 -0.5554 -0.8978
 7838SOL    HW134973   0.576   2.605   2.522  0.2105 -0.3145 -0.9936
 7838SOL    HW234974   0.715   2.556   2.530  0.9781 -1.8629  3.8400
 7839SOL     OW34975   2.378   1.644   9.230  0.0947  0.4147 -0.2955
 7839SOL    HW134976   2.284   1.652   9.216  0.0879 -0.2434 -0.6640
 7839SOL    HW234977   2.379   1.680   9.318 -0.3471 -0.9916  0.2871
 7840SOL     OW34978   4.141   0.782   1.888 -0.1859  0.1490 -0.4099
 7840SOL    HW134979   4.068   0.781   1.950 -0.4099  0.0285 -0.6813
 7840SOL    HW234980   4.154   0.687   1.890  0.1347  0.2165  1.2661
 7841SOL     OW34981   3.250   1.821   4.976  0.1011  0.2494  0.1193
 7841SOL    HW134982   3.199   1.852   5.051 -1.4809  1.3636 -1.4342
 7841SOL    HW234983   3.255   1.898   4.920  0.7744 -0.5509 -0.9259
 7842SOL     OW34984   2.915   1.733   3.589 -0.0383 -0.5008  0.0655
 7842SOL    HW134985   2.981   1.742   3.657 -1.6074  0.7600  1.4035
 7842SOL    HW234986   2.901   1.638   3.591  2.1738 -0.8272  0.0500
 7843SOL     OW34987   2.561   3.286   6.612  0.4177  0.3465 -0.3952
 7843SOL    HW134988   2.474   3.295   6.573 -0.4829  0.2044  1.5964
 7843SOL    HW234989   2.543   3.229   6.687  1.7516 -0.3195 -0.5813
 7844SOL     OW34990   0.460   4.402   8.075 -0.1491  0.9066 -0.1289
 7844SOL    HW134991   0.462   4.386   8.169  1.1253  3.0855  0.2203
 7844SOL    HW234992   0.553   4.411   8.053 -0.2272 -0.5127 -1.0424
 7845SOL     OW34993   3.372   2.958   6.300 -0.2058 -0.0889 -0.3143
 7845SOL    HW134994   3.295   2.917   6.259 -0.8945 -0.4423  1.3338
 7845SOL    HW234995   3.342   3.049   6.293 -0.4310 -0.1611 -0.3020
 7846SOL     OW34996   3.791   3.622   7.563  0.1434 -0.0707 -0.6619
 7846SOL    HW134997   3.795   3.533   7.599  1.8243 -0.0768 -0.8583
 7846SOL    HW234998   3.865   3.608   7.503  0.3060 -0.9776 -0.2548
 7847SOL     OW34999   1.055   1.414   4.049  0.2548  0.1766  0.4971
 7847SOL    HW135000   1.081   1.506   4.052  1.4874 -0.1391 -0.7958
 7847SOL    HW235001   0.979   1.406   4.107 -0.3901 -2.1809 -0.6749
 7848SOL     OW35002   0.588   3.847   8.745  0.0883  0.4216  0.3369
 7848SOL    HW135003   0.560   3.910   8.812  0.9360  1.3194 -0.1368
 7848SOL    HW235004   0.512   3.789   8.740  0.7529 -0.2796 -1.6607
 7849SOL     OW35005   1.543   0.861   2.652 -0.2654  0.3080 -0.2381
 7849SOL    HW135006   1.515   0.912   2.576  0.8719  0.7868 -0.3295
 7849SOL    HW235007   1.561   0.773   2.618  0.7129  0.0018  1.0917
 7850SOL     OW35008   1.340   2.130   4.301 -0.5034  0.6193  0.2643
 7850SOL    HW135009   1.422   2.120   4.252  0.1408 -0.9627  1.6902
 7850SOL    HW235010   1.333   2.226   4.309 -0.8985  0.6671 -0.6649
 7851SOL     OW35011   2.130   2.469   4.719  0.7187  0.2931  0.3062
 7851SOL    HW135012   2.185   2.527   4.771  0.9661 -0.4290  0.8526
 7851SOL    HW235013   2.182   2.468   4.638 -0.5725 -0.1842 -0.5214
 7852SOL     OW35014   4.269   0.936   6.432  0.2054 -0.2055 -0.5540
 7852SOL    HW135015   4.193   0.992   6.414  2.1722  2.8615  0.7380
 7852SOL    HW235016   4.328   0.981   6.492  0.9917 -1.3801 -0.4579
 7853SOL     OW35017   1.822   2.277  15.868  0.1318  0.3253 -0.3137
 7853SOL    HW135018   1.786   2.221  15.936  0.6596 -1.5569 -1.5920
 7853SOL    HW235019   1.750   2.267  15.806  0.1099 -1.8569  0.0547
 7854SOL     OW35020   2.522   3.083  17.660 -0.0506 -0.4638  0.0989
 7854SOL    HW135021   2.536   3.159  17.604 -2.7844 -0.5656 -0.7194
 7854SOL    HW235022   2.442   3.114   0.016  0.2250  0.2986  0.0560
 7855SOL     OW35023   3.652   0.459   7.910  0.2391  0.4218 -0.4001
 7855SOL    HW135024   3.656   0.467   7.815  0.4439  0.3786 -0.3948
 7855SOL    HW235025   3.592   0.528   7.936 -2.0007 -1.3131 -0.9326
 7856SOL     OW35026   1.142   0.014  11.220  0.0400  0.3199  0.3037
 7856SOL    HW135027   1.068   4.717  11.278 -1.3804  0.5878 -1.4216
 7856SOL    HW235028   1.210   0.005  11.286 -1.6551 -0.2407  1.9806
 7857SOL     OW35029   1.304   3.552   1.228 -0.1092 -0.3400  0.5690
 7857SOL    HW135030   1.396   3.529   1.216  0.2540  0.1498  2.4952
 7857SOL    HW235031   1.315   3.636   1.274  0.8494  0.7093 -1.5806
 7858SOL     OW35032   2.876   2.755   7.841  0.3110 -0.1426  0.0117
 7858SOL    HW135033   2.925   2.736   7.761  3.1753  2.5472  1.1166
 7858SOL    HW235034   2.791   2.720   7.814 -0.0081 -0.2420  1.1117
 7859SOL     OW35035   4.206   0.477   7.062 -0.3757 -0.1389 -0.1360
 7859SOL    HW135036   4.266   0.534   7.014 -1.4855  0.6095 -0.6139
 7859SOL    HW235037   4.204   0.515   7.150 -0.1942 -1.5723  0.4855
 7860SOL     OW35038   2.376   3.961  12.247 -0.2498  0.3612  0.3070
 7860SOL    HW135039   2.423   4.042  12.263  0.9871 -0.3689  0.3718
 7860SOL    HW235040   2.433   3.896  12.290  0.4183  1.0867  0.5078
 7861SOL     OW35041   0.264   4.237  15.216  0.1504  0.0843 -0.5140
 7861SOL    HW135042   0.282   4.258  15.124  1.1773 -0.0157 -0.3375
 7861SOL    HW235043   0.351   4.220  15.254  0.2328 -1.0520 -1.2013
 7862SOL     OW35044   1.073   1.959   3.464  0.8790  0.4161 -0.1772
 7862SOL    HW135045   1.031   2.025   3.410  1.3631  0.2657 -0.7333
 7862SOL    HW235046   1.028   1.971   3.548 -0.3861 -1.3453 -0.5928
 7863SOL     OW35047   0.985   0.111   6.889  0.0372  0.1095 -0.0650
 7863SOL    HW135048   1.074   0.110   6.926 -0.3267 -0.5817  0.7972
 7863SOL    HW235049   0.949   0.023   6.902  1.3726 -0.2965  0.9119
 7864SOL     OW35050   2.760   1.821   0.350 -0.0560 -0.0411 -0.6136
 7864SOL    HW135051   2.842   1.783   0.379 -0.5459 -1.2680 -0.8045
 7864SOL    HW235052   2.711   1.745   0.317 -0.6519  0.9245 -1.9902
 7865SOL     OW35053   4.314   4.151   2.048  0.5051 -0.4526  0.0971
 7865SOL    HW135054   4.242   4.130   1.989  0.9317 -0.5884 -0.3728
 7865SOL    HW235055   4.354   4.221   1.996  2.8743 -2.0904 -0.2487
 7866SOL     OW35056   1.117   0.373   5.590 -0.7533  0.1004  0.0795
 7866SOL    HW135057   1.136   0.358   5.683 -0.6122  0.2076  0.0686
 7866SOL    HW235058   1.129   0.468   5.591 -1.1804  0.1563 -0.0668
 7867SOL     OW35059   4.297   3.901   7.314  0.0368 -0.1622 -0.2981
 7867SOL    HW135060   4.344   3.982   7.298 -1.7030  0.9649  0.3121
 7867SOL    HW235061   4.212   3.931   7.281  0.7414  1.1067 -0.9286
 7868SOL     OW35062   3.464   2.516  17.411  0.1577 -0.3516  0.3364
 7868SOL    HW135063   3.503   2.571  17.480  1.8264  1.3240 -1.9504
 7868SOL    HW235064   3.522   2.440  17.415 -0.7930 -1.0056  1.7261
 7869SOL     OW35065   1.443   3.536   4.903 -0.1185  0.7370 -0.0910
 7869SOL    HW135066   1.405   3.623   4.895 -0.4985  0.4883 -0.9213
 7869SOL    HW235067   1.533   3.541   4.871  0.2501 -0.8347  0.7148
 7870SOL     OW35068   4.440   0.908   2.591  0.2440  0.1564  0.1623
 7870SOL    HW135069   4.376   0.979   2.588 -1.2802 -1.2605 -0.8045
 7870SOL    HW235070   4.412   0.854   2.665 -3.9145  0.0401 -1.5095
 7871SOL     OW35071   0.047   0.565   2.782  0.5316  0.1447 -0.1153
 7871SOL    HW135072   0.036   0.655   2.751  0.0834 -0.3418 -1.3648
 7871SOL    HW235073   0.054   0.520   2.698 -2.3044  0.7248 -0.6427
 7872SOL     OW35074   4.197   1.014   0.687 -0.0788 -0.1730  0.1289
 7872SOL    HW135075   4.170   0.923   0.679  2.9473 -0.8805 -2.3021
 7872SOL    HW235076   4.114   1.059   0.673 -0.9175 -0.9698  2.6484
 7873SOL     OW35077   3.580   0.709   9.929  0.0684  0.2779  0.3251
 7873SOL    HW135078   3.658   0.695   9.984 -0.5706 -0.8532  0.9358
 7873SOL    HW235079   3.540   0.788   9.966 -0.6898  0.2985 -0.5630
 7874SOL     OW35080   3.955   4.214   5.904  0.6620 -0.1948  0.7077
 7874SOL    HW135081   3.945   4.176   5.816  3.5155  2.3362 -0.7016
 7874SOL    HW235082   3.986   4.139   5.954 -0.1551 -0.2924  1.0698
 7875SOL     OW35083   0.718   3.243  14.458 -0.0956 -0.1354  0.3747
 7875SOL    HW135084   0.654   3.172  14.456 -1.0100  0.7130 -0.5630
 7875SOL    HW235085   0.777   3.218  14.529  0.2447  1.0963  0.5309
 7876SOL     OW35086   4.103   4.593   4.151 -0.1134 -0.4561  0.0707
 7876SOL    HW135087   4.138   4.646   4.224 -1.1390  1.0365 -0.5098
 7876SOL    HW235088   4.020   4.590   4.199  0.9355 -0.1616  1.9253
 7877SOL     OW35089   1.837   1.932   5.825 -0.6030 -0.3891  1.0763
 7877SOL    HW135090   1.796   1.852   5.859 -2.2154 -0.1499 -0.2958
 7877SOL    HW235091   1.802   1.996   5.886 -1.3965  1.0498 -0.8814
 7878SOL     OW35092   1.699   3.729   7.191  0.4092 -0.0313 -0.2090
 7878SOL    HW135093   1.728   3.641   7.214 -0.6159 -0.3321 -0.0271
 7878SOL    HW235094   1.686   3.768   7.278  0.1918 -0.8892  0.1395
 7879SOL     OW35095   3.585   4.220  14.070 -0.2577 -0.0814 -0.0215
 7879SOL    HW135096   3.605   4.127  14.056 -2.4183 -0.9048  2.3669
 7879SOL    HW235097   3.517   4.224  14.136  3.4570 -1.1602  3.8581
 7880SOL     OW35098   1.379   1.366  16.083  0.0116  0.0653  0.1922
 7880SOL    HW135099   1.318   1.435  16.057 -0.8163 -1.0696 -0.8448
 7880SOL    HW235100   1.414   1.342  15.997 -0.6596 -0.5554  0.0989
 7881SOL     OW35101   1.297   3.828   9.534  0.0924  0.3736  0.7503
 7881SOL    HW135102   1.362   3.890   9.501  2.4123 -1.9796  0.8821
 7881SOL    HW235103   1.310   3.839   9.628  0.5478 -0.2850  0.7653
 7882SOL     OW35104   0.347   0.992   1.054  0.2839 -0.1247 -0.0637
 7882SOL    HW135105   0.377   0.927   1.117 -0.0227  0.7775  1.0195
 7882SOL    HW235106   0.309   0.940   0.983 -0.4065  0.7113 -0.3145
 7883SOL     OW35107   3.537   0.651   8.495 -0.3905  0.8238  0.1084
 7883SOL    HW135108   3.633   0.653   8.498 -0.4231  0.9371  0.9871
 7883SOL    HW235109   3.519   0.573   8.548 -2.1656  0.1475 -1.4928
 7884SOL     OW35110   1.974   1.639   2.110  0.0963  0.2756  0.7180
 7884SOL    HW135111   2.055   1.597   2.080 -0.2469  0.7263 -0.8843
 7884SOL    HW235112   2.003   1.702   2.175  1.7500 -0.5517  0.7837
 7885SOL     OW35113   4.375   0.390   2.632 -0.0376  0.2650 -0.2486
 7885SOL    HW135114   4.393   0.299   2.655 -2.0139  0.1774  0.9838
 7885SOL    HW235115   4.338   0.373   2.545  0.1511 -0.6149 -0.1593
 7886SOL     OW35116   0.371   3.768   6.462 -0.1978 -0.0113  0.2337
 7886SOL    HW135117   0.411   3.699   6.410  0.4938  0.7667 -0.2823
 7886SOL    HW235118   0.368   3.737   6.553 -0.2756  3.4221  1.4092
 7887SOL     OW35119   2.343   3.993   4.396  0.4278  0.1417 -0.3436
 7887SOL    HW135120   2.389   3.909   4.401 -1.1863 -0.6126  2.3447
 7887SOL    HW235121   2.333   4.004   4.302  0.6524 -0.6308 -0.4564
 7888SOL     OW35122   2.395   2.763   6.644  0.2268 -0.3880  0.0247
 7888SOL    HW135123   2.360   2.738   6.729 -0.0479  1.8306  0.5374
 7888SOL    HW235124   2.327   2.727   6.588  0.2260 -0.5764  0.1470
 7889SOL     OW35125   3.834   0.144   3.024  0.8619  0.4780 -0.1489
 7889SOL    HW135126   3.827   0.240   3.017  1.6681  0.4485 -1.3620
 7889SOL    HW235127   3.925   0.136   2.996  0.0602 -1.2634 -2.1954
 7890SOL     OW35128   1.433   3.573   7.224  0.0738  0.1655  0.2030
 7890SOL    HW135129   1.413   3.546   7.134 -1.0532 -0.4540  0.6329
 7890SOL    HW235130   1.520   3.535   7.231 -0.0301 -0.4294 -1.5955
 7891SOL     OW35131   3.307   0.181   2.717  0.0669  0.8299 -0.6026
 7891SOL    HW135132   3.249   0.151   2.647 -0.3266  0.1409  0.0178
 7891SOL    HW235133   3.322   0.271   2.686  1.0915 -0.0395 -2.5729
 7892SOL     OW35134   4.273   1.916   3.852  0.3636  0.6472 -0.1223
 7892SOL    HW135135   4.229   1.977   3.793 -0.7708  1.7775  1.9053
 7892SOL    HW235136   4.221   1.913   3.933 -0.4877  1.5406 -0.6357
 7893SOL     OW35137   3.054   3.120  17.407  0.1282 -0.6738  0.0799
 7893SOL    HW135138   3.073   3.191  17.468  0.1976 -0.6583  0.0394
 7893SOL    HW235139   3.135   3.104  17.359 -0.5829  0.3282 -1.4633
 7894SOL     OW35140   2.026   4.442  16.078 -0.2720  0.2021 -0.1141
 7894SOL    HW135141   2.109   4.461  16.034  0.8460 -0.2195  1.8180
 7894SOL    HW235142   1.994   4.531  16.091  0.0707  0.2621  0.3114
 7895SOL     OW35143   3.109   3.718   3.044 -0.5659 -0.5204  0.5941
 7895SOL    HW135144   3.051   3.689   2.973 -0.7914  2.9116 -0.6244
 7895SOL    HW235145   3.144   3.800   3.011 -1.7542 -0.6832 -1.0537
 7896SOL     OW35146   4.035   1.139  14.531  0.6251 -0.3805  0.1085
 7896SOL    HW135147   3.963   1.080  14.508  0.5731 -0.0302 -0.6299
 7896SOL    HW235148   4.056   1.180  14.447 -2.6870 -1.1529 -1.1044
 7897SOL     OW35149   3.496   0.695   9.676 -0.1299  0.5378 -0.2690
 7897SOL    HW135150   3.513   0.716   9.768  1.6778 -1.2606 -0.1928
 7897SOL    HW235151   3.403   0.717   9.678 -0.2392  0.3754 -2.9145
 7898SOL     OW35152   4.714   1.673   5.941 -0.5757  0.4562  0.5383
 7898SOL    HW135153   4.624   1.706   5.932 -0.5527  0.2188 -0.5473
 7898SOL    HW235154   0.037   1.717   5.868 -0.5555 -0.3000  0.0913
 7899SOL     OW35155   0.065   2.115   0.155 -0.2555  0.1140  0.5130
 7899SOL    HW135156   0.112   2.170   0.218  1.3327 -1.6949  0.9041
 7899SOL    HW235157   4.714   2.177   0.146  0.3593  0.4929 -1.7826
 7900SOL     OW35158   4.290   2.841   7.472 -0.6608 -0.0391  0.6635
 7900SOL    HW135159   4.243   2.758   7.470  2.2138 -1.6239 -1.9214
 7900SOL    HW235160   4.357   2.812   7.534 -0.4015 -2.0512 -0.5785
 7901SOL     OW35161   1.937   0.885   7.284 -1.2708  0.8288  0.0611
 7901SOL    HW135162   1.866   0.901   7.345 -2.4608 -0.5846 -0.9473
 7901SOL    HW235163   2.014   0.914   7.333 -1.2545  1.0086 -0.0725
 7902SOL     OW35164   2.205   3.505   2.524  0.0206  0.7637 -0.2282
 7902SOL    HW135165   2.252   3.434   2.568 -1.5429  0.5227  1.0094
 7902SOL    HW235166   2.196   3.568   2.595 -0.1241 -1.1853  1.4831
 7903SOL     OW35167   2.233   0.211   4.017  0.1979 -0.1277  0.0181
 7903SOL    HW135168   2.211   0.223   4.109  0.9638 -1.1467  0.3282
 7903SOL    HW235169   2.227   0.117   4.001 -0.2638 -0.3861  1.8126
 7904SOL     OW35170   1.778   3.352  15.354 -0.1455  0.1966  0.3287
 7904SOL    HW135171   1.714   3.407  15.307 -1.0980 -0.7139  0.5689
 7904SOL    HW235172   1.727   3.273  15.369 -0.4655  0.2722 -0.3436
 7905SOL     OW35173   1.789   1.832   8.449  0.4593  0.0537 -0.2584
 7905SOL    HW135174   1.861   1.894   8.463 -1.4449  1.7591  1.8766
 7905SOL    HW235175   1.815   1.816   8.358  0.0611  0.4911 -0.4460
 7906SOL     OW35176   2.526   4.653   4.441 -0.4207  0.0626 -0.3866
 7906SOL    HW135177   2.517   0.002   4.376  0.5993 -0.5402 -1.1771
 7906SOL    HW235178   2.443   4.662   4.488  0.4642  1.1215  0.9607
 7907SOL     OW35179   0.921   2.962  11.512  0.0352 -0.5377  0.0481
 7907SOL    HW135180   0.945   3.025  11.581 -2.2009  0.6500 -0.2509
 7907SOL    HW235181   0.972   2.884  11.532 -0.3423 -0.4441  1.3782
 7908SOL     OW35182   4.339   2.351   5.012 -0.5318 -0.6386 -0.2153
 7908SOL    HW135183   4.397   2.275   5.007 -0.6110 -0.7583  0.6665
 7908SOL    HW235184   4.254   2.307   5.017 -0.7600 -0.2194 -0.3974
 7909SOL     OW35185   4.401   3.538  10.670  0.6556 -0.4124  0.0856
 7909SOL    HW135186   4.323   3.582  10.637  0.3136 -0.7190  0.4811
 7909SOL    HW235187   4.427   3.500  10.586 -1.4257  0.9658 -1.1545
 7910SOL     OW35188   2.466   4.338   7.651  0.0778 -0.1033  0.0393
 7910SOL    HW135189   2.449   4.428   7.679 -0.8499 -0.6401  1.1815
 7910SOL    HW235190   2.540   4.356   7.592  0.2269  0.9987  0.5619
 7911SOL     OW35191   4.433   1.422   4.930 -0.0460 -0.2354  0.4085
 7911SOL    HW135192   4.363   1.418   4.996  0.2669  1.9808  0.8953
 7911SOL    HW235193   4.505   1.382   4.977 -0.5095  1.2272  2.3819
 7912SOL     OW35194   0.677   1.399  17.673 -0.3744  0.7190  0.5649
 7912SOL    HW135195   0.665   1.391   0.081 -0.9028 -1.1834  0.3468
 7912SOL    HW235196   0.630   1.318  17.652 -2.2629  2.0516 -0.2929
 7913SOL     OW35197   0.172   3.323   6.521 -0.1615  0.2122 -0.4349
 7913SOL    HW135198   0.099   3.328   6.583 -0.1503  1.2533 -0.5172
 7913SOL    HW235199   0.132   3.361   6.444  1.0320 -0.9464 -1.6421
 7914SOL     OW35200   4.279   3.539   4.583 -0.4617 -0.3090  0.3563
 7914SOL    HW135201   4.372   3.532   4.561 -0.6374 -0.6931 -0.2417
 7914SOL    HW235202   4.249   3.472   4.522  1.2397 -1.9772  1.3372
 7915SOL     OW35203   2.779   2.253   0.334 -0.0372 -0.2386 -0.8285
 7915SOL    HW135204   2.842   2.181   0.335 -1.3222 -1.3910 -2.5373
 7915SOL    HW235205   2.800   2.307   0.409  0.7369 -1.2166 -0.3344
 7916SOL     OW35206   3.822   4.537   7.629  0.0730  0.1880  0.2739
 7916SOL    HW135207   3.864   4.614   7.591  1.3925 -0.8056 -0.2786
 7916SOL    HW235208   3.737   4.539   7.587 -0.1025  1.0098  0.6809
 7917SOL     OW35209   0.169   4.432  17.507 -0.1986  0.4398 -0.1761
 7917SOL    HW135210   0.217   4.432  17.424  0.6817  0.6009  0.3272
 7917SOL    HW235211   0.082   4.403  17.480  0.4407 -0.4208 -1.3100
 7918SOL     OW35212   2.504   0.486  10.130  0.6488 -0.1630 -0.3608
 7918SOL    HW135213   2.479   0.445  10.213  2.7279 -0.0867  0.3025
 7918SOL    HW235214   2.419   0.489  10.086 -0.4421  0.1145  1.7526
 7919SOL     OW35215   4.247   2.709   1.848 -0.3710  0.2219  0.3251
 7919SOL    HW135216   4.199   2.698   1.766 -0.9597 -1.2922  0.8647
 7919SOL    HW235217   4.178   2.689   1.912  0.6693 -0.3089  1.2768
 7920SOL     OW35218   0.445   3.288  17.664  0.2062 -0.1086  0.0836
 7920SOL    HW135219   0.509   3.246  17.606  3.5155  2.6995  1.6846
 7920SOL    HW235220   0.463   3.382  17.660  1.0714 -0.2368  0.7930
 7921SOL     OW35221   0.274   1.415   6.090  0.2305 -0.5502  0.1797
 7921SOL    HW135222   0.328   1.350   6.133  0.8732  2.1043  3.3968
 7921SOL    HW235223   0.308   1.417   6.000 -2.2101 -4.1347 -0.8073
 7922SOL     OW35224   0.232   2.299   7.929  0.7912 -0.3922  0.4093
 7922SOL    HW135225   0.148   2.341   7.908 -0.2123 -1.6248  2.0066
 7922SOL    HW235226   0.286   2.376   7.945 -2.0200  1.4039  1.2953
 7923SOL     OW35227   0.947   1.983   4.252 -0.0239 -0.0507 -0.3128
 7923SOL    HW135228   0.874   1.966   4.191 -0.1611 -1.3186  0.2031
 7923SOL    HW235229   0.896   1.999   4.331 -0.0875  0.5212 -0.4675
 7924SOL     OW35230   2.212   4.173   8.438 -0.3109  0.4436 -0.0696
 7924SOL    HW135231   2.287   4.128   8.399  1.4820  1.9184  1.6109
 7924SOL    HW235232   2.140   4.110   8.443  1.2360 -1.5347 -2.6364
 7925SOL     OW35233   2.610   0.313   1.611 -0.9729 -0.5736  0.2287
 7925SOL    HW135234   2.592   0.365   1.690  1.2360  0.9014 -0.2523
 7925SOL    HW235235   2.616   0.226   1.651 -0.2287  0.7136  2.9533
 7926SOL     OW35236   1.140   1.097   7.194  0.4744 -0.8745  0.0159
 7926SOL    HW135237   1.055   1.112   7.153  0.9569 -0.5601 -0.8963
 7926SOL    HW235238   1.170   1.188   7.197 -0.7192 -0.4863  0.2554
 7927SOL     OW35239   1.506   1.059   2.451  0.2525  0.4972 -0.5323
 7927SOL    HW135240   1.561   1.102   2.385 -0.8806  1.0017 -1.1387
 7927SOL    HW235241   1.428   1.037   2.401  0.6694 -3.1910  0.4278
 7928SOL     OW35242   0.339   1.053  17.402  0.0448 -0.0188 -0.1937
 7928SOL    HW135243   0.388   1.003  17.467  1.0475  1.7871  0.4163
 7928SOL    HW235244   0.252   1.014  17.408 -0.6518  1.6350  0.3618
 7929SOL     OW35245   3.131   2.744   1.389 -0.5503  0.5838 -0.4153
 7929SOL    HW135246   3.144   2.693   1.470 -1.5145  0.9232 -0.0440
 7929SOL    HW235247   3.087   2.822   1.423 -0.9502  1.3470 -2.7360
 7930SOL     OW35248   0.567   1.030   5.527  0.1227  0.6293 -0.2095
 7930SOL    HW135249   0.555   1.044   5.433 -1.6034  0.1446 -0.0675
 7930SOL    HW235250   0.537   0.941   5.547 -0.8757  1.1867  0.8231
 7931SOL     OW35251   0.066   1.506   8.154 -0.1856 -0.2314 -0.6543
 7931SOL    HW135252   4.712   1.469   8.201  1.4336 -0.4580  1.7434
 7931SOL    HW235253   0.107   1.422   8.132  1.7099  1.1213 -2.2854
 7932SOL     OW35254   4.635   3.435   1.595 -0.0419 -0.1192 -0.0125
 7932SOL    HW135255   4.655   3.463   1.506 -2.6960  1.8628  0.0223
 7932SOL    HW235256   4.540   3.435   1.600  0.1124  1.4149  2.7769
 7933SOL     OW35257   0.460   1.570   4.007 -0.0212  0.6234 -0.6116
 7933SOL    HW135258   0.503   1.520   4.076 -0.9630  1.2284  0.4109
 7933SOL    HW235259   0.455   1.658   4.044  0.9788  1.2251 -1.9284
 7934SOL     OW35260   3.849   3.236   0.763 -0.1415  0.2283  0.1084
 7934SOL    HW135261   3.919   3.275   0.712 -1.7417  1.6120 -1.0240
 7934SOL    HW235262   3.831   3.302   0.830 -1.7376  1.2037 -1.2924
 7935SOL     OW35263   4.168   0.817   5.081  0.0192 -0.1501  0.5809
 7935SOL    HW135264   4.174   0.813   5.176  1.3416 -0.5963  0.4869
 7935SOL    HW235265   4.202   0.731   5.056 -1.2591 -1.6203  3.9352
 7936SOL     OW35266   3.569   1.935   6.438  0.2901  0.0558  0.3599
 7936SOL    HW135267   3.531   2.016   6.404 -0.7461 -1.1501 -1.4185
 7936SOL    HW235268   3.529   1.872   6.377 -0.8296 -0.7813  1.9488
 7937SOL     OW35269   4.020   4.584  14.634 -1.0306  0.2453  0.0013
 7937SOL    HW135270   4.058   4.566  14.720 -0.2600  0.9687 -0.1842
 7937SOL    HW235271   4.091   4.637  14.597 -0.0579 -1.2809 -0.3383
 7938SOL     OW35272   2.715   4.021   4.050  0.9019 -0.0169 -0.0774
 7938SOL    HW135273   2.750   3.936   4.022  1.5853  0.2197  0.0506
 7938SOL    HW235274   2.704   4.007   4.144 -1.1525  2.5914  0.0546
 7939SOL     OW35275   0.368   0.350  11.257 -0.0356  0.0130 -0.6537
 7939SOL    HW135276   0.276   0.342  11.282 -0.3679  0.6114 -1.6658
 7939SOL    HW235277   0.399   0.273  11.304 -2.3385 -1.0031 -0.7779
 7940SOL     OW35278   1.829   2.402   5.395 -0.5205 -0.0679  0.4711
 7940SOL    HW135279   1.915   2.362   5.407  0.4806  1.4918 -1.4614
 7940SOL    HW235280   1.824   2.474   5.458 -1.3710  1.5628 -1.4474
 7941SOL     OW35281   2.520   4.531   0.161  0.3887 -0.2525 -0.1588
 7941SOL    HW135282   2.455   4.464   0.141 -1.4243  1.6538 -0.5714
 7941SOL    HW235283   2.528   4.572   0.075 -2.1034  0.2388 -0.1329
 7942SOL     OW35284   1.062   2.628   3.646 -0.4338  0.2915 -0.5066
 7942SOL    HW135285   0.967   2.631   3.632 -0.7505 -0.8203  1.2831
 7942SOL    HW235286   1.068   2.659   3.736  2.4022  1.2256 -1.0415
 7943SOL     OW35287   3.360   2.194   3.129 -0.7534  0.1686  0.0198
 7943SOL    HW135288   3.301   2.177   3.056  3.5224 -1.1230 -3.1424
 7943SOL    HW235289   3.324   2.278   3.156 -0.4888  0.3093 -0.0626
 7944SOL     OW35290   1.374   2.267   2.893 -0.1439 -0.1057  0.1440
 7944SOL    HW135291   1.460   2.290   2.927 -1.2263 -0.4085  3.0656
 7944SOL    HW235292   1.340   2.213   2.964 -1.4618  1.8905  1.0006
 7945SOL     OW35293   2.603   1.033   3.356 -0.8030 -0.7792 -0.2208
 7945SOL    HW135294   2.678   1.005   3.303 -1.6258 -0.8729 -1.3253
 7945SOL    HW235295   2.644   1.079   3.430 -0.1540 -2.2854  0.3646
 7946SOL     OW35296   3.060   1.838   9.748  0.0428 -0.6942 -0.4937
 7946SOL    HW135297   2.983   1.881   9.710  0.1112  0.6091  0.8216
 7946SOL    HW235298   3.028   1.810   9.834  0.6984  1.2019  0.3687
 7947SOL     OW35299   1.140   1.265  13.054 -0.1118 -0.1742 -0.0850
 7947SOL    HW135300   1.132   1.358  13.073 -0.4964 -0.3717  0.7250
 7947SOL    HW235301   1.055   1.222  13.067 -0.2191 -0.3216 -1.2930
 7948SOL     OW35302   3.753   4.634   2.500  0.2539  0.2469 -0.1972
 7948SOL    HW135303   3.670   4.637   2.547 -1.2082  0.2611 -2.8098
 7948SOL    HW235304   3.720   4.619   2.412 -0.1072  1.0775 -0.2039
 7949SOL     OW35305   2.582   4.345   8.036 -0.7481 -0.7027 -0.1246
 7949SOL    HW135306   2.655   4.382   7.987 -0.8222 -2.1488 -1.3247
 7949SOL    HW235307   2.536   4.426   8.058  0.0402 -0.0266 -0.9651
 7950SOL     OW35308   1.199   2.132   3.058  0.3488 -0.5713  0.1487
 7950SOL    HW135309   1.188   2.066   3.126 -1.4436 -1.3216 -0.8486
 7950SOL    HW235310   1.193   2.080   2.977 -0.4258 -1.5524  0.8363
 7951SOL     OW35311   4.480   3.913  11.968  0.1225  0.1383  0.0607
 7951SOL    HW135312   4.396   3.867  11.975 -0.1389  0.9130  2.0097
 7951SOL    HW235313   4.510   3.915  12.059 -1.4793 -2.3746  0.6605
 7952SOL     OW35314   2.212   2.336  10.955 -0.0349 -0.1488  0.3360
 7952SOL    HW135315   2.175   2.366  10.873  1.8745  1.5147  0.0740
 7952SOL    HW235316   2.237   2.424  10.983 -0.9996 -0.0730  0.9692
 7953SOL     OW35317   3.688   4.257   2.218  0.1372  0.0382 -0.4459
 7953SOL    HW135318   3.780   4.260   2.191  0.4943  1.0137  0.9222
 7953SOL    HW235319   3.648   4.177   2.184 -0.9255  0.2391  0.3511
 7954SOL     OW35320   4.206   3.409   0.343  0.9400 -0.2948  0.2132
 7954SOL    HW135321   4.150   3.481   0.373 -0.2391 -1.5383  1.0038
 7954SOL    HW235322   4.150   3.349   0.295  0.8158 -0.7311  0.9017
 7955SOL     OW35323   0.178   1.253   0.440 -0.4922 -0.3193 -0.0536
 7955SOL    HW135324   0.098   1.284   0.483  0.1275 -2.5493  2.6841
 7955SOL    HW235325   0.224   1.336   0.457  0.2542 -0.6933 -0.2494
 7956SOL     OW35326   1.506   2.819   3.040 -0.2459  0.3626  0.1529
 7956SOL    HW135327   1.487   2.730   3.068 -0.7954 -0.2839 -2.3243
 7956SOL    HW235328   1.599   2.810   3.020 -0.6304  1.5055 -2.1386
 7957SOL     OW35329   3.434   4.606   1.743 -0.2241 -0.8262  0.4114
 7957SOL    HW135330   3.432   4.664   1.667 -2.4731  0.6780  1.6203
 7957SOL    HW235331   3.396   4.530   1.700 -0.5802 -0.2341 -0.3185
 7958SOL     OW35332   1.941   3.676   4.306 -0.4829 -0.0363  0.1245
 7958SOL    HW135333   1.941   3.767   4.337  0.0565  0.5569 -1.6214
 7958SOL    HW235334   1.980   3.632   4.382 -1.4735 -0.5701  0.3275
 7959SOL     OW35335   4.366   0.966   4.113  0.3248 -0.1453 -0.0200
 7959SOL    HW135336   4.313   0.886   4.106 -0.6224  0.3431  1.5790
 7959SOL    HW235337   4.385   0.995   4.024  0.6798  0.3596  0.2248
 7960SOL     OW35338   0.708   2.087  10.975 -0.0036  0.0414 -0.0045
 7960SOL    HW135339   0.751   2.054  11.054 -1.3586 -3.3625 -0.7340
 7960SOL    HW235340   0.654   2.153  11.018  1.5684  1.9080 -0.8520
 7961SOL     OW35341   1.961   1.331   7.436 -0.3814  0.5578  0.0528
 7961SOL    HW135342   1.981   1.289   7.352  1.8922 -0.4703  1.1184
 7961SOL    HW235343   1.899   1.265   7.468  0.9766 -0.6857  0.1377
 7962SOL     OW35344   0.808   0.833   4.890 -0.2306 -0.0749 -0.0726
 7962SOL    HW135345   0.791   0.747   4.928  1.2105  0.3349  1.4955
 7962SOL    HW235346   0.735   0.887   4.922  0.5943  1.3270 -0.5687
 7963SOL     OW35347   2.972   1.514   9.132  0.6193  0.2826  0.7395
 7963SOL    HW135348   2.979   1.433   9.082  2.0121  0.9400 -0.1320
 7963SOL    HW235349   2.888   1.509   9.178  0.0724  2.4449 -0.0095
 7964SOL     OW35350   1.334   2.132  17.293  0.9486  0.0490 -0.1827
 7964SOL    HW135351   1.411   2.154  17.345 -0.7448 -1.0274  2.7371
 7964SOL    HW235352   1.367   2.078  17.221  0.1540 -0.3976 -0.2181
 7965SOL     OW35353   4.055   1.840   6.868 -0.0448  0.0518  0.2248
 7965SOL    HW135354   3.996   1.794   6.928  0.1564 -1.8561 -1.0009
 7965SOL    HW235355   4.014   1.925   6.857  2.1933  1.1517  0.4524
 7966SOL     OW35356   0.950   3.153  13.213 -0.7403  0.6001 -0.2025
 7966SOL    HW135357   0.969   3.060  13.223  3.5074  1.4438 -0.4553
 7966SOL    HW235358   1.006   3.196  13.277  0.3879 -0.2922 -0.5784
 7967SOL     OW35359   4.537   3.770   2.664  0.3366  0.1506 -0.0786
 7967SOL    HW135360   4.449   3.741   2.686  0.9075 -1.2674  0.2810
 7967SOL    HW235361   4.569   3.682   2.645 -0.2616 -0.1191  0.1747
 7968SOL     OW35362   2.204   0.071   3.416  0.5049  0.1079 -0.1357
 7968SOL    HW135363   2.213   0.016   3.338  0.3698  2.3204 -1.7102
 7968SOL    HW235364   2.180   0.155   3.378  0.0248  0.1456  0.2421
 7969SOL     OW35365   2.260   1.533   1.507  0.1966 -0.6707 -0.3025
 7969SOL    HW135366   2.200   1.463   1.532 -2.0234  1.9332  1.6536
 7969SOL    HW235367   2.208   1.565   1.433  1.9717 -2.1094 -2.1555
 7970SOL     OW35368   3.317   0.572   5.024  0.3472  0.2839  0.6121
 7970SOL    HW135369   3.289   0.517   5.097 -0.4993  1.4221  1.1393
 7970SOL    HW235370   3.409   0.585   5.044  0.2680  0.1925  1.0270
 7971SOL     OW35371   0.554   4.262   2.014 -0.4305 -0.8399 -0.6110
 7971SOL    HW135372   0.496   4.277   2.089 -0.4274 -1.2836 -0.5203
 7971SOL    HW235373   0.585   4.174   2.036  0.9870 -0.3011 -0.4224
 7972SOL     OW35374   2.370   1.711   7.751  0.3259 -0.5736  0.0108
 7972SOL    HW135375   2.337   1.621   7.757 -1.1778  0.0107  0.4737
 7972SOL    HW235376   2.319   1.769   7.807  0.2569 -1.0350  0.4216
 7973SOL     OW35377   3.729   4.398   5.860  0.8913  0.4687 -0.1376
 7973SOL    HW135378   3.646   4.380   5.905  0.6607 -2.0564 -1.5377
 7973SOL    HW235379   3.793   4.341   5.903  1.7804  0.9688 -0.8125
 7974SOL     OW35380   2.319   1.140   3.940 -0.3406  0.1151  0.4748
 7974SOL    HW135381   2.276   1.224   3.957 -0.2572 -0.1311  1.8972
 7974SOL    HW235382   2.345   1.151   3.848  0.7935 -0.1866  0.7607
 7975SOL     OW35383   3.682   1.654   2.641  0.0702  0.1027  0.3022
 7975SOL    HW135384   3.590   1.643   2.616  0.7206  0.7759 -2.3304
 7975SOL    HW235385   3.686   1.743   2.676 -2.9610  0.4005 -0.0912
 7976SOL     OW35386   4.244   4.263   8.088 -0.0105  0.6314 -0.6200
 7976SOL    HW135387   4.219   4.258   8.180  0.5610 -4.2276 -0.7596
 7976SOL    HW235388   4.182   4.210   8.037  1.8438 -1.3012 -0.8402
 7977SOL     OW35389   2.034   2.526   9.196  0.0261 -0.0876 -0.3627
 7977SOL    HW135390   2.128   2.544   9.200  0.3537 -2.0258  0.4265
 7977SOL    HW235391   2.039   2.435   9.167 -2.3042 -0.4192  0.2764
 7978SOL     OW35392   4.126   4.360   7.191 -0.3610 -0.0855 -0.0335
 7978SOL    HW135393   4.210   4.356   7.237  0.8351 -1.6099 -2.3778
 7978SOL    HW235394   4.156   4.360   7.100  0.0126  0.8314  0.0851
 7979SOL     OW35395   3.886   0.036   7.467 -0.0502  0.5136 -0.2456
 7979SOL    HW135396   3.974   0.070   7.448  1.6568 -1.9540  3.1737
 7979SOL    HW235397   3.852   0.008   7.382  2.1464 -2.4453 -0.1696
 7980SOL     OW35398   4.410   0.566   6.558  0.2989 -0.3654 -0.5897
 7980SOL    HW135399   4.473   0.636   6.540  0.1794  0.1777  1.1405
 7980SOL    HW235400   4.437   0.500   6.494 -0.6871  0.4001 -1.8002
 7981SOL     OW35401   0.060   0.209  12.631  0.2440  0.3365 -0.4567
 7981SOL    HW135402   0.109   0.257  12.564 -0.8746  0.2510 -1.3310
 7981SOL    HW235403   0.019   0.278  12.683 -1.0903 -1.1375  0.4275
 7982SOL     OW35404   2.778   2.613  14.935 -0.5918 -0.1088 -0.1208
 7982SOL    HW135405   2.862   2.636  14.897 -1.1107  0.3843 -0.9575
 7982SOL    HW235406   2.724   2.687  14.908  0.0401 -0.5498 -2.6001
 7983SOL     OW35407   3.978   3.460   3.632 -0.1799 -0.0842 -0.5132
 7983SOL    HW135408   3.923   3.429   3.704 -0.9838  3.0394  0.2225
 7983SOL    HW235409   3.938   3.541   3.601  0.1583  0.8629  1.5800
 7984SOL     OW35410   0.539   1.867   4.697  0.2767  0.3668 -0.9118
 7984SOL    HW135411   0.593   1.812   4.753 -0.6005  1.2735  0.8004
 7984SOL    HW235412   0.512   1.934   4.759  1.4296 -2.1864  2.3067
 7985SOL     OW35413   2.090   0.179   4.867  0.3371  0.2763 -0.1430
 7985SOL    HW135414   2.037   0.101   4.848 -0.7237  0.7349  0.9454
 7985SOL    HW235415   2.177   0.140   4.874  0.5601  0.3582 -2.2981
 7986SOL     OW35416   1.101   0.070   7.618 -0.1458  0.5031 -0.0493
 7986SOL    HW135417   1.188   0.061   7.580  0.5675  1.5426  1.3432
 7986SOL    HW235418   1.111   0.153   7.664  1.5980 -0.0686  0.6144
 7987SOL     OW35419   3.658   4.534   6.297 -0.5905 -0.3485  0.4162
 7987SOL    HW135420   3.624   4.445   6.300 -0.4665 -0.4407 -1.1654
 7987SOL    HW235421   3.580   4.589   6.307 -0.4671 -0.0525 -0.2553
 7988SOL     OW35422   2.966   0.259  16.515 -0.3042  0.2180  0.4207
 7988SOL    HW135423   2.917   0.217  16.444  0.3133 -0.0491  0.1534
 7988SOL    HW235424   2.938   0.199  16.585 -0.6258  0.5070  0.5390
 7989SOL     OW35425   2.234   3.342   7.748 -0.9580 -0.1290 -0.3086
 7989SOL    HW135426   2.266   3.363   7.836 -1.3033  2.1963 -0.7579
 7989SOL    HW235427   2.142   3.328   7.769 -0.7938 -0.3523  0.2700
 7990SOL     OW35428   4.397   3.120   7.456  0.5946 -0.0063 -0.3963
 7990SOL    HW135429   4.382   3.027   7.469  0.9263 -0.5357 -3.5877
 7990SOL    HW235430   4.491   3.114   7.440  0.6384 -0.7693  0.1692
 7991SOL     OW35431   3.127   1.910   7.259  0.1817  0.8387  0.3251
 7991SOL    HW135432   3.099   1.998   7.234 -1.8736 -0.5773 -2.3418
 7991SOL    HW235433   3.198   1.934   7.319  1.6320 -2.0374 -0.2328
 7992SOL     OW35434   1.360   4.259   3.274  0.2497  0.4974 -0.4311
 7992SOL    HW135435   1.384   4.169   3.298 -0.1152  0.2684 -0.9188
 7992SOL    HW235436   1.446   4.293   3.250  1.0881 -0.7103  0.7899
 7993SOL     OW35437   1.898   0.706  16.062  0.6073  0.4873 -0.1484
 7993SOL    HW135438   1.836   0.695  15.990 -0.7906 -3.1846  1.5644
 7993SOL    HW235439   1.980   0.721  16.017  1.5554 -0.4004  1.2571
 7994SOL     OW35440   2.609   3.027  14.279 -0.4989 -0.5010  0.3492
 7994SOL    HW135441   2.677   2.989  14.335 -0.4494 -1.5159 -0.3985
 7994SOL    HW235442   2.652   3.009  14.195 -0.6786  0.5032  0.0337
 7995SOL     OW35443   2.642   4.077   5.915 -1.0630 -0.3964  0.3100
 7995SOL    HW135444   2.705   4.041   5.977 -1.3369 -0.4468  0.5568
 7995SOL    HW235445   2.658   4.170   5.932 -0.2994 -0.2202 -1.3188
 7996SOL     OW35446   4.073   3.138   3.271  0.5623 -0.1288 -0.1332
 7996SOL    HW135447   4.008   3.087   3.223  1.4441 -1.5416  0.1534
 7996SOL    HW235448   4.057   3.227   3.240  0.1965 -0.6588 -1.4705
 7997SOL     OW35449   0.224   3.513  10.153 -0.0642  0.0637  0.0775
 7997SOL    HW135450   0.318   3.514  10.171 -0.4160  0.0599  1.9877
 7997SOL    HW235451   0.219   3.480  10.064 -1.3056  0.1839  0.1029
 7998SOL     OW35452   4.191   2.862   8.908 -0.4184  0.5726 -0.0702
 7998SOL    HW135453   4.192   2.951   8.943 -3.3473 -0.4805  2.7059
 7998SOL    HW235454   4.281   2.840   8.931 -0.4399  1.4260  0.8493
 7999SOL     OW35455   0.651   1.455   1.796  0.3273 -0.0568 -0.2012
 7999SOL    HW135456   0.622   1.372   1.760  0.2039  0.8840 -2.2839
 7999SOL    HW235457   0.588   1.517   1.759  0.9824  2.3931  2.7491
 8000SOL     OW35458   3.553   0.501   6.791  0.4233  0.2657 -0.4334
 8000SOL    HW135459   3.579   0.591   6.810 -2.6465  0.9268  0.5751
 8000SOL    HW235460   3.572   0.489   6.698  2.5596  0.7200 -0.0396
 8001SOL     OW35461   1.109   4.635  16.169 -0.5027 -1.0477  0.1920
 8001SOL    HW135462   1.196   4.663  16.138 -0.2222  1.3188  3.1418
 8001SOL    HW235463   1.108   4.692  16.245  0.1609 -0.2685 -0.3833
 8002SOL     OW35464   3.253   1.606   8.005  0.3570 -0.0996  0.1881
 8002SOL    HW135465   3.254   1.511   8.016 -1.0559  0.0895  1.9045
 8002SOL    HW235466   3.252   1.607   7.909 -1.3178  0.4466  0.2123
 8003SOL     OW35467   0.134   0.789   7.137 -0.3218 -0.4626  0.5941
 8003SOL    HW135468   0.060   0.770   7.079  0.9190 -2.7288 -0.2685
 8003SOL    HW235469   0.091   0.821   7.216 -0.4517  1.6982 -0.3403
 8004SOL     OW35470   4.251   0.211  11.674 -0.2551 -0.4350  0.0083
 8004SOL    HW135471   4.182   0.272  11.700 -0.3069 -1.8277  3.2022
 8004SOL    HW235472   4.321   0.244  11.731 -0.0865 -1.6305  0.4910
 8005SOL     OW35473   2.179   3.359   8.468 -0.1333  0.2062 -0.3774
 8005SOL    HW135474   2.183   3.287   8.530 -2.3358  2.3785  2.3066
 8005SOL    HW235475   2.164   3.311   8.387  0.7616 -0.1012 -0.3623
 8006SOL     OW35476   0.482   0.514  12.268 -0.4510 -0.2511  0.3451
 8006SOL    HW135477   0.520   0.578  12.327 -1.0450  0.1768  0.2639
 8006SOL    HW235478   0.388   0.532  12.267 -0.7570 -1.7909  0.8251
 8007SOL     OW35479   3.005   1.266   2.649 -0.2215  0.7747  0.2524
 8007SOL    HW135480   3.023   1.349   2.607  0.7933  1.1219  1.3763
 8007SOL    HW235481   3.080   1.211   2.625 -0.9353 -0.2956  0.4287
 8008SOL     OW35482   0.750   2.361   2.812 -0.2077  0.1062  0.4982
 8008SOL    HW135483   0.658   2.369   2.783 -0.0677  1.1411  0.3241
 8008SOL    HW235484   0.751   2.355   2.907  1.9097  2.3960  0.6139
 8009SOL     OW35485   4.357   0.710   2.160 -0.8460  0.0360 -0.4342
 8009SOL    HW135486   4.435   0.655   2.171 -2.5498 -2.5348 -1.3185
 8009SOL    HW235487   4.307   0.648   2.108  0.0159 -2.3235  1.5534
 8010SOL     OW35488   0.612   4.663  16.993  0.2994 -0.2697 -0.2493
 8010SOL    HW135489   0.550   4.625  16.931 -1.5912  1.2574  0.6844
 8010SOL    HW235490   0.671   4.706  16.931 -0.3401  0.9664 -0.0051
 8011SOL     OW35491   0.202   2.296   3.688  0.4878  0.1050 -0.5886
 8011SOL    HW135492   0.194   2.206   3.657 -0.5622  0.1317 -0.3952
 8011SOL    HW235493   0.195   2.282   3.783 -1.6974  0.9706 -0.6145
 8012SOL     OW35494   0.583   4.009  11.791 -0.0857  0.0066  0.3259
 8012SOL    HW135495   0.670   3.971  11.783  0.5463  1.9232 -1.9543
 8012SOL    HW235496   0.602   4.102  11.801 -2.6244  0.7065 -1.3513
 8013SOL     OW35497   2.049   2.483   0.977  0.1665  0.2888  0.0567
 8013SOL    HW135498   2.026   2.532   0.898 -2.6666 -0.4045  0.4331
 8013SOL    HW235499   2.018   2.536   1.051 -1.3844 -0.4899 -0.0234
 8014SOL     OW35500   0.824   1.585  10.714 -0.2296 -0.5068 -0.1720
 8014SOL    HW135501   0.791   1.503  10.751 -1.8871  1.0063  1.6940
 8014SOL    HW235502   0.838   1.632  10.796  2.2245 -1.3237 -0.1033
 8015SOL     OW35503   1.336   4.338  10.374  0.2657 -0.2451 -0.3529
 8015SOL    HW135504   1.424   4.341  10.411 -0.2281  0.2097  0.7805
 8015SOL    HW235505   1.322   4.430  10.352 -4.2592 -0.6662  0.7143
 8016SOL     OW35506   1.111   0.107   5.611 -0.2645 -0.0024 -0.3602
 8016SOL    HW135507   1.152   0.081   5.528  0.9663 -0.8577  0.5232
 8016SOL    HW235508   1.121   0.201   5.596 -2.1125  0.5140  1.7879
 8017SOL     OW35509   4.561   3.115   9.069  0.1803  0.4149  0.0565
 8017SOL    HW135510   4.476   3.144   9.103  0.6914  1.0990  0.7419
 8017SOL    HW235511   4.586   3.172   8.997  1.1014  1.6905  1.3845
 8018SOL     OW35512   1.355   2.520  10.687  0.1271 -0.3790  0.0349
 8018SOL    HW135513   1.427   2.492  10.744 -0.1613 -0.1491  0.5136
 8018SOL    HW235514   1.282   2.523  10.750 -0.4248  2.5541 -0.7623
 8019SOL     OW35515   4.563   2.194  15.335  0.1809 -0.5757  0.7240
 8019SOL    HW135516   4.617   2.152  15.268  1.2860 -0.3994  1.5110
 8019SOL    HW235517   4.631   2.249  15.374  0.2304  0.3200 -0.6054
 8020SOL     OW35518   4.366   3.938  11.232  0.1470 -0.5468  0.4857
 8020SOL    HW135519   4.380   3.951  11.326 -0.6231  1.6641  0.2921
 8020SOL    HW235520   4.448   3.966  11.190 -0.5277  0.4588 -0.1747
 8021SOL     OW35521   4.188   3.999  17.585  0.2056 -0.3083 -0.0751
 8021SOL    HW135522   4.146   3.984  17.670 -0.7290 -1.7712 -0.7953
 8021SOL    HW235523   4.282   4.010  17.600  0.1564  0.1572 -0.1079
 8022SOL     OW35524   2.433   1.613   7.152 -0.1517  0.2140  0.0657
 8022SOL    HW135525   2.524   1.585   7.149  0.2098  1.4421 -0.7263
 8022SOL    HW235526   2.426   1.639   7.060 -0.0454 -0.0830 -0.0230
 8023SOL     OW35527   2.322   2.190   7.709  0.6207 -0.0648  0.0377
 8023SOL    HW135528   2.350   2.281   7.709  0.5686 -0.0519 -0.6489
 8023SOL    HW235529   2.298   2.176   7.801 -0.6319  1.0857 -0.1120
 8024SOL     OW35530   1.741   1.485  10.524 -0.3689  0.3881  0.0656
 8024SOL    HW135531   1.818   1.484  10.581 -0.1590  0.3787 -0.2199
 8024SOL    HW235532   1.752   1.405  10.473  2.1432  0.5787  0.3425
 8025SOL     OW35533   0.269   1.399   6.748  0.2139 -0.6768 -0.0108
 8025SOL    HW135534   0.354   1.411   6.704  0.7781 -0.9401  1.0158
 8025SOL    HW235535   0.216   1.455   6.690  2.2275  0.2900 -0.9438
 8026SOL     OW35536   1.802   3.393   7.432 -0.5775 -0.2760  0.5267
 8026SOL    HW135537   1.877   3.448   7.454 -0.8270  0.5959 -0.8243
 8026SOL    HW235538   1.836   3.306   7.410 -3.2131 -1.6434  1.8631
 8027SOL     OW35539   0.772   1.548   4.005 -0.2181  0.3444  0.5335
 8027SOL    HW135540   0.794   1.492   4.079  1.6584 -2.2997 -2.0350
 8027SOL    HW235541   0.825   1.625   4.024  0.4293 -0.3201  1.3701
 8028SOL     OW35542   1.978   3.793  17.077 -0.1018 -0.6188 -0.1201
 8028SOL    HW135543   1.939   3.713  17.044  0.3338  0.1606 -2.4987
 8028SOL    HW235544   1.902   3.850  17.086 -0.9127 -1.9143  1.1968
 8029SOL     OW35545   0.058   1.054   6.567 -0.3523  0.2693 -0.0435
 8029SOL    HW135546   4.690   1.083   6.545 -0.7831 -1.3825 -0.4472
 8029SOL    HW235547   0.043   0.989   6.636  2.3039  1.0711  1.2638
 8030SOL     OW35548   4.104   3.651   7.193  0.1376 -0.1936 -0.3909
 8030SOL    HW135549   4.198   3.647   7.211  0.0442  1.2687  0.4370
 8030SOL    HW235550   4.087   3.742   7.215  2.7665  0.3495 -0.6093
 8031SOL     OW35551   0.781   3.618  11.901  0.3983 -0.0193  0.7912
 8031SOL    HW135552   0.753   3.607  11.810  0.3849  0.7736  0.6938
 8031SOL    HW235553   0.869   3.581  11.895  0.2280 -0.2293 -0.4044
 8032SOL     OW35554   2.355   1.494  10.317  0.3497 -0.1340 -0.0579
 8032SOL    HW135555   2.443   1.464  10.293  0.7985  0.8329  0.3410
 8032SOL    HW235556   2.353   1.562  10.249  0.7769 -0.4219 -0.3594
 8033SOL     OW35557   0.473   0.694   3.935  0.0680 -0.0576 -0.1537
 8033SOL    HW135558   0.448   0.751   4.008  1.8459 -0.4692  0.7826
 8033SOL    HW235559   0.451   0.752   3.862 -0.2057 -1.6314 -1.3256
 8034SOL     OW35560   4.560   1.942   3.371 -0.5586  0.3506 -0.9008
 8034SOL    HW135561   4.618   1.866   3.378 -1.8834 -0.6630 -0.9001
 8034SOL    HW235562   4.472   1.905   3.364 -0.4243  0.0201 -0.8865
 8035SOL     OW35563   1.015   0.065   1.003  0.1973  0.0314 -0.7090
 8035SOL    HW135564   0.986   0.097   1.089 -0.8087 -2.3958 -0.1483
 8035SOL    HW235565   0.989   4.697   1.028 -0.7264  1.0445  1.9974
 8036SOL     OW35566   2.300   0.675   7.895  0.6545 -0.6335  0.1442
 8036SOL    HW135567   2.295   0.763   7.932  2.8443  0.1119 -1.3778
 8036SOL    HW235568   2.206   0.664   7.883  0.5842 -1.1045  1.1361
 8037SOL     OW35569   4.045   0.518  12.286  0.1062 -0.6761  0.3328
 8037SOL    HW135570   3.959   0.559  12.295 -0.6087 -2.2543  0.6914
 8037SOL    HW235571   4.035   0.450  12.220  0.7168 -1.1930  0.7723
 8038SOL     OW35572   0.194   1.265   5.417  0.0782  0.6322  0.4771
 8038SOL    HW135573   0.176   1.223   5.333  0.8299 -0.2640  0.7652
 8038SOL    HW235574   0.110   1.301   5.445 -1.3658 -1.8619 -0.6248
 8039SOL     OW35575   2.924   4.437   2.037  0.3502 -0.1497 -0.0316
 8039SOL    HW135576   2.916   4.395   2.123  1.1768 -1.4148 -0.5799
 8039SOL    HW235577   3.018   4.457   2.031  0.9108 -2.6112  0.4662
 8040SOL     OW35578   4.489   4.098  11.790 -0.4112  0.4676  0.4320
 8040SOL    HW135579   4.491   4.021  11.847  0.4497  0.1113 -0.0914
 8040SOL    HW235580   4.428   4.151  11.843 -1.7682  0.8491 -1.5310
 8041SOL     OW35581   1.374   4.034   1.330  0.4040 -0.1828  0.4354
 8041SOL    HW135582   1.365   4.103   1.265 -0.9216 -2.5121 -1.8807
 8041SOL    HW235583   1.311   4.075   1.389 -0.3327  1.9356 -1.8467
 8042SOL     OW35584   4.100   3.189  13.496  0.0075  0.2034 -0.0148
 8042SOL    HW135585   4.157   3.265  13.506 -3.5309  2.6287  1.7831
 8042SOL    HW235586   4.124   3.144  13.577  1.3284  0.2507 -0.3802
 8043SOL     OW35587   0.264   4.019   9.671 -0.3242  0.1731 -0.0159
 8043SOL    HW135588   0.345   3.970   9.657  0.6882  1.7638  0.3847
 8043SOL    HW235589   0.196   3.961   9.636 -1.5527  1.6637 -0.0928
 8044SOL     OW35590   4.186   1.536   2.933 -0.0505 -0.2782 -0.0889
 8044SOL    HW135591   4.177   1.528   2.838  1.0004 -0.4020 -0.1781
 8044SOL    HW235592   4.188   1.631   2.945  0.8069 -0.2304 -0.5650
 8045SOL     OW35593   4.696   0.566  10.317  0.3709  0.1808  0.9494
 8045SOL    HW135594   4.617   0.591  10.364  0.9113 -0.9134  2.4615
 8045SOL    HW235595   0.037   0.634  10.343  0.3242  0.3495  0.6254
 8046SOL     OW35596   3.838   2.387   5.048  0.0937  0.6182  0.1204
 8046SOL    HW135597   3.789   2.317   5.005 -1.6970  1.0347  1.4799
 8046SOL    HW235598   3.796   2.466   5.015  0.5762  0.1152 -1.6978
 8047SOL     OW35599   0.383   0.151  15.353  0.7269  0.7816  0.3372
 8047SOL    HW135600   0.393   0.233  15.305 -0.4254 -0.2764 -1.6765
 8047SOL    HW235601   0.387   0.177  15.446 -1.2236 -0.4645  0.7824
 8048SOL     OW35602   2.772   4.543  13.280 -0.2207 -0.4167  0.2746
 8048SOL    HW135603   2.820   4.586  13.209 -1.8359  1.5777  0.4187
 8048SOL    HW235604   2.837   4.545  13.350 -0.7120 -0.9216  0.7428
 8049SOL     OW35605   3.614   3.387   5.184  0.3510  0.3766 -0.1975
 8049SOL    HW135606   3.693   3.359   5.138 -0.7100 -1.1941 -1.0620
 8049SOL    HW235607   3.639   3.386   5.276  0.4271  0.9986 -0.2138
 8050SOL     OW35608   3.541   2.235   5.485 -0.1069 -0.2995 -0.0702
 8050SOL    HW135609   3.537   2.261   5.393 -0.6190  2.6549  0.8177
 8050SOL    HW235610   3.457   2.190   5.490  0.9864 -2.4064 -0.2732
 8051SOL     OW35611   3.187   3.382   9.600  0.3742 -0.4372  0.3452
 8051SOL    HW135612   3.186   3.332   9.682 -0.0429  1.4257  1.4731
 8051SOL    HW235613   3.100   3.422   9.605  0.3686 -0.4938  0.7423
 8052SOL     OW35614   0.352   4.708   1.217 -0.1204  0.0217 -0.3279
 8052SOL    HW135615   0.286   4.666   1.272  0.8459 -0.5021  0.4228
 8052SOL    HW235616   0.334   4.662   1.135  0.6839 -1.7167  0.4740
 8053SOL     OW35617   0.251   4.587  16.093 -0.2466 -0.0881  0.4080
 8053SOL    HW135618   0.256   4.632  16.008  0.4114  2.8826  2.0318
 8053SOL    HW235619   0.284   4.504  16.059 -0.7204  0.3499 -1.1536
 8054SOL     OW35620   4.353   2.334   8.180  0.1404  0.1595  0.0615
 8054SOL    HW135621   4.316   2.305   8.263 -0.1222 -1.2003 -0.5283
 8054SOL    HW235622   4.303   2.415   8.168  0.2920  0.2750  0.2234
 8055SOL     OW35623   3.443   0.001  14.957  0.2658  0.1133 -1.1881
 8055SOL    HW135624   3.490   4.678  15.028 -0.0864 -0.8572 -1.5581
 8055SOL    HW235625   3.351   4.715  14.984  0.6238  0.2864  0.0824
 8056SOL     OW35626   3.423   0.326   7.735 -0.7404 -0.7905  0.4471
 8056SOL    HW135627   3.512   0.355   7.716 -1.0679 -0.5617 -0.7595
 8056SOL    HW235628   3.422   0.237   7.702  0.7742 -0.7861  0.3877
 8057SOL     OW35629   3.179   3.116   9.430 -0.1426 -0.1571  0.6201
 8057SOL    HW135630   3.237   3.141   9.502 -0.9569 -0.0985  1.2554
 8057SOL    HW235631   3.091   3.130   9.466 -0.8123  0.5641 -1.3222
 8058SOL     OW35632   2.157   2.485   6.054  0.0601 -0.4840 -0.2376
 8058SOL    HW135633   2.151   2.580   6.042 -3.0591 -0.6029  0.4055
 8058SOL    HW235634   2.084   2.455   6.000 -0.0216 -3.3843  1.4913
 8059SOL     OW35635   3.041   2.801  17.632 -0.4469 -0.2629 -0.2642
 8059SOL    HW135636   2.954   2.774  17.662 -0.8279 -0.1268 -1.2602
 8059SOL    HW235637   3.076   2.861   0.011 -0.8674  0.5834 -0.8282
 8060SOL     OW35638   4.298   1.486  12.064 -0.3894  0.4789 -0.4522
 8060SOL    HW135639   4.258   1.403  12.091 -0.3356  0.3850 -0.6630
 8060SOL    HW235640   4.295   1.543  12.142 -1.1592 -1.3395  0.8535
 8061SOL     OW35641   1.756   3.805  10.987 -0.1098 -0.6857 -0.0606
 8061SOL    HW135642   1.776   3.850  11.069 -0.4380  0.0883 -0.4089
 8061SOL    HW235643   1.836   3.755  10.970 -0.0643 -0.0481 -1.7442
 8062SOL     OW35644   0.817   0.133  15.898 -0.0953  0.4128 -0.6400
 8062SOL    HW135645   0.887   0.173  15.847 -0.9279  1.6107 -0.8450
 8062SOL    HW235646   0.793   0.192  15.969  0.8306  1.3573 -1.1180
 8063SOL     OW35647   4.239   1.553  14.871  0.2629 -0.8078 -0.0057
 8063SOL    HW135648   4.148   1.565  14.899  0.2053  2.0234 -1.4315
 8063SOL    HW235649   4.229   1.543  14.776  0.2495  0.7734 -0.1743
 8064SOL     OW35650   4.650   0.702   4.782 -1.3077 -0.0704  0.1169
 8064SOL    HW135651   4.666   0.792   4.810  1.5000 -0.5572  0.1257
 8064SOL    HW235652   4.661   0.651   4.862  0.2683 -0.1681 -0.1602
 8065SOL     OW35653   4.613   4.091   4.400 -0.2266 -0.0474 -0.2642
 8065SOL    HW135654   4.677   4.160   4.386 -1.9785  1.3646 -1.3405
 8065SOL    HW235655   4.530   4.136   4.415 -0.2230 -0.1732  0.1268
 8066SOL     OW35656   1.885   3.821   7.738 -0.0995 -0.2070  1.1335
 8066SOL    HW135657   1.856   3.908   7.711  0.9202 -0.8178 -1.8709
 8066SOL    HW235658   1.958   3.812   7.676  0.1361  2.1905  1.0591
 8067SOL     OW35659   1.249   1.777   2.098  0.3385  0.5650  0.6875
 8067SOL    HW135660   1.179   1.825   2.054  1.7902  1.1949 -0.9198
 8067SOL    HW235661   1.325   1.806   2.049 -0.3781  0.9248 -0.2118
 8068SOL     OW35662   0.336   0.877   5.322  0.4201  0.2508  0.0336
 8068SOL    HW135663   0.385   0.830   5.389 -0.1775  0.5607  0.6871
 8068SOL    HW235664   0.254   0.899   5.366  1.3536  2.6157  0.5828
 8069SOL     OW35665   4.077   3.710   4.595  0.4019  0.3197  0.5588
 8069SOL    HW135666   4.147   3.648   4.573  1.6295  1.5190  1.1066
 8069SOL    HW235667   4.053   3.684   4.684  3.3665  0.2841  1.3242
 8070SOL     OW35668   1.221   2.346   3.276  0.1746  0.2516 -0.6350
 8070SOL    HW135669   1.143   2.349   3.331 -0.1620  0.3375 -1.1100
 8070SOL    HW235670   1.189   2.411   3.214 -0.1246  2.3723  1.7504
 8071SOL     OW35671   0.892   4.122   7.868 -0.1790  0.5354  0.4737
 8071SOL    HW135672   0.846   4.199   7.900 -2.1388 -0.6766  0.5119
 8071SOL    HW235673   0.832   4.085   7.803 -2.4035  2.2036  1.5706
 8072SOL     OW35674   4.201   1.182   5.576 -0.2680 -0.0382 -0.2871
 8072SOL    HW135675   4.149   1.259   5.600 -0.0709 -0.1946  0.6707
 8072SOL    HW235676   4.199   1.129   5.656 -0.6081  0.0566 -0.2309
 8073SOL     OW35677   0.575   1.633   2.264  0.0912 -0.3300  0.0096
 8073SOL    HW135678   0.486   1.664   2.245  1.2528  2.6362 -0.5432
 8073SOL    HW235679   0.619   1.634   2.180 -2.4893  1.7466 -1.3348
 8074SOL     OW35680   0.168   3.336  15.606 -0.4699 -0.1763  0.1398
 8074SOL    HW135681   0.145   3.264  15.665  1.0259 -0.3800  0.4638
 8074SOL    HW235682   0.130   3.418  15.636 -1.5072 -1.8155  3.3064
 8075SOL     OW35683   4.512   2.092   2.323  0.1677  0.0608  0.5868
 8075SOL    HW135684   4.502   2.172   2.375 -1.2709  1.2128 -1.4478
 8075SOL    HW235685   4.520   2.021   2.387 -0.3130 -0.1839  0.3730
 8076SOL     OW35686   1.886   3.312   8.095  0.6206  0.0561 -0.2836
 8076SOL    HW135687   1.962   3.358   8.130  0.4939  2.0389 -2.6294
 8076SOL    HW235688   1.809   3.365   8.117  1.3871  1.5494 -1.1673
 8077SOL     OW35689   2.806   1.655   6.170 -0.4333  0.2574  0.0109
 8077SOL    HW135690   2.751   1.729   6.145 -1.0597  0.9828  3.4330
 8077SOL    HW235691   2.812   1.659   6.266 -0.5431  1.4807 -0.0393
 8078SOL     OW35692   3.923   1.067   1.849 -0.2217  0.3820  0.0028
 8078SOL    HW135693   3.985   1.086   1.919 -2.1092 -0.6190  1.9423
 8078SOL    HW235694   3.990   1.029   1.792 -0.2651  0.2921  0.0116
 8079SOL     OW35695   0.225   4.488   9.843  0.1254 -0.2668 -0.4068
 8079SOL    HW135696   0.184   4.446   9.919  0.4214  0.9922  0.4463
 8079SOL    HW235697   0.253   4.415   9.787  2.1004 -0.1310  0.4197
 8080SOL     OW35698   2.255   2.020   7.163  0.0412  0.4075  0.1055
 8080SOL    HW135699   2.183   2.053   7.217 -2.2971 -2.8577 -1.0012
 8080SOL    HW235700   2.215   1.959   7.102 -0.1980  0.0308  0.6322
 8081SOL     OW35701   0.921   1.532   0.213 -0.5240 -0.0760  0.2645
 8081SOL    HW135702   0.842   1.482   0.236  0.1921 -1.7376 -0.9660
 8081SOL    HW235703   0.950   1.553   0.302  0.0994 -0.6778  0.1990
 8082SOL     OW35704   0.519   1.640  17.629  0.0725  0.6352 -0.6513
 8082SOL    HW135705   0.558   1.608   0.024 -1.5207  1.5297  0.4688
 8082SOL    HW235706   0.434   1.671  17.660  0.4631  2.9640 -1.9152
 8083SOL     OW35707   0.797   1.022  13.347  0.0979  0.1889  0.0752
 8083SOL    HW135708   0.783   0.930  13.324  0.0984  0.5277 -1.2735
 8083SOL    HW235709   0.889   1.011  13.371  0.5405  1.2861 -1.1558
 8084SOL     OW35710   0.664   4.454   9.148 -0.3544  0.6711  0.5830
 8084SOL    HW135711   0.752   4.492   9.141 -0.5701  1.0945  0.2022
 8084SOL    HW235712   0.650   4.466   9.242  1.6181 -0.5815  1.0342
 8085SOL     OW35713   4.575   2.364   4.280 -0.2097  0.0375 -0.7676
 8085SOL    HW135714   4.644   2.355   4.346 -0.4087 -0.5979 -0.6480
 8085SOL    HW235715   4.505   2.356   4.345  0.7705 -0.5303  0.2244
 8086SOL     OW35716   0.080   3.511  13.088 -0.1305  0.0311  0.0001
 8086SOL    HW135717   0.090   3.520  13.182 -2.6514  1.0650  0.1738
 8086SOL    HW235718   0.083   3.415  13.081 -0.7872  0.1836 -2.5265
 8087SOL     OW35719   2.281   3.362  14.342 -0.2108 -0.1695 -0.1977
 8087SOL    HW135720   2.237   3.430  14.291 -1.2870 -2.5572 -2.4326
 8087SOL    HW235721   2.372   3.377  14.314 -0.9522  1.7419 -1.5532
 8088SOL     OW35722   1.774   0.984   3.470 -0.0283  0.1205 -0.1995
 8088SOL    HW135723   1.692   0.950   3.435  1.2127 -1.8689 -1.1419
 8088SOL    HW235724   1.836   0.913   3.490 -0.5162  0.0792  1.2039
 8089SOL     OW35725   2.553   1.241  12.497  0.2801  0.1583  0.0298
 8089SOL    HW135726   2.548   1.162  12.551  2.4059  1.5399  2.2740
 8089SOL    HW235727   2.635   1.280  12.528  0.0058  1.2140 -0.5975
 8090SOL     OW35728   1.261   0.145  12.200  0.6656 -0.3209 -0.2133
 8090SOL    HW135729   1.232   0.236  12.199  1.2810 -0.0756  3.6306
 8090SOL    HW235730   1.329   0.144  12.267 -0.8987  1.0068  1.3861
 8091SOL     OW35731   3.670   3.403   0.300 -0.2419  1.0661  0.3120
 8091SOL    HW135732   3.746   3.460   0.290  0.8192 -0.3454  0.2692
 8091SOL    HW235733   3.670   3.393   0.395 -1.6593 -0.5280  0.1451
 8092SOL     OW35734   4.539   1.774   8.169  0.0642 -0.0760  0.0744
 8092SOL    HW135735   4.483   1.835   8.217  0.9143 -1.1093  2.3792
 8092SOL    HW235736   4.466   1.720   8.137  0.7756 -1.6269  1.0884
 8093SOL     OW35737   1.130   4.575   8.712 -0.0994 -0.5354 -0.0860
 8093SOL    HW135738   1.092   4.642   8.769 -2.3349 -0.1434 -2.0391
 8093SOL    HW235739   1.213   4.618   8.691 -1.0204  1.8894  1.2477
 8094SOL     OW35740   1.024   0.455   7.119 -0.4166  0.3478  0.2735
 8094SOL    HW135741   1.079   0.384   7.151 -1.5161 -0.1301  1.1058
 8094SOL    HW235742   0.966   0.485   7.189 -1.8367 -1.5726 -0.0844
 8095SOL     OW35743   0.762   3.086  13.490  0.4009  0.3303 -0.1054
 8095SOL    HW135744   0.802   3.170  13.514 -0.2886  1.0061 -1.3822
 8095SOL    HW235745   0.678   3.115  13.456  0.8764  1.3255 -0.4047
 8096SOL     OW35746   1.636   3.763   6.541 -0.1451 -0.1032 -0.0565
 8096SOL    HW135747   1.589   3.847   6.545 -0.7019 -0.3245 -2.2948
 8096SOL    HW235748   1.578   3.716   6.602 -0.6006 -0.1086 -0.4976
 8097SOL     OW35749   2.393   4.588   5.057 -0.1453  0.3347  0.0326
 8097SOL    HW135750   2.456   4.660   5.046  0.5883 -0.3331 -0.1734
 8097SOL    HW235751   2.378   4.576   5.151 -3.1322 -1.9372 -0.7379
 8098SOL     OW35752   4.488   4.562   7.683  0.3312  0.0983  0.3161
 8098SOL    HW135753   4.420   4.565   7.750  1.2875 -2.0557  1.3771
 8098SOL    HW235754   4.575   4.588   7.714  0.6327 -0.6433  0.0900
 8099SOL     OW35755   1.115   1.852   7.828  0.3353  0.5308 -0.1659
 8099SOL    HW135756   1.085   1.855   7.918 -0.7300 -0.4701 -0.4766
 8099SOL    HW235757   1.164   1.933   7.817 -1.5193  1.5515 -0.9604
 8100SOL     OW35758   0.526   1.029   4.465  0.3659 -0.1646 -0.5524
 8100SOL    HW135759   0.594   1.027   4.533 -0.8676 -0.2215  0.6931
 8100SOL    HW235760   0.501   1.121   4.461 -0.2179 -0.2048  1.6404
 8101SOL     OW35761   3.278   3.603   3.768 -0.1488 -0.1105 -0.8307
 8101SOL    HW135762   3.231   3.686   3.763 -1.6183 -0.8633  0.4707
 8101SOL    HW235763   3.292   3.587   3.674 -2.0840  1.4395 -1.3954
 8102SOL     OW35764   1.380   3.434   3.971  0.0774 -0.0033  0.2051
 8102SOL    HW135765   1.343   3.511   3.928 -1.5563 -0.9642 -0.1249
 8102SOL    HW235766   1.433   3.474   4.040 -0.0518 -0.4991  0.5940
 8103SOL     OW35767   2.624   4.378   6.658 -0.0797  0.2162  0.0065
 8103SOL    HW135768   2.713   4.381   6.623  0.4641 -1.5948  1.2483
 8103SOL    HW235769   2.576   4.313   6.607  0.2913  0.3608 -0.5244
 8104SOL     OW35770   1.180   4.273   1.758 -0.6917  0.1921  0.0463
 8104SOL    HW135771   1.167   4.364   1.786  1.4377  0.4570  0.2031
 8104SOL    HW235772   1.153   4.218   1.831 -0.2304 -1.7514 -1.2478
 8105SOL     OW35773   1.867   1.954   0.648  0.1250  0.2165 -0.2179
 8105SOL    HW135774   1.911   2.035   0.621  0.0145  0.5746  0.6838
 8105SOL    HW235775   1.780   1.992   0.657 -0.4988 -1.0264 -0.9864
 8106SOL     OW35776   3.700   1.018   4.139  0.1758 -0.7841 -0.2351
 8106SOL    HW135777   3.625   0.983   4.187 -0.5682  0.6624 -0.3381
 8106SOL    HW235778   3.767   0.955   4.163  1.6814  1.2005  0.7784
 8107SOL     OW35779   2.624   4.157   1.675 -0.1266 -0.1258 -0.1946
 8107SOL    HW135780   2.552   4.142   1.613 -0.2527  1.3421 -0.4043
 8107SOL    HW235781   2.578   4.175   1.757 -0.2888  0.2736 -0.3720
 8108SOL     OW35782   2.642   3.072   1.719 -0.6476 -0.1749  0.2890
 8108SOL    HW135783   2.704   3.002   1.733 -1.9519 -1.4764 -0.4246
 8108SOL    HW235784   2.703   3.134   1.759 -0.2707  0.0567 -0.6443
 8109SOL     OW35785   3.694   2.730   5.066  0.1969  0.3306 -0.2641
 8109SOL    HW135786   3.666   2.821   5.064 -2.6367 -0.5320 -0.1475
 8109SOL    HW235787   3.654   2.687   4.990 -1.1909 -0.2607  0.8005
 8110SOL     OW35788   0.108   3.521   7.384  1.0601  0.2824 -0.0006
 8110SOL    HW135789   0.172   3.589   7.409 -2.0580  2.3547  2.2508
 8110SOL    HW235790   0.151   3.487   7.305 -0.2936 -0.0034 -0.6101
 8111SOL     OW35791   2.561   0.158   4.244  0.0345 -0.0723  0.0583
 8111SOL    HW135792   2.644   0.167   4.198 -0.7042  0.1607 -1.2094
 8111SOL    HW235793   2.548   0.238   4.295 -0.7396 -0.8634  1.1273
 8112SOL     OW35794   1.360   3.269   7.693  0.0524 -0.5250 -0.1969
 8112SOL    HW135795   1.403   3.354   7.701  0.0950 -0.4471 -1.2879
 8112SOL    HW235796   1.441   3.231   7.658  0.4905  0.5326 -0.3328
 8113SOL     OW35797   2.246   1.901   0.196 -0.2494  0.5561 -0.0626
 8113SOL    HW135798   2.316   1.867   0.252  0.2034  1.0392 -0.3258
 8113SOL    HW235799   2.234   1.821   0.146  2.0405 -0.1708  0.5676
 8114SOL     OW35800   0.503   3.566   4.990 -0.2905 -0.0945  0.0863
 8114SOL    HW135801   0.472   3.651   5.021 -2.8764 -0.5327 -1.2947
 8114SOL    HW235802   0.592   3.557   5.025 -0.4120  2.3003  1.0387
 8115SOL     OW35803   1.445   1.983   4.553  0.2715 -0.3791 -0.1764
 8115SOL    HW135804   1.439   2.017   4.463  2.6448 -2.1131 -1.0077
 8115SOL    HW235805   1.351   1.970   4.562  0.4413 -0.2480  1.7562
 8116SOL     OW35806   2.409   3.089  11.069 -0.4829  0.1618 -0.2865
 8116SOL    HW135807   2.351   3.138  11.009  1.4227  1.5208 -1.0381
 8116SOL    HW235808   2.423   3.148  11.143 -0.3668 -0.1208 -0.0831
 8117SOL     OW35809   3.763   3.795   0.295  0.3177  0.4716 -0.1250
 8117SOL    HW135810   3.712   3.874   0.278  2.1924  2.3314  2.8219
 8117SOL    HW235811   3.730   3.767   0.381 -0.5054  2.8250  0.3188
 8118SOL     OW35812   3.032   1.782  10.002 -0.0343 -0.1032 -0.2591
 8118SOL    HW135813   2.972   1.843  10.045  0.9601  2.6231 -2.6526
 8118SOL    HW235814   2.984   1.701  10.017  0.1312 -0.5677 -2.1913
 8119SOL     OW35815   4.220   3.943   0.987  0.2677  0.1287 -0.1403
 8119SOL    HW135816   4.303   3.977   0.955  1.4035 -0.5306  2.0615
 8119SOL    HW235817   4.203   3.862   0.939  2.2735 -0.0326 -0.5636
 8120SOL     OW35818   2.480   0.589   9.581 -0.3347  0.2259  0.3955
 8120SOL    HW135819   2.437   0.669   9.611  0.9729  1.2030 -0.3312
 8120SOL    HW235820   2.564   0.600   9.626  0.0669  0.3471 -0.3780
 8121SOL     OW35821   0.465   0.089   8.820 -0.4613 -0.3572  0.0092
 8121SOL    HW135822   0.414   0.103   8.740  0.0696  2.1290  0.0829
 8121SOL    HW235823   0.398   0.101   8.886 -0.5177 -0.0030 -0.1107
 8122SOL     OW35824   0.420   1.226   4.865 -0.0264 -0.4731 -0.2690
 8122SOL    HW135825   0.356   1.163   4.831 -1.0458 -0.5482  1.7429
 8122SOL    HW235826   0.468   1.246   4.785 -1.0817  0.0767 -0.7653
 8123SOL     OW35827   0.862   0.718   6.228 -0.0597  0.0630  0.0890
 8123SOL    HW135828   0.841   0.793   6.285  1.2194  0.5332 -0.0715
 8123SOL    HW235829   0.824   0.762   6.152 -1.9178 -1.1562  0.2921
 8124SOL     OW35830   3.870   1.617   7.849  0.1898  0.1096 -0.4298
 8124SOL    HW135831   3.781   1.601   7.880 -0.1813  2.9711  0.0561
 8124SOL    HW235832   3.917   1.663   7.918 -1.4000 -1.0131  1.3725
 8125SOL     OW35833   2.905   3.558   1.899  0.0015 -0.8201  0.2118
 8125SOL    HW135834   2.873   3.509   1.824 -0.2513 -1.4854  0.7541
 8125SOL    HW235835   2.838   3.621   1.923  0.4379 -0.2702 -0.0205
 8126SOL     OW35836   0.194   2.066  13.190  0.1439  0.0266  0.6362
 8126SOL    HW135837   0.107   2.105  13.197 -0.7081 -1.9435  1.0113
 8126SOL    HW235838   0.196   2.023  13.276 -2.2481  1.2152  1.3004
 8127SOL     OW35839   4.216   0.420   5.774  0.2238  0.5203 -0.4879
 8127SOL    HW135840   4.178   0.379   5.852 -0.6598  0.1025 -1.1427
 8127SOL    HW235841   4.165   0.501   5.772  0.6205  0.8028  0.8231
 8128SOL     OW35842   1.549   4.250   2.789 -0.1947 -0.1644 -0.1647
 8128SOL    HW135843   1.566   4.301   2.868  2.2477 -1.0042 -0.1202
 8128SOL    HW235844   1.483   4.305   2.747  1.7899  2.3546  0.0354
 8129SOL     OW35845   3.687   4.366   1.459 -0.1862 -0.2192 -0.1960
 8129SOL    HW135846   3.697   4.461   1.463  0.6835 -0.2025 -3.0532
 8129SOL    HW235847   3.682   4.346   1.553  0.8430 -0.2804 -0.1452
 8130SOL     OW35848   2.732   2.171   9.552  0.5247  0.2467 -0.1455
 8130SOL    HW135849   2.702   2.210   9.470  1.9766 -1.3414 -1.4686
 8130SOL    HW235850   2.827   2.188   9.549  0.5771 -0.0930 -0.4998
 8131SOL     OW35851   2.400   0.660  13.163 -0.2164  0.0085 -0.3343
 8131SOL    HW135852   2.385   0.755  13.161 -0.1646 -0.0245 -2.0327
 8131SOL    HW235853   2.463   0.642  13.093  1.6383  1.8206  0.8465
 8132SOL     OW35854   4.081   4.425   1.727 -0.0400  0.3585 -0.0252
 8132SOL    HW135855   4.145   4.414   1.657  2.8105  2.8883  2.1840
 8132SOL    HW235856   4.026   4.496   1.693 -2.4460 -1.0796  0.8752
 8133SOL     OW35857   1.975   2.160   2.918  0.4441  0.2292  0.2275
 8133SOL    HW135858   2.058   2.120   2.944  0.8638  2.1323  1.7825
 8133SOL    HW235859   1.951   2.090   2.856 -1.2387  0.7356  0.3279
 8134SOL     OW35860   1.112   2.711   4.403 -0.4683 -0.0869  0.9372
 8134SOL    HW135861   1.199   2.678   4.381 -1.0741  0.5111 -2.2256
 8134SOL    HW235862   1.065   2.652   4.345  0.2352  0.0720  0.2006
 8135SOL     OW35863   2.537   2.153   2.950  0.3503 -0.3898 -0.3024
 8135SOL    HW135864   2.601   2.169   2.880 -0.0257 -3.3384 -1.2962
 8135SOL    HW235865   2.519   2.246   2.963  0.2392 -0.5035  0.3205
 8136SOL     OW35866   0.885   0.262  10.746  0.1205  0.1974  0.5500
 8136SOL    HW135867   0.818   0.307  10.797  0.5322 -0.0242  1.2718
 8136SOL    HW235868   0.956   0.258  10.809  2.3579 -0.8976 -2.0224
 8137SOL     OW35869   4.205   1.339   1.886 -0.3831 -0.3865  0.0481
 8137SOL    HW135870   4.290   1.379   1.903  0.2398 -2.1447  1.1264
 8137SOL    HW235871   4.246   1.278   1.825  0.4788  1.6662 -1.4199
 8138SOL     OW35872   1.670   1.854  13.823 -0.2431  0.5281  0.0676
 8138SOL    HW135873   1.723   1.814  13.754  0.2824  1.6016 -0.1576
 8138SOL    HW235874   1.691   1.805  13.902 -0.4775 -0.5899 -0.5636
 8139SOL     OW35875   0.613   3.112   9.291  0.7691 -0.1325 -0.0454
 8139SOL    HW135876   0.673   3.094   9.363 -1.1779 -0.8068  1.3941
 8139SOL    HW235877   0.671   3.138   9.219 -0.0654  1.4952 -0.1327
 8140SOL     OW35878   3.899   0.143  17.246  0.2169 -0.0680  0.7002
 8140SOL    HW135879   3.903   0.088  17.168 -0.9217  0.7964  0.0394
 8140SOL    HW235880   3.991   0.135  17.272  0.6232  1.1433 -0.3679
 8141SOL     OW35881   1.897   1.260   4.353 -0.3961  0.3744  0.5564
 8141SOL    HW135882   1.803   1.274   4.348 -0.1203  0.9624 -3.2985
 8141SOL    HW235883   1.904   1.213   4.436 -0.8138  0.5337  0.6789
 8142SOL     OW35884   2.720   1.346   9.077 -0.4036 -0.0831 -0.4147
 8142SOL    HW135885   2.707   1.384   8.991 -2.8764  3.4433  1.5268
 8142SOL    HW235886   2.808   1.312   9.060  0.1202  1.6051 -1.0898
 8143SOL     OW35887   0.986   4.656  17.482  0.3386 -0.0893 -0.1146
 8143SOL    HW135888   0.912   4.658  17.421 -0.0092  1.1654  0.3637
 8143SOL    HW235889   0.959   0.006  17.539 -0.0211 -0.4945  0.2162
 8144SOL     OW35890   2.495   4.031  16.504 -0.4138 -0.3551  0.0895
 8144SOL    HW135891   2.419   4.088  16.491  0.6822  0.7980 -1.1727
 8144SOL    HW235892   2.462   3.963  16.445  1.4993 -1.7374  0.6219
 8145SOL     OW35893   4.610   3.511  16.946 -0.5508 -0.2608  0.0649
 8145SOL    HW135894   4.553   3.544  16.877 -0.2222  1.6455  0.7045
 8145SOL    HW235895   4.550   3.499  17.019  0.2915  2.8083  1.2999
 8146SOL     OW35896   4.181   3.212   6.815  0.1989 -0.1147 -0.0648
 8146SOL    HW135897   4.161   3.144   6.751 -2.0499 -0.6951  1.2440
 8146SOL    HW235898   4.096   3.256   6.815 -0.2313 -0.9720  2.9419
 8147SOL     OW35899   3.140   1.082   3.921  0.3842  0.2753 -0.1343
 8147SOL    HW135900   3.093   1.145   3.977 -1.2541 -0.4233 -0.7236
 8147SOL    HW235901   3.216   1.069   3.977  0.7659 -1.6381 -1.0983
 8148SOL     OW35902   4.316   2.739   7.730  0.3065 -0.4118 -0.3326
 8148SOL    HW135903   4.227   2.751   7.697 -0.0025 -2.3897 -0.2180
 8148SOL    HW235904   4.308   2.774   7.818  0.4781  0.6405 -0.7356
 8149SOL     OW35905   3.817   3.066   6.784  0.7100 -0.2858 -0.3909
 8149SOL    HW135906   3.837   3.159   6.773  0.6143 -0.5305 -2.5460
 8149SOL    HW235907   3.805   3.062   6.879  0.6496  0.3138 -0.3765
 8150SOL     OW35908   3.682   3.112   5.643  0.1760 -0.0796 -0.2666
 8150SOL    HW135909   3.706   3.137   5.732 -1.2709 -0.5993  0.2825
 8150SOL    HW235910   3.611   3.049   5.658  0.4854  0.0196  1.5959
 8151SOL     OW35911   0.142   3.101   6.342 -0.0676 -0.2078  0.0907
 8151SOL    HW135912   0.145   3.185   6.386  2.0345 -0.4897  0.5233
 8151SOL    HW235913   0.231   3.097   6.307 -0.1164  1.8052 -0.2662
 8152SOL     OW35914   0.382   0.411   2.404 -0.1396  0.5703 -0.0816
 8152SOL    HW135915   0.462   0.420   2.353  0.1159 -1.7705 -0.1055
 8152SOL    HW235916   0.394   0.322   2.438 -0.7743  0.8341  0.8290
 8153SOL     OW35917   4.157   0.237   9.065  0.1277 -0.0147 -0.3207
 8153SOL    HW135918   4.101   0.216   8.990  1.2570 -2.1114 -0.5790
 8153SOL    HW235919   4.245   0.205   9.043 -0.4422 -1.8539  0.0857
 8154SOL     OW35920   3.727   0.658   4.309 -0.4732  0.0319  0.8311
 8154SOL    HW135921   3.651   0.710   4.335  0.7794  1.8529  0.9072
 8154SOL    HW235922   3.782   0.733   4.284 -1.0391  0.0841 -0.2771
 8155SOL     OW35923   4.623   2.580   9.454 -0.1674  0.3915 -0.3840
 8155SOL    HW135924   4.612   2.621   9.539 -0.5110 -1.9089  0.6811
 8155SOL    HW235925   4.707   2.535   9.465 -0.1633  0.7970  1.2296
 8156SOL     OW35926   3.338   2.139   7.877 -0.2485 -0.0449  0.7951
 8156SOL    HW135927   3.316   2.048   7.895 -0.9645  0.2738  1.5117
 8156SOL    HW235928   3.290   2.181   7.949  1.4772  1.0714  1.3048
 8157SOL     OW35929   1.639   4.653   7.988 -0.1853 -0.3138  0.4861
 8157SOL    HW135930   1.589   4.571   7.988 -0.3655 -0.2018 -0.2031
 8157SOL    HW235931   1.579   4.713   7.944 -0.1057 -0.3202  0.3676
 8158SOL     OW35932   2.700   4.155   2.448  0.1844  0.1449  0.5481
 8158SOL    HW135933   2.658   4.239   2.462  2.7280  1.7366 -1.4897
 8158SOL    HW235934   2.627   4.104   2.411  0.0291  1.6994 -1.2591
 8159SOL     OW35935   3.788   0.938   1.317  0.0475 -0.2567 -0.3238
 8159SOL    HW135936   3.810   0.907   1.229 -2.7448  0.4003 -1.2607
 8159SOL    HW235937   3.864   0.988   1.347  1.2754 -0.7872 -2.5730
 8160SOL     OW35938   0.443   1.421   3.756  0.4101 -0.5887  0.6957
 8160SOL    HW135939   0.347   1.419   3.756  0.3535  1.4659 -0.9534
 8160SOL    HW235940   0.452   1.470   3.838  0.7130 -0.6136  0.6755
 8161SOL     OW35941   0.806   1.215   1.079  0.1963  0.4541  0.2641
 8161SOL    HW135942   0.886   1.261   1.054 -0.2380  0.7065 -0.6331
 8161SOL    HW235943   0.827   1.187   1.168  0.3372 -0.4867 -0.0665
 8162SOL     OW35944   3.786   4.363   0.289  0.2404  0.1163  0.8445
 8162SOL    HW135945   3.763   4.399   0.203  0.6731  0.6040  0.9344
 8162SOL    HW235946   3.875   4.329   0.277  0.2389  0.4006  0.0430
 8163SOL     OW35947   1.849   4.448   0.660  0.2758 -0.1039 -0.6064
 8163SOL    HW135948   1.828   4.435   0.753  3.0059  3.0487  0.4565
 8163SOL    HW235949   1.882   4.538   0.657 -0.1563  0.0178 -1.4453
 8164SOL     OW35950   2.350   0.388   3.537  0.4753  0.2924  0.0302
 8164SOL    HW135951   2.283   0.396   3.605 -0.8655  0.7252 -1.3481
 8164SOL    HW235952   2.413   0.326   3.574 -0.2816  0.0924  0.9985
 8165SOL     OW35953   0.217   0.945   1.390 -0.2852  0.0590  0.0971
 8165SOL    HW135954   0.281   0.899   1.336  0.2562 -0.0072  0.7870
 8165SOL    HW235955   0.166   0.874   1.427  0.2906  0.2310  1.2450
 8166SOL     OW35956   0.047   2.346   1.746  0.4774  0.6366 -0.0795
 8166SOL    HW135957   4.698   2.292   1.709  0.0953 -1.2370  3.3748
 8166SOL    HW235958   0.059   2.418   1.684  1.6815 -0.4798 -1.1386
 8167SOL     OW35959   1.537   3.694   8.899  0.0000  0.4423  0.2854
 8167SOL    HW135960   1.454   3.723   8.935 -1.2058  0.1277 -2.2761
 8167SOL    HW235961   1.587   3.775   8.898  1.9773 -0.7660  0.2504
 8168SOL     OW35962   2.980   0.251   3.780  0.2867  0.2520 -0.3485
 8168SOL    HW135963   2.981   0.256   3.685 -1.9533 -2.9712 -0.5343
 8168SOL    HW235964   3.045   0.317   3.806 -0.6603  0.6892  0.9613
 8169SOL     OW35965   0.353   2.801  16.169 -0.1830 -0.2135 -0.8684
 8169SOL    HW135966   0.440   2.785  16.207  0.8654  1.2344 -2.6113
 8169SOL    HW235967   0.345   2.716  16.124 -1.4736 -0.5353 -0.0041
 8170SOL     OW35968   1.041   3.646   8.679  0.1642 -0.0327  0.0488
 8170SOL    HW135969   1.075   3.595   8.753 -1.6012 -0.7063  0.3862
 8170SOL    HW235970   1.072   3.732   8.705  0.1306  0.3216 -1.0686
 8171SOL     OW35971   2.135   0.103  12.880 -0.5322 -0.2485  0.8026
 8171SOL    HW135972   2.048   0.116  12.841  0.4571  2.0358 -0.6743
 8171SOL    HW235973   2.184   0.096  12.798  1.7903  0.9868  2.0782
 8172SOL     OW35974   0.091   3.225   5.477 -0.3930  0.3115  0.2772
 8172SOL    HW135975   0.135   3.235   5.562 -1.5019  0.4758  0.8404
 8172SOL    HW235976   0.055   3.138   5.495  0.3819 -0.3857 -1.6310
 8173SOL     OW35977   4.621   1.485  12.200 -0.3489  0.4251 -0.1699
 8173SOL    HW135978   4.711   1.515  12.187  0.0238 -0.2023  0.9934
 8173SOL    HW235979   4.635   1.437  12.282 -1.9232  2.7536  1.4757
 8174SOL     OW35980   4.465   0.383   1.253  0.2666 -0.0653 -0.6789
 8174SOL    HW135981   4.379   0.343   1.241  0.6188 -0.9719 -0.2201
 8174SOL    HW235982   4.502   0.410   1.169 -0.3941  0.8374 -0.6756
 8175SOL     OW35983   0.875   4.332   6.159 -0.1111  0.4483  0.0952
 8175SOL    HW135984   0.943   4.345   6.225  2.1193 -0.6247 -1.9779
 8175SOL    HW235985   0.907   4.393   6.093  1.9365 -2.0291 -1.2154
 8176SOL     OW35986   4.703   1.713   1.827  0.4550 -0.1659  0.2205
 8176SOL    HW135987   4.673   1.772   1.758 -0.2471  0.3799  0.9890
 8176SOL    HW235988   0.076   1.735   1.822  0.2507  1.0637  1.6278
 8177SOL     OW35989   3.752   1.121  14.423  0.1909  0.7103  0.1177
 8177SOL    HW135990   3.687   1.060  14.458  0.8498 -1.0679 -1.7416
 8177SOL    HW235991   3.771   1.085  14.336  0.0726  4.8722 -1.6851
 8178SOL     OW35992   4.041   2.764   9.845 -0.9408  0.2492  0.5748
 8178SOL    HW135993   4.066   2.722   9.763 -0.7090 -0.5508  1.0528
 8178SOL    HW235994   4.099   2.839   9.853 -0.9054  0.4646 -1.6921
 8179SOL     OW35995   3.019   2.956   5.688  0.1446  0.4431 -0.2932
 8179SOL    HW135996   3.060   3.043   5.690 -2.2290  1.4372  4.9965
 8179SOL    HW235997   2.999   2.945   5.781  0.7449 -1.7713 -0.4286
 8180SOL     OW35998   2.943   0.421  13.984  0.0506  0.2517  0.0677
 8180SOL    HW135999   2.961   0.348  14.044  0.2281  0.9775  0.9106
 8180SOL    HW236000   3.021   0.476  13.995  2.3371 -2.5996 -1.6842
 8181SOL     OW36001   0.090   3.018   5.840 -0.1311 -0.3319 -0.4696
 8181SOL    HW136002   0.126   3.096   5.798  0.8727  0.8736  2.6549
 8181SOL    HW236003   0.007   3.052   5.873  1.0703 -1.2840  3.4577
 8182SOL     OW36004   0.736   0.644   5.954  0.6449  0.4592 -0.3811
 8182SOL    HW136005   0.773   0.579   6.014  1.6331  1.0775 -0.3138
 8182SOL    HW236006   0.818   0.678   5.918  0.7456 -0.6914 -1.2712
 8183SOL     OW36007   3.427   1.408   8.795 -0.0682  0.0192  0.2168
 8183SOL    HW136008   3.490   1.365   8.853 -0.5782 -1.0350 -0.0092
 8183SOL    HW236009   3.484   1.423   8.720 -1.3006  0.1564 -0.6779
 8184SOL     OW36010   4.233   3.871   3.098 -0.1158  0.3471 -0.0972
 8184SOL    HW136011   4.320   3.848   3.067 -0.0015 -0.9118  1.1861
 8184SOL    HW236012   4.255   3.938   3.163 -2.1919  0.3513  0.5996
 8185SOL     OW36013   3.542   1.461   9.369  0.8768  0.4715 -0.1364
 8185SOL    HW136014   3.489   1.483   9.293 -0.3489 -0.7694  0.3722
 8185SOL    HW236015   3.469   1.437   9.426  2.0338  0.6510  1.4170
 8186SOL     OW36016   4.526   3.107  12.346  0.0218 -0.4183 -0.1563
 8186SOL    HW136017   4.526   3.172  12.416 -0.1828 -1.2468  0.6234
 8186SOL    HW236018   4.464   3.146  12.285 -1.0730  0.1476  1.3117
 8187SOL     OW36019   0.207   1.919   4.181 -0.1755 -0.5695  0.1565
 8187SOL    HW136020   0.131   1.943   4.235  0.3549  0.7571  0.3007
 8187SOL    HW236021   0.168   1.924   4.094 -1.0403 -3.3576  0.3731
 8188SOL     OW36022   3.947   1.651   3.805 -0.0418 -0.4154  0.5151
 8188SOL    HW136023   3.990   1.574   3.841  0.8086 -0.4518 -0.5991
 8188SOL    HW236024   3.876   1.607   3.757  0.2195 -0.7731  0.4589
 8189SOL     OW36025   1.657   0.022   3.688  0.1274 -0.1829 -0.3017
 8189SOL    HW136026   1.691   0.111   3.679  1.6388 -0.9895 -2.3176
 8189SOL    HW236027   1.641   4.712   3.599  1.3289 -1.6624 -0.0105
 8190SOL     OW36028   4.049   0.131   0.862  0.1448  0.0316  0.1992
 8190SOL    HW136029   4.065   0.039   0.838 -0.9210 -0.2864  0.7135
 8190SOL    HW236030   3.986   0.155   0.794 -0.8823 -2.1813  0.3560
 8191SOL     OW36031   4.690   0.142  12.962  0.2489 -0.2180  0.2314
 8191SOL    HW136032   4.623   0.143  12.894  0.0786 -1.1409  0.3788
 8191SOL    HW236033   4.717   0.050  12.957  0.4194 -0.1875  0.6016
 8192SOL     OW36034   1.841   2.703   9.275  0.1689 -0.4304  0.6547
 8192SOL    HW136035   1.847   2.702   9.370 -1.3485  1.1003  0.7717
 8192SOL    HW236036   1.907   2.639   9.250 -0.7904 -0.6374 -1.3248
 8193SOL     OW36037   1.358   3.215   4.168 -0.5053 -0.1796 -0.0973
 8193SOL    HW136038   1.340   3.308   4.155  0.6221  0.2916  1.6746
 8193SOL    HW236039   1.357   3.182   4.079  0.8355  0.6122 -0.4044
 8194SOL     OW36040   4.091   4.374   4.751 -0.3076 -0.5924  0.0737
 8194SOL    HW136041   4.043   4.424   4.818  1.4510 -0.4645  1.2492
 8194SOL    HW236042   4.080   4.421   4.669 -0.5993 -0.2663  0.2973
 8195SOL     OW36043   2.449   0.544   4.226  0.1702  0.3880 -0.0426
 8195SOL    HW136044   2.438   0.511   4.137  1.7202  0.1850 -0.1693
 8195SOL    HW236045   2.382   0.611   4.235 -0.7649 -0.3744 -1.4344
 8196SOL     OW36046   3.812   0.573   1.737 -0.4981 -0.0154 -0.7433
 8196SOL    HW136047   3.804   0.584   1.642 -1.7480 -1.8443 -0.8401
 8196SOL    HW236048   3.861   0.491   1.734 -0.2903  0.1507 -2.0226
 8197SOL     OW36049   2.419   3.821   1.892  0.5853  0.1539  0.0387
 8197SOL    HW136050   2.347   3.808   1.955  1.5282  1.3977  1.3714
 8197SOL    HW236051   2.476   3.877   1.944  2.1063 -1.2551 -0.1364
 8198SOL     OW36052   0.216   3.718   6.990 -0.9129  0.0523  0.0874
 8198SOL    HW136053   0.238   3.762   7.072  0.3981  1.1956 -0.8836
 8198SOL    HW236054   0.184   3.635   7.024 -0.9954  0.6839  1.5685
 8199SOL     OW36055   1.473   0.925  15.743  0.4142  0.4235  0.4543
 8199SOL    HW136056   1.489   0.906  15.651 -0.5255  0.0124  0.3717
 8199SOL    HW236057   1.534   0.998  15.754  1.9133 -0.8109  0.0990
 8200SOL     OW36058   0.366   2.729  14.063  0.1668  0.0815 -0.1793
 8200SOL    HW136059   0.444   2.674  14.070  0.5092  0.9384  2.5483
 8200SOL    HW236060   0.374   2.757  13.971 -0.7597 -1.4668 -0.7276
 8201SOL     OW36061   0.054   3.681  10.275 -0.0094  0.2280 -0.4717
 8201SOL    HW136062   0.078   3.763  10.232 -0.5231  0.3748 -0.4785
 8201SOL    HW236063   0.121   3.630  10.230 -0.7887 -1.1127 -0.1018
 8202SOL     OW36064   4.264   0.249   3.455  0.1132  0.0008 -0.1320
 8202SOL    HW136065   4.354   0.258   3.424  0.3583 -0.7705  0.3658
 8202SOL    HW236066   4.216   0.252   3.372  1.4875 -3.8510 -1.0259
 8203SOL     OW36067   2.667   1.722  16.249 -0.3807 -0.5944 -0.1119
 8203SOL    HW136068   2.691   1.801  16.298 -2.0928  0.3633 -0.8381
 8203SOL    HW236069   2.605   1.756  16.184  0.3222 -4.5323 -2.8827
 8204SOL     OW36070   0.414   0.958  13.914 -0.3842  0.0448 -0.8050
 8204SOL    HW136071   0.488   0.970  13.974  0.9359 -0.1332 -2.3626
 8204SOL    HW236072   0.421   0.864  13.898  1.2342 -0.4199  2.5526
 8205SOL     OW36073   0.801   1.656  17.589 -0.1739 -0.2020  0.1339
 8205SOL    HW136074   0.719   1.704  17.602 -0.3184 -0.5680  0.6045
 8205SOL    HW236075   0.764   1.570  17.608 -3.0106  0.8720 -0.4845
 8206SOL     OW36076   4.124   4.134   7.437 -0.3009 -0.3273 -0.9572
 8206SOL    HW136077   4.213   4.162   7.416 -1.6088  2.6799 -2.6017
 8206SOL    HW236078   4.085   4.221   7.448  0.1113 -0.0273 -1.8913
 8207SOL     OW36079   2.716   0.575  11.926  0.4410 -0.2738 -0.5454
 8207SOL    HW136080   2.658   0.637  11.881  0.3784  0.2957  0.3398
 8207SOL    HW236081   2.801   0.618  11.917  0.2971 -0.0413 -0.7930
 8208SOL     OW36082   2.120   3.056   9.416 -0.7506 -0.0074 -0.3444
 8208SOL    HW136083   2.080   3.129   9.369  0.0334  2.0413  2.2145
 8208SOL    HW236084   2.050   3.037   9.477 -0.3779  0.8534  0.3559
 8209SOL     OW36085   2.489   4.627   7.656 -0.3554  0.0937 -0.1807
 8209SOL    HW136086   2.430   4.629   7.731 -1.5559 -1.7592 -1.0762
 8209SOL    HW236087   2.569   4.653   7.702 -0.0498  0.1637 -0.7517
 8210SOL     OW36088   3.387   0.012   8.167  0.1540 -0.2401 -0.2580
 8210SOL    HW136089   3.435   0.080   8.215  4.0874 -1.2456 -2.8273
 8210SOL    HW236090   3.443   4.657   8.156  1.1478  0.1968  1.7360
 8211SOL     OW36091   3.264   1.737   2.594 -0.4406 -0.0781  0.4393
 8211SOL    HW136092   3.331   1.775   2.651  0.8404 -2.3148  0.4621
 8211SOL    HW236093   3.184   1.786   2.611 -0.7931  0.0498 -1.6192
 8212SOL     OW36094   3.952   4.381   8.201 -0.6817  0.0100 -0.2105
 8212SOL    HW136095   3.938   4.422   8.116  0.7102 -0.4515 -0.6666
 8212SOL    HW236096   4.000   4.450   8.246  0.5207 -0.4931 -0.7269
 8213SOL     OW36097   3.802   0.762   8.526  0.7030  0.1532 -0.5079
 8213SOL    HW136098   3.886   0.723   8.548  0.4750 -0.7212 -1.2012
 8213SOL    HW236099   3.788   0.806   8.610 -0.3440 -1.3871  0.1259
 8214SOL     OW36100   3.565   0.846   2.210  0.2619  0.0019  0.3351
 8214SOL    HW136101   3.618   0.889   2.143 -0.1743  2.6932  1.7044
 8214SOL    HW236102   3.482   0.828   2.166 -0.5007  2.2749  0.8069
 8215SOL     OW36103   1.654   1.927   4.718 -0.3441  0.0262  0.1318
 8215SOL    HW136104   1.639   1.832   4.720  0.7315 -0.1687 -1.6749
 8215SOL    HW236105   1.593   1.953   4.649 -0.7154  2.6625  1.4736
 8216SOL     OW36106   2.087   1.317   5.436 -0.1292  0.2970 -0.3819
 8216SOL    HW136107   2.102   1.230   5.400  0.7936 -1.4054  4.1442
 8216SOL    HW236108   2.077   1.364   5.353  1.4335  0.7450 -0.2988
 8217SOL     OW36109   0.012   0.006  16.123  0.2944 -0.1397 -0.1892
 8217SOL    HW136110   0.102   4.697  16.140  1.3154  2.2031 -1.4876
 8217SOL    HW236111   4.695   4.653  16.075  1.4265 -0.3521 -0.7593
 8218SOL     OW36112   3.767   2.871   7.272 -0.7807 -0.9116 -0.6105
 8218SOL    HW136113   3.756   2.802   7.337  0.4075  0.0540  0.6112
 8218SOL    HW236114   3.712   2.835   7.202  0.2851  0.0517 -1.9319
 8219SOL     OW36115   2.563   3.881  15.334  0.0947  0.2785 -0.3230
 8219SOL    HW136116   2.533   3.821  15.403  0.5701 -1.7436 -1.8642
 8219SOL    HW236117   2.573   3.820  15.261 -2.0766 -1.6104  0.9300
 8220SOL     OW36118   2.142   3.103   2.387 -0.0494  0.6757 -0.3017
 8220SOL    HW136119   2.089   3.170   2.344 -1.8056 -0.7241 -0.3358
 8220SOL    HW236120   2.142   3.024   2.332  0.4903 -0.7023  1.6633
 8221SOL     OW36121   4.370   4.452  12.022  0.3012  0.2810  0.1785
 8221SOL    HW136122   4.357   4.503  11.942 -0.6216  0.0855  0.1972
 8221SOL    HW236123   4.447   4.400  11.999  0.9018  1.0136  0.5196
 8222SOL     OW36124   1.578   1.146  13.827 -0.2352 -0.4960 -0.4468
 8222SOL    HW136125   1.558   1.061  13.867  0.0631  0.7632  2.3767
 8222SOL    HW236126   1.630   1.199  13.888  0.1411  0.7021 -1.8034
 8223SOL     OW36127   0.221   3.989  14.952 -0.2705 -0.0546  0.1028
 8223SOL    HW136128   0.243   4.073  14.911 -1.4164  0.1872 -0.0239
 8223SOL    HW236129   0.252   3.921  14.892  0.3065  1.0252 -0.8197
 8224SOL     OW36130   4.126   2.650   3.196  0.6272 -0.5220  0.4724
 8224SOL    HW136131   4.080   2.635   3.114  1.3359  1.2223 -0.2330
 8224SOL    HW236132   4.062   2.712   3.231  1.8193  0.8306  0.2734
 8225SOL     OW36133   3.989   2.437   1.647  0.0173  0.0048 -0.0885
 8225SOL    HW136134   3.928   2.436   1.573  1.7949 -0.1501 -1.5517
 8225SOL    HW236135   4.056   2.503   1.628 -0.2397  0.7174  1.5213
 8226SOL     OW36136   3.245   0.961   8.720  0.2025  0.9630 -0.5694
 8226SOL    HW136137   3.312   1.025   8.695  1.1785 -0.4604 -1.5891
 8226SOL    HW236138   3.307   0.895   8.751 -0.0119  0.2166 -1.7432
 8227SOL     OW36139   0.090   2.949  10.693 -0.4687  0.3890 -0.1396
 8227SOL    HW136140   0.170   2.988  10.658  0.9657 -1.0598  1.5246
 8227SOL    HW236141   0.047   3.027  10.727 -1.5273 -0.0464 -0.5061
 8228SOL     OW36142   2.508   3.765   7.751  0.6758  0.2515  0.1553
 8228SOL    HW136143   2.562   3.751   7.829 -0.8531 -0.4932  1.0692
 8228SOL    HW236144   2.420   3.764   7.789 -0.1615  0.1675 -1.7711
 8229SOL     OW36145   4.074   1.150   3.226 -0.1327 -0.0898 -0.1762
 8229SOL    HW136146   4.006   1.083   3.235  1.1022 -1.2045  0.7827
 8229SOL    HW236147   4.064   1.154   3.131 -0.9148  0.6401 -0.0624
 8230SOL     OW36148   2.702   4.585  16.534  0.5396 -0.7136  0.1887
 8230SOL    HW136149   2.634   4.643  16.500  1.1815 -0.1299 -0.0930
 8230SOL    HW236150   2.708   4.628  16.620 -0.2670  1.0663 -0.6238
 8231SOL     OW36151   0.319   3.016   7.793  0.5619 -0.2621 -0.1832
 8231SOL    HW136152   0.373   2.965   7.854 -0.7726 -1.7192 -0.2120
 8231SOL    HW236153   0.347   2.989   7.705  2.9956 -1.3340  0.9249
 8232SOL     OW36154   4.243   3.936   7.855  0.1959  0.7381 -0.1830
 8232SOL    HW136155   4.176   3.992   7.895  0.6147 -0.0297  1.5781
 8232SOL    HW236156   4.184   3.869   7.821 -0.2770  1.6827 -1.2312
 8233SOL     OW36157   0.936   2.110   9.666 -0.1198  0.2255  0.1205
 8233SOL    HW136158   0.842   2.115   9.683 -0.3429  1.6132 -1.6179
 8233SOL    HW236159   0.965   2.101   9.757 -0.7520  0.9042  0.3892
 8234SOL     OW36160   4.445   3.274   8.206  0.3540  0.1425 -0.8025
 8234SOL    HW136161   4.393   3.199   8.236 -0.8886  1.9725  1.6321
 8234SOL    HW236162   4.528   3.229   8.218 -0.4544 -0.4318  2.4923
 8235SOL     OW36163   4.274   4.138   5.840  0.0536 -0.1572 -0.1231
 8235SOL    HW136164   4.226   4.098   5.913 -0.6667  1.1767  0.1423
 8235SOL    HW236165   4.363   4.148   5.873 -0.4649  0.2967  1.1236
 8236SOL     OW36166   3.249   1.978  11.032 -0.0606  0.1792  0.1498
 8236SOL    HW136167   3.333   2.004  10.995 -0.9664  0.0003 -1.9979
 8236SOL    HW236168   3.194   1.955  10.957 -0.7827 -0.9618  1.0147
 8237SOL     OW36169   4.395   4.406   7.912 -0.0919 -0.0353  0.0900
 8237SOL    HW136170   4.488   4.384   7.921 -0.5445 -1.6263  0.9772
 8237SOL    HW236171   4.353   4.347   7.974  0.2720 -1.6752 -1.2211
 8238SOL     OW36172   4.012   4.138   2.935  0.3905  0.0400 -0.2214
 8238SOL    HW136173   3.922   4.168   2.936  0.4667  0.2313  0.3518
 8238SOL    HW236174   4.042   4.185   3.012  1.0138 -0.8944  0.1032
 8239SOL     OW36175   3.569   2.756   4.069 -0.5224  0.1622 -0.5916
 8239SOL    HW136176   3.627   2.807   4.013 -1.5019  1.1749 -0.6736
 8239SOL    HW236177   3.588   2.668   4.035  0.6045 -0.0170  0.4939
 8240SOL     OW36178   3.749   3.186   0.191  0.0762  0.1025  0.3868
 8240SOL    HW136179   3.718   3.268   0.229 -0.0128 -0.3304  1.2365
 8240SOL    HW236180   3.754   3.212   0.099  0.2751  0.5850  0.5360
 8241SOL     OW36181   3.076   2.992   6.426  0.4439 -0.5239  0.0896
 8241SOL    HW136182   3.116   3.059   6.372 -1.7904  0.4660 -0.3451
 8241SOL    HW236183   3.006   3.045   6.466  1.8025  1.0436  0.3822
 8242SOL     OW36184   4.306   0.673   0.738 -0.2542 -0.4763  0.5200
 8242SOL    HW136185   4.226   0.696   0.690 -0.7737 -0.4574  1.3930
 8242SOL    HW236186   4.286   0.698   0.828  3.8520 -0.4778  1.4360
 8243SOL     OW36187   4.394   1.955   9.169 -0.0905  0.5018  0.4129
 8243SOL    HW136188   4.350   2.016   9.111  0.7749  0.2578 -0.4977
 8243SOL    HW236189   4.481   1.995   9.174 -0.2858  0.8785  0.7917
 8244SOL     OW36190   1.397   3.802   4.176  0.1308  0.7767 -0.0319
 8244SOL    HW136191   1.315   3.752   4.172 -0.4122  1.5568  1.5179
 8244SOL    HW236192   1.390   3.857   4.098  0.5565  0.3414 -0.3730
 8245SOL     OW36193   4.687   3.414   2.381  0.1583 -0.2541 -0.2061
 8245SOL    HW136194   0.014   3.416   2.298 -0.5882  0.0531 -0.6219
 8245SOL    HW236195   4.597   3.415   2.349  0.4953  2.6079 -1.0636
 8246SOL     OW36196   0.766   0.199   7.460 -0.8683  0.4219  0.0442
 8246SOL    HW136197   0.692   0.260   7.455 -2.0795 -1.0886 -0.3663
 8246SOL    HW236198   0.839   0.261   7.455 -1.1308  0.7723  0.5117
 8247SOL     OW36199   4.565   2.782   5.622 -0.7614  0.3687 -0.0914
 8247SOL    HW136200   4.496   2.745   5.677 -2.3241  0.5353 -1.9387
 8247SOL    HW236201   4.646   2.763   5.670 -0.8961 -0.5318 -0.2221
 8248SOL     OW36202   1.612   0.454   8.825 -0.7519  0.1041  0.4632
 8248SOL    HW136203   1.697   0.496   8.810 -0.2970 -0.8338  0.4265
 8248SOL    HW236204   1.619   0.423   8.915 -0.1522 -1.3130 -0.0766
 8249SOL     OW36205   2.875   0.960  12.211  0.0684  1.1369 -0.2580
 8249SOL    HW136206   2.900   0.892  12.148 -2.1878  0.4323 -0.3892
 8249SOL    HW236207   2.788   0.927  12.236  0.7169  0.3620  0.9426
 8250SOL     OW36208   1.069   3.174   2.936  0.1092  0.0153  0.3659
 8250SOL    HW136209   1.017   3.200   2.860 -2.5115 -2.9932  1.1088
 8250SOL    HW236210   1.010   3.188   3.010  1.4223  2.1207  0.9905
 8251SOL     OW36211   2.196   1.007   0.942 -0.5689  0.0516  0.4326
 8251SOL    HW136212   2.177   0.936   0.880 -0.0203 -0.9068  1.3449
 8251SOL    HW236213   2.152   0.975   1.020 -2.4427  1.0549 -0.2212
 8252SOL     OW36214   0.187   3.229   4.452  0.0393  0.3533 -0.1301
 8252SOL    HW136215   0.255   3.174   4.491  0.7046  1.4292  0.2263
 8252SOL    HW236216   0.167   3.298   4.516 -2.0385 -2.3272  2.1399
 8253SOL     OW36217   0.318   3.833   4.626 -0.0576 -0.0866  0.4544
 8253SOL    HW136218   0.292   3.923   4.608 -1.5008 -0.6558 -0.3707
 8253SOL    HW236219   0.284   3.808   4.712 -3.7577  0.3836 -0.8542
 8254SOL     OW36220   1.364   1.677  10.723 -0.4232 -0.0516 -0.1535
 8254SOL    HW136221   1.385   1.600  10.670 -0.6094  0.1286 -0.4861
 8254SOL    HW236222   1.269   1.669  10.716 -0.3351 -0.5673 -0.8012
 8255SOL     OW36223   4.464   4.523   5.096 -0.4906 -0.6449 -0.1472
 8255SOL    HW136224   4.390   4.501   5.152 -0.4409  1.4988  0.7542
 8255SOL    HW236225   4.531   4.478   5.148  1.6798 -0.4080 -2.7316
 8256SOL     OW36226   0.176   3.510  16.776 -0.2257 -0.1372 -0.1205
 8256SOL    HW136227   0.196   3.598  16.742 -1.8499  0.6295  0.9167
 8256SOL    HW236228   0.157   3.458  16.698 -1.5730 -1.6703  1.2397
 8257SOL     OW36229   0.275   0.696   6.727 -0.5356  0.0866  0.7623
 8257SOL    HW136230   0.204   0.646   6.684  0.0130 -0.2476  0.2402
 8257SOL    HW236231   0.294   0.637   6.800 -2.6969 -1.7403 -0.1590
 8258SOL     OW36232   3.657   3.765   3.050  0.6478 -0.2794 -0.3170
 8258SOL    HW136233   3.586   3.769   3.114 -0.6365  0.3036 -1.7801
 8258SOL    HW236234   3.708   3.843   3.071  0.4346 -0.7511  1.9391
 8259SOL     OW36235   2.676   3.534   6.745 -0.2549  0.1886 -0.0186
 8259SOL    HW136236   2.698   3.624   6.721 -0.5966 -0.2890 -2.1964
 8259SOL    HW236237   2.652   3.486   6.665 -1.8078 -0.9108  1.1111
 8260SOL     OW36238   1.066   4.656  15.846  0.3358 -0.4691  0.0939
 8260SOL    HW136239   1.029   4.698  15.924 -0.2989 -2.1310  0.6775
 8260SOL    HW236240   1.047   0.001  15.779  1.4863 -0.7323 -0.4776
 8261SOL     OW36241   2.652   3.725  12.071 -0.0861 -0.4444  0.1588
 8261SOL    HW136242   2.576   3.775  12.042  0.0841  0.3448  1.0508
 8261SOL    HW236243   2.719   3.783  12.035  0.3985 -0.5748  0.8531
 8262SOL     OW36244   2.421   4.108  10.883  0.3180 -0.0926 -0.3827
 8262SOL    HW136245   2.432   4.103  10.978  0.7465 -2.6958 -0.5752
 8262SOL    HW236246   2.451   4.023  10.853  1.8732 -0.6803  2.7962
 8263SOL     OW36247   3.000   1.073   3.393 -0.0667  0.3221  0.2462
 8263SOL    HW136248   3.032   1.083   3.483  0.3709  0.4949  0.0699
 8263SOL    HW236249   2.993   1.163   3.363 -2.4607  0.4611  1.2236
 8264SOL     OW36250   2.152   4.337  15.750  0.2314  0.4192  0.0687
 8264SOL    HW136251   2.206   4.378  15.818 -1.6167  0.2826  1.5981
 8264SOL    HW236252   2.188   4.363  15.665 -1.4230 -0.1688 -0.8099
 8265SOL     OW36253   2.348   4.103  15.373 -0.3510 -0.1313  0.2401
 8265SOL    HW136254   2.382   4.186  15.339  1.6948 -0.4294  1.5154
 8265SOL    HW236255   2.423   4.064  15.419  0.2204 -1.8941 -2.1706
 8266SOL     OW36256   3.564   1.982  10.002  0.0394 -0.5724 -0.4267
 8266SOL    HW136257   3.577   1.903  10.055  2.2086 -0.0018 -0.1171
 8266SOL    HW236258   3.488   2.022  10.044 -0.1769 -0.2729 -1.1236
 8267SOL     OW36259   2.130   3.589   8.819  0.4065  0.5574 -0.3234
 8267SOL    HW136260   2.139   3.676   8.857 -0.2553  0.2642  0.5019
 8267SOL    HW236261   2.107   3.608   8.728 -1.6643 -1.6631 -0.2695
 8268SOL     OW36262   1.783   4.678   3.908 -0.3422 -0.1939  0.5233
 8268SOL    HW136263   1.865   4.651   3.865  0.1524 -0.9177  1.9118
 8268SOL    HW236264   1.729   4.700   3.832  0.6463 -0.1069 -0.1711
 8269SOL     OW36265   2.301   2.843  14.517  0.3430  0.4622 -0.5233
 8269SOL    HW136266   2.322   2.930  14.485  1.5545  1.0975  1.9734
 8269SOL    HW236267   2.379   2.788  14.504 -0.5249 -0.2033 -2.8205
 8270SOL     OW36268   3.733   1.386   2.653  0.5852 -0.2125 -0.4769
 8270SOL    HW136269   3.736   1.481   2.652  1.8301 -0.2530 -0.0883
 8270SOL    HW236270   3.826   1.372   2.669  0.1050 -0.9393  1.5946
 8271SOL     OW36271   2.552   2.432   2.947  0.0911 -0.9197  0.1048
 8271SOL    HW136272   2.600   2.443   2.864 -0.2191  1.3701  0.2247
 8271SOL    HW236273   2.623   2.469   3.000  0.4661 -0.5895 -0.6292
 8272SOL     OW36274   1.465   2.044   0.447 -0.7734  0.1097 -0.1009
 8272SOL    HW136275   1.525   2.062   0.375 -0.1466  0.9046  0.6249
 8272SOL    HW236276   1.398   2.111   0.428  0.3257  1.7507  1.8392
 8273SOL     OW36277   3.635   3.649   9.180  0.6521  0.0621  0.1598
 8273SOL    HW136278   3.670   3.603   9.103 -0.4794  0.8610 -0.8343
 8273SOL    HW236279   3.678   3.598   9.248 -0.0135 -1.0378 -0.2354
 8274SOL     OW36280   4.184   3.099   5.197  0.1311 -0.2676  0.2673
 8274SOL    HW136281   4.191   3.010   5.230  0.4880 -0.3772 -0.1096
 8274SOL    HW236282   4.248   3.148   5.247  0.4745  0.5007 -0.9173
 8275SOL     OW36283   0.524   2.495   4.987  0.0508 -0.2501 -0.6050
 8275SOL    HW136284   0.462   2.479   5.059  2.6572 -0.0223  1.6774
 8275SOL    HW236285   0.516   2.590   4.979  1.1510 -0.3026 -2.1709
 8276SOL     OW36286   3.333   3.732   8.644 -0.1089 -0.3254  0.6457
 8276SOL    HW136287   3.295   3.692   8.722  1.9908 -0.2316  1.7108
 8276SOL    HW236288   3.381   3.809   8.675  2.2614 -0.6649 -2.2022
 8277SOL     OW36289   3.581   0.683  10.702 -0.1976  0.5798  0.3342
 8277SOL    HW136290   3.586   0.761  10.757  2.7401 -0.3996  1.4974
 8277SOL    HW236291   3.487   0.668  10.699  0.2703 -2.2013 -0.0373
 8278SOL     OW36292   2.922   0.064   5.548  0.0861  0.5492  0.4409
 8278SOL    HW136293   2.920   0.160   5.543  1.1781  0.4575 -1.8989
 8278SOL    HW236294   2.833   0.037   5.570  0.5209  0.3625  1.9639
 8279SOL     OW36295   4.618   4.373  17.328 -0.3302 -1.0692 -0.7295
 8279SOL    HW136296   4.580   4.419  17.253  0.1060  0.8283  0.1976
 8279SOL    HW236297   4.537   4.331  17.359  0.9557 -0.4391  3.5391
 8280SOL     OW36298   2.695   1.234  16.086  0.3250 -0.2679  0.0459
 8280SOL    HW136299   2.722   1.326  16.089  1.9021 -0.7218 -0.1636
 8280SOL    HW236300   2.600   1.240  16.076  0.4742 -0.7199 -1.5779
 8281SOL     OW36301   1.553   4.348   5.104 -0.7681 -0.2462 -0.4040
 8281SOL    HW136302   1.497   4.399   5.046 -0.8884 -0.0343 -0.1025
 8281SOL    HW236303   1.486   4.292   5.144 -2.9845  1.3040 -1.9253
 8282SOL     OW36304   3.939   0.592  11.913  0.2217  0.2459 -0.0417
 8282SOL    HW136305   4.012   0.641  11.951 -0.0359 -1.5416  2.7516
 8282SOL    HW236306   3.868   0.656  11.921 -0.3769 -0.5895  1.4290
 8283SOL     OW36307   1.881   1.548   7.972  0.2790  0.9463 -0.5189
 8283SOL    HW136308   1.963   1.499   7.960 -0.2964 -0.1010 -0.1193
 8283SOL    HW236309   1.861   1.588   7.887 -1.3467  0.4578 -0.3583
 8284SOL     OW36310   2.834   2.972   3.484  0.3277  0.0931 -0.3075
 8284SOL    HW136311   2.914   3.023   3.497  0.2054  0.0236  0.6987
 8284SOL    HW236312   2.874   2.885   3.489  2.1075  0.9976  1.3106
 8285SOL     OW36313   2.499   0.245   7.661 -0.2758 -0.3092 -0.2235
 8285SOL    HW136314   2.449   0.247   7.742  0.4657  2.2818  0.1722
 8285SOL    HW236315   2.563   0.174   7.675  0.0371  0.1976  0.9570
 8286SOL     OW36316   2.212   0.300   7.616 -0.5294  0.0402 -0.3026
 8286SOL    HW136317   2.263   0.382   7.618  1.1700 -1.0849  1.7034
 8286SOL    HW236318   2.225   0.266   7.704  2.2615  1.4182 -0.1776
 8287SOL     OW36319   1.635   0.394   9.602  0.4076  0.1127 -0.1697
 8287SOL    HW136320   1.560   0.405   9.661 -1.4761  0.2075 -2.5939
 8287SOL    HW236321   1.641   0.483   9.567  1.6290  0.5663  1.1905
 8288SOL     OW36322   3.264   1.207   4.621 -0.2185  0.2236  0.2646
 8288SOL    HW136323   3.173   1.201   4.592 -0.4499 -0.0057  1.0300
 8288SOL    HW236324   3.267   1.300   4.643 -0.4493  0.1327  0.6841
 8289SOL     OW36325   1.912   4.035  10.867 -0.7888 -0.2328 -0.0590
 8289SOL    HW136326   1.980   4.101  10.853 -0.2344 -0.6206  0.8545
 8289SOL    HW236327   1.829   4.082  10.857 -0.9934 -0.6876 -0.5529
 8290SOL     OW36328   3.837   4.261   3.628  0.6877  0.3984 -0.3701
 8290SOL    HW136329   3.755   4.217   3.650  1.8405 -0.9206  1.2767
 8290SOL    HW236330   3.895   4.241   3.701  0.5921  0.2604 -0.3334
 8291SOL     OW36331   3.072   0.278   8.624  0.0547 -0.4396  0.3765
 8291SOL    HW136332   3.163   0.255   8.611  0.1997 -0.4582  1.3753
 8291SOL    HW236333   3.085   0.372   8.631 -1.8947 -0.2281  1.4063
 8292SOL     OW36334   0.100   2.395   4.431 -0.2367 -0.1066 -0.4089
 8292SOL    HW136335   0.111   2.340   4.509  0.4333  1.2868  0.4755
 8292SOL    HW236336   0.160   2.348   4.373  0.3697 -0.7485  0.7133
 8293SOL     OW36337   1.896   0.577  11.749 -0.0423 -0.3369  0.8878
 8293SOL    HW136338   1.825   0.529  11.705  1.0048 -0.3301 -0.8048
 8293SOL    HW236339   1.973   0.524  11.729  0.6876  1.4362 -0.9950
 8294SOL     OW36340   3.699   2.315   8.544 -0.3781 -0.2828  0.4620
 8294SOL    HW136341   3.743   2.363   8.615 -0.3603 -0.2554  0.4325
 8294SOL    HW236342   3.630   2.375   8.518  0.8388 -0.0112 -2.1602
 8295SOL     OW36343   2.670   0.263   0.525 -0.0660 -0.0654  0.4465
 8295SOL    HW136344   2.640   0.346   0.562  1.9669  0.6257  0.5274
 8295SOL    HW236345   2.705   0.225   0.606 -3.7568  0.5435  2.3260
 8296SOL     OW36346   1.902   1.749  17.342  0.2236 -0.1735 -0.1141
 8296SOL    HW136347   1.870   1.740  17.252  1.3291  0.5211 -0.5788
 8296SOL    HW236348   1.903   1.662  17.382  0.1170 -1.2084 -2.3569
 8297SOL     OW36349   1.583   3.255   7.558 -0.3481 -0.4802 -0.6426
 8297SOL    HW136350   1.623   3.337   7.585  0.1324 -1.5492  1.9685
 8297SOL    HW236351   1.633   3.234   7.479  0.7212 -0.6091  0.0709
 8298SOL     OW36352   1.932   1.456   6.318 -0.2267  0.2335 -0.3457
 8298SOL    HW136353   2.004   1.467   6.380  0.7503  1.6581 -1.7420
 8298SOL    HW236354   1.967   1.409   6.242  1.0245  0.7614 -0.0807
 8299SOL     OW36355   4.385   1.439   6.856  0.0729 -0.4579 -0.1096
 8299SOL    HW136356   4.418   1.528   6.841  2.7872 -1.4088  0.1399
 8299SOL    HW236357   4.316   1.469   6.916 -0.1851  1.2644 -1.2565
 8300SOL     OW36358   3.057   3.425   3.560 -0.1383 -0.2408  0.5403
 8300SOL    HW136359   3.003   3.486   3.510 -0.0103 -0.7524 -0.2145
 8300SOL    HW236360   3.144   3.465   3.553  0.2142 -1.2477 -0.7216
 8301SOL     OW36361   2.099   1.863   3.792 -0.4094 -0.2066 -0.3183
 8301SOL    HW136362   2.004   1.859   3.807 -0.6622  0.5818 -1.7156
 8301SOL    HW236363   2.109   1.953   3.760 -0.0023  0.5761  2.0336
 8302SOL     OW36364   0.017   3.546   2.889  0.4175  0.1481  0.5984
 8302SOL    HW136365   4.665   3.550   2.828 -0.7137 -3.4995  1.7045
 8302SOL    HW236366   0.092   3.556   2.830  0.0051  0.6138  0.1567
 8303SOL     OW36367   2.133   4.496   1.053  0.2665 -0.6958 -0.2331
 8303SOL    HW136368   2.131   4.591   1.066 -1.0873 -0.9102  1.0876
 8303SOL    HW236369   2.039   4.478   1.060 -0.1399  1.3448 -0.2842
 8304SOL     OW36370   4.645   1.293   5.045 -0.6202 -0.0555 -0.0918
 8304SOL    HW136371   0.003   1.319   5.093  1.3288 -0.1640 -3.2466
 8304SOL    HW236372   4.649   1.198   5.062  3.3586  0.4086  1.6181
 8305SOL     OW36373   3.646   1.901   1.485  0.3675 -0.0751  0.2973
 8305SOL    HW136374   3.663   1.995   1.479 -0.4010  0.0392 -0.1326
 8305SOL    HW236375   3.670   1.870   1.572 -1.3652 -1.6285  0.2134
 8306SOL     OW36376   3.607   2.310   6.235 -0.1767  0.1384 -0.2602
 8306SOL    HW136377   3.647   2.225   6.256 -0.2836 -0.1149 -1.0480
 8306SOL    HW236378   3.599   2.312   6.139 -2.8246 -1.2976 -0.0664
 8307SOL     OW36379   3.720   1.715  12.680  0.2838  0.6801 -0.4000
 8307SOL    HW136380   3.725   1.752  12.768  1.0726 -2.5885  0.8917
 8307SOL    HW236381   3.803   1.670  12.665  0.9430  1.7103  0.1719
 8308SOL     OW36382   0.648   2.565   2.286 -0.1545 -0.0511  0.4371
 8308SOL    HW136383   0.694   2.571   2.202  1.8589 -0.9632  1.4738
 8308SOL    HW236384   0.673   2.475   2.308 -2.0079 -0.6623  0.0055
 8309SOL     OW36385   2.733   3.340  10.155 -0.0910  0.0807 -0.2751
 8309SOL    HW136386   2.720   3.433  10.138  3.4958  0.2431 -2.1027
 8309SOL    HW236387   2.671   3.326  10.226  0.4530 -0.4658  0.0941
 8310SOL     OW36388   1.152   2.103  10.809 -0.3930 -0.0017  0.3316
 8310SOL    HW136389   1.181   2.109  10.718 -0.6851  1.4736  0.3443
 8310SOL    HW236390   1.064   2.139  10.803  0.0124  0.8619 -0.2730
 8311SOL     OW36391   3.924   0.142   1.198  0.1985 -0.2939  0.1072
 8311SOL    HW136392   3.878   0.205   1.144  1.8425  0.1414 -0.7839
 8311SOL    HW236393   3.924   0.189   1.281  1.7699 -2.3877  1.3113
 8312SOL     OW36394   0.850   1.832   8.558 -0.2517  0.0360 -0.1875
 8312SOL    HW136395   0.770   1.789   8.529 -0.1263  1.0841 -2.1386
 8312SOL    HW236396   0.842   1.911   8.504 -0.8065 -0.3055 -0.6006
 8313SOL     OW36397   0.904   3.404  12.985 -0.5940 -0.2309  0.2902
 8313SOL    HW136398   0.812   3.416  13.007 -0.1875 -0.9424  2.3061
 8313SOL    HW236399   0.900   3.348  12.907 -0.6892  0.6856 -0.3675
 8314SOL     OW36400   4.262   4.095   6.601 -0.3568  0.0566 -0.1344
 8314SOL    HW136401   4.326   4.030   6.630  0.4443  1.3881  1.0769
 8314SOL    HW236402   4.191   4.078   6.662  1.2506 -3.7009  0.6618
 8315SOL     OW36403   4.079   3.919  17.318 -0.0279  0.3409 -0.1758
 8315SOL    HW136404   4.020   3.970  17.263 -0.7251 -1.2782 -0.8943
 8315SOL    HW236405   4.140   3.990  17.341  0.9006 -0.7228  0.6190
 8316SOL     OW36406   0.842   0.555  12.345 -0.2827 -0.6049  0.0473
 8316SOL    HW136407   0.848   0.476  12.399  0.5667  0.3473  1.3595
 8316SOL    HW236408   0.760   0.585  12.383  0.1486  1.6500 -0.8114
 8317SOL     OW36409   4.262   1.018   3.423  0.0630 -0.6796  0.3754
 8317SOL    HW136410   4.214   1.034   3.341  1.2438  0.9876  0.0065
 8317SOL    HW236411   4.295   0.929   3.413  1.0545 -0.4868  1.9420
 8318SOL     OW36412   2.169   2.118   3.696 -0.2593  0.1551  0.4057
 8318SOL    HW136413   2.098   2.156   3.747 -0.4855  0.3862 -0.0825
 8318SOL    HW236414   2.256   2.144   3.728  0.0007 -0.9566  0.5795
 8319SOL     OW36415   1.319   3.809   8.992 -0.4974  0.1196 -0.3744
 8319SOL    HW136416   1.234   3.785   9.027 -0.2333  0.3874  0.4613
 8319SOL    HW236417   1.353   3.851   9.071 -0.7843  0.6488 -0.5365
 8320SOL     OW36418   3.471   4.566   4.190 -0.3501 -0.0186 -0.2174
 8320SOL    HW136419   3.455   4.514   4.269  1.9746  0.4987  0.5925
 8320SOL    HW236420   3.482   4.657   4.218 -1.2902 -0.3284  1.1467
 8321SOL     OW36421   1.010   0.139   3.814 -0.1861 -0.1864  0.2318
 8321SOL    HW136422   1.047   0.222   3.846  0.2192  0.2503 -1.3599
 8321SOL    HW236423   1.026   0.081   3.889 -1.4429  1.6043  1.8923
 8322SOL     OW36424   2.191   1.265   9.836 -0.0092  0.2036 -0.2954
 8322SOL    HW136425   2.258   1.297   9.775 -0.0689  1.0908  0.0994
 8322SOL    HW236426   2.237   1.294   9.914 -2.1222  3.6960 -0.3483
 8323SOL     OW36427   0.760   3.428   5.710 -0.1794 -0.3167 -0.8076
 8323SOL    HW136428   0.811   3.351   5.686  0.3087 -0.3599  0.3733
 8323SOL    HW236429   0.673   3.399   5.683 -1.0269  2.4535 -1.0679
 8324SOL     OW36430   0.823   0.798   5.339  0.1784  0.7636 -0.0450
 8324SOL    HW136431   0.831   0.860   5.266  4.2294  0.2800  0.0299
 8324SOL    HW236432   0.779   0.728   5.290  1.2761 -0.0802  0.1883
 8325SOL     OW36433   0.297   4.498   2.033  0.1912 -0.2228  0.2435
 8325SOL    HW136434   0.232   4.514   2.101  0.1290  1.5616 -0.2566
 8325SOL    HW236435   0.370   4.484   2.093  0.7358 -2.4890 -0.9435
 8326SOL     OW36436   3.411   4.558   0.830 -0.1066  0.1039 -0.1668
 8326SOL    HW136437   3.324   4.549   0.792 -0.3900 -1.8157  0.9040
 8326SOL    HW236438   3.407   4.500   0.907  2.5426 -1.4301 -1.1841
 8327SOL     OW36439   2.620   3.265   0.716 -0.3270  0.1046 -0.2880
 8327SOL    HW136440   2.614   3.224   0.629 -0.3871 -2.0073  0.7170
 8327SOL    HW236441   2.591   3.353   0.692  0.0226 -0.0228 -1.1786
 8328SOL     OW36442   3.855   2.618   5.302 -0.3718  0.3079 -0.4380
 8328SOL    HW136443   3.840   2.660   5.217 -2.1316 -0.2022 -0.3739
 8328SOL    HW236444   3.804   2.664   5.368  0.1620  0.9596 -0.4830
 8329SOL     OW36445   1.802   2.773   2.342 -0.7072  0.3018  0.5376
 8329SOL    HW136446   1.709   2.768   2.322 -0.6375 -2.8030  0.8444
 8329SOL    HW236447   1.828   2.697   2.290 -1.9166 -0.0836  0.5044
 8330SOL     OW36448   2.523   4.031   8.512  0.0987  0.2271  0.4051
 8330SOL    HW136449   2.527   4.021   8.416  0.9545  0.2978  0.4310
 8330SOL    HW236450   2.613   4.039   8.542 -0.9257  2.5289  2.8537
 8331SOL     OW36451   0.231   1.687  16.177  0.8537 -0.1625  0.3400
 8331SOL    HW136452   0.322   1.708  16.158  1.3696  1.2830  4.5375
 8331SOL    HW236453   0.240   1.620  16.244  2.0367 -1.2505 -0.8960
 8332SOL     OW36454   0.792   4.049   4.236 -0.4224 -0.1100  0.0395
 8332SOL    HW136455   0.739   4.017   4.309 -1.5405 -1.2215 -1.2640
 8332SOL    HW236456   0.839   4.118   4.283  1.5003 -1.4813  0.1118
 8333SOL     OW36457   3.834   1.022   0.002 -0.2963  0.1973 -0.1510
 8333SOL    HW136458   3.800   1.111  17.676  0.8049  0.3263 -2.2452
 8333SOL    HW236459   3.881   1.032   0.084 -1.8045 -2.0189  0.9879
 8334SOL     OW36460   0.848   2.816   2.552 -0.2797 -0.6142 -0.1559
 8334SOL    HW136461   0.918   2.763   2.590 -1.3934 -1.2350  1.0346
 8334SOL    HW236462   0.775   2.754   2.553 -1.6198  0.9771 -0.3970
 8335SOL     OW36463   0.041   4.061   8.557  0.1411 -0.0681  0.2012
 8335SOL    HW136464   0.019   4.031   8.645  1.2782 -0.9938  0.1827
 8335SOL    HW236465   0.001   3.993   8.502  1.1976 -0.0992 -0.5429
 8336SOL     OW36466   4.468   0.265   8.188 -0.1746  0.2482  0.0108
 8336SOL    HW136467   4.485   0.219   8.270 -0.0990  0.8218  0.3139
 8336SOL    HW236468   4.490   0.203   8.118  1.7435  0.6495  0.2611
 8337SOL     OW36469   0.999   2.380   3.443  0.2611  0.7516  0.5380
 8337SOL    HW136470   0.933   2.424   3.390  1.1129  0.1354 -1.0205
 8337SOL    HW236471   0.943   2.312   3.480 -0.5812  0.6718 -0.9150
 8338SOL     OW36472   2.832   2.218  16.631  0.3256  0.3212  0.3854
 8338SOL    HW136473   2.820   2.124  16.626  1.8636  0.1447 -0.0383
 8338SOL    HW236474   2.762   2.246  16.571 -1.7701 -1.7039  1.9112
 8339SOL     OW36475   0.435   1.101   1.314  0.0940 -0.3602  0.1848
 8339SOL    HW136476   0.387   1.064   1.388  0.5386 -1.3202 -0.0072
 8339SOL    HW236477   0.502   1.151   1.360 -1.4609  1.9084  0.0265
 8340SOL     OW36478   2.179   3.679   3.055  0.0637 -0.3793 -0.2802
 8340SOL    HW136479   2.261   3.660   3.009  0.4645  0.1333  0.2320
 8340SOL    HW236480   2.138   3.592   3.056 -0.0433 -0.3341 -0.7888
 8341SOL     OW36481   2.784   1.882   5.008  0.1173 -0.0877 -0.2047
 8341SOL    HW136482   2.693   1.890   5.038  0.5182 -1.1662  1.2688
 8341SOL    HW236483   2.818   1.808   5.058  0.8456 -0.3025 -1.0189
 8342SOL     OW36484   1.545   1.115   2.137 -0.2319  0.5620 -0.0234
 8342SOL    HW136485   1.571   1.097   2.046 -0.6488 -0.8696  0.1454
 8342SOL    HW236486   1.525   1.207   2.123  0.7829  0.7003 -0.6059
 8343SOL     OW36487   3.606   2.221   0.679 -0.2428 -0.2120 -0.3214
 8343SOL    HW136488   3.653   2.303   0.696  0.0328 -0.7661  1.5474
 8343SOL    HW236489   3.519   2.255   0.655  0.4543  0.4238 -1.9647
 8344SOL     OW36490   3.860   2.040   4.759 -0.3476  0.4054  0.2350
 8344SOL    HW136491   3.819   2.017   4.675  0.1075 -1.1323  0.4317
 8344SOL    HW236492   3.952   2.019   4.740 -0.9785  0.9987 -3.5109
 8345SOL     OW36493   3.383   3.995  15.514 -0.2148 -0.0924 -0.3630
 8345SOL    HW136494   3.436   4.035  15.583  0.7523 -0.6750 -0.7713
 8345SOL    HW236495   3.335   3.925  15.557  0.9816 -0.4698  0.3648
 8346SOL     OW36496   3.574   2.367   7.840 -0.1213 -0.2600 -0.4908
 8346SOL    HW136497   3.543   2.398   7.925 -1.3087  0.8869 -1.3345
 8346SOL    HW236498   3.532   2.434   7.786 -1.2010  0.2456  0.9881
 8347SOL     OW36499   1.508   2.146  13.600 -0.0631  0.3768 -0.3675
 8347SOL    HW136500   1.561   2.206  13.653  0.2724  1.5894 -2.0708
 8347SOL    HW236501   1.526   2.185  13.514 -4.5027 -0.0801 -1.4954
 8348SOL     OW36502   2.748   4.426   7.138  0.1256  0.2214  0.3831
 8348SOL    HW136503   2.799   4.368   7.194 -1.1874  0.5546  1.9465
 8348SOL    HW236504   2.736   4.375   7.058  3.0273 -0.6971  0.5588
 8349SOL     OW36505   1.448   0.642   7.089  0.4326 -0.0983 -0.4517
 8349SOL    HW136506   1.426   0.560   7.047 -0.1605 -0.0667 -0.2041
 8349SOL    HW236507   1.498   0.606   7.162  1.7625  0.2373 -1.1948
 8350SOL     OW36508   0.605   0.916  12.762 -0.5815  0.3998  0.2184
 8350SOL    HW136509   0.697   0.934  12.783 -0.6231 -0.5674  1.2589
 8350SOL    HW236510   0.604   0.827  12.797  3.8575 -0.1221 -0.9835
 8351SOL     OW36511   1.866   2.069  10.048  0.1466 -0.3115 -0.1677
 8351SOL    HW136512   1.871   1.975  10.033  2.6295 -0.2112 -0.0107
 8351SOL    HW236513   1.793   2.068  10.110 -0.5738 -2.1874 -1.0554
 8352SOL     OW36514   1.530   4.197   9.178  0.0266 -0.2079  0.2249
 8352SOL    HW136515   1.564   4.246   9.253 -0.0777 -2.3286  1.6444
 8352SOL    HW236516   1.436   4.214   9.183 -0.4625 -2.4472 -1.4646
 8353SOL     OW36517   2.110   4.330   7.409  0.4440  0.3832  0.2559
 8353SOL    HW136518   2.055   4.252   7.395 -0.8743  1.5113 -0.8638
 8353SOL    HW236519   2.102   4.339   7.504 -0.6056 -3.3034  0.5333
 8354SOL     OW36520   2.096   4.332   8.169  0.4782 -0.0746 -0.0236
 8354SOL    HW136521   2.163   4.383   8.214  0.9249 -0.5574 -0.1412
 8354SOL    HW236522   2.020   4.359   8.220  0.8930 -0.1287  0.6290
 8355SOL     OW36523   2.681   0.721  16.208  0.0841  0.0444  0.1480
 8355SOL    HW136524   2.707   0.796  16.261 -1.1156 -1.2765  2.6050
 8355SOL    HW236525   2.680   0.762  16.122 -1.3788 -1.7327 -0.6908
 8356SOL     OW36526   2.321   0.773  10.997  0.0360  0.2784  0.2951
 8356SOL    HW136527   2.249   0.826  11.032 -1.0527 -1.8115  1.2405
 8356SOL    HW236528   2.362   0.739  11.076  0.5630 -1.0586 -0.5527
 8357SOL     OW36529   1.846   0.820   2.486  0.6968 -0.2096  0.3003
 8357SOL    HW136530   1.787   0.840   2.414  1.3718  0.2743 -0.1245
 8357SOL    HW236531   1.815   0.741   2.529  1.4288 -0.2023  0.8411
 8358SOL     OW36532   4.241   2.259   7.150 -0.0547  0.6546  0.0670
 8358SOL    HW136533   4.298   2.336   7.160  0.6726  0.1390 -0.1394
 8358SOL    HW236534   4.288   2.212   7.081  0.9841 -0.0950  1.2948
 8359SOL     OW36535   1.152   3.993   2.582  0.1069 -0.2867  0.1940
 8359SOL    HW136536   1.122   4.001   2.492 -1.1647 -2.3683  0.4327
 8359SOL    HW236537   1.233   4.044   2.582 -1.0235  1.5090 -0.9426
 8360SOL     OW36538   4.130   0.662   6.081  0.4225 -0.0013  0.6076
 8360SOL    HW136539   4.178   0.589   6.120 -0.2023 -0.6529  0.1693
 8360SOL    HW236540   4.203   0.722   6.095  0.6189 -0.1675  0.2918
 8361SOL     OW36541   2.009   4.404   0.430  0.1329  0.2718 -0.3666
 8361SOL    HW136542   1.955   4.410   0.509  1.5879 -0.1705  0.6581
 8361SOL    HW236543   1.954   4.354   0.371 -0.8428  0.0224  0.7504
 8362SOL     OW36544   2.370   4.455   5.907 -0.0886  0.5544 -0.0167
 8362SOL    HW136545   2.296   4.498   5.950 -1.1017  1.2079 -2.4451
 8362SOL    HW236546   2.369   4.370   5.951 -1.7031 -1.1000 -3.2417
 8363SOL     OW36547   3.717   3.892   3.974 -0.1846  0.2177  0.0657
 8363SOL    HW136548   3.710   3.857   4.062  3.2209 -3.2531 -1.0690
 8363SOL    HW236549   3.642   3.853   3.930  1.2245  0.2289 -2.3743
 8364SOL     OW36550   4.492   4.318   4.928  0.5535 -0.2921 -0.1087
 8364SOL    HW136551   4.441   4.262   4.986  0.4400  0.1943  0.2506
 8364SOL    HW236552   4.498   4.396   4.982  0.2881  0.1151 -0.6685
 8365SOL     OW36553   0.785   1.799   2.629 -0.2188  0.5517 -0.3055
 8365SOL    HW136554   0.704   1.843   2.654 -0.8961 -1.0013  0.2231
 8365SOL    HW236555   0.819   1.847   2.553  1.0711 -1.6083 -1.1073
 8366SOL     OW36556   0.381   2.845  13.795  0.2385  0.3000 -0.9440
 8366SOL    HW136557   0.421   2.874  13.713  1.3637  0.2385 -0.4166
 8366SOL    HW236558   0.319   2.917  13.808 -0.4957  0.1383 -3.5668
 8367SOL     OW36559   3.318   0.918   1.854  0.1471  0.7225 -0.2100
 8367SOL    HW136560   3.409   0.905   1.826  0.8319  1.0818  1.8254
 8367SOL    HW236561   3.291   0.980   1.786  0.8416  1.3230  0.0615
 8368SOL     OW36562   1.988   2.650   7.425  0.3904 -0.3939 -0.8326
 8368SOL    HW136563   2.058   2.672   7.365  0.2530 -2.4139 -1.7213
 8368SOL    HW236564   2.042   2.607   7.491  0.5917  0.7339 -0.2638
 8369SOL     OW36565   0.991   3.632   8.165  0.0296 -0.4450 -0.3016
 8369SOL    HW136566   0.899   3.635   8.191 -0.1107  0.3577 -0.8876
 8369SOL    HW236567   1.031   3.624   8.252  1.4187  3.3797 -0.6038
 8370SOL     OW36568   1.932   3.478   2.694 -0.1623 -0.4280  0.1565
 8370SOL    HW136569   1.866   3.461   2.627  0.8759  1.1447 -1.2506
 8370SOL    HW236570   2.009   3.456   2.640  1.8238 -1.1842  3.2940
 8371SOL     OW36571   0.440   1.103   3.266  0.5188 -0.7772  0.0838
 8371SOL    HW136572   0.381   1.031   3.290 -1.9361  1.2717  0.2390
 8371SOL    HW236573   0.427   1.108   3.172  3.6312 -0.0902 -0.3272
 8372SOL     OW36574   0.281   4.204  14.792  0.7050 -0.3281 -0.0377
 8372SOL    HW136575   0.302   4.294  14.816  0.8981 -1.2713  3.3271
 8372SOL    HW236576   0.352   4.182  14.732  0.0126 -1.0750 -0.5869
 8373SOL     OW36577   3.316   0.452  15.610 -0.1679  1.1229 -0.5229
 8373SOL    HW136578   3.230   0.427  15.575 -0.3934  2.6770 -1.0614
 8373SOL    HW236579   3.366   0.385  15.564 -0.6353 -0.2642  0.9721
 8374SOL     OW36580   3.973   1.919  13.610  0.0182  0.2325 -0.6326
 8374SOL    HW136581   3.898   1.967  13.574 -0.9426  0.1169  1.1972
 8374SOL    HW236582   4.001   1.970  13.686 -0.2337  2.0506 -1.7569
 8375SOL     OW36583   3.515   1.230   6.501  0.2526  0.2141  0.6340
 8375SOL    HW136584   3.571   1.194   6.570 -0.3311 -0.7713  0.5936
 8375SOL    HW236585   3.578   1.264   6.437 -0.5399 -1.4465 -1.0468
 8376SOL     OW36586   1.075   2.287   5.190  0.1550 -0.0197 -0.0439
 8376SOL    HW136587   1.167   2.297   5.212 -0.3028  0.1717  1.7387
 8376SOL    HW236588   1.078   2.303   5.095 -1.8315  1.8102  0.1963
 8377SOL     OW36589   0.010   1.207  14.876  0.2452  0.3607  0.4420
 8377SOL    HW136590   0.070   1.133  14.874 -0.8794 -0.5319 -0.4847
 8377SOL    HW236591   4.701   1.209  14.785 -1.8094  0.3210  1.1118
 8378SOL     OW36592   2.729   0.406   7.693  0.3548 -0.3005  0.1640
 8378SOL    HW136593   2.713   0.428   7.785 -0.5156 -1.1511  0.2181
 8378SOL    HW236594   2.654   0.348   7.680  0.6537 -0.8899  1.0046
 8379SOL     OW36595   1.061   3.158   2.517 -0.3855  0.0819  0.3392
 8379SOL    HW136596   1.007   3.174   2.594  0.8424  2.4178  0.7236
 8379SOL    HW236597   1.143   3.203   2.541  0.0383 -0.9013  0.7327
 8380SOL     OW36598   0.867   1.932  10.733  0.5990  0.0481  0.0729
 8380SOL    HW136599   0.796   1.995  10.749  0.3359 -0.3513  0.4513
 8380SOL    HW236600   0.915   1.936  10.816 -1.6868 -1.5081  1.4525
 8381SOL     OW36601   3.788   4.538   6.650 -0.6511  0.3425  0.2576
 8381SOL    HW136602   3.774   4.617   6.597  2.4332 -0.0160 -1.0844
 8381SOL    HW236603   3.812   4.483   6.576  0.7898  4.0994 -2.0817
 8382SOL     OW36604   3.235   0.435  15.189 -0.2543  0.3237 -0.2999
 8382SOL    HW136605   3.159   0.411  15.135 -1.3106 -1.5079  1.9943
 8382SOL    HW236606   3.188   0.470  15.264  0.4585  1.6660 -0.4908
 8383SOL     OW36607   3.906   1.652   5.990 -0.1550 -0.5642  0.1121
 8383SOL    HW136608   3.928   1.594   6.062 -1.5288 -3.3047 -1.6908
 8383SOL    HW236609   3.888   1.592   5.917  2.5343 -0.4360 -0.6648
 8384SOL     OW36610   1.369   1.138   5.129 -0.5130  0.3751  0.4428
 8384SOL    HW136611   1.443   1.173   5.078 -2.3833  0.8008 -1.9855
 8384SOL    HW236612   1.312   1.215   5.122 -0.4995  0.5727  2.4758
 8385SOL     OW36613   0.056   3.002  14.984  0.1041 -0.6710 -0.4348
 8385SOL    HW136614   0.100   2.917  14.985 -3.0444 -2.3132 -1.6323
 8385SOL    HW236615   0.111   3.062  15.034 -2.9547  2.1239 -0.4568
 8386SOL     OW36616   1.541   1.994   5.698 -0.2613  0.0145 -0.4135
 8386SOL    HW136617   1.552   1.909   5.741 -0.6591  1.3685  2.3673
 8386SOL    HW236618   1.452   1.986   5.663 -1.0308  1.2661  1.2502
 8387SOL     OW36619   0.432   0.532   3.658  0.1121  0.1186  0.0223
 8387SOL    HW136620   0.436   0.568   3.569 -0.0298 -0.8614 -0.3837
 8387SOL    HW236621   0.523   0.506   3.673 -0.1422 -0.7351  0.0824
 8388SOL     OW36622   2.249   3.281  10.906 -0.5371 -0.0796  0.3282
 8388SOL    HW136623   2.340   3.312  10.915 -0.4322  0.1986 -1.6617
 8388SOL    HW236624   2.195   3.351  10.942 -0.3569 -0.1357  0.7021
 8389SOL     OW36625   0.527   4.250   2.629 -0.4679 -0.9278  0.2982
 8389SOL    HW136626   0.593   4.313   2.658 -0.1839 -1.2738  0.4056
 8389SOL    HW236627   0.576   4.207   2.559  1.3295  0.4211  0.7161
 8390SOL     OW36628   1.021   1.997   5.181 -0.2474 -0.0982 -0.0748
 8390SOL    HW136629   1.035   2.088   5.208  0.1092  0.5856 -2.6251
 8390SOL    HW236630   1.086   1.942   5.225 -1.0869 -0.5180  0.6266
 8391SOL     OW36631   3.963   3.665   8.646  0.1208 -0.2715  0.0795
 8391SOL    HW136632   3.911   3.743   8.665  1.9138  1.4234 -1.8374
 8391SOL    HW236633   3.894   3.604   8.621 -0.8238  0.0425  1.9902
 8392SOL     OW36634   0.713   4.686   5.914  0.0126 -0.2197 -0.0373
 8392SOL    HW136635   0.718   4.672   6.008  0.7898  0.6433  0.0506
 8392SOL    HW236636   0.674   0.052   5.906  0.8944  0.1496 -0.3270
 8393SOL     OW36637   4.680   1.656   0.711  0.2594 -0.2766  0.7879
 8393SOL    HW136638   4.672   1.721   0.781 -0.0627 -0.4168  0.8802
 8393SOL    HW236639   4.674   1.572   0.756  0.0382 -0.7052 -0.0426
 8394SOL     OW36640   1.242   1.837   3.630 -0.3047 -0.0460 -0.3424
 8394SOL    HW136641   1.179   1.858   3.561  0.3768 -1.3614 -1.3857
 8394SOL    HW236642   1.318   1.880   3.591 -0.1068  1.7243  2.0476
 8395SOL     OW36643   0.930   4.673   1.997  0.1508  0.3514  0.9204
 8395SOL    HW136644   0.842   4.636   1.986  0.0901  1.0886 -1.1341
 8395SOL    HW236645   0.930   4.674   2.093 -0.9257 -0.4208  0.9196
 8396SOL     OW36646   0.973   3.802  17.494 -0.1414 -0.4732 -0.0154
 8396SOL    HW136647   0.920   3.871  17.534 -2.0877  0.8421 -4.8986
 8396SOL    HW236648   1.043   3.803  17.559 -1.0978  0.2486  1.0067
 8397SOL     OW36649   1.770   4.622  15.385 -0.0891  0.0120  0.2956
 8397SOL    HW136650   1.783   4.714  15.407  1.9167 -0.6046  1.8314
 8397SOL    HW236651   1.689   4.601  15.431 -1.0895  1.1846 -0.9480
 8398SOL     OW36652   2.274   0.105   0.742 -0.4389 -0.9019 -0.1971
 8398SOL    HW136653   2.302   0.080   0.655  1.2600 -1.5056  0.5276
 8398SOL    HW236654   2.321   0.186   0.759 -1.1507 -0.1817 -1.7398
 8399SOL     OW36655   1.091   1.061  10.382  0.0853 -0.0736 -0.7622
 8399SOL    HW136656   1.177   1.082  10.345  1.2070  0.0446  1.9442
 8399SOL    HW236657   1.042   1.135  10.345 -0.3385  0.5100  0.9706
 8400SOL     OW36658   2.710   0.486   8.938  0.2285 -0.0096 -0.3903
 8400SOL    HW136659   2.804   0.495   8.922  0.1642 -0.1558 -0.8461
 8400SOL    HW236660   2.705   0.514   9.030 -4.0621  0.3743 -0.7567
 8401SOL     OW36661   3.054   1.967   6.664 -0.4655 -0.4183 -0.1814
 8401SOL    HW136662   3.126   2.029   6.650 -0.9380 -0.0428 -0.9941
 8401SOL    HW236663   3.104   1.899   6.708  1.2349 -0.3355 -1.9993
 8402SOL     OW36664   3.987   3.062   8.522 -0.3414  0.2814 -0.6151
 8402SOL    HW136665   3.952   2.979   8.555  1.0613  0.3346  1.0435
 8402SOL    HW236666   4.038   3.097   8.596  0.0357 -1.3621 -0.1067
 8403SOL     OW36667   3.575   0.229   9.208  0.2592 -0.1955  0.3140
 8403SOL    HW136668   3.520   0.189   9.275  0.9069 -1.8048 -0.1177
 8403SOL    HW236669   3.610   0.302   9.260 -1.0581 -0.1497  1.1371
 8404SOL     OW36670   4.417   3.749   6.357 -0.1875 -0.3066  0.6264
 8404SOL    HW136671   4.435   3.700   6.277  0.0061  1.7043 -0.5893
 8404SOL    HW236672   4.348   3.698   6.399  0.2064 -0.3231  1.2468
 8405SOL     OW36673   2.301   1.453   3.561 -0.8007  0.3423  0.1966
 8405SOL    HW136674   2.294   1.406   3.479 -1.1593  2.1290 -0.8047
 8405SOL    HW236675   2.293   1.543   3.529  0.1626  0.1187 -0.6455
 8406SOL     OW36676   2.453   4.336   4.953 -0.4109 -0.3486  0.6062
 8406SOL    HW136677   2.415   4.300   5.033 -0.8335 -2.0202 -0.3414
 8406SOL    HW236678   2.414   4.423   4.962  0.1683  0.1651 -1.9079
 8407SOL     OW36679   3.327   0.974   4.461  0.1758 -0.2333  0.5152
 8407SOL    HW136680   3.286   0.901   4.508 -3.3497  3.0450  2.5411
 8407SOL    HW236681   3.313   1.048   4.522 -2.7013 -1.6350  1.5576
 8408SOL     OW36682   0.843   3.258   4.756  0.5081  0.2400 -0.1237
 8408SOL    HW136683   0.792   3.316   4.700  0.0813 -1.0359 -1.0571
 8408SOL    HW236684   0.926   3.298   4.732  0.4614  0.2134 -0.3318
 8409SOL     OW36685   1.887   4.308   4.092  0.3433  0.0155 -0.1174
 8409SOL    HW136686   1.966   4.360   4.077  0.6410  0.6157  3.5703
 8409SOL    HW236687   1.924   4.223   4.069  0.0700  0.2360 -1.3776
 8410SOL     OW36688   3.898   2.287   7.429  0.5111  0.1227 -0.3833
 8410SOL    HW136689   3.822   2.255   7.380  0.5784  1.0564 -1.1071
 8410SOL    HW236690   3.964   2.258   7.365  0.3853 -0.9354 -0.0333
 8411SOL     OW36691   1.390   0.568   7.575  0.2267 -0.3785 -0.3752
 8411SOL    HW136692   1.443   0.646   7.593  1.3029 -1.6185  1.8194
 8411SOL    HW236693   1.408   0.509   7.648 -2.6333  0.4121  0.9981
 8412SOL     OW36694   0.304   2.714   2.582  0.1389  0.0943 -0.0236
 8412SOL    HW136695   0.305   2.681   2.672  0.2922 -1.1209 -0.4719
 8412SOL    HW236696   0.370   2.656   2.543  1.9300  1.6789  0.6556
 8413SOL     OW36697   3.226   2.514   7.316 -0.8681 -0.2720 -0.6862
 8413SOL    HW136698   3.199   2.442   7.258 -0.9677 -0.0484 -0.9206
 8413SOL    HW236699   3.139   2.541   7.344 -0.9983 -1.7072  0.2655
 8414SOL     OW36700   1.509   3.081   8.695  0.7841 -0.2540 -0.2544
 8414SOL    HW136701   1.552   3.128   8.767 -2.0261 -0.6115  1.6427
 8414SOL    HW236702   1.420   3.061   8.723  1.1674  0.4115  1.4574
 8415SOL     OW36703   3.344   3.593   8.081 -0.2957  0.3124  0.0482
 8415SOL    HW136704   3.393   3.547   8.149 -1.2100 -1.1020 -0.2636
 8415SOL    HW236705   3.355   3.685   8.106  1.5933 -0.2138  1.1541
 8416SOL     OW36706   2.457   4.607   6.668 -0.8262 -0.5741 -0.7531
 8416SOL    HW136707   2.443   4.545   6.739  3.3257 -0.4166  0.1964
 8416SOL    HW236708   2.511   4.553   6.610 -1.1967 -0.0559 -1.5868
 8417SOL     OW36709   1.262   0.325   1.027  0.2058 -0.4404 -0.2860
 8417SOL    HW136710   1.211   0.294   0.952  1.6687  0.5907 -1.6957
 8417SOL    HW236711   1.200   0.374   1.080  0.2014 -0.3396 -0.3831
 8418SOL     OW36712   3.274   0.570   8.899 -0.2081  0.0569 -0.7524
 8418SOL    HW136713   3.253   0.530   8.983  1.7925 -0.4305 -0.4761
 8418SOL    HW236714   3.329   0.506   8.853  0.5220 -1.5022  2.3137
 8419SOL     OW36715   1.673   4.542   2.483 -0.4388  0.6368  0.5105
 8419SOL    HW136716   1.606   4.580   2.426  1.1830  0.0648 -1.7792
 8419SOL    HW236717   1.750   4.554   2.428 -0.3089  2.7113  1.1334
 8420SOL     OW36718   1.540   1.810   4.244 -0.0099 -0.6131 -0.4987
 8420SOL    HW136719   1.562   1.898   4.275 -0.7532 -0.5774 -0.0748
 8420SOL    HW236720   1.537   1.814   4.148  1.0505 -1.2734 -0.5657
 8421SOL     OW36721   3.894   1.647  13.647  0.1672 -0.4957  0.2463
 8421SOL    HW136722   3.912   1.741  13.638  1.9831 -0.7077  1.4991
 8421SOL    HW236723   3.851   1.612  13.569 -1.5445 -1.1468  1.4852
 8422SOL     OW36724   0.977   0.422  11.717 -0.1185  0.8686 -0.2632
 8422SOL    HW136725   0.916   0.465  11.778 -0.1374  1.4404 -0.6835
 8422SOL    HW236726   1.061   0.428  11.763  1.0883 -0.5238 -2.2903
 8423SOL     OW36727   3.754   2.245   4.462  0.2278  0.2053 -0.0242
 8423SOL    HW136728   3.734   2.223   4.372  1.2125 -1.2769  0.1216
 8423SOL    HW236729   3.767   2.158   4.500 -2.9152 -1.0111 -1.7087
 8424SOL     OW36730   3.514   1.661  10.999 -0.8223  0.1896  0.3879
 8424SOL    HW136731   3.484   1.669  11.089 -0.4358 -0.4294  0.5707
 8424SOL    HW236732   3.437   1.617  10.963 -0.6206  1.1027 -1.1574
 8425SOL     OW36733   3.920   0.184  14.362  0.3002  0.6923  0.4133
 8425SOL    HW136734   3.994   0.231  14.401  0.1840 -0.1993  1.6792
 8425SOL    HW236735   3.876   0.141  14.434 -1.3487  2.4134  0.4442
 8426SOL     OW36736   2.593   1.416   2.736 -0.4569 -0.1680  0.0756
 8426SOL    HW136737   2.631   1.423   2.648  0.1043 -0.4308  0.2960
 8426SOL    HW236738   2.603   1.322   2.754 -0.1516  0.4509  3.1326
 8427SOL     OW36739   4.015   3.921   0.335 -0.4909  0.0503 -0.1225
 8427SOL    HW136740   3.927   3.884   0.325 -0.7400  0.6456 -0.1222
 8427SOL    HW236741   3.998   3.971   0.415 -1.0096  0.2245 -0.3418
 8428SOL     OW36742   1.002   2.336   8.009 -0.1540 -0.4195 -0.4290
 8428SOL    HW136743   1.087   2.298   7.984  0.6002  0.6043  0.6200
 8428SOL    HW236744   0.960   2.355   7.925 -1.2589  0.2879  0.2824
 8429SOL     OW36745   0.748   2.129   8.813 -0.4362 -0.1905  0.1582
 8429SOL    HW136746   0.782   2.174   8.890 -4.1793 -0.5398  2.0131
 8429SOL    HW236747   0.801   2.161   8.740 -1.0987  0.2418 -0.1331
 8430SOL     OW36748   1.103   0.729   6.737 -0.1199  0.0185  0.4898
 8430SOL    HW136749   1.014   0.704   6.711 -0.0798 -1.1172  1.4383
 8430SOL    HW236750   1.090   0.769   6.822  1.8059  2.2145 -0.2452
 8431SOL     OW36751   0.657   1.064   6.188 -0.6735 -0.0678 -0.1561
 8431SOL    HW136752   0.664   1.017   6.271  0.1647 -0.0681 -0.2332
 8431SOL    HW236753   0.725   1.021   6.137 -0.8890 -1.7582  0.9921
 8432SOL     OW36754   2.435   0.824   9.996 -0.1577  0.2020  0.3509
 8432SOL    HW136755   2.497   0.896   9.988 -0.2941  0.2465 -0.3024
 8432SOL    HW236756   2.351   0.870   9.999 -0.7526 -0.8499 -0.2257
 8433SOL     OW36757   1.114   3.062  12.412  0.2152 -0.0898  0.1264
 8433SOL    HW136758   1.199   3.089  12.446  0.6580 -0.5808 -0.5821
 8433SOL    HW236759   1.049   3.090  12.476 -1.3992 -1.3722 -0.9500
 8434SOL     OW36760   2.726   3.622   6.268  0.1175 -0.2176 -0.3697
 8434SOL    HW136761   2.642   3.577   6.279  0.0698 -0.2518 -0.8777
 8434SOL    HW236762   2.698   3.710   6.240  2.3329  0.2052 -1.2206
 8435SOL     OW36763   2.095   4.354  16.380  0.4030 -0.6083 -0.7639
 8435SOL    HW136764   2.188   4.330  16.378  1.0528  1.6849  1.4650
 8435SOL    HW236765   2.080   4.353  16.285  1.1035  1.6601 -0.8966
 8436SOL     OW36766   2.946   2.813  13.670 -0.0152  0.2546  0.3463
 8436SOL    HW136767   2.864   2.861  13.658  0.5424  1.7396  2.4142
 8436SOL    HW236768   2.924   2.729  13.630  1.7433 -0.0462 -0.0049
 8437SOL     OW36769   3.237   0.415  10.891  0.0621  0.1430 -0.1838
 8437SOL    HW136770   3.274   0.492  10.935  0.2316  0.5318 -1.0168
 8437SOL    HW236771   3.143   0.434  10.899  0.0104  0.3665 -1.4066
 8438SOL     OW36772   2.937   1.762   6.461 -0.0359  0.4409 -0.2992
 8438SOL    HW136773   2.951   1.822   6.388  0.3585  1.7738  0.8650
 8438SOL    HW236774   2.977   1.817   6.529 -2.0276 -0.4152  1.5484
 8439SOL     OW36775   0.876   3.432   4.067  0.2250  0.0888 -0.2466
 8439SOL    HW136776   0.801   3.378   4.042 -0.0992  1.8548 -2.9870
 8439SOL    HW236777   0.851   3.511   4.021 -1.5991 -0.1761  0.3025
 8440SOL     OW36778   3.375   0.949  16.788  0.3075  0.0908 -0.1131
 8440SOL    HW136779   3.300   0.980  16.838  0.8980  0.1803  0.7103
 8440SOL    HW236780   3.372   0.997  16.705 -1.8569 -1.2913 -0.8154
 8441SOL     OW36781   3.581   4.101   3.578  0.4279  0.9541  0.1851
 8441SOL    HW136782   3.548   4.012   3.590  1.9415  0.1998 -1.2616
 8441SOL    HW236783   3.550   4.156   3.650 -2.9416 -0.2221 -0.4028
 8442SOL     OW36784   4.248   3.120   4.249  0.5111  0.1321  0.6074
 8442SOL    HW136785   4.240   3.037   4.296  0.6978  0.6594  1.5786
 8442SOL    HW236786   4.336   3.127   4.213 -0.3438  0.2179 -1.5084
 8443SOL     OW36787   0.404   2.714   5.852 -0.5429 -0.0820  0.5925
 8443SOL    HW136788   0.368   2.775   5.916  1.7843  1.4093  0.4694
 8443SOL    HW236789   0.375   2.754   5.770  2.2382 -3.1627 -1.8715
 8444SOL     OW36790   2.716   0.306  11.406 -0.3630  0.1287 -0.6464
 8444SOL    HW136791   2.683   0.291  11.494 -0.4595  1.7431 -0.4081
 8444SOL    HW236792   2.764   0.387  11.425 -2.3061  1.3058 -0.7199
 8445SOL     OW36793   0.621   4.217   5.179  0.2598 -0.5816  0.1589
 8445SOL    HW136794   0.531   4.241   5.156  0.3184  1.7494  2.4606
 8445SOL    HW236795   0.643   4.277   5.249  0.0121  1.7767 -1.7836
 8446SOL     OW36796   1.467   3.287  11.200 -0.2014 -0.0657 -0.7311
 8446SOL    HW136797   1.478   3.353  11.268 -1.3542  1.0907 -1.6711
 8446SOL    HW236798   1.472   3.347  11.126  2.7199  0.3817 -0.1518
 8447SOL     OW36799   3.104   4.269   3.004  0.6167  0.0331 -0.0595
 8447SOL    HW136800   3.061   4.354   2.995  2.3291  0.8307 -0.7186
 8447SOL    HW236801   3.139   4.264   3.093 -1.5117  0.6258  0.8019
 8448SOL     OW36802   0.387   3.867  10.973  0.2786 -0.2743 -0.3636
 8448SOL    HW136803   0.309   3.920  10.959  0.7598  0.5563  0.1442
 8448SOL    HW236804   0.443   3.944  10.976  0.6611 -0.5841  0.3980
 8449SOL     OW36805   4.309   3.930   8.195 -0.1482  0.1045  0.1879
 8449SOL    HW136806   4.376   3.935   8.263 -0.9835  1.9660  0.8986
 8449SOL    HW236807   4.227   3.959   8.237 -0.6694 -0.7952 -0.2142
 8450SOL     OW36808   4.278   0.247   4.901  0.9614  1.0591  0.0345
 8450SOL    HW136809   4.304   0.187   4.971 -0.9978 -0.0100 -0.1393
 8450SOL    HW236810   4.245   0.176   4.845 -1.6458  2.0898  0.2547
 8451SOL     OW36811   0.579   3.344   4.822  0.0541  0.2183  0.3067
 8451SOL    HW136812   0.523   3.369   4.749 -0.7302 -3.7799 -0.4727
 8451SOL    HW236813   0.564   3.415   4.884 -0.9168 -0.7657  1.2063
 8452SOL     OW36814   2.441   3.928   7.274  0.0866  0.0862 -0.5143
 8452SOL    HW136815   2.347   3.943   7.264 -0.6027 -3.2145  1.1489
 8452SOL    HW236816   2.445   3.851   7.331  0.8729 -0.3341 -1.1320
 8453SOL     OW36817   2.553   4.524  17.551  0.2556  0.0795 -0.1433
 8453SOL    HW136818   2.548   4.464  17.476  0.7684  1.1124 -1.0183
 8453SOL    HW236819   2.649   4.520  17.555  0.3154  1.4103 -0.2359
 8454SOL     OW36820   2.958   2.931   3.003  0.1022 -0.1583 -0.0250
 8454SOL    HW136821   2.932   3.017   3.035  1.0923  0.1951 -0.2041
 8454SOL    HW236822   2.875   2.884   3.018 -1.6695  3.1781  0.6232
 8455SOL     OW36823   4.529   1.181   6.595 -0.2666 -0.5061  0.2329
 8455SOL    HW136824   4.445   1.212   6.630  1.1186  0.1818  2.8996
 8455SOL    HW236825   4.582   1.232   6.656 -1.1373 -0.7595  1.2016
 8456SOL     OW36826   0.582   3.765   3.872 -0.3618  0.0772  0.1999
 8456SOL    HW136827   0.567   3.681   3.915  1.4276 -0.6961 -0.6904
 8456SOL    HW236828   0.520   3.821   3.918 -0.1967  0.4300 -0.0113
 8457SOL     OW36829   0.853   0.363  14.064  0.6007 -0.7002 -0.1641
 8457SOL    HW136830   0.885   0.370  13.974  2.2927 -1.0813  0.4140
 8457SOL    HW236831   0.772   0.413  14.056  0.9044 -0.0464  0.8730
 8458SOL     OW36832   0.003   0.376   8.896 -0.0204  0.1686 -0.4100
 8458SOL    HW136833   0.001   0.400   8.803 -0.0784  0.6022 -0.2989
 8458SOL    HW236834   0.057   0.450   8.923  0.2906 -0.0645 -0.3910
 8459SOL     OW36835   2.457   4.672  10.285  0.0659  0.5699  0.1596
 8459SOL    HW136836   2.527   4.606  10.291  0.9420  1.2729 -2.5338
 8459SOL    HW236837   2.470   4.716  10.369 -0.1463  0.4335  0.2642
 8460SOL     OW36838   2.871   1.676   0.670 -0.1407 -0.8248  0.7348
 8460SOL    HW136839   2.872   1.772   0.678 -0.5618 -0.8004  0.4422
 8460SOL    HW236840   2.920   1.663   0.589 -1.5562  1.1653 -0.4393
 8461SOL     OW36841   0.110   3.740   0.518 -0.3953 -0.3240 -0.3144
 8461SOL    HW136842   0.143   3.827   0.539  1.6331 -1.1450 -0.0560
 8461SOL    HW236843   0.192   3.692   0.530  1.1435  1.7017 -2.7957
 8462SOL     OW36844   0.741   4.277   4.799 -0.0952 -0.5055  0.0469
 8462SOL    HW136845   0.831   4.282   4.768 -0.3425  0.8714 -0.4186
 8462SOL    HW236846   0.750   4.199   4.854 -1.4359  0.1535  1.2023
 8463SOL     OW36847   2.701   1.860  11.627  0.0999 -0.8193  0.0166
 8463SOL    HW136848   2.790   1.854  11.594  0.4346  1.0915  0.5910
 8463SOL    HW236849   2.713   1.809  11.707 -1.4513  1.2463  1.5478
 8464SOL     OW36850   3.298   1.497   1.404 -0.3794  0.7694 -0.2314
 8464SOL    HW136851   3.377   1.550   1.393  0.6237 -0.8573 -0.8787
 8464SOL    HW236852   3.238   1.532   1.338  2.0462  1.6388 -1.9930
 8465SOL     OW36853   4.488   1.778   7.490 -0.1213 -0.2114  0.7717
 8465SOL    HW136854   4.481   1.707   7.554  0.3978 -1.8647 -1.0291
 8465SOL    HW236855   4.500   1.852   7.551  0.8124  1.0830 -0.9910
 8466SOL     OW36856   3.595   3.381   8.751 -0.3335  0.0677  0.1781
 8466SOL    HW136857   3.625   3.316   8.814 -0.8352 -1.4283 -1.1135
 8466SOL    HW236858   3.664   3.377   8.686 -1.6202 -2.2556 -1.0447
 8467SOL     OW36859   3.851   1.367  11.686 -0.1766  0.1721 -0.1975
 8467SOL    HW136860   3.917   1.361  11.617  1.6675  2.1348  1.3927
 8467SOL    HW236861   3.896   1.432  11.740  0.1582 -0.4595  0.2959
 8468SOL     OW36862   4.355   3.394   1.587  0.4313 -0.0760  0.0263
 8468SOL    HW136863   4.368   3.299   1.589 -2.7668 -0.4876  1.5067
 8468SOL    HW236864   4.306   3.403   1.669  0.5451  1.3479 -0.0655
 8469SOL     OW36865   2.800   4.611   4.858 -0.2087  0.4091  0.0388
 8469SOL    HW136866   2.774   4.611   4.766 -1.4048 -2.6261  0.3669
 8469SOL    HW236867   2.791   4.518   4.879  3.1452  0.0361 -0.2543
 8470SOL     OW36868   0.944   4.576   8.454  0.0845  0.2083 -0.0534
 8470SOL    HW136869   0.871   4.535   8.501  1.8523 -2.6815  0.1758
 8470SOL    HW236870   1.017   4.565   8.515 -1.3248 -0.6685  1.4887
 8471SOL     OW36871   2.683   4.555  10.413  0.3139 -0.1589  0.1826
 8471SOL    HW136872   2.777   4.570  10.401  0.1514 -0.9781 -2.2322
 8471SOL    HW236873   2.667   4.602  10.495  0.0215 -2.1421  1.2610
 8472SOL     OW36874   2.854   4.471   4.061 -0.2123  0.1224  0.7367
 8472SOL    HW136875   2.810   4.501   4.140 -2.1649  0.5544 -0.5090
 8472SOL    HW236876   2.936   4.518   4.051  0.1044 -0.7481 -0.8271
 8473SOL     OW36877   3.373   1.321   7.335 -0.2665 -0.8106 -0.3534
 8473SOL    HW136878   3.446   1.350   7.390  0.7626 -1.0063 -1.6154
 8473SOL    HW236879   3.356   1.409   7.302 -1.6909 -0.8496  0.2579
 8474SOL     OW36880   1.950   0.077   5.574 -0.3522  0.3286 -0.7078
 8474SOL    HW136881   2.032   0.120   5.600  0.3824 -1.2781 -0.3634
 8474SOL    HW236882   1.967   0.089   5.481  1.2420  3.5414 -0.0024
 8475SOL     OW36883   1.889   2.666   9.583  0.2873  0.2427  0.2203
 8475SOL    HW136884   1.929   2.605   9.645  1.1613  0.7355  0.1423
 8475SOL    HW236885   1.802   2.627   9.570 -0.1194  0.9202  0.8848
 8476SOL     OW36886   4.543   0.665   5.222 -0.0698 -0.0258  0.1579
 8476SOL    HW136887   4.460   0.624   5.199  0.2761 -0.9180  0.4933
 8476SOL    HW236888   4.535   0.641   5.314  0.2170  1.4730  0.5811
 8477SOL     OW36889   4.250   3.626   2.387  0.4491  0.1959  0.0415
 8477SOL    HW136890   4.263   3.718   2.411  1.5005 -0.6503  2.6989
 8477SOL    HW236891   4.244   3.588   2.474  2.0313 -2.5642 -1.0528
 8478SOL     OW36892   4.445   2.245   7.470 -0.5618  0.3854 -0.2235
 8478SOL    HW136893   4.368   2.262   7.525 -0.5041  0.5529 -0.1928
 8478SOL    HW236894   4.474   2.333   7.444 -1.0759  0.8124  0.6264
 8479SOL     OW36895   4.156   3.223   5.826 -0.0310  0.0580 -0.0936
 8479SOL    HW136896   4.113   3.241   5.910 -0.1188 -0.3837 -0.0461
 8479SOL    HW236897   4.156   3.128   5.814 -0.3179  0.1432 -0.7743
 8480SOL     OW36898   2.050   4.479   3.273 -0.4014  0.0042  0.1679
 8480SOL    HW136899   2.124   4.437   3.317  1.3039  3.0438  0.1839
 8480SOL    HW236900   2.007   4.520   3.348 -1.0328  1.5143 -1.0336
 8481SOL     OW36901   2.829   1.125   2.789  0.3102  0.1762  0.4790
 8481SOL    HW136902   2.815   1.184   2.864 -0.7390  1.0067 -0.3722
 8481SOL    HW236903   2.886   1.178   2.734  0.0235  3.1755  3.0933
 8482SOL     OW36904   4.463   3.537   0.225  0.5230 -0.3643  0.0330
 8482SOL    HW136905   4.375   3.522   0.259  0.0384  0.9175 -0.6376
 8482SOL    HW236906   4.493   3.616   0.269  1.6622 -0.2978 -0.8616
 8483SOL     OW36907   3.232   2.297   9.024 -0.4016  0.5272  0.3530
 8483SOL    HW136908   3.280   2.266   9.101  0.3341  0.5080 -0.1157
 8483SOL    HW236909   3.177   2.219   9.016  0.3680 -0.3324  3.3132
 8484SOL     OW36910   3.875   3.091   4.285  0.4326  0.3782  0.5041
 8484SOL    HW136911   3.952   3.053   4.243 -0.1236 -0.0920 -0.1010
 8484SOL    HW236912   3.826   3.011   4.266  0.8867  0.5914 -1.5688
 8485SOL     OW36913   0.536   1.704   1.986 -0.1117 -0.6376 -0.0764
 8485SOL    HW136914   0.514   1.686   1.895 -0.9105 -0.3994  0.0672
 8485SOL    HW236915   0.453   1.688   2.032 -0.0316  2.7992  1.3107
 8486SOL     OW36916   1.495   4.585   1.838  0.5552 -0.6409  0.3752
 8486SOL    HW136917   1.452   4.512   1.794 -0.1062 -0.0857  0.1028
 8486SOL    HW236918   1.585   4.573   1.806 -0.0810 -2.3679 -0.7426
 8487SOL     OW36919   3.346   2.052  10.183  0.7366  0.0607  0.6232
 8487SOL    HW136920   3.385   2.047  10.270  0.0621  4.2977  1.1981
 8487SOL    HW236921   3.310   1.965  10.165  0.9961  0.2903 -0.9614
 8488SOL     OW36922   3.165   2.254   8.111 -0.4164  0.2326  0.5329
 8488SOL    HW136923   3.077   2.226   8.089 -0.9916  2.2313  0.3073
 8488SOL    HW236924   3.136   2.330   8.161  0.8557  0.0229  1.5730
 8489SOL     OW36925   0.368   2.897   3.208  0.5572 -0.3406 -0.0511
 8489SOL    HW136926   0.367   2.985   3.244  0.2178 -0.5765  0.5108
 8489SOL    HW236927   0.288   2.901   3.156 -0.5988 -0.1658  1.7608
 8490SOL     OW36928   2.888   0.821   4.127  0.0384  0.0329 -0.7118
 8490SOL    HW136929   2.982   0.809   4.109  0.1850 -1.1901  0.8638
 8490SOL    HW236930   2.857   0.749   4.072 -1.1422 -2.1224  2.7535
 8491SOL     OW36931   0.749   2.041   7.607 -0.5379 -0.3115  0.2726
 8491SOL    HW136932   0.798   1.967   7.643 -0.4889  0.2553  1.3631
 8491SOL    HW236933   0.811   2.108   7.636  0.1923 -0.7471 -0.2498
 8492SOL     OW36934   0.377   4.320   3.846 -0.4482 -0.2044  0.0366
 8492SOL    HW136935   0.296   4.277   3.874 -0.7130 -1.4678 -2.6536
 8492SOL    HW236936   0.433   4.242   3.847  1.5548  1.2437 -1.6708
 8493SOL     OW36937   0.313   2.205  12.786 -0.1513 -0.2672 -0.4547
 8493SOL    HW136938   0.243   2.255  12.829  0.1304 -0.3532  0.1089
 8493SOL    HW236939   0.386   2.245  12.834  1.0210 -2.2778 -0.5994
 8494SOL     OW36940   2.548   3.816   2.270 -0.0103  0.2793  0.2668
 8494SOL    HW136941   2.460   3.808   2.307 -0.5593 -0.4575 -1.1957
 8494SOL    HW236942   2.568   3.908   2.287 -1.1246  0.2493  1.7777
 8495SOL     OW36943   4.015   3.195   7.674  0.0997 -0.4612  0.2217
 8495SOL    HW136944   4.102   3.235   7.679 -0.3262  0.2762  2.0483
 8495SOL    HW236945   4.020   3.149   7.591 -0.1266  1.7467 -1.0087
 8496SOL     OW36946   3.512   1.704   1.849 -0.1592 -0.0554  0.1930
 8496SOL    HW136947   3.440   1.655   1.889  2.3360 -2.6686  1.5296
 8496SOL    HW236948   3.532   1.653   1.770 -0.9081 -0.4614  0.2584
 8497SOL     OW36949   2.634   2.619   4.867 -0.4624  0.5334  0.5023
 8497SOL    HW136950   2.663   2.539   4.823  2.7437  0.9986  1.7572
 8497SOL    HW236951   2.703   2.629   4.933 -0.0581  0.7644  0.0476
 8498SOL     OW36952   4.121   0.757   3.143 -0.2118 -0.2409 -0.0616
 8498SOL    HW136953   4.057   0.799   3.086  0.0948  0.8976  0.4391
 8498SOL    HW236954   4.199   0.804   3.114 -0.3318 -0.2193 -0.3504
 8499SOL     OW36955   2.162   0.249   4.264 -0.7685  0.9003 -0.5090
 8499SOL    HW136956   2.103   0.188   4.309 -0.8257  2.1304  1.0880
 8499SOL    HW236957   2.196   0.307   4.333 -0.5122 -2.5067  2.2673
 8500SOL     OW36958   3.858   3.908  13.007  0.1891  0.1675  0.2540
 8500SOL    HW136959   3.946   3.911  12.969 -0.3550 -2.2863 -1.2425
 8500SOL    HW236960   3.876   3.948  13.092 -2.1397  0.3570  0.6639
 8501SOL     OW36961   2.142   2.468   6.976  0.1999  0.5694 -0.1106
 8501SOL    HW136962   2.071   2.404   6.984  1.9095 -1.1916  0.8498
 8501SOL    HW236963   2.209   2.400   6.969  1.1745  1.4400  0.7210
 8502SOL     OW36964   2.249   0.209   6.579  0.4800 -0.1164 -0.3637
 8502SOL    HW136965   2.202   0.132   6.546 -0.3969  0.2794 -0.0405
 8502SOL    HW236966   2.178   0.273   6.584 -0.3526 -1.0307 -0.4123
 8503SOL     OW36967   2.460   2.700   3.714  0.4753  0.3885 -0.2205
 8503SOL    HW136968   2.556   2.703   3.704  0.7305  1.3420  2.4400
 8503SOL    HW236969   2.456   2.747   3.798  2.3160 -0.5972  0.4250
 8504SOL     OW36970   4.103   3.036   0.948 -0.7897 -0.2139  0.3405
 8504SOL    HW136971   4.184   3.009   0.991 -0.8184 -0.5936  0.1554
 8504SOL    HW236972   4.137   3.043   0.859  0.8835 -0.5370  0.9522
 8505SOL     OW36973   3.190   1.899   7.873 -0.1714 -0.3446  0.2975
 8505SOL    HW136974   3.194   1.807   7.898  1.7681 -0.3336  0.0072
 8505SOL    HW236975   3.096   1.917   7.863  0.2857  1.0774 -1.4514
 8506SOL     OW36976   2.841   3.699  11.795  1.3223 -0.1584 -0.2494
 8506SOL    HW136977   2.870   3.782  11.757  1.8656 -1.4126 -2.6100
 8506SOL    HW236978   2.780   3.728  11.863  1.0236 -0.1316 -0.5288
 8507SOL     OW36979   1.325   4.514   6.842 -0.5338  0.3368  0.1170
 8507SOL    HW136980   1.297   4.457   6.771 -0.3463 -0.2601  0.5282
 8507SOL    HW236981   1.417   4.524   6.818 -0.9132  1.5209 -0.8157
 8508SOL     OW36982   1.439   4.591  13.915 -0.2631 -0.2201  0.0853
 8508SOL    HW136983   1.410   4.668  13.963  1.0961  0.2617  0.1523
 8508SOL    HW236984   1.533   4.587  13.935 -0.1452 -1.2866 -0.6938
 8509SOL     OW36985   1.372   2.010   1.565 -0.3499 -0.0586 -0.0949
 8509SOL    HW136986   1.455   2.016   1.611 -1.1383  0.5576  1.2316
 8509SOL    HW236987   1.354   1.917   1.554 -0.1162 -0.3708  2.3748
 8510SOL     OW36988   1.369   3.242   1.649  0.0733 -0.6473  0.0634
 8510SOL    HW136989   1.404   3.308   1.590 -1.6964  0.0958 -0.1418
 8510SOL    HW236990   1.335   3.166   1.601 -1.2639 -0.5928  0.9008
 8511SOL     OW36991   3.569   0.165   1.721 -0.0933 -0.3542 -0.3868
 8511SOL    HW136992   3.661   0.144   1.702 -0.5399 -1.0241 -1.8206
 8511SOL    HW236993   3.525   0.131   1.643 -1.0708  1.7464 -0.7479
 8512SOL     OW36994   3.031   3.717  13.481 -0.2232 -0.0048 -0.1674
 8512SOL    HW136995   3.071   3.651  13.424  1.0218 -0.5071  1.2810
 8512SOL    HW236996   3.116   3.743  13.518 -1.3111  2.6379  0.4931
 8513SOL     OW36997   2.739   1.700  15.411 -0.4904 -0.8150  0.2402
 8513SOL    HW136998   2.763   1.754  15.487  1.7750  0.2756 -1.2504
 8513SOL    HW236999   2.817   1.646  15.397 -0.1666  0.1501 -1.6515
 8514SOL     OW37000   1.751   3.343   5.044 -0.2310 -0.0059  0.0889
 8514SOL    HW137001   1.745   3.385   4.959  2.3348 -0.1560 -0.1663
 8514SOL    HW237002   1.687   3.273   5.050 -0.8624  0.4431 -1.4861
 8515SOL     OW37003   1.224   4.169   1.517  0.1894  0.1635  0.1758
 8515SOL    HW137004   1.199   4.165   1.610  0.6059  2.7781  0.3882
 8515SOL    HW237005   1.147   4.209   1.477 -1.4297 -2.5854  0.4948
 8516SOL     OW37006   0.620   4.515   3.789 -0.3614 -0.0356 -0.0814
 8516SOL    HW137007   0.664   4.465   3.720 -0.7805 -0.6941  0.1205
 8516SOL    HW237008   0.540   4.463   3.799 -0.4265  0.0756 -0.0372
 8517SOL     OW37009   3.793   1.458   8.690  1.0390 -0.0792 -0.3879
 8517SOL    HW137010   3.708   1.444   8.648  1.5424 -1.0756 -1.0663
 8517SOL    HW237011   3.779   1.417   8.775 -0.5690  0.8152 -0.2103
 8518SOL     OW37012   1.960   0.201   6.898  0.2777 -0.2530  0.3073
 8518SOL    HW137013   1.899   0.128   6.889  2.3725 -2.1150  1.2917
 8518SOL    HW237014   1.983   0.190   6.990  0.6448 -2.5194 -0.0631
 8519SOL     OW37015   0.500   1.473   6.604  0.0929 -0.3176 -0.4695
 8519SOL    HW137016   0.511   1.550   6.548  0.8912 -0.6869 -0.8111
 8519SOL    HW237017   0.568   1.482   6.670  1.1556 -0.8510 -1.4922
 8520SOL     OW37018   0.074   0.351   9.166  0.2737  0.0721 -0.1291
 8520SOL    HW137019   0.085   0.256   9.169  0.5517  0.0478 -1.8428
 8520SOL    HW237020   4.701   0.362   9.151  0.2404 -1.1640 -0.8894
 8521SOL     OW37021   3.500   1.704   8.539 -0.1521 -0.1732  0.1804
 8521SOL    HW137022   3.570   1.755   8.580  0.2851 -0.8579  0.2799
 8521SOL    HW237023   3.537   1.687   8.452 -1.3035  2.4417 -0.8187
 8522SOL     OW37024   1.387   1.695   5.555  0.2058  0.4176 -0.4416
 8522SOL    HW137025   1.411   1.639   5.482 -4.6439 -0.6165 -1.2407
 8522SOL    HW237026   1.430   1.648   5.627 -0.2824  0.5014 -0.0966
 8523SOL     OW37027   1.477   2.661   3.410 -0.0760 -0.3412  0.0503
 8523SOL    HW137028   1.426   2.723   3.463 -0.0988 -0.6973  0.4392
 8523SOL    HW237029   1.475   2.586   3.469  1.9820 -0.5324 -0.1377
 8524SOL     OW37030   3.519   1.672   5.182 -0.0053 -0.1397 -0.0209
 8524SOL    HW137031   3.560   1.611   5.121  1.7788  0.7895  0.2632
 8524SOL    HW237032   3.556   1.756   5.155  1.0563 -0.9246 -1.0204
 8525SOL     OW37033   3.555   2.252   5.203  0.2714  0.2923  0.2238
 8525SOL    HW137034   3.608   2.229   5.127  0.9238 -1.9447  1.3370
 8525SOL    HW237035   3.481   2.301   5.166 -1.4216 -1.2503  1.5876
 8526SOL     OW37036   4.153   0.728   2.644 -0.0301 -0.4017 -0.2584
 8526SOL    HW137037   4.177   0.699   2.556 -0.2032  1.7270 -1.0036
 8526SOL    HW237038   4.219   0.691   2.702  0.2837  0.7967  0.1454
 8527SOL     OW37039   3.272   3.072   2.144  0.4137 -0.3985  0.0080
 8527SOL    HW137040   3.267   2.994   2.199  0.0480 -1.7635 -1.9464
 8527SOL    HW237041   3.182   3.081   2.115  0.3970  0.1633  0.2430
 8528SOL     OW37042   2.348   3.853   3.450  0.1381  0.1575 -0.8787
 8528SOL    HW137043   2.379   3.764   3.463 -3.8275 -0.8598  1.6230
 8528SOL    HW237044   2.258   3.828   3.426 -0.3726  0.2172  0.9422
 8529SOL     OW37045   1.540   0.201  12.349  0.1213 -0.3176  0.1421
 8529SOL    HW137046   1.506   0.122  12.393  1.7914 -1.6228 -0.9061
 8529SOL    HW237047   1.470   0.261  12.372  0.4116 -0.5965  1.7418
 8530SOL     OW37048   1.760   3.695   3.971  0.3605  0.3487  0.1549
 8530SOL    HW137049   1.782   3.788   3.978 -0.0353  0.5721 -1.4373
 8530SOL    HW237050   1.778   3.675   3.879  0.6222 -0.3587  0.3604
 8531SOL     OW37051   4.248   0.408   8.767 -0.4396 -0.2051 -0.0326
 8531SOL    HW137052   4.162   0.372   8.787 -0.8001 -0.0937 -1.4104
 8531SOL    HW237053   4.236   0.459   8.687 -1.8543 -1.2801 -0.4973
 8532SOL     OW37054   3.901   2.565   9.594  0.0457 -0.4268 -0.0343
 8532SOL    HW137055   3.897   2.509   9.671  1.4069  1.4699  1.4264
 8532SOL    HW237056   3.993   2.593   9.594  0.0357 -0.3601 -1.0355
 8533SOL     OW37057   4.279   2.520   1.071  0.8175  0.6636  0.2735
 8533SOL    HW137058   4.200   2.574   1.075  0.5545  0.2059  1.0705
 8533SOL    HW237059   4.297   2.498   1.163  1.9620 -0.3862 -0.1996
 8534SOL     OW37060   4.058   0.789   8.656 -0.3625  0.3584  0.5244
 8534SOL    HW137061   4.047   0.707   8.703 -1.5756 -0.6527 -1.5447
 8534SOL    HW237062   4.153   0.798   8.658 -0.3670 -0.1107  2.2889
 8535SOL     OW37063   3.193   0.509   8.618 -0.2015  0.2732  0.1619
 8535SOL    HW137064   3.180   0.555   8.535  0.5217  1.4729  0.7035
 8535SOL    HW237065   3.245   0.578   8.661 -0.2460 -0.3821  1.2717
 8536SOL     OW37066   3.864   2.373   7.859  0.0261  0.0745  0.3936
 8536SOL    HW137067   3.922   2.313   7.905  0.3651  1.3908  1.7169
 8536SOL    HW237068   3.777   2.340   7.881  0.3767 -0.7528  0.5113
 8537SOL     OW37069   3.953   1.118   2.520  0.6379  0.1952 -0.6083
 8537SOL    HW137070   3.944   1.044   2.460  0.2527  0.7197 -1.1944
 8537SOL    HW237071   3.913   1.192   2.475 -0.4996  1.3086  2.2864
 8538SOL     OW37072   3.082   1.617  13.802  0.0406 -0.0400 -0.1295
 8538SOL    HW137073   3.012   1.636  13.864  0.0739 -1.4443  0.3520
 8538SOL    HW237074   3.130   1.540  13.833  0.5056  1.1502  2.1499
 8539SOL     OW37075   1.327   0.733   6.558 -0.4600 -0.1018 -0.0655
 8539SOL    HW137076   1.265   0.766   6.622 -0.6971 -1.9763  0.6689
 8539SOL    HW237077   1.271   0.688   6.494  1.2833 -2.3040 -0.0395
 8540SOL     OW37078   1.727   2.437  12.115  0.0946  0.2744 -0.3935
 8540SOL    HW137079   1.692   2.351  12.139  2.9330 -0.6354  0.4936
 8540SOL    HW237080   1.652   2.495  12.128  1.4916  1.6732  1.4848
 8541SOL     OW37081   4.339   3.036  13.546  0.2003  0.2590 -0.6273
 8541SOL    HW137082   4.430   3.029  13.574  0.1586  0.1924 -0.5044
 8541SOL    HW237083   4.351   3.106  13.482  0.3576 -0.4527 -1.3737
 8542SOL     OW37084   3.675   1.118   1.717  0.1257  0.0427 -0.0235
 8542SOL    HW137085   3.768   1.129   1.737 -0.0338 -0.1411  0.8206
 8542SOL    HW237086   3.674   1.023   1.713 -2.7976  0.1549 -1.9920
 8543SOL     OW37087   3.688   4.666   4.948  0.5635  0.1017  0.0080
 8543SOL    HW137088   3.719   4.647   5.037  1.8630 -0.8042 -0.6410
 8543SOL    HW237089   3.641   4.587   4.923  0.5444  0.9889 -2.7096
 8544SOL     OW37090   1.014   2.028   9.921 -0.2060  0.1303  0.3945
 8544SOL    HW137091   1.076   2.089   9.961 -1.2617  0.1412  2.0304
 8544SOL    HW237092   0.974   1.982   9.995  0.8040  1.0944  1.5485
 8545SOL     OW37093   4.123   1.303   1.577 -0.4508 -0.1770 -0.1776
 8545SOL    HW137094   4.175   1.383   1.568 -1.8356  0.5178 -2.0420
 8545SOL    HW237095   4.176   1.271   1.650 -1.3794  0.9689  0.9953
 8546SOL     OW37096   2.817   1.074   7.725  0.4015 -0.3984 -0.3899
 8546SOL    HW137097   2.793   1.116   7.808  1.7053 -0.4449  0.0184
 8546SOL    HW237098   2.869   0.995   7.738  1.6037  0.7313  1.8083
 8547SOL     OW37099   0.618   1.430   9.522  0.0709 -0.0847  0.4220
 8547SOL    HW137100   0.540   1.459   9.474 -0.2584 -3.2621 -0.9712
 8547SOL    HW237101   0.579   1.373   9.588  1.9100 -0.0137  1.5701
 8548SOL     OW37102   4.543   3.268   5.293  0.1385  0.0521 -0.2575
 8548SOL    HW137103   4.530   3.361   5.309  0.4502 -0.1061  0.9077
 8548SOL    HW237104   4.518   3.231   5.378 -0.3611  0.3761 -0.2616
 8549SOL     OW37105   3.827   0.682  12.346 -0.1673 -0.1536 -0.4365
 8549SOL    HW137106   3.734   0.686  12.370  0.4452  0.0303  1.8930
 8549SOL    HW237107   3.843   0.767  12.307  0.2560 -0.4484 -0.8968
 8550SOL     OW37108   4.450   3.624   6.116 -0.5751 -0.2871 -0.5061
 8550SOL    HW137109   4.481   3.691   6.055  1.0855  0.8371  1.5746
 8550SOL    HW237110   4.392   3.567   6.064 -0.4263  1.9721 -3.1172
 8551SOL     OW37111   4.587   3.921   3.163 -0.1900 -0.0736 -0.1858
 8551SOL    HW137112   4.529   3.977   3.215  1.0589 -1.3804  2.5888
 8551SOL    HW237113   4.555   3.924   3.073  1.3760  0.2223 -0.7264
 8552SOL     OW37114   4.111   1.043  10.271  0.3743 -0.6314 -0.4678
 8552SOL    HW137115   4.155   1.068  10.190  2.8820  0.2386  1.1382
 8552SOL    HW237116   4.112   1.127  10.316 -1.6116 -0.0144 -1.6176
 8553SOL     OW37117   1.679   0.393  11.993  0.1343  0.4268  0.0965
 8553SOL    HW137118   1.635   0.317  12.030  0.1913 -0.5574 -1.8733
 8553SOL    HW237119   1.761   0.352  11.966 -0.5129  0.8657 -2.6170
 8554SOL     OW37120   0.146   2.190  14.540  0.3335 -0.5403 -0.3928
 8554SOL    HW137121   0.174   2.150  14.459  0.4204 -1.2779  0.0028
 8554SOL    HW237122   0.225   2.165  14.588  0.4195  0.9227  0.2336
 8555SOL     OW37123   3.072   1.527   2.542 -0.7149  0.4460 -0.8001
 8555SOL    HW137124   3.140   1.589   2.516 -0.2861  0.6495  0.8042
 8555SOL    HW237125   2.997   1.584   2.529 -3.0411 -1.9716  2.2641
 8556SOL     OW37126   3.925   4.172   0.057 -0.2520 -0.4020 -0.4108
 8556SOL    HW137127   3.917   4.235  17.672  1.9894  0.5108  0.1400
 8556SOL    HW237128   3.908   4.092   0.008 -1.8702  0.4434 -1.2240
 8557SOL     OW37129   4.572   0.902   6.754 -0.2470 -0.4257  0.0899
 8557SOL    HW137130   4.512   0.930   6.823  0.0323 -0.2121  0.2464
 8557SOL    HW237131   4.514   0.890   6.679  1.2455  1.3622 -1.3511
 8558SOL     OW37132   1.994   0.781   9.129 -0.0214 -0.0156 -0.2904
 8558SOL    HW137133   2.059   0.766   9.197  1.1515  0.7493 -1.2399
 8558SOL    HW237134   1.913   0.773   9.180  1.6580  0.0400  2.3797
 8559SOL     OW37135   2.617   1.397  10.963 -0.2538  0.3043 -0.6315
 8559SOL    HW137136   2.609   1.393  10.868 -0.5184 -0.7058 -0.5631
 8559SOL    HW237137   2.603   1.307  10.992  1.3997 -0.5378 -2.4908
 8560SOL     OW37138   4.274   1.736   7.299 -0.4702  0.0488  0.2899
 8560SOL    HW137139   4.206   1.769   7.358 -0.2408  1.0578 -0.0114
 8560SOL    HW237140   4.347   1.738   7.360 -0.5236 -1.9318  0.3950
 8561SOL     OW37141   4.113   3.197   7.167  0.4487 -0.1434 -0.4733
 8561SOL    HW137142   4.190   3.242   7.134 -0.1829 -0.0460 -1.8355
 8561SOL    HW237143   4.082   3.262   7.231  3.2874  3.6101 -2.9012
 8562SOL     OW37144   0.215   2.952   5.003  0.5618 -0.2752 -0.2266
 8562SOL    HW137145   0.120   2.967   5.000  0.8269  1.5550  0.1360
 8562SOL    HW237146   0.243   3.022   5.062 -3.0135 -1.0970  2.4404
 8563SOL     OW37147   2.841   3.177   8.298  0.0470 -0.4122  0.0961
 8563SOL    HW137148   2.790   3.149   8.223 -1.2558 -2.1926  1.6523
 8563SOL    HW237149   2.770   3.180   8.362 -0.0078 -0.6119  0.0419
 8564SOL     OW37150   0.061   0.225   8.162 -0.3893 -0.3903 -0.3524
 8564SOL    HW137151   0.025   0.259   8.244 -1.9267  1.0599 -1.6287
 8564SOL    HW237152   0.143   0.272   8.146 -0.4506  0.1798  1.0858
 8565SOL     OW37153   0.553   2.916   7.055 -1.0702 -0.3348  0.0978
 8565SOL    HW137154   0.575   2.824   7.039 -1.7984 -0.3161 -0.9718
 8565SOL    HW237155   0.621   2.936   7.119 -0.2150  1.5183 -1.4259
 8566SOL     OW37156   1.734   2.723   5.823 -0.2137  0.6320 -0.1057
 8566SOL    HW137157   1.805   2.727   5.759 -0.5297  1.1674 -0.4158
 8566SOL    HW237158   1.668   2.671   5.776 -0.9846  2.1857 -0.7365
 8567SOL     OW37159   0.734   3.687   0.378 -1.1125  0.2552 -0.2627
 8567SOL    HW137160   0.641   3.708   0.376 -1.7279 -2.2856  2.9948
 8567SOL    HW237161   0.725   3.612   0.437 -2.3896 -1.3141 -2.4383
 8568SOL     OW37162   2.292   1.126  10.770  0.3972 -0.3913 -0.2647
 8568SOL    HW137163   2.351   1.052  10.785  2.1216  1.1606  0.6338
 8568SOL    HW237164   2.220   1.097  10.827 -0.0863 -1.1535 -1.2590
 8569SOL     OW37165   3.839   0.275   7.034 -0.2528 -0.4654 -0.0131
 8569SOL    HW137166   3.927   0.271   7.071  1.2040  1.6881 -3.2063
 8569SOL    HW237167   3.785   0.229   7.098  0.4035 -1.5311 -0.2283
 8570SOL     OW37168   1.930   4.124   6.829  0.7878 -0.5082 -0.0637
 8570SOL    HW137169   1.953   4.059   6.762  2.8509 -0.6110  0.7264
 8570SOL    HW237170   1.993   4.106   6.900  0.0516  0.3335  0.8015
 8571SOL     OW37171   2.374   0.751   6.021  0.0972  0.4225  0.3278
 8571SOL    HW137172   2.392   0.683   6.086  0.0406  0.6872  0.6248
 8571SOL    HW237173   2.424   0.724   5.944 -0.1702  0.1826  0.2407
 8572SOL     OW37174   0.167   0.098   7.099  0.1386  0.2193  0.5257
 8572SOL    HW137175   0.257   0.108   7.067 -0.2762 -2.1409 -1.3757
 8572SOL    HW237176   0.135   0.187   7.081 -0.7964 -0.1399  0.4239
 8573SOL     OW37177   2.444   3.744  14.664 -0.4718  0.1906 -0.0372
 8573SOL    HW137178   2.353   3.722  14.644 -0.8989  2.9054 -1.1966
 8573SOL    HW237179   2.482   3.665  14.627 -1.1822 -0.2864  0.2394
 8574SOL     OW37180   2.840   1.506   2.213  0.1286 -0.6528 -0.3265
 8574SOL    HW137181   2.919   1.456   2.193 -0.7268 -0.7700 -3.3552
 8574SOL    HW237182   2.787   1.506   2.134  1.6331  1.2367 -1.3230
 8575SOL     OW37183   0.065   4.118   9.007 -0.0399 -0.7245 -0.5330
 8575SOL    HW137184   0.130   4.143   8.941  0.8309  0.8949  0.9162
 8575SOL    HW237185   0.026   4.039   8.970 -0.1267 -1.7046  1.6489
 8576SOL     OW37186   0.749   2.004  13.536  0.3495  0.4107  0.9172
 8576SOL    HW137187   0.672   1.959  13.570  2.9003 -2.2779  3.1672
 8576SOL    HW237188   0.735   2.099  13.539 -0.1130  0.3979 -0.6892
 8577SOL     OW37189   2.902   3.607   6.468 -0.4338 -0.5799  0.0258
 8577SOL    HW137190   2.900   3.516   6.440  2.0946 -0.5488 -0.2658
 8577SOL    HW237191   2.850   3.644   6.397 -0.6952  0.2369  0.6331
 8578SOL     OW37192   0.225   2.943   7.326  0.5219  0.1125 -0.4875
 8578SOL    HW137193   0.228   2.852   7.296  0.0962 -0.3828  0.9317
 8578SOL    HW237194   0.297   2.953   7.388  0.3823  2.4632 -0.7180
 8579SOL     OW37195   3.622   3.372  11.603 -0.1123  0.0119  0.4670
 8579SOL    HW137196   3.565   3.364  11.679 -0.9311 -0.8726 -0.2406
 8579SOL    HW237197   3.602   3.286  11.568 -1.7209  1.3516 -1.9087
 8580SOL     OW37198   2.128   3.950   2.623 -0.2845 -0.3008 -0.5880
 8580SOL    HW137199   2.124   4.039   2.589 -3.3183 -1.2900 -2.8099
 8580SOL    HW237200   2.103   3.964   2.715  0.8433 -0.8569 -0.1927
 8581SOL     OW37201   1.931   4.533   8.000  0.3449 -0.1957 -0.2038
 8581SOL    HW137202   1.849   4.559   7.959  0.1206 -1.3935 -0.5193
 8581SOL    HW237203   1.894   4.507   8.085  0.9342 -0.6315 -0.0807
 8582SOL     OW37204   1.566   1.743   8.162  0.2414 -0.2534 -0.1106
 8582SOL    HW137205   1.474   1.729   8.141  0.0586 -0.2326  0.7046
 8582SOL    HW237206   1.608   1.801   8.097  0.0599 -1.1827 -1.0592
 8583SOL     OW37207   3.529   1.968  11.181  0.2855  0.2136 -0.5992
 8583SOL    HW137208   3.614   1.945  11.219 -0.3929 -1.5286 -0.1294
 8583SOL    HW237209   3.487   1.890  11.144  1.4224 -1.4516  1.6385
 8584SOL     OW37210   2.503   0.326  13.543 -0.0451 -0.5363 -0.0802
 8584SOL    HW137211   2.502   0.305  13.449 -1.6081  0.1118 -0.2017
 8584SOL    HW237212   2.440   0.265  13.581 -0.5877 -0.6642 -1.1880
 8585SOL     OW37213   0.790   2.025   2.940 -0.1170 -0.1138 -0.7545
 8585SOL    HW137214   0.841   1.948   2.965  0.8656  0.4414 -1.0466
 8585SOL    HW237215   0.852   2.068   2.881 -2.3720  0.2935 -2.8471
 8586SOL     OW37216   2.817   4.671   8.997  0.1742  0.4354 -0.4890
 8586SOL    HW137217   2.804   0.018   8.932 -1.5515  0.6129  0.0312
 8586SOL    HW237218   2.895   4.703   9.042 -0.9261  2.5516 -0.0893
 8587SOL     OW37219   0.779   1.758   5.833 -0.2099  0.2465  0.1228
 8587SOL    HW137220   0.752   1.667   5.840 -0.8270  0.5454  1.5710
 8587SOL    HW237221   0.776   1.773   5.739  2.1109 -1.8371 -0.2700
 8588SOL     OW37222   3.853   3.510  11.608  0.1143 -0.2506 -0.4513
 8588SOL    HW137223   3.876   3.504  11.701  0.5987 -0.9383 -0.6090
 8588SOL    HW237224   3.764   3.475  11.613  1.7503 -3.9757  3.1497
 8589SOL     OW37225   0.333   4.568   7.513 -0.3713  0.7438  0.5369
 8589SOL    HW137226   0.290   4.590   7.430  0.4987  0.4252  0.0079
 8589SOL    HW237227   0.259   4.534   7.564  0.9209  1.5963  2.9777
 8590SOL     OW37228   0.595   2.822   6.099 -0.0444  0.4942  0.2047
 8590SOL    HW137229   0.666   2.771   6.058 -0.0162  1.3728 -0.8314
 8590SOL    HW237230   0.529   2.768   6.143 -0.6912  0.9433 -0.2220
 8591SOL     OW37231   1.594   0.242   7.963  0.0802  0.6526 -0.0320
 8591SOL    HW137232   1.612   0.210   8.051 -1.2110 -0.4921 -0.1843
 8591SOL    HW237233   1.542   0.171   7.925  1.3152 -0.1716 -0.1688
 8592SOL     OW37234   3.572   3.352   4.615 -0.1414 -0.5295 -0.1245
 8592SOL    HW137235   3.518   3.362   4.537  1.2317 -0.9865 -1.1205
 8592SOL    HW237236   3.497   3.332   4.672 -1.3363 -0.7802 -1.7924
 8593SOL     OW37237   3.453   0.250  15.148  0.2620  0.2247 -0.6379
 8593SOL    HW137238   3.379   0.311  15.160 -0.3056 -0.6490  0.3594
 8593SOL    HW237239   3.422   0.173  15.196 -1.0967  0.9613 -0.3095
 8594SOL     OW37240   4.199   0.734   8.244 -0.1227 -0.4108  0.2309
 8594SOL    HW137241   4.242   0.656   8.210 -0.9510 -0.8801  0.2686
 8594SOL    HW237242   4.139   0.763   8.175  0.7632  0.4284 -0.1898
 8595SOL     OW37243   3.947   3.516   4.771 -0.1975 -0.6796 -0.1329
 8595SOL    HW137244   3.884   3.553   4.709 -0.1947 -2.2508 -1.0719
 8595SOL    HW237245   3.960   3.431   4.728 -0.4318 -1.4039  1.2355
 8596SOL     OW37246   1.382   4.561   6.392 -0.2802 -0.5244  0.2793
 8596SOL    HW137247   1.302   4.572   6.443  1.0303 -0.1639  2.2592
 8596SOL    HW237248   1.360   4.504   6.319 -1.1189  1.9463 -1.4066
 8597SOL     OW37249   2.557   4.048   3.379 -0.9257 -0.6153  0.0775
 8597SOL    HW137250   2.516   4.075   3.461 -0.0571  1.3456 -0.1308
 8597SOL    HW237251   2.486   3.989   3.353 -0.9252 -0.2581 -0.7385
 8598SOL     OW37252   2.399   2.420   1.137  0.1356  0.7037 -0.4495
 8598SOL    HW137253   2.311   2.456   1.153 -1.3518 -4.1668  2.2290
 8598SOL    HW237254   2.430   2.378   1.217 -0.2991  0.1670 -0.5646
 8599SOL     OW37255   0.624   0.136   6.868  0.0134 -0.5275 -0.6376
 8599SOL    HW137256   0.718   0.137   6.882 -0.5129 -0.9823  2.9260
 8599SOL    HW237257   0.600   0.098   6.952  0.3463 -0.8831 -0.7074
 8600SOL     OW37258   1.491   2.891   1.534 -0.1202  0.3565 -0.0439
 8600SOL    HW137259   1.398   2.908   1.551  0.6963  3.3227  1.5104
 8600SOL    HW237260   1.486   2.843   1.452 -0.2921 -0.1265  0.2500
 8601SOL     OW37261   0.828   1.753   2.043 -0.1413  0.1385 -0.2692
 8601SOL    HW137262   0.740   1.738   2.007 -0.9896  0.2494  1.7984
 8601SOL    HW237263   0.834   1.671   2.093 -0.4045  1.0850  1.3046
 8602SOL     OW37264   3.936   0.967   4.647 -0.2566 -0.2695  0.5242
 8602SOL    HW137265   3.952   0.928   4.733 -0.5325  1.5956  1.4175
 8602SOL    HW237266   3.984   0.906   4.592 -2.3217  0.6263 -2.2592
 8603SOL     OW37267   4.329   1.250  14.588 -0.7215 -0.2023  0.0260
 8603SOL    HW137268   4.391   1.289  14.649 -0.3349  0.8586 -1.0481
 8603SOL    HW237269   4.344   1.158  14.611  1.5861 -0.5890 -3.0248
 8604SOL     OW37270   3.053   3.736   4.288 -0.1703  0.5932  0.3680
 8604SOL    HW137271   3.084   3.650   4.318  1.0770  0.8056 -0.2720
 8604SOL    HW237272   3.006   3.710   4.209 -1.2888 -1.8799  1.8596
 8605SOL     OW37273   3.597   3.181   8.940 -0.4776  0.0087  0.0599
 8605SOL    HW137274   3.636   3.176   9.027 -0.8405 -2.5615  0.0696
 8605SOL    HW237275   3.533   3.110   8.949 -0.1586 -0.4319 -1.1589
 8606SOL     OW37276   4.589   2.960  10.336  0.1500  0.4497  0.0042
 8606SOL    HW137277   4.519   2.907  10.297  1.5409 -0.0259 -1.8457
 8606SOL    HW237278   4.554   3.044  10.306 -0.2337 -0.3333 -1.7340
 8607SOL     OW37279   3.085   1.151   1.998  1.0261 -0.4265  0.4965
 8607SOL    HW137280   3.039   1.076   1.961  1.9776  0.3355 -2.2413
 8607SOL    HW237281   3.011   1.211   1.989  1.4073 -0.2314 -1.2869
 8608SOL     OW37282   4.350   1.553  10.720  0.0777 -0.0610  0.1079
 8608SOL    HW137283   4.371   1.498  10.795 -1.8380 -1.2088 -0.1956
 8608SOL    HW237284   4.412   1.525  10.652 -2.1782  0.6815 -2.2470
 8609SOL     OW37285   4.118   0.047   4.762  0.8160 -1.0651  0.1432
 8609SOL    HW137286   4.158   4.703   4.704  0.8221  0.5066 -1.5970
 8609SOL    HW237287   4.051   4.720   4.811  0.9173 -1.0480  0.2995
 8610SOL     OW37288   2.346   2.009   7.505  0.0058 -0.4762 -0.1883
 8610SOL    HW137289   2.308   2.053   7.580  1.9317  0.3171  0.3164
 8610SOL    HW237290   2.414   2.066   7.470  0.2475 -1.9805 -2.1906
 8611SOL     OW37291   3.934   2.335   9.048 -0.0750 -0.0514 -0.3611
 8611SOL    HW137292   3.928   2.325   9.143 -0.1067  4.1659  0.0606
 8611SOL    HW237293   3.996   2.407   9.042 -0.4131  0.3973  1.6435
 8612SOL     OW37294   2.763   2.885  12.875  0.5622 -0.1462 -0.1459
 8612SOL    HW137295   2.789   2.963  12.826 -0.7337 -0.7236 -1.7264
 8612SOL    HW237296   2.810   2.897  12.958  2.6971 -0.4436 -1.3226
 8613SOL     OW37297   3.380   0.167   4.394  0.1517 -0.5187 -0.2286
 8613SOL    HW137298   3.297   0.150   4.350 -0.1826 -1.8536  0.9226
 8613SOL    HW237299   3.377   0.261   4.412 -1.0111 -0.5839 -0.0642
 8614SOL     OW37300   0.106   4.012   0.583  0.2056 -0.3169 -0.6694
 8614SOL    HW137301   0.096   4.096   0.538  0.2464 -0.7817 -1.5552
 8614SOL    HW237302   0.172   4.027   0.651 -1.4118 -0.4939  0.9315
 8615SOL     OW37303   2.481   2.069  16.186 -0.1955  0.4940  0.3623
 8615SOL    HW137304   2.526   2.058  16.270  1.2753 -2.0662 -0.7591
 8615SOL    HW237305   2.482   2.164  16.175  0.7716  0.3921 -0.4329
 8616SOL     OW37306   0.339   2.310   1.814 -0.1992 -0.0887  0.1790
 8616SOL    HW137307   0.329   2.229   1.863 -0.6275  0.4089  0.9150
 8616SOL    HW237308   0.349   2.286   1.722  0.1427  1.1207 -0.1069
 8617SOL     OW37309   2.588   0.834   6.896 -0.2208 -0.1187 -0.1013
 8617SOL    HW137310   2.616   0.919   6.932 -3.0998  0.2569  1.2540
 8617SOL    HW237311   2.595   0.848   6.802 -0.2150 -0.2024 -0.1127
 8618SOL     OW37312   2.201   1.587  10.799  0.4001 -0.0244  0.4253
 8618SOL    HW137313   2.263   1.570  10.869  0.6152  2.6454  0.8496
 8618SOL    HW237314   2.255   1.556  10.726 -0.6670 -0.4265 -0.2019
 8619SOL     OW37315   1.531   3.544  11.359 -0.1948  0.4440 -0.5731
 8619SOL    HW137316   1.558   3.559  11.269  0.1469 -0.2144 -0.5831
 8619SOL    HW237317   1.435   3.537  11.359 -0.2895  1.7168 -0.7254
 8620SOL     OW37318   4.677   0.516   4.963 -0.2627  0.6292  0.5033
 8620SOL    HW137319   4.611   0.511   5.032  1.1401 -1.4905  1.6770
 8620SOL    HW237320   4.643   0.446   4.908  0.4047  0.7016 -0.0040
 8621SOL     OW37321   4.567   2.011   5.213  0.2890 -0.1705  0.8232
 8621SOL    HW137322   4.651   1.983   5.176  1.6506  1.1170  2.8739
 8621SOL    HW237323   4.583   2.012   5.308  0.5126 -1.7071  0.7977
 8622SOL     OW37324   2.404   2.871  14.148  0.4725  0.1085  0.1587
 8622SOL    HW137325   2.432   2.782  14.167  0.2593  0.1758  0.7982
 8622SOL    HW237326   2.461   2.922  14.206 -2.2162  0.7188  2.2959
 8623SOL     OW37327   0.878   3.249   5.021 -0.3637 -0.3498 -0.1889
 8623SOL    HW137328   0.851   3.267   4.931 -1.3967  1.0800  0.4087
 8623SOL    HW237329   0.973   3.258   5.021 -0.5414  1.4429  0.4405
 8624SOL     OW37330   3.859   3.647  17.661  0.1075  0.4045  0.3160
 8624SOL    HW137331   3.798   3.635   0.048  0.6388 -0.5668  0.6005
 8624SOL    HW237332   3.861   3.742  17.650 -3.8658  0.2884 -1.3644
 8625SOL     OW37333   1.989   3.874  15.351  0.1468 -0.4430 -0.2102
 8625SOL    HW137334   2.070   3.864  15.301  2.2890  1.5727  2.8394
 8625SOL    HW237335   1.948   3.960  15.336 -1.0479 -1.0299 -0.2911
 8626SOL     OW37336   1.282   3.218   7.275  0.2612 -0.7611 -0.0239
 8626SOL    HW137337   1.253   3.282   7.340  1.0190  0.1787 -0.6138
 8626SOL    HW237338   1.372   3.201   7.302  1.3918  2.0702 -1.9380
 8627SOL     OW37339   2.969   1.484  16.376 -0.3946  0.2164  0.2042
 8627SOL    HW137340   3.050   1.468  16.425  0.3082  1.0347 -0.6827
 8627SOL    HW237341   2.980   1.415  16.310  1.7004  2.1041 -1.4164
 8628SOL     OW37342   3.678   0.810  11.175 -0.4545  0.6443 -0.1710
 8628SOL    HW137343   3.764   0.771  11.188 -0.5399  0.6874  0.4987
 8628SOL    HW237344   3.696   0.893  11.219  2.2273  0.8609 -1.7105
 8629SOL     OW37345   1.474   1.451   7.798  0.3180 -0.0113 -0.7527
 8629SOL    HW137346   1.464   1.357   7.813  0.7583  0.1716  0.6083
 8629SOL    HW237347   1.393   1.492   7.829  1.6591  2.0163  0.0776
 8630SOL     OW37348   3.655   0.175   2.344 -0.0888  0.1675 -0.4661
 8630SOL    HW137349   3.580   0.129   2.381  0.2069 -1.2388 -1.6222
 8630SOL    HW237350   3.611   0.248   2.302 -0.5943  2.3922  3.9430
 8631SOL     OW37351   2.307   3.134  13.048 -0.4328 -0.3421 -0.1707
 8631SOL    HW137352   2.295   3.145  13.142 -2.5636  1.5784 -0.6623
 8631SOL    HW237353   2.399   3.156  13.034  0.3972 -2.2002  2.3791
 8632SOL     OW37354   2.727   4.388   5.918 -0.4022 -0.3616  0.1667
 8632SOL    HW137355   2.704   4.479   5.899 -1.2027 -0.5371  0.2707
 8632SOL    HW237356   2.677   4.367   5.997  0.7083  0.7215  1.1414
 8633SOL     OW37357   2.171   4.066  14.124 -0.0554 -0.1255  0.1660
 8633SOL    HW137358   2.087   4.020  14.130  0.6751 -1.1658  2.5987
 8633SOL    HW237359   2.194   4.044  14.034  0.2806  3.3337 -0.6166
 8634SOL     OW37360   0.054   0.609   6.336 -0.2199 -0.5741 -0.6583
 8634SOL    HW137361   4.693   0.586   6.292 -0.1478 -0.2028 -0.9812
 8634SOL    HW237362   0.105   0.571   6.264  2.1422  2.4697 -0.5367
 8635SOL     OW37363   4.429   3.897   9.780 -0.0941 -0.0136  0.4807
 8635SOL    HW137364   4.368   3.969   9.791  0.2732  0.4831 -0.7666
 8635SOL    HW237365   4.461   3.885   9.870  0.8520 -1.9525 -0.1057
 8636SOL     OW37366   4.310   2.539   7.185  0.2805 -0.1480  0.0351
 8636SOL    HW137367   4.218   2.516   7.202 -0.0495  1.6687  0.6894
 8636SOL    HW237368   4.290   2.595   7.110  0.1561 -0.1296  0.0818
 8637SOL     OW37369   3.303   4.622  13.095  0.9479 -0.3744  0.1638
 8637SOL    HW137370   3.252   4.628  13.176  1.5043 -1.4527  0.5960
 8637SOL    HW237371   3.329   4.530  13.093  1.6595 -0.1660 -0.2275
 8638SOL     OW37372   3.969   1.085   1.465 -0.4355 -0.3591  0.2086
 8638SOL    HW137373   4.025   1.162   1.475 -0.5575 -0.3284  0.6382
 8638SOL    HW237374   4.027   1.021   1.506  0.6641 -0.1315 -0.9788
 8639SOL     OW37375   3.502   4.707   7.876  0.5573  0.1902  0.1549
 8639SOL    HW137376   3.453   0.027   7.948  0.1342 -1.0539  0.5725
 8639SOL    HW237377   3.579   0.042   7.886  0.2565  0.8053 -0.9303
 8640SOL     OW37378   4.068   0.315   0.247  0.4707 -0.0494 -0.3811
 8640SOL    HW137379   4.003   0.290   0.181  1.2006 -0.8597 -0.7926
 8640SOL    HW237380   4.148   0.317   0.194  0.3410  0.9097 -0.5370
 8641SOL     OW37381   0.789   0.594   5.147 -0.9696 -0.1931 -0.3655
 8641SOL    HW137382   0.857   0.563   5.087  0.7303  0.9700  0.9303
 8641SOL    HW237383   0.761   0.512   5.187  1.0059 -0.7712 -0.1389
 8642SOL     OW37384   0.952   1.401   6.867  0.2361 -0.5412 -0.2360
 8642SOL    HW137385   1.015   1.441   6.806 -1.2196 -1.1712 -2.1596
 8642SOL    HW237386   0.945   1.320   6.816 -0.2785 -1.1079  0.7289
 8643SOL     OW37387   2.911   4.711  12.413  0.1243  0.2454  0.1829
 8643SOL    HW137388   2.995   0.014  12.374  0.3404  0.2118  0.6339
 8643SOL    HW237389   2.887   0.065  12.468 -0.5296  0.9237 -1.0364
 8644SOL     OW37390   2.974   1.286  16.167  0.3618  0.3548 -0.2798
 8644SOL    HW137391   2.884   1.259  16.149 -0.1543  0.4965  2.1203
 8644SOL    HW237392   3.020   1.218  16.119 -2.3342 -0.7549 -1.3320
 8645SOL     OW37393   1.717   2.588   7.778 -0.0721  0.2380 -0.9380
 8645SOL    HW137394   1.745   2.660   7.834  2.4510 -1.7945  0.4152
 8645SOL    HW237395   1.707   2.635   7.696 -1.1341  0.3255 -0.7629
 8646SOL     OW37396   4.606   2.310   8.481 -0.6499  0.3083 -0.4956
 8646SOL    HW137397   4.543   2.275   8.419 -2.7537  0.1860  1.7206
 8646SOL    HW237398   4.595   2.247   8.552 -0.5198  0.9375  0.0889
 8647SOL     OW37399   2.597   2.073   0.909 -0.2237 -0.0041  0.3091
 8647SOL    HW137400   2.590   2.029   0.824  0.9895 -2.3173  1.4239
 8647SOL    HW237401   2.692   2.074   0.920 -0.0389 -0.9145 -1.3335
 8648SOL     OW37402   3.357   2.509   4.233  0.0070 -0.4715  0.0315
 8648SOL    HW137403   3.386   2.430   4.188 -0.8819  0.0102 -1.3719
 8648SOL    HW237404   3.441   2.555   4.230  0.4328 -1.3453 -1.6729
 8649SOL     OW37405   4.131   1.978   2.700 -0.1208  0.2011  0.2995
 8649SOL    HW137406   4.149   2.072   2.693 -1.0514  0.2091 -2.1381
 8649SOL    HW237407   4.056   1.970   2.641 -1.2577  0.8384  1.6671
 8650SOL     OW37408   2.181   4.626   0.085  0.0959  0.2556 -0.0145
 8650SOL    HW137409   2.136   4.572   0.019  2.5365 -1.1518 -0.5271
 8650SOL    HW237410   2.242   4.674   0.029  2.2723 -2.3995  0.0663
 8651SOL     OW37411   1.555   2.311  16.201  0.4587  0.8729  0.3056
 8651SOL    HW137412   1.596   2.397  16.214 -0.6616  1.8133 -2.1886
 8651SOL    HW237413   1.471   2.346  16.171  0.3627  1.6705  1.5199
 8652SOL     OW37414   0.639   3.901  12.611 -0.4919  0.0091  0.1426
 8652SOL    HW137415   0.717   3.913  12.666 -0.2395 -1.0740  0.0223
 8652SOL    HW237416   0.647   3.978  12.554 -2.0171 -1.4561 -2.0052
 8653SOL     OW37417   2.966   0.995   4.791 -0.7158 -0.1678 -0.0609
 8653SOL    HW137418   3.055   0.984   4.824  0.1039 -0.4543 -2.3643
 8653SOL    HW237419   2.925   1.037   4.867 -0.1192 -1.7524  1.1198
 8654SOL     OW37420   1.501   1.634   6.362 -0.3486 -0.4567  0.0696
 8654SOL    HW137421   1.531   1.543   6.357 -0.1586 -0.3375 -0.9926
 8654SOL    HW237422   1.415   1.629   6.321 -0.3893  0.8842 -0.0091
 8655SOL     OW37423   1.341   2.831   5.975  0.0472  0.1667  0.0015
 8655SOL    HW137424   1.399   2.904   5.995 -1.2955  1.5111 -1.0972
 8655SOL    HW237425   1.368   2.818   5.884 -0.1713 -0.4138  0.0168
 8656SOL     OW37426   0.695   0.199   6.292  0.6991  0.3886  0.1572
 8656SOL    HW137427   0.714   0.109   6.318 -0.0681 -0.3363 -1.8316
 8656SOL    HW237428   0.616   0.184   6.240  0.0988  1.9218  0.6256
 8657SOL     OW37429   2.261   0.976   4.962  0.1280  0.0798 -0.3661
 8657SOL    HW137430   2.347   0.985   5.003 -0.4825  2.1113  0.4837
 8657SOL    HW237431   2.261   1.063   4.923 -3.9207  0.4284  0.4442
 8658SOL     OW37432   1.707   1.783  10.501 -0.1399 -0.7459  0.1040
 8658SOL    HW137433   1.738   1.692  10.503 -0.4160 -0.8421 -0.0605
 8658SOL    HW237434   1.740   1.819  10.584  0.7630 -1.4194  0.0413
 8659SOL     OW37435   0.433   3.145   3.314 -0.5088  0.4486 -0.2372
 8659SOL    HW137436   0.456   3.224   3.266 -1.3618  1.8114  1.5895
 8659SOL    HW237437   0.468   3.176   3.398  1.8830  1.7401 -1.7065
 8660SOL     OW37438   3.148   4.063   5.746  0.2741  0.3223 -0.3260
 8660SOL    HW137439   3.076   4.108   5.790  0.5163  0.2973  0.0968
 8660SOL    HW237440   3.099   4.025   5.673 -0.2569 -0.2059  0.3093
 8661SOL     OW37441   2.436   1.390   2.380 -0.1533  0.9049  0.7506
 8661SOL    HW137442   2.455   1.481   2.356 -1.3471  0.7174 -0.9314
 8661SOL    HW237443   2.495   1.387   2.455 -1.2666 -3.0171  1.4399
 8662SOL     OW37444   0.854   1.180   1.340 -0.1195 -0.1511 -0.1070
 8662SOL    HW137445   0.770   1.226   1.346 -0.1775 -0.3088  0.3378
 8662SOL    HW237446   0.839   1.111   1.405 -1.1659 -0.4774 -0.6906
 8663SOL     OW37447   1.124   3.991   5.657 -0.0413  0.3353 -0.2133
 8663SOL    HW137448   1.053   4.014   5.718  1.1125  0.0742  1.2332
 8663SOL    HW237449   1.150   4.076   5.621  1.4200 -0.3723 -0.7985
 8664SOL     OW37450   4.500   2.006   7.640 -0.3289 -0.9631  0.2274
 8664SOL    HW137451   4.555   2.079   7.610  0.3656 -1.1643  0.9953
 8664SOL    HW237452   4.484   2.020   7.733 -0.6983  1.9808 -0.2667
 8665SOL     OW37453   4.517   2.341   5.260 -0.1343 -0.1316 -0.1822
 8665SOL    HW137454   4.437   2.351   5.208  0.7900 -2.5580 -2.0275
 8665SOL    HW237455   4.479   2.339   5.348 -2.9276  0.4736 -1.3813
 8666SOL     OW37456   3.011   3.658   2.245 -0.2355 -0.3808 -0.4276
 8666SOL    HW137457   3.056   3.743   2.251 -1.7593  0.5023 -1.6712
 8666SOL    HW237458   2.941   3.683   2.185 -1.8319  0.8953  1.9389
 8667SOL     OW37459   0.823   0.281   5.580 -0.0189 -0.4179 -0.2798
 8667SOL    HW137460   0.864   0.195   5.581 -0.0179 -0.4258 -1.0578
 8667SOL    HW237461   0.895   0.339   5.605 -0.2351  0.0755 -0.8017
 8668SOL     OW37462   2.120   3.364  12.973  0.3974 -1.0188 -0.0391
 8668SOL    HW137463   2.171   3.289  13.003  2.8467  0.0206 -1.6286
 8668SOL    HW237464   2.089   3.326  12.890  0.3544  0.6357 -0.7664
 8669SOL     OW37465   0.053   3.823   1.653  0.0536 -0.9057 -0.3137
 8669SOL    HW137466   0.143   3.815   1.685  0.2306  1.7669 -0.1031
 8669SOL    HW237467   0.008   3.886   1.710 -0.1505  0.0906 -1.5631
 8670SOL     OW37468   0.518   2.518   9.154 -0.2114  0.2783 -0.3700
 8670SOL    HW137469   0.559   2.532   9.239  1.0295 -1.9979 -0.5951
 8670SOL    HW237470   0.427   2.536   9.174 -0.3039 -0.5742 -0.0385
 8671SOL     OW37471   1.563   3.504   9.125 -0.0318  0.2502  0.4634
 8671SOL    HW137472   1.533   3.504   9.216  0.1433 -0.8626  0.5311
 8671SOL    HW237473   1.552   3.593   9.094 -0.3574  0.1391  0.2593
 8672SOL     OW37474   0.338   0.683  12.784  0.2756 -0.1372 -0.0701
 8672SOL    HW137475   0.398   0.707  12.855  0.8052 -0.5740 -0.3665
 8672SOL    HW237476   0.271   0.636  12.833  0.5460  1.2883  1.6803
 8673SOL     OW37477   1.768   0.258   2.940  0.1982  1.0392  0.7511
 8673SOL    HW137478   1.845   0.217   2.979  1.4377  0.9424 -1.8160
 8673SOL    HW237479   1.714   0.264   3.019  0.9016 -0.7389  1.3529
 8674SOL     OW37480   2.322   3.232   3.558 -0.1184 -0.1844  0.1309
 8674SOL    HW137481   2.394   3.292   3.577 -0.3204 -0.6796  2.4224
 8674SOL    HW237482   2.244   3.288   3.551 -0.6322 -0.5264  3.1597
 8675SOL     OW37483   1.517   1.333  14.886  0.0520 -0.2479  0.2643
 8675SOL    HW137484   1.479   1.419  14.866  0.8096 -0.2089 -0.9793
 8675SOL    HW237485   1.578   1.330  14.812 -1.6119  0.5552 -1.1444
 8676SOL     OW37486   1.201   0.597   8.815  0.6460  0.2147 -0.2396
 8676SOL    HW137487   1.145   0.671   8.793 -0.8157 -0.8709 -0.1304
 8676SOL    HW237488   1.256   0.637   8.883 -1.2334 -0.7194  1.7930
 8677SOL     OW37489   0.311   1.664   8.439 -0.0746  0.6899 -0.1193
 8677SOL    HW137490   0.376   1.706   8.382  2.6513 -2.7488  0.4452
 8677SOL    HW237491   0.349   1.701   8.519 -1.4050  0.0647  0.8070
 8678SOL     OW37492   3.509   3.116   3.287  0.1869 -0.3816  0.1809
 8678SOL    HW137493   3.585   3.124   3.229 -0.4247  1.8332 -0.3238
 8678SOL    HW237494   3.460   3.046   3.243 -0.6207 -0.4404  1.1789
 8679SOL     OW37495   3.047   3.456   5.682 -0.2654 -0.6236  0.1483
 8679SOL    HW137496   3.037   3.548   5.659  0.0468 -0.8583 -0.9185
 8679SOL    HW237497   3.064   3.482   5.773  1.4209  0.3194 -0.4351
 8680SOL     OW37498   4.418   3.532   5.345 -0.6719 -0.5871 -0.0282
 8680SOL    HW137499   4.461   3.554   5.428  1.4203  0.2002 -1.3017
 8680SOL    HW237500   4.457   3.597   5.286  0.1349 -0.4507  0.6416
 8681SOL     OW37501   1.272   1.698   6.662  0.4807 -0.1196 -0.0528
 8681SOL    HW137502   1.202   1.636   6.639 -1.2813  2.4605 -1.6888
 8681SOL    HW237503   1.300   1.659   6.744 -0.6522  2.3521  1.5049
 8682SOL     OW37504   1.856   0.549   3.837  0.1319  0.1236  0.0308
 8682SOL    HW137505   1.908   0.613   3.789  0.1083  0.8351  0.9463
 8682SOL    HW237506   1.808   0.508   3.766  0.0600 -0.2464  0.2936
 8683SOL     OW37507   2.849   1.523   0.993  0.0980  0.3609 -0.0546
 8683SOL    HW137508   2.776   1.581   0.972 -0.6958 -0.5711  0.1427
 8683SOL    HW237509   2.827   1.491   1.080 -1.8096  1.6332 -0.0851
 8684SOL     OW37510   4.287   1.175   2.804  0.1785  0.6057 -0.1060
 8684SOL    HW137511   4.353   1.227   2.757 -1.7978  3.2147  0.0267
 8684SOL    HW237512   4.279   1.103   2.742 -1.0729  0.6678 -0.0060
 8685SOL     OW37513   3.598   0.133   5.237  0.4305 -0.0969 -0.1604
 8685SOL    HW137514   3.511   0.111   5.204  1.4275 -1.3569 -1.9596
 8685SOL    HW237515   3.631   0.044   5.250 -2.1587 -1.0467  0.0191
 8686SOL     OW37516   2.742   0.381  15.442 -0.4954 -0.2507 -0.4242
 8686SOL    HW137517   2.724   0.308  15.502  1.2532 -0.3854 -0.0699
 8686SOL    HW237518   2.813   0.430  15.484  0.0018 -1.6221  0.3595
 8687SOL     OW37519   2.838   4.121   5.512 -0.7199  1.1945  0.3077
 8687SOL    HW137520   2.744   4.125   5.492 -0.6463  0.0898 -0.2828
 8687SOL    HW237521   2.871   4.209   5.494  0.3328  0.0037 -3.3963
 8688SOL     OW37522   0.531   1.334   2.266  0.2013  0.3558  0.2938
 8688SOL    HW137523   0.447   1.350   2.224 -0.1374  3.5450  2.1836
 8688SOL    HW237524   0.593   1.349   2.194  0.7224 -1.2022  0.4203
 8689SOL     OW37525   2.030   3.411   9.185  0.6664 -0.2975 -0.3311
 8689SOL    HW137526   2.068   3.437   9.268 -0.5914  0.8159 -0.1036
 8689SOL    HW237527   1.996   3.323   9.201  1.1156 -0.1626  1.2811
 8690SOL     OW37528   2.753   2.355  14.251 -0.3471  0.1072 -0.5020
 8690SOL    HW137529   2.671   2.400  14.271 -0.8419 -0.1908 -1.8853
 8690SOL    HW237530   2.816   2.420  14.284 -1.9401  0.0136  2.7743
 8691SOL     OW37531   1.996   2.948   3.654  0.7873 -0.2319  0.7858
 8691SOL    HW137532   2.005   2.954   3.749 -2.2329 -0.9416  1.1040
 8691SOL    HW237533   2.034   2.864   3.627 -2.0596 -1.6318  1.1779
 8692SOL     OW37534   4.230   3.454  12.127  0.6362  0.1806  0.1545
 8692SOL    HW137535   4.281   3.456  12.208  0.1131 -0.8665  0.5002
 8692SOL    HW237536   4.158   3.397  12.155  0.7305  0.0978  0.2280
 8693SOL     OW37537   0.528   2.781   8.503  0.1364 -0.1905 -0.0912
 8693SOL    HW137538   0.462   2.745   8.562  1.6491 -0.3836  1.4921
 8693SOL    HW237539   0.474   2.790   8.425  1.4283 -2.0376 -1.2089
 8694SOL     OW37540   0.281   4.640   4.635  0.1933 -0.4495  0.0999
 8694SOL    HW137541   0.249   4.678   4.717 -0.1517 -1.6966  0.5454
 8694SOL    HW237542   0.246   4.705   4.573  0.9001 -1.7677 -1.6608
 8695SOL     OW37543   1.892   2.264  13.298 -0.6003  0.0716 -0.6125
 8695SOL    HW137544   1.944   2.335  13.259 -0.0924 -1.0736 -2.0240
 8695SOL    HW237545   1.920   2.196  13.237  0.1485  0.2597 -0.4855
 8696SOL     OW37546   3.451   1.221   5.321  0.6038  0.8845  0.3073
 8696SOL    HW137547   3.413   1.146   5.366  2.1827 -0.3276 -0.4274
 8696SOL    HW237548   3.497   1.175   5.251 -0.2276 -0.6712  0.7932
 8697SOL     OW37549   0.576   1.283   0.978  0.2806 -0.1230 -0.5002
 8697SOL    HW137550   0.652   1.277   1.036 -0.0276  0.1209 -0.0719
 8697SOL    HW237551   0.611   1.299   0.891 -0.3206 -2.2546 -1.1273
 8698SOL     OW37552   1.521   1.839   8.922  0.2452 -0.0668 -0.2512
 8698SOL    HW137553   1.528   1.922   8.970 -0.0116  0.6535 -1.4787
 8698SOL    HW237554   1.558   1.857   8.836 -1.7609 -0.8075 -1.2552
 8699SOL     OW37555   0.202   2.545   9.785 -0.4618 -0.2222 -0.1515
 8699SOL    HW137556   0.229   2.602   9.857  1.5087 -1.7040  0.2615
 8699SOL    HW237557   0.141   2.497   9.841  0.0982  0.7549  1.2939
 8700SOL     OW37558   2.821   0.980   0.892 -0.6086 -0.2644  0.0109
 8700SOL    HW137559   2.915   0.968   0.907 -0.2848  1.1005 -0.9588
 8700SOL    HW237560   2.789   1.025   0.970  0.1370  1.4032 -0.6490
 8701SOL     OW37561   1.483   3.254   6.917 -0.2206 -0.6762 -1.1911
 8701SOL    HW137562   1.480   3.301   6.834 -0.9609 -1.3161 -1.5334
 8701SOL    HW237563   1.390   3.250   6.941 -0.2405 -1.0368 -1.3180
 8702SOL     OW37564   0.107   4.435   2.582 -0.4159  0.3879  0.1955
 8702SOL    HW137565   0.158   4.516   2.594 -1.1340  1.1811 -2.0934
 8702SOL    HW237566   0.055   4.443   2.661 -3.5307 -0.7895 -1.7413
 8703SOL     OW37567   4.425   2.402   3.039 -0.1839 -0.5519 -0.2081
 8703SOL    HW137568   4.343   2.380   3.082 -0.1321  1.5619  0.9997
 8703SOL    HW237569   4.434   2.485   3.086 -0.1494 -1.8692  2.0508
 8704SOL     OW37570   0.383   1.398  16.108 -0.2745 -0.8657 -0.1335
 8704SOL    HW137571   0.413   1.484  16.079 -2.4843  0.1679  0.6443
 8704SOL    HW237572   0.341   1.420  16.191 -1.3280  0.6768 -1.0747
 8705SOL     OW37573   3.065   0.551   4.641  0.4136  0.2976 -0.7232
 8705SOL    HW137574   3.157   0.551   4.667 -0.2556 -1.3472  1.7019
 8705SOL    HW237575   3.051   0.461   4.613  0.6359  0.3422 -0.9733
 8706SOL     OW37576   0.729   1.006  16.033  0.2286 -0.3475  0.3390
 8706SOL    HW137577   0.758   1.018  16.123  4.3848 -1.0878 -0.8712
 8706SOL    HW237578   0.778   0.931  15.997 -1.2194 -1.9618  1.7483
 8707SOL     OW37579   0.018   4.144   9.767 -0.0568 -0.8007 -0.5280
 8707SOL    HW137580   4.714   4.192   9.688  0.1681 -1.3809 -0.9526
 8707SOL    HW237581   0.076   4.075   9.735  2.8402  2.1713 -1.7257
 8708SOL     OW37582   0.723   3.695   2.325  0.6385 -0.4885  0.0794
 8708SOL    HW137583   0.770   3.651   2.395  1.3618 -0.6153 -0.4884
 8708SOL    HW237584   0.787   3.708   2.255  1.0766  0.6400  0.6941
 8709SOL     OW37585   2.323   3.576   8.309  0.1736 -0.3443  0.2260
 8709SOL    HW137586   2.320   3.520   8.387  4.2549  1.2614  1.5110
 8709SOL    HW237587   2.318   3.523   8.229 -3.0635 -1.8005  1.3734
 8710SOL     OW37588   3.184   2.493   6.416 -0.1121 -0.4523 -0.1308
 8710SOL    HW137589   3.207   2.515   6.326 -1.6019  0.9441 -0.1769
 8710SOL    HW237590   3.110   2.548   6.442 -1.2792 -2.2816  0.4195
 8711SOL     OW37591   1.129   1.629  12.498 -0.2857 -0.0751  0.5592
 8711SOL    HW137592   1.193   1.578  12.547  0.7874 -0.2982 -1.0692
 8711SOL    HW237593   1.157   1.720  12.508  0.3741  0.1970 -3.4448
 8712SOL     OW37594   2.076   2.873   2.838  0.0755  0.7232  0.1282
 8712SOL    HW137595   1.990   2.913   2.828 -0.5054 -0.5013  0.2586
 8712SOL    HW237596   2.069   2.832   2.924  1.6872  2.3210  1.0279
 8713SOL     OW37597   4.711   1.018   0.551  0.2169  0.3611  0.1321
 8713SOL    HW137598   0.008   1.111   0.539  2.2735 -0.1696 -1.1094
 8713SOL    HW237599   4.662   1.021   0.633  0.6141 -0.2448  0.3931
 8714SOL     OW37600   1.407   2.478   7.913 -0.6870 -0.4961  0.0102
 8714SOL    HW137601   1.487   2.516   7.950 -0.2386 -0.3871 -1.0647
 8714SOL    HW237602   1.448   2.422   7.846  2.8141 -0.3828  2.0475
 8715SOL     OW37603   4.565   2.496  14.928  0.1292 -0.3898 -0.0338
 8715SOL    HW137604   4.478   2.472  14.961 -0.0959  2.0588  1.1257
 8715SOL    HW237605   4.575   2.569  14.989  1.5921 -0.2906 -0.4074
 8716SOL     OW37606   3.967   0.905  15.451 -0.3489  0.3001 -0.0966
 8716SOL    HW137607   3.911   0.860  15.388 -0.8852  1.8770 -0.7556
 8716SOL    HW237608   3.982   0.833  15.512  0.9783  0.4505 -0.2303
 8717SOL     OW37609   3.038   1.199  13.208 -0.3759  0.7477  0.2432
 8717SOL    HW137610   2.997   1.264  13.264 -1.1218 -0.3379  0.9434
 8717SOL    HW237611   3.079   1.135  13.267 -0.0588 -1.2941 -2.1740
 8718SOL     OW37612   3.269   0.425  14.323  0.2111 -0.1984 -0.1563
 8718SOL    HW137613   3.312   0.363  14.264  0.8972 -1.2449  1.4276
 8718SOL    HW237614   3.174   0.414  14.320  0.3128 -1.2933  0.2402
 8719SOL     OW37615   2.883   0.548  11.397  0.3757  0.2168  0.2707
 8719SOL    HW137616   2.917   0.625  11.351  0.9510 -2.5758 -4.0764
 8719SOL    HW237617   2.911   0.563  11.487 -1.2234  0.9339  0.6399
 8720SOL     OW37618   3.525   1.389   6.755 -0.3369  0.3421 -0.2241
 8720SOL    HW137619   3.500   1.329   6.685  0.2453 -1.0801  0.7884
 8720SOL    HW237620   3.584   1.446   6.707 -1.7607  0.7903 -1.4493
 8721SOL     OW37621   1.578   3.795   3.232  0.2635  0.3931 -0.4855
 8721SOL    HW137622   1.622   3.766   3.152  2.2481 -2.1214  1.5297
 8721SOL    HW237623   1.497   3.745   3.225 -0.2560  0.9393  1.5655
 8722SOL     OW37624   1.796   2.391   0.639 -0.4661 -0.1742  0.5279
 8722SOL    HW137625   1.804   2.477   0.596  1.0383  0.4463  2.0513
 8722SOL    HW237626   1.703   2.395   0.663 -0.0879  0.0054  1.9619
 8723SOL     OW37627   2.836   0.265   4.784  0.2330 -0.2674 -0.3290
 8723SOL    HW137628   2.748   0.274   4.747 -0.0468  2.0254  0.8504
 8723SOL    HW237629   2.817   0.274   4.877  0.5855  1.2417 -0.3895
 8724SOL     OW37630   3.099   0.829   4.537 -0.6779  0.3518 -0.8210
 8724SOL    HW137631   3.122   0.752   4.589 -0.0516  1.2767  0.2579
 8724SOL    HW237632   3.007   0.838   4.562 -0.5169 -0.6183  0.1170
 8725SOL     OW37633   1.889   1.979   5.567  0.0675 -0.1463  0.1225
 8725SOL    HW137634   1.891   1.885   5.549  1.0409  0.0413 -0.7646
 8725SOL    HW237635   1.885   1.972   5.663  0.9825  4.9886  0.5386
 8726SOL     OW37636   1.441   2.176   6.034 -0.1931  0.3012  0.1648
 8726SOL    HW137637   1.392   2.182   6.116 -0.4342  1.8971 -0.0827
 8726SOL    HW237638   1.490   2.259   6.030 -0.6701  0.4413 -2.9666
 8727SOL     OW37639   4.261   4.510   1.319  0.0717 -0.0606 -0.1134
 8727SOL    HW137640   4.240   4.603   1.326 -2.4388 -0.6303 -0.2928
 8727SOL    HW237641   4.257   4.492   1.225 -2.4313 -1.8096  0.3285
 8728SOL     OW37642   0.369   1.535   9.383  0.2288 -0.0948  0.0616
 8728SOL    HW137643   0.294   1.584   9.417 -0.0710  0.8614 -1.9699
 8728SOL    HW237644   0.332   1.455   9.346  2.4032  0.1518 -2.6893
 8729SOL     OW37645   2.715   3.939   4.320  0.0198  0.3476 -0.1474
 8729SOL    HW137646   2.650   3.870   4.310  1.8498 -1.8138  2.5809
 8729SOL    HW237647   2.707   3.978   4.408  0.2622  0.1834 -0.0529
 8730SOL     OW37648   2.147   3.517   0.142 -0.1675  0.2226  0.4222
 8730SOL    HW137649   2.110   3.601   0.168 -0.0016  0.5709 -0.4721
 8730SOL    HW237650   2.202   3.536   0.066  0.7730  3.6231  1.9689
 8731SOL     OW37651   1.960   3.758   2.438  0.5480 -0.2141 -0.3041
 8731SOL    HW137652   2.003   3.717   2.362  1.9617  0.5294  0.0887
 8731SOL    HW237653   2.022   3.808   2.491 -0.8819 -1.0533  2.1768
 8732SOL     OW37654   1.248   1.882   6.327  0.1676 -0.2288  0.1639
 8732SOL    HW137655   1.170   1.919   6.287  0.3806  0.1356  0.0879
 8732SOL    HW237656   1.307   1.877   6.251 -0.5072 -0.7998 -0.3256
 8733SOL     OW37657   3.978   4.058  12.176  0.1361 -0.0196  0.5413
 8733SOL    HW137658   3.979   4.059  12.271  1.1145  0.6960  0.5169
 8733SOL    HW237659   3.903   3.999  12.167 -0.0753  0.6303 -1.9300
 8734SOL     OW37660   4.482   3.266   2.688  0.1877 -0.5954  0.3450
 8734SOL    HW137661   4.447   3.206   2.753 -0.0801 -2.0134 -1.1197
 8734SOL    HW237662   4.530   3.200   2.638 -0.5102 -1.2819  0.5827
 8735SOL     OW37663   0.298   3.064  16.273  0.1033 -0.2698 -0.2652
 8735SOL    HW137664   0.229   3.009  16.309 -0.2278 -0.2969 -0.9287
 8735SOL    HW237665   0.341   2.997  16.219  0.9480  1.4372 -1.7304
 8736SOL     OW37666   3.966   1.953   2.499 -0.0036  0.1067  0.0353
 8736SOL    HW137667   3.954   1.863   2.468 -1.4605  0.7871 -1.3694
 8736SOL    HW237668   3.981   1.995   2.414 -2.0003  0.5682 -0.0942
 8737SOL     OW37669   2.146   0.714  15.925  0.2094  0.3080 -0.1647
 8737SOL    HW137670   2.219   0.741  15.981 -0.0824  0.3813  0.1825
 8737SOL    HW237671   2.159   0.741  15.835  1.9382  0.1767  0.0576
 8738SOL     OW37672   2.256   0.285   6.977 -0.1337  0.4272  0.0343
 8738SOL    HW137673   2.234   0.219   7.044 -1.3857  0.7166 -0.1065
 8738SOL    HW237674   2.188   0.260   6.915 -2.0971 -1.0485  2.7904
 8739SOL     OW37675   2.229   2.035   8.610 -0.2725  0.0702 -0.4617
 8739SOL    HW137676   2.265   1.994   8.688 -1.6535  0.4974  0.4038
 8739SOL    HW237677   2.310   2.075   8.577 -0.0801 -2.7378 -3.3908
 8740SOL     OW37678   4.236   0.014  14.550  0.2455  0.1903 -0.1122
 8740SOL    HW137679   4.257   4.679  14.476  1.4042  1.9224 -1.1007
 8740SOL    HW237680   4.272   0.098  14.521  1.4947 -0.2962  0.0598
 8741SOL     OW37681   0.023   1.797   6.210  0.4039  0.1017 -0.1927
 8741SOL    HW137682   0.096   1.736   6.202  1.4201  1.2946 -0.1027
 8741SOL    HW237683   0.060   1.871   6.258 -0.8716 -0.2777  1.3941
 8742SOL     OW37684   3.110   4.120  10.301 -0.4914 -0.2832  0.1406
 8742SOL    HW137685   3.106   4.213  10.277 -2.3318 -0.5796 -0.7497
 8742SOL    HW237686   3.201   4.113  10.330 -0.2504  1.3300 -0.2022
 8743SOL     OW37687   1.250   2.280   8.009  0.0918 -0.1988 -0.0168
 8743SOL    HW137688   1.309   2.349   7.980 -0.8575 -0.1173 -1.7686
 8743SOL    HW237689   1.295   2.239   8.082 -2.4250  0.6089  2.0175
 8744SOL     OW37690   2.182   3.408   2.876 -0.5200  0.4606  0.0183
 8744SOL    HW137691   2.144   3.484   2.831  0.4005  1.0551  0.2592
 8744SOL    HW237692   2.250   3.378   2.816 -1.3291 -0.7543 -0.3097
 8745SOL     OW37693   1.625   3.396   4.349  0.3003 -0.0615  0.2192
 8745SOL    HW137694   1.624   3.457   4.275 -1.2294  1.6190  1.6253
 8745SOL    HW237695   1.537   3.401   4.387  0.3782 -0.2975  0.4316
 8746SOL     OW37696   3.004   4.521   3.404  0.4636  0.3385 -0.1302
 8746SOL    HW137697   3.007   4.591   3.339  0.5699 -0.4928 -1.0347
 8746SOL    HW237698   2.967   4.559   3.483  0.5291  1.8871 -0.8575
 8747SOL     OW37699   1.197   1.698   7.146 -0.3290  0.3162 -0.7338
 8747SOL    HW137700   1.201   1.646   7.226 -0.2942 -2.0187 -2.2253
 8747SOL    HW237701   1.105   1.683   7.123 -1.3645 -0.5543  4.0707
 8748SOL     OW37702   1.923   2.025   4.347  0.0152 -0.7752  0.5245
 8748SOL    HW137703   1.951   2.116   4.349  2.5956 -1.5101 -1.2222
 8748SOL    HW237704   1.973   1.992   4.272  1.2834 -1.0186  1.4687
 8749SOL     OW37705   3.378   3.325  15.058  0.1486  0.0878  0.0480
 8749SOL    HW137706   3.435   3.286  15.124 -0.6568 -1.8234 -0.3681
 8749SOL    HW237707   3.417   3.296  14.976  0.4811 -0.7821  0.5144
 8750SOL     OW37708   2.256   4.608   0.503  0.3793  0.5101  0.4086
 8750SOL    HW137709   2.256   4.697   0.468 -1.5325  0.9380  1.5275
 8750SOL    HW237710   2.346   4.584   0.480  0.6508 -0.7078  2.6252
 8751SOL     OW37711   1.707   4.669   9.741  0.2304 -0.1468  0.0901
 8751SOL    HW137712   1.779   0.006   9.718 -0.1450  0.9375  1.6607
 8751SOL    HW237713   1.680   4.721   9.817  0.7195  1.0637 -0.5632
 8752SOL     OW37714   1.359   0.749   2.267 -0.3016  0.1415 -0.4257
 8752SOL    HW137715   1.417   0.677   2.294 -1.9161 -1.7451 -2.0387
 8752SOL    HW237716   1.328   0.760   2.357  2.3880  1.5017  0.3344
 8753SOL     OW37717   0.563   2.022   6.918 -0.2550 -0.6952  0.5223
 8753SOL    HW137718   0.520   1.967   6.983 -0.7503 -1.0738 -0.1304
 8753SOL    HW237719   0.508   2.101   6.915  0.6292 -0.0622  0.7440
 8754SOL     OW37720   3.129   2.187   2.140 -0.1736 -0.1624  0.0278
 8754SOL    HW137721   3.062   2.190   2.071  0.6006  1.0716 -0.6645
 8754SOL    HW237722   3.168   2.101   2.124  0.0894 -0.5802  2.9580
 8755SOL     OW37723   2.205   3.483   6.673  0.6653  0.3776  0.1146
 8755SOL    HW137724   2.247   3.455   6.591 -0.2670  1.4467 -0.7227
 8755SOL    HW237725   2.148   3.549   6.633 -2.2305 -1.5445  1.0180
 8756SOL     OW37726   3.969   4.332   6.772  0.2647  0.4092 -0.5271
 8756SOL    HW137727   3.883   4.340   6.815  0.4569  0.9051 -0.2373
 8756SOL    HW237728   3.946   4.360   6.683 -0.0349 -0.2091 -0.6505
 8757SOL     OW37729   3.625   0.970   5.568 -0.6567  0.0531  0.2254
 8757SOL    HW137730   3.634   0.917   5.647 -1.3104  2.2183  1.7555
 8757SOL    HW237731   3.531   0.957   5.557 -0.3751 -0.5058 -1.4303
 8758SOL     OW37732   4.525   4.384   5.945 -0.1996 -0.0196  0.0294
 8758SOL    HW137733   4.537   4.373   5.851  0.6565  1.1983  0.0055
 8758SOL    HW237734   4.591   4.325   5.982  1.7130  1.9310 -0.3312
 8759SOL     OW37735   4.389   0.222   8.656  0.4774  0.2251 -1.0917
 8759SOL    HW137736   4.367   0.293   8.717  0.4750 -0.6454 -0.0797
 8759SOL    HW237737   4.303   0.183   8.640  1.3101 -2.4738  1.0355
 8760SOL     OW37738   4.133   1.765   2.146  0.5677  0.0003  0.5921
 8760SOL    HW137739   4.097   1.823   2.213 -1.2605 -0.6424  0.1667
 8760SOL    HW237740   4.059   1.743   2.088  1.8606  0.3172 -1.1823
 8761SOL     OW37741   0.200   0.783   4.729  0.3004 -0.4036 -0.2501
 8761SOL    HW137742   0.285   0.779   4.683 -0.0055 -0.8398 -0.7836
 8761SOL    HW237743   0.170   0.704   4.684  1.7488 -1.4380  0.5812
 8762SOL     OW37744   1.986   1.778   7.849  0.1923 -0.3598  0.1417
 8762SOL    HW137745   2.027   1.865   7.843 -0.0622 -0.3635 -1.5484
 8762SOL    HW237746   2.053   1.715   7.824  0.4015  0.3246 -1.0021
 8763SOL     OW37747   0.808   3.701  15.143  0.7836 -0.8729 -0.0149
 8763SOL    HW137748   0.808   3.624  15.088  0.4810 -0.5123 -0.5205
 8763SOL    HW237749   0.719   3.735  15.141  0.3615 -2.0916 -1.3571
 8764SOL     OW37750   1.401   1.869   4.852  0.4351  0.6574 -0.1295
 8764SOL    HW137751   1.426   1.789   4.897  2.9657  1.8243  0.5770
 8764SOL    HW237752   1.474   1.889   4.792  1.7962 -1.2538  0.8904
 8765SOL     OW37753   1.220   2.561   4.900 -0.2582 -0.5370 -0.1313
 8765SOL    HW137754   1.166   2.546   4.822  1.0298 -1.0814 -0.9224
 8765SOL    HW237755   1.234   2.474   4.935  0.2115 -0.0372  0.9390
 8766SOL     OW37756   3.089   2.162   6.089  0.2037  0.4315 -0.0300
 8766SOL    HW137757   3.166   2.218   6.085 -1.0965  2.2866  0.5813
 8766SOL    HW237758   3.019   2.222   6.062  3.2142  3.9504 -0.0167
 8767SOL     OW37759   3.114   2.352   3.164 -0.2616  0.4566 -0.2636
 8767SOL    HW137760   3.130   2.378   3.073  2.1336  0.0247  0.0587
 8767SOL    HW237761   3.045   2.286   3.153  1.5580 -1.1414 -1.9887
 8768SOL     OW37762   2.842   1.022   4.550 -0.4437  0.3980  0.1367
 8768SOL    HW137763   2.895   1.031   4.629  0.9638  0.1147 -0.7749
 8768SOL    HW237764   2.808   0.936   4.575 -0.7430  0.6673  0.6520
 8769SOL     OW37765   2.184   4.001  12.483 -0.4775 -0.3918  0.0840
 8769SOL    HW137766   2.271   4.022  12.450  0.2209  0.6735  2.6549
 8769SOL    HW237767   2.135   4.070  12.438 -2.0534 -0.8856  1.0357
 8770SOL     OW37768   0.216   0.520   5.444  0.0667  0.1490  0.3147
 8770SOL    HW137769   0.257   0.561   5.520 -2.0529 -0.0025  1.5435
 8770SOL    HW237770   0.141   0.484   5.491  0.2938 -0.8621 -0.0723
 8771SOL     OW37771   0.405   2.868   6.518  0.3899 -0.1755 -0.1189
 8771SOL    HW137772   0.404   2.932   6.446 -3.1958 -0.8027 -0.6609
 8771SOL    HW237773   0.476   2.898   6.574  0.9052 -0.0086 -0.8652
 8772SOL     OW37774   3.350   0.084   5.579  0.0982  0.7033 -0.1456
 8772SOL    HW137775   3.322   0.044   5.661  1.8526  1.2241  0.7011
 8772SOL    HW237776   3.363   0.010   5.520  0.7285  0.7193 -0.0272
 8773SOL     OW37777   2.796   1.885   9.535  0.1597 -0.2636 -0.0332
 8773SOL    HW137778   2.764   1.869   9.624 -1.5996  0.6136 -0.5109
 8773SOL    HW237779   2.802   1.980   9.535  0.7233 -0.2907  1.6120
 8774SOL     OW37780   0.954   4.532   8.030  0.3093  0.1598  0.2064
 8774SOL    HW137781   1.042   4.508   8.057  0.1363  0.9414  1.4701
 8774SOL    HW237782   0.966   4.564   7.940  2.4155 -2.8199 -0.5615
 8775SOL     OW37783   3.237   3.695   7.838  0.1952  0.7265 -0.1902
 8775SOL    HW137784   3.198   3.774   7.874 -1.7966 -1.4777  2.5236
 8775SOL    HW237785   3.280   3.652   7.912  0.2981 -0.7153 -1.0820
 8776SOL     OW37786   1.498   0.457   0.912  0.0676  0.0045 -0.0231
 8776SOL    HW137787   1.431   0.412   0.963 -1.3169 -0.5574 -2.3274
 8776SOL    HW237788   1.463   0.446   0.823  1.0408 -1.3344 -0.2247
 8777SOL     OW37789   2.896   0.826   9.355 -0.6697 -0.0493  0.0300
 8777SOL    HW137790   2.906   0.790   9.443 -1.2465 -0.1965  0.0368
 8777SOL    HW237791   2.801   0.818   9.350 -0.9195  3.1328 -0.1993
 8778SOL     OW37792   1.873   1.098   2.051 -0.0189  0.7039  0.0857
 8778SOL    HW137793   1.870   1.194   2.053 -1.1531  0.6750  0.0211
 8778SOL    HW237794   1.795   1.078   2.102  1.0058 -0.0253  1.3300
 8779SOL     OW37795   0.275   1.651   0.097  0.4531 -0.5191 -0.4314
 8779SOL    HW137796   0.256   1.590   0.025  2.6199 -0.7282 -0.8153
 8779SOL    HW237797   0.255   1.587   0.165  0.5399  1.4599  1.4526
 8780SOL     OW37798   3.171   2.199   8.649 -0.1093 -0.0247  0.0137
 8780SOL    HW137799   3.101   2.136   8.663 -0.0090 -0.3016 -0.7557
 8780SOL    HW237800   3.225   2.178   8.725 -1.9357 -0.8254  1.0763
 8781SOL     OW37801   2.579   2.281   8.868  0.5091 -0.3538 -0.1620
 8781SOL    HW137802   2.648   2.345   8.854  0.1428  0.2503  0.8341
 8781SOL    HW237803   2.604   2.247   8.954 -0.3335 -0.1623  0.1664
 8782SOL     OW37804   4.248   4.510  14.818 -0.0600  0.1010 -0.1908
 8782SOL    HW137805   4.296   4.466  14.888 -0.9080 -0.8524 -0.2070
 8782SOL    HW237806   4.319   4.542  14.761 -0.0460  2.5102  1.2027
 8783SOL     OW37807   2.469   1.295   2.138  0.3713  0.5923 -0.6003
 8783SOL    HW137808   2.378   1.286   2.109 -0.3974  1.6291  1.5153
 8783SOL    HW237809   2.448   1.319   2.228  2.2267 -0.0251 -0.0205
 8784SOL     OW37810   3.634   2.408   5.689 -0.3838  0.0742 -0.1874
 8784SOL    HW137811   3.660   2.494   5.655  1.9474 -0.5294  0.0997
 8784SOL    HW237812   3.610   2.372   5.603  3.1596 -0.7287 -0.8122
 8785SOL     OW37813   4.079   1.717   6.331  0.3663  0.2728  0.3755
 8785SOL    HW137814   4.101   1.753   6.417  1.9461  2.6490 -1.0086
 8785SOL    HW237815   3.997   1.765   6.325  0.1290 -0.3241 -1.0620
 8786SOL     OW37816   0.875   2.975   6.903  0.0257  0.0039  0.2961
 8786SOL    HW137817   0.912   2.921   6.833  0.2086 -0.1073  0.4805
 8786SOL    HW237818   0.928   2.946   6.977 -0.2783  0.7980  0.8270
 8787SOL     OW37819   1.247   0.106  13.166  0.6198  0.6678 -0.3764
 8787SOL    HW137820   1.204   0.166  13.227  1.5944  0.9668  0.0103
 8787SOL    HW237821   1.262   0.170  13.097  0.4356  3.0236  1.8060
 8788SOL     OW37822   2.455   0.672   5.788 -0.6134 -0.7389  0.0699
 8788SOL    HW137823   2.481   0.663   5.696  0.4271 -1.5417  0.4447
 8788SOL    HW237824   2.435   0.581   5.810  1.4291 -0.8669  1.3851
 8789SOL     OW37825   2.782   3.241   1.892  0.2777 -0.0936  0.0758
 8789SOL    HW137826   2.769   3.279   1.980  0.7739 -0.3265  0.2484
 8789SOL    HW237827   2.787   3.323   1.843  1.0254  1.4476  2.7298
 8790SOL     OW37828   0.445   4.631   5.707  0.3781 -0.4278  0.3915
 8790SOL    HW137829   0.503   4.672   5.643  0.2821 -0.4403  0.2954
 8790SOL    HW237830   0.378   4.699   5.700  0.7563 -0.3270 -2.3417
 8791SOL     OW37831   4.430   1.454  11.149  0.4644  0.9120 -0.5934
 8791SOL    HW137832   4.448   1.374  11.198  0.3418  1.7764  0.8510
 8791SOL    HW237833   4.411   1.406  11.068  0.2382  0.8077 -0.4787
 8792SOL     OW37834   3.052   4.093  12.095  0.2304 -0.7657 -0.2962
 8792SOL    HW137835   3.083   4.163  12.152  0.6371 -0.1004 -1.3386
 8792SOL    HW237836   3.097   4.023  12.143  0.0528  0.4641  1.6583
 8793SOL     OW37837   3.416   3.632   7.242  0.7208 -0.4933  0.3106
 8793SOL    HW137838   3.408   3.654   7.335  2.5044  0.6665  0.1901
 8793SOL    HW237839   3.353   3.561   7.236 -0.8819  0.9850 -0.0655
 8794SOL     OW37840   2.663   4.402   1.941 -0.2441  0.3608 -0.0453
 8794SOL    HW137841   2.708   4.485   1.959 -3.0118  1.9080 -0.1932
 8794SOL    HW237842   2.732   4.337   1.951  0.7638  1.3934 -0.2480
 8795SOL     OW37843   3.779   4.260   2.973 -0.2068 -0.2831 -0.9057
 8795SOL    HW137844   3.684   4.248   2.979 -0.3091  1.0008  0.0682
 8795SOL    HW237845   3.788   4.298   2.885  0.0330  1.5456 -0.0858
 8796SOL     OW37846   1.764   2.668   6.491  0.3438  0.1455 -0.3819
 8796SOL    HW137847   1.842   2.695   6.443  0.2594  1.6212  0.3108
 8796SOL    HW237848   1.808   2.626   6.565  2.5597  3.2158  0.0432
 8797SOL     OW37849   2.866   1.336   3.910  0.1368  0.3437  0.6197
 8797SOL    HW137850   2.928   1.298   3.971 -1.2321 -5.0225 -1.3848
 8797SOL    HW237851   2.900   1.426   3.910  0.2249  0.2971  3.6403
 8798SOL     OW37852   2.381   3.584   4.114 -0.5042  0.2510 -0.0540
 8798SOL    HW137853   2.332   3.502   4.116  0.1019 -0.0906  1.1514
 8798SOL    HW237854   2.310   3.643   4.089  1.2786  1.8591 -1.2989
 8799SOL     OW37855   3.709   4.456  14.565 -0.0477  0.5307 -0.2734
 8799SOL    HW137856   3.709   4.370  14.522  0.0277  1.9463 -3.1181
 8799SOL    HW237857   3.783   4.454  14.625 -0.1349  1.6703 -0.1233
 8800SOL     OW37858   1.135   4.091   5.255  0.5701 -0.1366 -0.6942
 8800SOL    HW137859   1.152   4.075   5.348  2.6900  0.9700 -0.8932
 8800SOL    HW237860   1.054   4.141   5.259 -0.9410 -2.7627  2.3907
 8801SOL     OW37861   3.525   1.603   1.347 -0.1322  0.4575 -0.3615
 8801SOL    HW137862   3.501   1.694   1.330 -1.4240  0.2231  0.2883
 8801SOL    HW237863   3.561   1.572   1.263 -1.1927 -2.7490  0.3886
 8802SOL     OW37864   0.008   1.716  16.505 -0.0884 -0.4033  0.4899
 8802SOL    HW137865   4.705   1.801  16.466  2.6924  0.1976  0.0722
 8802SOL    HW237866   0.014   1.749  16.594 -0.8608  1.1081 -0.0040
 8803SOL     OW37867   2.214   2.282   9.140 -0.4142 -0.0528  0.2895
 8803SOL    HW137868   2.296   2.309   9.181 -0.9365 -1.5315  2.3142
 8803SOL    HW237869   2.240   2.247   9.054 -2.0220 -1.1447  0.2565
 8804SOL     OW37870   3.490   4.285   3.057 -0.4410 -0.4513  0.2716
 8804SOL    HW137871   3.443   4.367   3.073 -1.0772 -0.2255 -2.6878
 8804SOL    HW237872   3.505   4.249   3.144  2.1800 -1.9903 -0.8237
 8805SOL     OW37873   2.293   0.671   8.249 -0.5262 -0.1758  0.5288
 8805SOL    HW137874   2.367   0.719   8.211  0.4693 -1.9943  0.2078
 8805SOL    HW237875   2.339   0.588   8.258 -0.6985 -0.1052  2.0641
 8806SOL     OW37876   1.113   2.029   2.540  0.2823 -0.2219 -0.1886
 8806SOL    HW137877   1.087   1.979   2.463  0.0210 -0.6518  0.1766
 8806SOL    HW237878   1.203   1.997   2.540  0.3866  0.0510  2.0163
 8807SOL     OW37879   0.518   1.219   2.739 -0.6274 -0.3358 -0.0075
 8807SOL    HW137880   0.460   1.246   2.811 -1.3832 -0.5304 -0.5426
 8807SOL    HW237881   0.597   1.271   2.753 -1.4733  0.9882 -0.1306
 8808SOL     OW37882   1.680   2.771   5.537 -0.0961  0.6580  0.3869
 8808SOL    HW137883   1.775   2.761   5.533 -0.1943  0.4847 -1.4976
 8808SOL    HW237884   1.661   2.747   5.447 -1.6986  0.7468  0.6872
 8809SOL     OW37885   2.127   2.791   6.013 -0.5621 -0.0407  0.4665
 8809SOL    HW137886   2.145   2.882   6.037 -1.2744  0.7109 -1.8233
 8809SOL    HW237887   2.032   2.793   6.005 -0.2969 -0.0923 -2.4833
 8810SOL     OW37888   1.014   0.283  10.508 -0.2023  0.2020  0.2767
 8810SOL    HW137889   0.962   0.342  10.453 -0.3275 -1.4571 -1.3895
 8810SOL    HW237890   0.957   0.277  10.585  1.0819 -1.6987  1.0804
 8811SOL     OW37891   4.393   1.353   5.965 -0.0053  0.1290 -0.3652
 8811SOL    HW137892   4.326   1.421   5.958  1.0417  1.2264  0.5062
 8811SOL    HW237893   4.428   1.359   5.876 -1.7884 -0.1717 -1.1037
 8812SOL     OW37894   2.372   2.834  10.909  0.1426 -0.2027  0.3855
 8812SOL    HW137895   2.402   2.915  10.951  3.6090 -1.1236 -0.2722
 8812SOL    HW237896   2.417   2.838  10.825  0.2443 -0.8286  0.4130
 8813SOL     OW37897   0.280   0.988   0.446 -0.5783  0.2603  0.1401
 8813SOL    HW137898   0.228   1.069   0.442 -0.9925  0.0604  1.4157
 8813SOL    HW237899   0.332   0.999   0.526 -0.3330 -0.4246  0.0688
 8814SOL     OW37900   4.322   4.608   8.778  0.9715 -0.2673 -0.0509
 8814SOL    HW137901   4.227   4.618   8.771  0.8314 -0.3371  1.7009
 8814SOL    HW237902   4.338   4.648   8.864 -1.2062 -0.0303  0.2417
 8815SOL     OW37903   1.858   1.817   3.338  0.1471 -0.8949  0.8017
 8815SOL    HW137904   1.884   1.869   3.262 -1.1067 -1.4123  0.0323
 8815SOL    HW237905   1.844   1.732   3.297 -2.3639  0.7470 -1.7612
 8816SOL     OW37906   3.931   1.811  12.339  0.3876  0.5248 -0.8145
 8816SOL    HW137907   3.847   1.780  12.373  0.4605  1.3250  0.0632
 8816SOL    HW237908   3.987   1.741  12.373  2.3529  1.7650 -1.4487
 8817SOL     OW37909   1.528   3.561   3.673 -0.0452  0.0369 -0.3246
 8817SOL    HW137910   1.554   3.471   3.693  1.0737 -0.2248 -2.9205
 8817SOL    HW237911   1.614   3.601   3.659  0.1751 -0.3040  0.0825
 8818SOL     OW37912   3.893   0.307   9.696  0.0293  0.4846  0.5330
 8818SOL    HW137913   3.876   0.358   9.776 -1.0161 -0.7560  1.1019
 8818SOL    HW237914   3.898   0.379   9.632  0.2468  0.8169  0.9253
 8819SOL     OW37915   0.642   4.684  15.482  0.3319 -0.0900 -0.0140
 8819SOL    HW137916   0.638   0.058  15.467 -0.5463 -0.0308  0.5875
 8819SOL    HW237917   0.681   4.687  15.569  0.0692 -4.7206  0.2644
 8820SOL     OW37918   4.457   3.911   0.246 -0.4154 -0.9902  0.2431
 8820SOL    HW137919   4.460   3.859   0.166 -1.1567  0.5890 -0.8187
 8820SOL    HW237920   4.530   3.871   0.292 -2.3959 -1.1337  3.2348
 8821SOL     OW37921   4.493   4.500   6.705 -0.4206 -0.2943 -0.3966
 8821SOL    HW137922   4.475   4.565   6.637 -0.6700  0.8142  0.7201
 8821SOL    HW237923   4.471   4.424   6.652 -1.2793  0.5721 -1.2827
 8822SOL     OW37924   1.060   1.102   4.305  0.2978  0.2987  0.3065
 8822SOL    HW137925   0.978   1.066   4.338  0.8031 -2.5371 -1.4623
 8822SOL    HW237926   1.084   1.057   4.224  0.8362 -1.0164  1.2022
 8823SOL     OW37927   1.926   1.057   4.541 -0.1854 -0.1636 -0.8773
 8823SOL    HW137928   1.842   1.060   4.587 -1.3973  0.3753 -3.0995
 8823SOL    HW237929   1.942   0.962   4.536  0.3425 -0.0875 -0.6674
 8824SOL     OW37930   2.679   0.608   5.043 -0.5060  0.2371 -0.2717
 8824SOL    HW137931   2.680   0.673   4.973 -0.1061 -0.5405 -0.9865
 8824SOL    HW237932   2.591   0.571   5.034 -0.5432  0.4313 -0.6975
 8825SOL     OW37933   2.250   4.241   8.749 -0.1047  0.1511  0.5519
 8825SOL    HW137934   2.186   4.303   8.785  1.6453  1.0772  2.0921
 8825SOL    HW237935   2.200   4.200   8.678 -0.8191  0.3275  0.9549
 8826SOL     OW37936   4.665   0.246   7.913  0.6692 -0.0986 -0.3648
 8826SOL    HW137937   0.014   0.312   7.913  2.2253 -1.7309  0.2110
 8826SOL    HW237938   4.682   0.206   7.999 -0.6497  2.3552  1.0262
 8827SOL     OW37939   3.585   3.442   2.303  0.0992 -0.8662  0.1237
 8827SOL    HW137940   3.668   3.489   2.301  0.4828 -1.6528 -2.3272
 8827SOL    HW237941   3.599   3.348   2.309  1.7240 -0.3998  3.9517
 8828SOL     OW37942   0.487   3.816   9.623  0.5331  0.1586  0.0711
 8828SOL    HW137943   0.476   3.735   9.672  0.5052 -0.1776 -0.4852
 8828SOL    HW237944   0.475   3.788   9.532 -0.7579 -0.3335  0.3926
 8829SOL     OW37945   1.032   3.263  16.429 -0.0424  0.1093  0.0308
 8829SOL    HW137946   1.050   3.306  16.513  0.1294  0.0351  0.0328
 8829SOL    HW237947   0.984   3.330  16.382  1.6899  0.8138 -0.7404
 8830SOL     OW37948   4.235   0.839   0.390 -0.0980 -0.2538  0.9235
 8830SOL    HW137949   4.201   0.923   0.359 -0.0619 -0.3954  0.5095
 8830SOL    HW237950   4.323   0.865   0.420 -0.3588 -0.0668  1.5343
 8831SOL     OW37951   0.080   3.513  16.518 -0.2100  0.4665 -0.5853
 8831SOL    HW137952   0.036   3.594  16.493 -1.1266  0.1952  0.1447
 8831SOL    HW237953   0.019   3.455  16.474  1.4499 -2.7365  1.3177
 8832SOL     OW37954   3.663   3.184   1.905  0.0407  0.5167  0.1676
 8832SOL    HW137955   3.656   3.237   1.825  1.8311  0.8791  0.2691
 8832SOL    HW237956   3.595   3.220   1.962 -1.9122 -2.2226 -0.4033
 8833SOL     OW37957   4.663   1.240   9.630  0.3951 -0.1487 -0.6135
 8833SOL    HW137958   4.681   1.300   9.702 -0.1650 -1.2743  0.4739
 8833SOL    HW237959   0.015   1.267   9.575 -0.4232 -0.3975 -1.8373
 8834SOL     OW37960   3.672   1.112   8.616 -0.5680 -0.6572 -0.3380
 8834SOL    HW137961   3.613   1.071   8.679 -1.2492  0.9288  0.0573
 8834SOL    HW237962   3.744   1.153   8.663 -1.4835  0.0579  0.4304
 8835SOL     OW37963   2.147   4.266   9.130  0.2726 -0.2744  0.1964
 8835SOL    HW137964   2.223   4.265   9.189  0.4312 -0.1497 -0.0047
 8835SOL    HW237965   2.124   4.173   9.131 -0.8792  0.0285  1.2360
 8836SOL     OW37966   0.435   4.537  10.010 -0.2289  0.4710  0.3941
 8836SOL    HW137967   0.501   4.497   9.953 -0.6931  0.5143 -0.1752
 8836SOL    HW237968   0.353   4.514   9.968  0.3776 -1.1360  0.0922
 8837SOL     OW37969   0.573   4.631  13.734 -0.1841 -0.0450  0.2150
 8837SOL    HW137970   0.604   0.001  13.740  0.8907 -0.2789 -1.6736
 8837SOL    HW237971   0.598   4.620  13.642  1.2652  2.7480  0.2708
 8838SOL     OW37972   3.511   2.655   9.293 -0.1059 -0.3796 -0.5389
 8838SOL    HW137973   3.417   2.637   9.286  0.3181 -2.8967  0.2912
 8838SOL    HW237974   3.528   2.625   9.382 -0.0007 -0.3975 -0.5661
 8839SOL     OW37975   3.534   3.803   3.575 -0.1939  0.3793  0.2736
 8839SOL    HW137976   3.564   3.715   3.550 -1.7603 -0.7471  2.2539
 8839SOL    HW237977   3.448   3.800   3.533  0.7485 -0.3936 -1.5912
 8840SOL     OW37978   0.726   1.159   0.475  0.5043 -0.3494 -0.3210
 8840SOL    HW137979   0.763   1.080   0.516  0.8127  0.4067  0.8698
 8840SOL    HW237980   0.722   1.135   0.383 -2.0793 -0.2137 -0.2349
 8841SOL     OW37981   0.019   4.124   6.472 -0.6332 -0.9440 -0.0403
 8841SOL    HW137982   4.707   4.034   6.472 -0.0825 -1.1325  2.1659
 8841SOL    HW237983   4.700   4.153   6.390  0.1658 -0.6131 -0.3216
 8842SOL     OW37984   3.156   2.360   2.901 -0.3518  0.5849 -0.1784
 8842SOL    HW137985   3.096   2.289   2.881  1.0071 -1.2578  2.2350
 8842SOL    HW237986   3.188   2.388   2.815 -0.4167  2.5026  0.4061
 8843SOL     OW37987   1.583   1.650  15.743  0.2605  0.0770 -0.2499
 8843SOL    HW137988   1.664   1.614  15.778 -0.5126 -1.3537  0.0479
 8843SOL    HW237989   1.602   1.676  15.653  1.4356 -2.6965 -0.7983
 8844SOL     OW37990   3.087   2.901   5.417 -0.0826 -0.0850  0.4422
 8844SOL    HW137991   3.069   2.956   5.492  1.1483 -0.8276  1.2811
 8844SOL    HW237992   3.010   2.845   5.416  0.5601 -0.9346 -3.4534
 8845SOL     OW37993   1.122   0.011   2.266  0.4862  0.9567 -0.1633
 8845SOL    HW137994   1.100   0.102   2.288 -0.5218  1.2693 -2.4096
 8845SOL    HW237995   1.157   0.015   2.177 -0.9243 -1.0090 -0.8150
 8846SOL     OW37996   2.047   3.445   4.469  0.2193 -0.4683 -0.3808
 8846SOL    HW137997   1.963   3.404   4.448  1.3452 -1.6776 -2.4891
 8846SOL    HW237998   2.102   3.368   4.459  1.6054  0.7704 -2.3426
 8847SOL     OW37999   3.634   0.597  16.906  0.1939  0.0089  0.0534
 8847SOL    HW138000   3.562   0.618  16.965 -0.0767  2.5478 -1.1704
 8847SOL    HW238001   3.584   0.566  16.831  1.2719  0.6958 -0.9607
 8848SOL     OW38002   3.476   2.652   1.941 -0.6786 -0.1761 -0.5572
 8848SOL    HW138003   3.487   2.579   1.881  0.4399 -0.0177 -0.5518
 8848SOL    HW238004   3.473   2.733   1.890  0.9946 -0.8061 -1.6486
 8849SOL     OW38005   4.017   2.811   3.377  0.5803  0.1426  0.3554
 8849SOL    HW138006   4.009   2.794   3.471 -1.6169  0.3091  0.1848
 8849SOL    HW238007   4.081   2.883   3.373 -1.2269  1.8423  1.9971
 8850SOL     OW38008   3.346   2.298   2.482  0.2045  0.1304  0.7281
 8850SOL    HW138009   3.430   2.321   2.522  1.3124 -0.7555 -1.1087
 8850SOL    HW238010   3.364   2.211   2.446 -0.0605  0.1914  0.4488
 8851SOL     OW38011   3.379   0.779   6.919 -0.3027  0.7431 -0.0428
 8851SOL    HW138012   3.335   0.826   6.848  2.3770 -1.4219 -3.1828
 8851SOL    HW238013   3.456   0.836   6.917  0.3962 -0.2166 -0.7467
 8852SOL     OW38014   1.640   2.191   4.526  0.4473 -0.1784 -0.1221
 8852SOL    HW138015   1.576   2.242   4.576  1.7059  2.1639 -0.8917
 8852SOL    HW238016   1.721   2.207   4.575  0.5747 -0.9435 -0.0869
 8853SOL     OW38017   0.881   3.949   9.112  0.1322 -0.3554 -0.2504
 8853SOL    HW138018   0.816   4.018   9.127 -0.0807 -0.9676  1.5170
 8853SOL    HW238019   0.906   3.984   9.026  1.0471  1.3401  0.6918
 8854SOL     OW38020   0.286   2.396   5.135 -0.6729 -0.0966  0.1444
 8854SOL    HW138021   0.356   2.375   5.197  0.3960 -1.0129 -1.3612
 8854SOL    HW238022   0.206   2.355   5.167 -0.8963  0.4345  0.2474
 8855SOL     OW38023   4.502   1.253  16.663 -0.4993 -0.0139  0.0137
 8855SOL    HW138024   4.563   1.320  16.632 -0.9086 -0.1078 -0.9767
 8855SOL    HW238025   4.418   1.277  16.626 -1.5078 -0.9616  1.6543
 8856SOL     OW38026   1.602   0.057   6.934  0.4520  0.1951  0.7743
 8856SOL    HW138027   1.612   4.689   6.901 -2.7707 -0.3647  1.2935
 8856SOL    HW238028   1.634   0.109   6.860 -0.1806 -1.7294 -0.8480
 8857SOL     OW38029   0.275   2.707   8.647 -0.0128  0.1964 -0.2870
 8857SOL    HW138030   0.299   2.633   8.702  0.6010  0.9381  0.4546
 8857SOL    HW238031   0.248   2.785   8.696  0.3441  0.7582 -0.9810
 8858SOL     OW38032   0.423   1.775   3.791  0.1130  0.2306 -0.1990
 8858SOL    HW138033   0.422   1.740   3.880 -2.2260 -1.6685 -0.9810
 8858SOL    HW238034   0.514   1.762   3.763 -0.0468  0.2737 -0.7407
 8859SOL     OW38035   1.188   0.104   6.028  0.3150  0.4729 -0.8345
 8859SOL    HW138036   1.131   0.051   5.972  0.6940 -0.8027 -0.0249
 8859SOL    HW238037   1.159   0.064   6.110  0.5154  0.7407 -0.6322
 8860SOL     OW38038   0.540   2.329   8.973 -0.5881  0.1747  0.3256
 8860SOL    HW138039   0.524   2.403   9.031  0.9885  1.2119 -0.5968
 8860SOL    HW238040   0.633   2.309   8.983 -0.4879  0.7953  0.6056
 8861SOL     OW38041   3.892   1.682   2.035 -0.0761  0.0369 -0.1204
 8861SOL    HW138042   3.869   1.733   1.957  0.4945  0.7542  0.1803
 8861SOL    HW238043   3.857   1.594   2.019  2.6530 -0.7379 -1.9564
 8862SOL     OW38044   1.924   3.197   8.682  0.8129 -0.0657 -0.1701
 8862SOL    HW138045   1.975   3.267   8.724 -0.5732  0.3231  0.8442
 8862SOL    HW238046   2.000   3.157   8.638  0.9231 -1.5807  1.4339
 8863SOL     OW38047   4.542   3.302  13.131 -0.0987  0.0381  0.0290
 8863SOL    HW138048   4.598   3.245  13.078  2.6284  2.9248 -0.1566
 8863SOL    HW238049   4.474   3.320  13.067  0.5662 -0.3250 -0.7800
 8864SOL     OW38050   1.638   2.897  14.942  0.7571  0.2220 -0.3600
 8864SOL    HW138051   1.643   2.958  14.869 -1.1924 -0.1017 -0.7552
 8864SOL    HW238052   1.619   2.813  14.900 -0.8089  1.2793 -1.7805
 8865SOL     OW38053   3.132   3.839   7.193  0.3366 -0.0896 -0.6785
 8865SOL    HW138054   3.104   3.820   7.282 -1.2664  0.0844 -1.1322
 8865SOL    HW238055   3.097   3.927   7.186 -0.5997 -0.5217 -1.4904
 8866SOL     OW38056   4.338   2.079   4.329  0.8470  0.0240 -0.0705
 8866SOL    HW138057   4.270   2.139   4.359  1.4981  0.9312 -0.4369
 8866SOL    HW238058   4.353   2.107   4.240  3.1532 -0.3241  0.2160
 8867SOL     OW38059   0.679   3.807   9.244  0.1324  0.0210 -0.2482
 8867SOL    HW138060   0.758   3.852   9.214 -0.5016  0.5886 -1.0821
 8867SOL    HW238061   0.710   3.717   9.240  0.2451 -0.0645  3.0784
 8868SOL     OW38062   1.572   0.143  15.140  0.3172 -0.3038 -0.9246
 8868SOL    HW138063   1.598   0.176  15.054  0.9096  3.6077  0.7910
 8868SOL    HW238064   1.481   0.170  15.129  1.0066  1.3081 -2.5777
 8869SOL     OW38065   0.019   0.367   8.400  0.0506  1.1146 -0.1989
 8869SOL    HW138066   4.647   0.364   8.422  0.5001 -0.2791  1.4952
 8869SOL    HW238067   0.047   0.440   8.455 -2.9473  1.5445  0.7628
 8870SOL     OW38068   1.147   4.494   5.349  0.1141 -0.7834 -0.2606
 8870SOL    HW138069   1.181   4.583   5.345 -0.5257 -0.6052 -1.8191
 8870SOL    HW238070   1.085   4.500   5.421  0.6743 -0.1198  0.1596
 8871SOL     OW38071   2.315   4.126   5.717  0.1476  0.3558 -1.3761
 8871SOL    HW138072   2.329   4.137   5.811  2.5370 -1.4132 -1.5313
 8871SOL    HW238073   2.336   4.033   5.708  0.2904  0.1814  0.6296
 8872SOL     OW38074   4.547   0.589   2.483  0.3232 -0.3540 -0.0284
 8872SOL    HW138075   4.596   0.508   2.484 -0.0733 -0.5999 -0.7436
 8872SOL    HW238076   4.462   0.573   2.441  0.2378 -3.3807  1.3105
 8873SOL     OW38077   0.481   2.364  13.203  0.1288  0.4270  0.0259
 8873SOL    HW138078   0.508   2.273  13.218  3.2861  1.2578 -0.6002
 8873SOL    HW238079   0.407   2.354  13.143 -0.1576  1.4054  0.2150
 8874SOL     OW38080   1.246   1.086   2.347 -0.0211  0.0065 -0.2655
 8874SOL    HW138081   1.216   1.161   2.296 -0.5938  0.6969  1.0581
 8874SOL    HW238082   1.159   1.062   2.379  0.4506 -0.5531  0.6185
 8875SOL     OW38083   1.198   0.892   7.369  0.1680 -0.4296 -1.1731
 8875SOL    HW138084   1.164   0.974   7.331  0.3978  0.0013 -0.4504
 8875SOL    HW238085   1.163   0.836   7.300 -1.5843  0.3786 -0.9508
 8876SOL     OW38086   3.416   4.662   6.351  0.2234 -0.5803 -0.4191
 8876SOL    HW138087   3.363   0.020   6.340  2.0477  0.7569  0.3910
 8876SOL    HW238088   3.370   4.610   6.286  1.3306 -2.3179  0.2048
 8877SOL     OW38089   3.982   3.201  11.362  0.2582  0.3031 -0.0578
 8877SOL    HW138090   3.980   3.193  11.458 -1.4604  0.0279 -0.1211
 8877SOL    HW238091   4.077   3.210  11.351  0.5471 -2.7778  0.0520
 8878SOL     OW38092   1.850   1.468   5.033 -0.2552 -0.0325 -0.6293
 8878SOL    HW138093   1.900   1.454   4.952  2.6157  0.0254  1.1307
 8878SOL    HW238094   1.905   1.538   5.070  2.0575 -2.3347  0.3144
 8879SOL     OW38095   2.309   0.576  11.445  0.4092  0.3326 -0.0857
 8879SOL    HW138096   2.218   0.592  11.470  0.7144  0.0674  1.1943
 8879SOL    HW238097   2.331   0.507  11.508 -2.0534 -1.5650 -1.2746
 8880SOL     OW38098   3.161   1.840  12.798 -0.3666 -0.7565 -0.6409
 8880SOL    HW138099   3.205   1.883  12.871 -0.3809 -1.7309 -0.0584
 8880SOL    HW238100   3.156   1.906  12.729  1.0847  0.1065  0.0813
 8881SOL     OW38101   2.538   4.514   1.707 -0.3400 -0.4098 -0.1741
 8881SOL    HW138102   2.578   4.474   1.785  0.2947  0.1337 -0.2207
 8881SOL    HW238103   2.544   4.442   1.645 -1.5072 -1.3968  0.8641
 8882SOL     OW38104   1.609   2.248  11.848  0.6999 -0.1817 -0.4430
 8882SOL    HW138105   1.659   2.271  11.926 -0.0766  0.0621 -0.0225
 8882SOL    HW238106   1.595   2.154  11.856  1.5160 -0.0895  1.9296
 8883SOL     OW38107   1.944   0.001   9.012  0.7859 -0.2087  0.0391
 8883SOL    HW138108   1.965   0.080   9.061 -1.1835  0.4086 -0.0867
 8883SOL    HW238109   2.011   4.657   9.034  2.4256  1.5020  0.0209
 8884SOL     OW38110   1.622   2.173  10.662  0.3849 -0.1207  0.2133
 8884SOL    HW138111   1.584   2.085  10.664  0.7005 -0.2378  1.0046
 8884SOL    HW238112   1.598   2.210  10.747  1.2905  1.1908 -0.0942
 8885SOL     OW38113   0.922   1.713   6.842 -0.1717  0.3261  0.2522
 8885SOL    HW138114   1.011   1.695   6.813 -1.3651 -1.3193 -2.4392
 8885SOL    HW238115   0.930   1.809   6.839 -0.9803  0.4820  2.6658
 8886SOL     OW38116   2.496   2.358   1.417 -0.6383  0.1158 -0.2072
 8886SOL    HW138117   2.584   2.325   1.401  0.4315  2.8931 -0.0831
 8886SOL    HW238118   2.465   2.298   1.485 -0.8819  0.9891  0.4543
 8887SOL     OW38119   3.712   4.323   0.735  0.0832  0.2115  0.0948
 8887SOL    HW138120   3.689   4.376   0.659  2.2819  0.1243 -0.6406
 8887SOL    HW238121   3.674   4.368   0.810 -2.4267 -0.7020 -0.6255
 8888SOL     OW38122   3.663   0.065   6.857 -0.0014  0.4997  0.0647
 8888SOL    HW138123   3.702   0.147   6.886  0.2700  0.6670 -0.7743
 8888SOL    HW238124   3.699   0.063   6.769  2.1319 -1.2217  0.9904
 8889SOL     OW38125   1.239   1.464   7.619  0.3697  0.0572 -0.1529
 8889SOL    HW138126   1.219   1.376   7.650 -1.7760  0.9844  1.0271
 8889SOL    HW238127   1.235   1.513   7.701 -2.5974  0.1951 -0.4016
 8890SOL     OW38128   4.492   1.869   2.468  1.1863  0.1353  0.2792
 8890SOL    HW138129   4.483   1.778   2.439 -1.5563  0.7855 -0.9127
 8890SOL    HW238130   4.454   1.860   2.556 -0.1829 -0.5349 -0.3772
 8891SOL     OW38131   4.651   2.747   6.276 -0.5163  0.0631 -0.1263
 8891SOL    HW138132   4.585   2.686   6.309  0.9603 -1.2222  0.3854
 8891SOL    HW238133   4.594   2.824   6.265 -1.4022 -0.5958 -0.2035
 8892SOL     OW38134   1.130   2.397   3.934 -0.2228  0.5578  0.3890
 8892SOL    HW138135   1.103   2.401   3.843 -1.1702  2.1525  0.7389
 8892SOL    HW238136   1.217   2.438   3.935 -0.7913  1.7456 -0.1611
 8893SOL     OW38137   1.927   4.417  16.574  0.0838  0.3256 -0.0843
 8893SOL    HW138138   1.968   4.375  16.649 -0.9479 -1.3235 -0.4483
 8893SOL    HW238139   1.993   4.415  16.505 -1.0560  0.5107 -1.1968
 8894SOL     OW38140   2.394   3.017   3.755  0.5420 -0.6298 -0.2472
 8894SOL    HW138141   2.486   3.021   3.730  1.2246 -0.4459  2.2274
 8894SOL    HW238142   2.354   3.099   3.726  0.3422 -0.4179  0.6196
 8895SOL     OW38143   2.839   1.591   8.672  0.4793  0.1358 -0.5182
 8895SOL    HW138144   2.854   1.522   8.607  2.4204 -1.8422  2.0502
 8895SOL    HW238145   2.920   1.617   8.716 -0.5073  0.2330  1.2476
 8896SOL     OW38146   3.598   0.916  16.965 -0.3025 -0.1518 -0.1170
 8896SOL    HW138147   3.546   0.913  16.884  1.0567 -0.9586 -0.9713
 8896SOL    HW238148   3.563   0.841  17.014  1.1073 -1.1066 -0.5745
 8897SOL     OW38149   3.710   0.654   1.962  0.4230  0.7140 -0.1324
 8897SOL    HW138150   3.685   0.567   1.993  2.2191  1.0744  2.2756
 8897SOL    HW238151   3.761   0.627   1.886  1.1013 -0.1182  0.6310
 8898SOL     OW38152   0.559   3.952   8.383 -0.7362 -0.0035 -0.9356
 8898SOL    HW138153   0.486   4.004   8.417 -0.7026 -0.3164 -0.3930
 8898SOL    HW238154   0.628   4.009   8.414  0.2377 -1.3232 -0.6652
 8899SOL     OW38155   3.543   3.395   6.742  0.0856 -0.8621  0.4704
 8899SOL    HW138156   3.543   3.312   6.694 -2.5502  0.2413 -1.4164
 8899SOL    HW238157   3.526   3.459   6.673 -1.1237  2.4127  3.8392
 8900SOL     OW38158   1.271   3.550  11.317 -0.0242 -0.3913 -0.3404
 8900SOL    HW138159   1.227   3.625  11.357  2.6037  0.7455  0.4445
 8900SOL    HW238160   1.195   3.510  11.276 -1.3651  2.7248 -0.9142
 8901SOL     OW38161   3.715   0.052   3.266  0.5337  0.1238  0.0871
 8901SOL    HW138162   3.756   0.104   3.197  1.4037 -0.4459  0.1855
 8901SOL    HW238163   3.738   4.681   3.259  0.8681  0.1051  1.4829
 8902SOL     OW38164   3.161   3.074   5.994 -0.3581  0.2242  0.0441
 8902SOL    HW138165   3.112   3.157   5.988  1.2566  1.2220  0.7637
 8902SOL    HW238166   3.250   3.107   6.003  0.8369 -2.1871 -3.0143
 8903SOL     OW38167   0.291   4.261   1.434 -0.1319 -0.7763  0.1244
 8903SOL    HW138168   0.340   4.334   1.473 -0.5707 -0.5726  0.2990
 8903SOL    HW238169   0.338   4.256   1.351 -1.0860  1.0693 -0.5215
 8904SOL     OW38170   4.450   4.101   7.974  0.3396  0.1185  0.1261
 8904SOL    HW138171   4.390   4.032   7.948 -0.3187  1.4583 -1.9081
 8904SOL    HW238172   4.395   4.145   8.040  0.8449  0.9077  0.0248
 8905SOL     OW38173   2.327   1.571   5.073  0.3852  0.4598  0.0919
 8905SOL    HW138174   2.395   1.544   5.012 -0.1241  0.4229 -0.4620
 8905SOL    HW238175   2.270   1.611   5.008  0.8298 -0.2610 -0.7387
 8906SOL     OW38176   2.020   1.062   9.921  0.2954  0.4748  0.1333
 8906SOL    HW138177   2.086   1.126   9.896  0.4449  0.6190  0.8726
 8906SOL    HW238178   1.961   1.113   9.978 -0.1016  0.8263 -0.5980
 8907SOL     OW38179   0.600   4.028  10.994 -0.3366  0.1120  0.1362
 8907SOL    HW138180   0.602   4.105  11.050 -0.1066 -0.3592  0.7753
 8907SOL    HW238181   0.647   4.061  10.918  2.1085  0.8520  1.9687
 8908SOL     OW38182   3.605   1.264  14.845 -0.5201 -0.4161  0.1205
 8908SOL    HW138183   3.689   1.232  14.812  1.5917  3.8949  1.2590
 8908SOL    HW238184   3.569   1.270  14.756  0.2498  1.2462 -0.0788
 8909SOL     OW38185   1.471   4.342   8.407  0.5927  0.0339 -0.0613
 8909SOL    HW138186   1.427   4.263   8.376  1.4866  0.2666 -1.9596
 8909SOL    HW238187   1.472   4.322   8.501  0.9880  1.5609  0.2626
 8910SOL     OW38188   3.289   0.054   3.599  0.5007  0.0826 -0.0626
 8910SOL    HW138189   3.269   0.145   3.580  1.2131  0.2186 -0.1643
 8910SOL    HW238190   3.325   0.064   3.688 -0.8479 -1.5385  0.6650
 8911SOL     OW38191   3.987   3.621  16.295  1.0031  0.4369  0.4848
 8911SOL    HW138192   3.906   3.627  16.245  1.5437  2.1149 -0.1844
 8911SOL    HW238193   4.053   3.631  16.227 -1.8650  1.2839 -2.1556
 8912SOL     OW38194   4.393   4.666   6.535  0.1859 -0.5525  0.3427
 8912SOL    HW138195   4.389   4.695   6.444  0.0443  0.4318  0.6675
 8912SOL    HW238196   4.367   0.024   6.582 -0.7611 -0.0665 -1.0025
 8913SOL     OW38197   1.082   2.928   6.035  0.8806  0.2679 -0.4408
 8913SOL    HW138198   1.104   2.963   6.121 -1.0835  1.5257 -0.4454
 8913SOL    HW238199   1.145   2.857   6.023 -1.8274 -2.0419 -0.9533
 8914SOL     OW38200   3.098   3.304   3.805 -0.1927  0.3270  0.1470
 8914SOL    HW138201   3.090   3.377   3.866  1.7629 -0.3933  1.2737
 8914SOL    HW238202   3.081   3.345   3.720 -2.0114 -0.6359  0.0382
 8915SOL     OW38203   1.168   4.067   2.851 -0.1504  0.3879 -0.2063
 8915SOL    HW138204   1.170   4.025   2.766 -1.4740 -0.2734  0.1003
 8915SOL    HW238205   1.077   4.045   2.872 -0.4809  2.3977  0.4510
 8916SOL     OW38206   1.605   0.906   9.388 -0.5229  0.6290 -0.3059
 8916SOL    HW138207   1.699   0.891   9.396 -0.3995  2.1824  1.0394
 8916SOL    HW238208   1.577   0.969   9.454 -1.8228 -0.7813  0.4953
 8917SOL     OW38209   0.375   3.360  13.672  0.6607 -0.5856  0.6029
 8917SOL    HW138210   0.444   3.330  13.613  1.9189  0.9391  1.2798
 8917SOL    HW238211   0.401   3.452  13.671  0.2813 -0.4522  1.9773
 8918SOL     OW38212   2.275   0.545  12.000  0.4047  0.0109  0.0921
 8918SOL    HW138213   2.328   0.579  11.928  2.2904  0.3025  1.6268
 8918SOL    HW238214   2.200   0.518  11.947  1.7363  0.4596 -2.0477
 8919SOL     OW38215   1.596   2.063   4.281 -0.1417 -0.1852 -0.5046
 8919SOL    HW138216   1.687   2.070   4.252  0.4796 -0.1945  1.4150
 8919SOL    HW238217   1.613   2.113   4.361  0.5987  0.3991 -1.0204
 8920SOL     OW38218   1.586   0.669  14.855 -0.4170  0.5696 -0.0002
 8920SOL    HW138219   1.642   0.603  14.897 -1.6503  0.6799  1.8115
 8920SOL    HW238220   1.506   0.617  14.863 -0.3752  0.3712 -0.9400
 8921SOL     OW38221   1.255   2.621   6.511 -0.1025  0.1271  0.4511
 8921SOL    HW138222   1.334   2.569   6.495 -0.9734 -0.4801 -1.9672
 8921SOL    HW238223   1.289   2.708   6.490 -0.2329  0.3567  1.2120
 8922SOL     OW38224   3.058   1.372   5.730  0.5609  0.2804 -0.3030
 8922SOL    HW138225   3.104   1.388   5.648  1.3732  1.2435  0.3373
 8922SOL    HW238226   2.998   1.448   5.729 -1.8017 -1.6369 -2.7365
 8923SOL     OW38227   1.281   2.103  16.973  0.1985 -0.2515 -0.0229
 8923SOL    HW138228   1.287   2.096  16.877  2.4692  0.1642  0.0786
 8923SOL    HW238229   1.359   2.155  16.991  0.1876 -0.0884 -0.4367
 8924SOL     OW38230   1.916   3.037   7.785 -0.0098  0.1437  0.0875
 8924SOL    HW138231   1.952   3.124   7.802  0.1308  0.2329 -0.6600
 8924SOL    HW238232   1.824   3.049   7.809  0.1397  1.3925  0.0117
 8925SOL     OW38233   4.541   3.506   3.205  0.3403 -0.0827 -0.3568
 8925SOL    HW138234   4.487   3.554   3.267 -0.7862 -3.9088  1.6628
 8925SOL    HW238235   4.623   3.544   3.235 -2.1705  3.1962  2.2135
 8926SOL     OW38236   2.012   2.613   3.734  0.2916 -0.3397 -0.2840
 8926SOL    HW138237   2.051   2.569   3.809  2.6664  0.1356 -1.2088
 8926SOL    HW238238   2.036   2.561   3.657  1.8518 -0.3097  0.1727
 8927SOL     OW38239   0.348   1.461  17.139 -0.1642  0.4327  0.0664
 8927SOL    HW138240   0.390   1.450  17.224 -0.1108 -0.5020 -0.0779
 8927SOL    HW238241   0.264   1.417  17.151 -0.1417  0.6095  0.8772
 8928SOL     OW38242   3.355   1.997   3.302  0.5337  0.1014 -0.3475
 8928SOL    HW138243   3.368   2.075   3.248  0.9127 -0.1021 -0.5598
 8928SOL    HW238244   3.445   1.965   3.297  0.9390  1.0654  0.9628
 8929SOL     OW38245   2.359   2.052   5.512  0.8814 -0.0841 -0.1733
 8929SOL    HW138246   2.364   1.961   5.544  0.2956  0.2639  0.9098
 8929SOL    HW238247   2.435   2.058   5.456  1.0869  0.8146  0.2107
 8930SOL     OW38248   2.112   2.817   1.036 -0.3150 -0.0924  0.5666
 8930SOL    HW138249   2.130   2.871   1.113 -0.2485  1.5672 -0.6097
 8930SOL    HW238250   2.150   2.736   1.069 -1.5658 -0.4848  1.0260
 8931SOL     OW38251   3.429   1.796  12.341 -0.4673 -0.1624  0.5451
 8931SOL    HW138252   3.518   1.772  12.365 -0.6538 -0.2401  1.1483
 8931SOL    HW238253   3.392   1.804  12.428  3.1787  0.3482  2.0526
 8932SOL     OW38254   1.853   1.571   9.501 -0.7894 -0.2119  0.1665
 8932SOL    HW138255   1.929   1.523   9.470 -0.6290  0.2109 -0.0970
 8932SOL    HW238256   1.895   1.647   9.541 -0.5162  0.8042 -1.9982
 8933SOL     OW38257   1.710   2.298   8.563  0.7090  0.4196  0.5533
 8933SOL    HW138258   1.709   2.394   8.569 -2.6701  0.4430 -0.2183
 8933SOL    HW238259   1.688   2.291   8.470 -0.2407  0.0109  0.8046
 8934SOL     OW38260   2.861   0.626  17.071  0.2205 -0.4518 -0.3523
 8934SOL    HW138261   2.929   0.558  17.066  2.2438  1.4029  1.4732
 8934SOL    HW238262   2.824   0.590  17.152  0.9549  1.2571  0.7374
 8935SOL     OW38263   2.557   0.676   2.648 -0.0977 -0.3352 -0.2576
 8935SOL    HW138264   2.507   0.646   2.723  0.1511 -1.1717 -0.4310
 8935SOL    HW238265   2.647   0.652   2.670  0.6074  0.2875 -2.4457
 8936SOL     OW38266   3.656   0.408   4.848  0.7245  0.1170  0.2638
 8936SOL    HW138267   3.600   0.376   4.920  0.5855  1.8687  0.9494
 8936SOL    HW238268   3.689   0.324   4.817 -2.8698 -1.0536 -0.3551
 8937SOL     OW38269   0.007   0.570   1.021  0.0937  0.4950 -0.0302
 8937SOL    HW138270   4.711   0.530   0.936  0.3020 -1.6777  0.9565
 8937SOL    HW238271   0.026   0.490   1.069 -1.3390  0.4856  0.5275
 8938SOL     OW38272   3.517   2.251   1.241 -0.3044  0.2841  0.1480
 8938SOL    HW138273   3.520   2.172   1.186 -0.3456  0.1191  0.3835
 8938SOL    HW238274   3.586   2.232   1.305 -0.3426 -1.9709 -0.4586
 8939SOL     OW38275   3.599   0.240   8.508  0.3101  0.2226  0.0076
 8939SOL    HW138276   3.646   0.158   8.517  0.7030  0.4585  0.1074
 8939SOL    HW238277   3.596   0.241   8.412  1.9154  4.2977 -0.0014
 8940SOL     OW38278   0.637   0.262   5.958 -0.2547  0.5805 -0.1557
 8940SOL    HW138279   0.580   0.338   5.965 -1.4207 -0.3427  0.5406
 8940SOL    HW238280   0.692   0.267   6.036  2.9754 -3.8009 -2.1303
 8941SOL     OW38281   2.999   3.292   5.970 -0.4973 -0.0372  0.0568
 8941SOL    HW138282   3.053   3.371   5.975  1.0309 -0.9366 -2.2388
 8941SOL    HW238283   2.925   3.314   6.027  0.2928 -0.1035  1.1069
 8942SOL     OW38284   0.743   3.915   5.964 -0.2664 -0.2034  0.1388
 8942SOL    HW138285   0.736   3.878   6.052  0.2183  0.2377  0.3589
 8942SOL    HW238286   0.711   4.003   5.985  2.7862  0.8496  0.3316
 8943SOL     OW38287   4.439   0.505   9.262  0.3561  0.2248  0.0953
 8943SOL    HW138288   4.446   0.411   9.278 -0.3343  0.5998  2.6330
 8943SOL    HW238289   4.447   0.507   9.167 -0.4947  0.6116  0.0348
 8944SOL     OW38290   1.218   3.759  13.829 -0.1187  0.4711  0.3011
 8944SOL    HW138291   1.286   3.812  13.787  0.4144  0.9345  1.7621
 8944SOL    HW238292   1.261   3.679  13.857  2.1762  1.2640 -0.9586
 8945SOL     OW38293   4.330   3.496  14.820 -0.2936  0.4786  0.2592
 8945SOL    HW138294   4.323   3.543  14.904 -1.8794 -0.7781  0.8262
 8945SOL    HW238295   4.416   3.454  14.827  0.7079  2.6788  1.3408
 8946SOL     OW38296   1.204   2.834   8.711 -0.2157  0.1666  0.0228
 8946SOL    HW138297   1.149   2.778   8.766 -1.6303  0.1588 -1.3981
 8946SOL    HW238298   1.187   2.924   8.741 -1.0850 -0.1609  0.5161
 8947SOL     OW38299   2.671   0.898   2.854 -0.2878  0.6632  0.2524
 8947SOL    HW138300   2.597   0.906   2.794 -1.3287 -1.9505  1.2309
 8947SOL    HW238301   2.709   0.986   2.855 -0.3975  0.7230 -0.6934
 8948SOL     OW38302   0.054   1.654   6.779  0.2880  0.4957 -0.1217
 8948SOL    HW138303   0.066   1.633   6.872  0.2391 -2.3783 -0.7826
 8948SOL    HW238304   0.148   1.654   6.758  0.5394 -0.1202  0.9939
 8949SOL     OW38305   1.701   4.671   5.478 -0.1418  0.5351 -0.0656
 8949SOL    HW138306   1.693   0.013   5.406  0.9896  3.0328  2.0102
 8949SOL    HW238307   1.754   4.716   5.544  0.5505  0.8353 -0.8214
 8950SOL     OW38308   0.611   0.469   6.814 -1.0894  0.0959 -0.3966
 8950SOL    HW138309   0.605   0.553   6.770 -2.5101  0.0329 -0.3169
 8950SOL    HW238310   0.608   0.409   6.739 -0.3386  0.7384 -0.9360
 8951SOL     OW38311   1.516   4.014   8.547 -0.5885 -0.1516 -0.5070
 8951SOL    HW138312   1.462   4.071   8.493 -0.2593  1.2210  0.6153
 8951SOL    HW238313   1.449   3.955   8.581 -1.1855 -0.9396 -2.9967
 8952SOL     OW38314   4.296   4.514  13.515 -0.2050  0.4513  0.2906
 8952SOL    HW138315   4.295   4.440  13.575 -0.4888  2.6306  2.9898
 8952SOL    HW238316   4.216   4.509  13.463 -0.2852 -0.2522  0.4851
 8953SOL     OW38317   1.976   0.882  11.657  0.6912 -0.8339 -0.5418
 8953SOL    HW138318   1.960   0.975  11.670 -1.8582 -1.4285  0.6098
 8953SOL    HW238319   1.902   0.849  11.709  1.5251 -1.3044  0.3338
 8954SOL     OW38320   3.598   4.492  17.395 -0.4357  0.2087  0.0308
 8954SOL    HW138321   3.622   4.418  17.339 -1.6721  0.4385 -0.8081
 8954SOL    HW238322   3.683   4.536  17.398 -0.4288  0.2263 -0.3586
 8955SOL     OW38323   0.190   3.491  12.476 -0.4361  0.0498  0.5406
 8955SOL    HW138324   0.192   3.579  12.441  1.9278 -0.4517 -0.5770
 8955SOL    HW238325   0.115   3.504  12.534 -0.1979 -1.6287  1.2339
 8956SOL     OW38326   3.492   1.327   8.016 -0.2490 -0.6375 -0.6880
 8956SOL    HW138327   3.399   1.315   7.995 -0.4140 -0.0312 -0.2871
 8956SOL    HW238328   3.496   1.274   8.096 -0.8607  0.9679  0.4010
 8957SOL     OW38329   3.868   2.046   1.700  0.3319 -0.0685  0.2754
 8957SOL    HW138330   3.862   1.958   1.739 -1.1292  0.0974  0.4316
 8957SOL    HW238331   3.881   2.094   1.782  0.9669 -1.7099  1.1451
 8958SOL     OW38332   0.789   2.623  16.508 -0.3109 -0.0379  0.1913
 8958SOL    HW138333   0.799   2.580  16.593  0.9032 -2.1023 -1.0188
 8958SOL    HW238334   0.874   2.665  16.496 -0.7789  1.2749  1.3133
 8959SOL     OW38335   3.966   2.815   2.242 -0.6086  0.6382  0.2142
 8959SOL    HW138336   3.879   2.836   2.210  0.2360 -0.7464 -3.0832
 8959SOL    HW238337   3.975   2.722   2.220  2.3309  0.7004  1.1537
 8960SOL     OW38338   3.068   2.582   7.013  0.1322 -0.5500  0.3867
 8960SOL    HW138339   3.014   2.661   7.013 -0.6286 -1.0802  1.6631
 8960SOL    HW238340   3.003   2.515   7.032 -1.1571  0.2695 -1.2184
 8961SOL     OW38341   4.360   3.157   2.220 -0.4148 -0.1416 -0.4001
 8961SOL    HW138342   4.267   3.149   2.200 -0.3525 -0.6491 -0.4794
 8961SOL    HW238343   4.362   3.252   2.233 -0.4695 -0.3875  1.4163
 8962SOL     OW38344   1.234   3.718   8.477 -0.0039  0.3929 -0.0990
 8962SOL    HW138345   1.240   3.812   8.494  1.8094  0.8676 -3.2678
 8962SOL    HW238346   1.162   3.686   8.531 -0.9240  0.0598 -1.5331
 8963SOL     OW38347   3.179   4.338   4.033  0.4997 -0.4874  0.1885
 8963SOL    HW138348   3.130   4.259   4.015  0.6211 -0.6953  0.7503
 8963SOL    HW238349   3.254   4.302   4.081 -0.1010  0.3833  1.8107
 8964SOL     OW38350   1.950   4.678   8.494  0.1402 -0.0647 -0.7046
 8964SOL    HW138351   1.855   4.667   8.491 -0.2464  2.6686  2.0590
 8964SOL    HW238352   1.955   4.634   8.579 -3.3628 -0.5258 -0.7497
 8965SOL     OW38353   1.900   3.345   5.779  0.4869  0.1023 -0.1717
 8965SOL    HW138354   1.859   3.293   5.848  1.6037 -0.7100 -0.1249
 8965SOL    HW238355   1.931   3.418   5.833  2.4854  1.2769 -2.9125
 8966SOL     OW38356   3.358   2.363   2.212 -0.8645 -0.3481  0.0758
 8966SOL    HW138357   3.313   2.376   2.295  1.8672  1.9142  1.2044
 8966SOL    HW238358   3.287   2.320   2.165 -0.4160 -0.0276 -0.9019
 8967SOL     OW38359   0.660   4.297  15.845 -0.1860 -0.0900 -0.8356
 8967SOL    HW138360   0.718   4.278  15.771 -0.2838  0.0953 -0.9611
 8967SOL    HW238361   0.586   4.239  15.828 -0.9833  0.2827  1.3243
 8968SOL     OW38362   3.694   4.232   4.448  0.3517 -0.4233 -0.2916
 8968SOL    HW138363   3.743   4.155   4.418  0.9725 -0.1765  0.0895
 8968SOL    HW238364   3.730   4.235   4.537 -1.6142  0.9515  0.4647
 8969SOL     OW38365   0.992   3.336   4.305  0.8555  0.2960  0.1451
 8969SOL    HW138366   0.981   3.382   4.222  0.8708 -0.9794 -0.5622
 8969SOL    HW238367   0.916   3.278   4.312 -0.3665  1.6149 -2.2533
 8970SOL     OW38368   1.103   0.245   0.805 -0.3502 -0.3122 -0.0511
 8970SOL    HW138369   1.025   0.277   0.760  0.5153 -1.4013 -2.3471
 8970SOL    HW238370   1.073   0.171   0.859 -3.6641 -0.7889 -2.5246
 8971SOL     OW38371   1.426   3.471  10.967  0.8181 -0.2838  0.1356
 8971SOL    HW138372   1.430   3.435  10.878 -0.0824 -0.0099 -0.0143
 8971SOL    HW238373   1.343   3.519  10.960  0.0007 -1.5191  1.1949
 8972SOL     OW38374   0.956   3.964   8.170  0.0901 -0.3738 -0.2706
 8972SOL    HW138375   0.913   3.927   8.093  2.2881 -0.1246 -1.6151
 8972SOL    HW238376   0.898   4.036   8.195  0.1483 -0.7307  0.9148
 8973SOL     OW38377   3.374   0.142   1.893  0.0869 -0.0469 -0.9875
 8973SOL    HW138378   3.391   0.049   1.877 -0.8113 -0.5543  1.0259
 8973SOL    HW238379   3.434   0.177   1.827  1.6332 -1.8859 -0.5462
 8974SOL     OW38380   2.106   1.161   9.573  0.1046  0.1110  0.0169
 8974SOL    HW138381   2.013   1.148   9.595  0.2650 -0.9286  0.0958
 8974SOL    HW238382   2.139   1.186   9.659 -1.4329 -0.3386  0.7496
 8975SOL     OW38383   3.109   0.509   6.638 -0.8665 -0.7030  0.1708
 8975SOL    HW138384   3.180   0.572   6.625 -0.6382 -1.4845 -2.3303
 8975SOL    HW238385   3.138   0.454   6.711  1.8134  0.2678 -0.1587
 8976SOL     OW38386   3.938   3.131  15.887  0.1364  0.0338  0.1678
 8976SOL    HW138387   3.945   3.037  15.871  0.9921  0.1664 -0.2677
 8976SOL    HW238388   3.914   3.121  15.979  2.5188  0.4454  0.8156
 8977SOL     OW38389   4.594   4.530   7.091  0.1031  0.0852  0.1171
 8977SOL    HW138390   4.641   4.466   7.037 -1.4659 -0.6254 -0.4048
 8977SOL    HW238391   4.539   4.571   7.024 -0.7027  0.2913  0.9045
 8978SOL     OW38392   0.945   3.047   9.031 -0.1928  0.0276 -0.3054
 8978SOL    HW138393   0.911   3.013   9.114 -0.2021 -1.2971 -0.8480
 8978SOL    HW238394   0.958   3.139   9.054  0.0233 -0.1410  0.2393
 8979SOL     OW38395   4.209   1.349   3.623  0.0444  0.2335 -0.4008
 8979SOL    HW138396   4.241   1.428   3.665 -0.2434  2.1377 -3.7167
 8979SOL    HW238397   4.246   1.286   3.685  0.3627  1.1505  0.3352
 8980SOL     OW38398   2.895   2.191  13.792 -0.3314 -0.4749  0.0290
 8980SOL    HW138399   2.909   2.207  13.698 -0.5738  0.4898  0.1480
 8980SOL    HW238400   2.860   2.277  13.817 -1.4939 -0.8665 -0.2487
 8981SOL     OW38401   3.271   3.475   9.201 -0.8585  0.0338 -0.1068
 8981SOL    HW138402   3.175   3.481   9.200 -0.7175  1.7723 -1.5999
 8981SOL    HW238403   3.295   3.527   9.125 -1.3198  2.3148  1.3043
 8982SOL     OW38404   0.634   3.889   2.671 -0.0594 -0.2999  0.3148
 8982SOL    HW138405   0.615   3.918   2.582 -0.6284 -0.0002  0.5359
 8982SOL    HW238406   0.719   3.845   2.668 -1.3623 -2.7712 -0.9787
 8983SOL     OW38407   0.268   0.395   4.339 -0.5786 -0.4192 -0.3420
 8983SOL    HW138408   0.293   0.487   4.337 -1.7444 -0.0933  0.0351
 8983SOL    HW238409   0.173   0.389   4.331 -0.7524  3.8243 -1.1196
 8984SOL     OW38410   0.601   0.982   3.001 -0.6104 -0.6416 -0.8154
 8984SOL    HW138411   0.548   1.060   2.981 -1.2015 -0.9406 -0.3984
 8984SOL    HW238412   0.550   0.920   2.949 -0.5355  0.3084 -2.0289
 8985SOL     OW38413   2.077   1.372  10.419 -0.4013 -0.1300 -0.0021
 8985SOL    HW138414   2.145   1.431  10.385 -0.6077 -0.2464 -0.6162
 8985SOL    HW238415   2.128   1.291  10.416 -2.8464 -1.6559 -0.7134
 8986SOL     OW38416   3.732   3.568   4.613 -0.4545 -0.3743  0.1139
 8986SOL    HW138417   3.688   3.483   4.622 -0.2301 -0.5530 -0.4844
 8986SOL    HW238418   3.655   3.620   4.636  0.1010 -0.7288  2.7754
 8987SOL     OW38419   1.643   2.371   6.623 -0.1533 -0.0805  0.4867
 8987SOL    HW138420   1.720   2.327   6.587 -0.2052 -0.9348  1.3982
 8987SOL    HW238421   1.584   2.295   6.624  0.0879 -0.2346  2.4998
 8988SOL     OW38422   4.140   4.490   5.490  0.2052  0.4622  0.2663
 8988SOL    HW138423   4.162   4.457   5.577 -0.5764  0.8934  0.6299
 8988SOL    HW238424   4.200   4.563   5.472  0.9449 -0.2773 -0.2967
 8989SOL     OW38425   1.988   1.753   9.638  0.3141 -0.5179  0.1164
 8989SOL    HW138426   1.986   1.822   9.704  1.1109  0.6036 -1.0349
 8989SOL    HW238427   2.057   1.703   9.682  1.2820  0.5952 -0.1419
 8990SOL     OW38428   2.061   3.321   8.865  0.2322  0.1087 -0.0851
 8990SOL    HW138429   2.003   3.348   8.937 -0.9114 -2.5331 -0.0095
 8990SOL    HW238430   2.103   3.404   8.842  0.5395 -0.6029 -2.1191
 8991SOL     OW38431   2.848   2.099  11.681 -0.0747  0.1692 -0.5495
 8991SOL    HW138432   2.757   2.127  11.677  0.4583  1.5986 -2.6517
 8991SOL    HW238433   2.864   2.086  11.587  1.3970 -0.0784 -0.2608
 8992SOL     OW38434   0.885   4.253   6.525  0.3998 -0.4817 -0.4355
 8992SOL    HW138435   0.960   4.305   6.497 -0.0047  0.1496 -0.3626
 8992SOL    HW238436   0.812   4.312   6.505 -1.0603 -0.9562  3.3777
 8993SOL     OW38437   1.677   4.299  16.633 -0.0126 -0.3335 -0.5916
 8993SOL    HW138438   1.664   4.242  16.556  1.6114  0.1505 -1.2233
 8993SOL    HW238439   1.755   4.348  16.607 -0.0284  0.3568  0.7041
 8994SOL     OW38440   0.645   1.961   7.969 -0.3358  0.1737 -0.5774
 8994SOL    HW138441   0.719   1.935   8.024 -0.5320  1.6515  0.3750
 8994SOL    HW238442   0.632   2.055   7.977 -0.2508  0.1373 -0.0258
 8995SOL     OW38443   0.389   4.615   6.801  0.3823  0.0357  0.0844
 8995SOL    HW138444   0.357   4.625   6.711  1.8654  1.8213 -0.2379
 8995SOL    HW238445   0.351   4.533   6.831  1.5500 -1.0699 -1.4719
 8996SOL     OW38446   3.629   0.093   4.300  0.0843  0.1213 -0.1410
 8996SOL    HW138447   3.541   0.126   4.319 -0.1778 -0.0739 -1.0145
 8996SOL    HW238448   3.672   0.169   4.260  1.1454 -0.2657  0.2615
 8997SOL     OW38449   3.567   3.747  13.888  0.0451  0.2329 -0.3399
 8997SOL    HW138450   3.497   3.682  13.902  1.2011 -1.2616 -1.4323
 8997SOL    HW238451   3.618   3.694  13.827  1.4392  0.7531  0.3883
 8998SOL     OW38452   0.632   0.725   8.436  0.3226  0.2481  0.2552
 8998SOL    HW138453   0.659   0.704   8.526  0.8443  0.8258  0.2355
 8998SOL    HW238454   0.667   0.814   8.428 -1.4069  0.6597 -2.6859
 8999SOL     OW38455   2.330   4.189   3.145 -0.5070  0.3901  0.7058
 8999SOL    HW138456   2.369   4.107   3.176  0.6101  0.6641  0.0219
 8999SOL    HW238457   2.358   4.252   3.212 -1.7939  2.0749 -0.3639
 9000SOL     OW38458   1.877   1.025   8.703 -0.5172  0.4202  0.6660
 9000SOL    HW138459   1.872   1.107   8.653 -1.6059  1.1229  1.9289
 9000SOL    HW238460   1.913   1.060   8.785  0.8133 -2.8513  1.4898
 9001SOL     OW38461   4.585   4.017  11.081  0.0731 -0.2551  0.1189
 9001SOL    HW138462   4.660   4.074  11.099 -0.2819  0.1980  0.1915
 9001SOL    HW238463   4.626   3.944  11.035 -0.1466  1.2422 -2.4491
 9002SOL     OW38464   4.513   0.192   3.740  0.3186 -0.6411  0.2025
 9002SOL    HW138465   4.476   0.185   3.828 -0.7139 -0.8584 -0.2556
 9002SOL    HW238466   4.430   0.170   3.698 -0.4651 -0.6395  1.7629
 9003SOL     OW38467   2.424   3.517   5.535  0.0300 -0.2296 -0.1856
 9003SOL    HW138468   2.351   3.576   5.514  2.3468  3.3472  1.9388
 9003SOL    HW238469   2.436   3.475   5.450  0.9128 -2.1441  0.8879
 9004SOL     OW38470   3.160   3.393   1.900 -0.3101 -0.6379 -0.3278
 9004SOL    HW138471   3.119   3.479   1.899 -1.6322 -1.2484  1.7384
 9004SOL    HW238472   3.106   3.339   1.841 -0.7146  1.1767 -1.6109
 9005SOL     OW38473   1.988   2.260   6.869 -0.6404 -0.5362 -0.2241
 9005SOL    HW138474   2.033   2.176   6.859  0.9513  0.4648 -1.5427
 9005SOL    HW238475   1.918   2.236   6.929  2.0969 -1.2969  2.6884
 9006SOL     OW38476   0.484   0.278   0.403 -0.2263 -0.0281 -0.2666
 9006SOL    HW138477   0.406   0.241   0.444  1.8675 -2.9507  1.1248
 9006SOL    HW238478   0.449   0.349   0.349 -0.9764 -1.9820 -2.3653
 9007SOL     OW38479   0.540   1.720   0.778 -0.3001 -0.6315  0.4781
 9007SOL    HW138480   0.530   1.731   0.684 -1.8913  1.0844  0.8376
 9007SOL    HW238481   0.477   1.648   0.789  0.5679 -1.4975 -0.2506
 9008SOL     OW38482   1.493   4.627  13.405 -0.3572 -0.5079 -0.4625
 9008SOL    HW138483   1.408   4.672  13.406  0.9101  1.9087 -1.2840
 9008SOL    HW238484   1.530   4.644  13.319 -2.0016  2.1064 -0.6597
 9009SOL     OW38485   4.518   1.258   2.661 -0.0817  0.3834 -0.0148
 9009SOL    HW138486   4.513   1.333   2.602  0.8154  1.0999  0.8282
 9009SOL    HW238487   4.558   1.193   2.603  0.2592  0.3281  0.2877
 9010SOL     OW38488   4.083   0.311  13.980  0.5839 -0.9123 -0.3234
 9010SOL    HW138489   3.991   0.305  14.006 -0.4449 -0.8594 -3.9100
 9010SOL    HW238490   4.075   0.312  13.884  3.1128  2.7282 -0.4571
 9011SOL     OW38491   0.601   2.797   2.769 -0.3366 -0.1774  0.4338
 9011SOL    HW138492   0.597   2.727   2.704  0.1288  0.5010 -0.3280
 9011SOL    HW238493   0.611   2.741   2.846  0.7700  2.1765  2.0148
 9012SOL     OW38494   3.097   4.267   7.111 -0.4927 -0.3645 -0.5078
 9012SOL    HW138495   3.125   4.201   7.175 -1.0255  0.5140  0.6443
 9012SOL    HW238496   3.167   4.265   7.046 -0.9873 -2.0828 -0.9776
 9013SOL     OW38497   0.932   0.615  10.903  0.4742 -0.8294  0.3054
 9013SOL    HW138498   0.901   0.529  10.933  0.1249 -0.5690  0.6920
 9013SOL    HW238499   0.915   0.616  10.809  1.5908 -0.4301  0.1075
 9014SOL     OW38500   1.464   3.961  15.333  0.2170 -0.5520  0.1788
 9014SOL    HW138501   1.499   4.012  15.406  0.4480  1.3039 -1.2493
 9014SOL    HW238502   1.419   4.031  15.286 -0.4494  0.0681  1.7362
 9015SOL     OW38503   4.097   0.456   4.040 -0.0305 -0.4989 -0.3060
 9015SOL    HW138504   4.027   0.472   3.977  0.5143 -0.7676 -0.9759
 9015SOL    HW238505   4.165   0.483   3.978 -1.8143  1.6540 -1.3286
 9016SOL     OW38506   0.066   4.182  11.145  0.4247 -0.8562  0.3927
 9016SOL    HW138507   0.161   4.175  11.153  0.2298 -2.0813  1.6431
 9016SOL    HW238508   0.050   4.274  11.162  2.3977 -0.8000  1.9528
 9017SOL     OW38509   3.590   0.654   5.005  0.1594  0.1640 -0.0768
 9017SOL    HW138510   3.609   0.574   4.956 -0.3236 -0.1533  0.2588
 9017SOL    HW238511   3.666   0.708   4.982 -1.7078  1.9002 -2.1728
 9018SOL     OW38512   0.976   2.705  13.334  0.1908 -0.2506  0.5722
 9018SOL    HW138513   1.058   2.663  13.356 -0.2237 -1.2919  0.1345
 9018SOL    HW238514   0.918   2.635  13.303 -0.0982 -0.7596  2.2784
 9019SOL     OW38515   0.930   0.267  12.291  0.7348  0.4003 -0.0356
 9019SOL    HW138516   0.922   0.239  12.382  2.5221  0.3841  0.1068
 9019SOL    HW238517   0.836   0.279  12.273  0.1938  0.0783  2.5997
 9020SOL     OW38518   4.384   3.743   0.874  0.3797  0.2410  0.0584
 9020SOL    HW138519   4.379   3.648   0.880  0.7620  0.2508  0.5118
 9020SOL    HW238520   4.448   3.747   0.802  1.6779  1.3737  1.2913
 9021SOL     OW38521   2.360   2.780   6.266  0.3031  0.1478  0.2572
 9021SOL    HW138522   2.314   2.763   6.348  0.5479 -1.1332  0.1373
 9021SOL    HW238523   2.286   2.778   6.206  0.5777 -1.2183 -0.0369
 9022SOL     OW38524   3.382   4.079  11.507 -0.2480 -0.0287  0.4510
 9022SOL    HW138525   3.393   4.146  11.439 -0.1737  0.2470  0.7389
 9022SOL    HW238526   3.447   4.113  11.568  1.0669  0.7121 -1.3460
 9023SOL     OW38527   0.700   4.476  17.202  1.3566 -1.0044 -0.3232
 9023SOL    HW138528   0.745   4.497  17.283  0.1618 -1.1064  0.3635
 9023SOL    HW238529   0.690   4.559  17.155 -2.2947 -0.4569  1.4574
 9024SOL     OW38530   4.315   4.239   6.244  0.3215  0.0554 -0.0987
 9024SOL    HW138531   4.327   4.151   6.208 -1.5577 -1.7260  3.6457
 9024SOL    HW238532   4.391   4.241   6.302  0.1896  0.3263  0.0623
 9025SOL     OW38533   2.607   1.715   7.437  0.6683  0.1812  0.1827
 9025SOL    HW138534   2.557   1.766   7.373  1.9834 -2.0625 -2.6134
 9025SOL    HW238535   2.663   1.784   7.473  1.6839 -0.2726 -0.5417
 9026SOL     OW38536   4.683   1.552   8.568  0.7171  0.0869 -0.1034
 9026SOL    HW138537   4.589   1.559   8.584  0.7068  0.8876 -0.5004
 9026SOL    HW238538   4.715   1.577   8.655 -1.5693  1.5468  0.3112
 9027SOL     OW38539   4.247   3.088   8.256 -0.0651  0.2503 -0.3782
 9027SOL    HW138540   4.290   3.037   8.187 -1.8713  0.0865 -1.3792
 9027SOL    HW238541   4.161   3.050   8.271 -1.1533  1.4130 -3.5529
 9028SOL     OW38542   1.393   3.581   3.197 -0.0106  0.4016 -0.0045
 9028SOL    HW138543   1.334   3.509   3.220 -0.3815  0.4484 -0.8120
 9028SOL    HW238544   1.430   3.545   3.117 -0.0445 -0.3345  0.3083
 9029SOL     OW38545   0.104   3.754   6.048 -0.5670 -0.3362 -0.6514
 9029SOL    HW138546   0.126   3.756   6.141 -0.4961  0.1274 -0.6778
 9029SOL    HW238547   0.160   3.827   6.021 -0.9800  0.1631 -0.1456
 9030SOL     OW38548   3.009   0.276   7.388 -0.4382  0.7848 -0.4351
 9030SOL    HW138549   2.992   0.224   7.310  1.0860  0.0767 -0.2825
 9030SOL    HW238550   2.930   0.257   7.438  0.0692 -0.3657 -0.0800
 9031SOL     OW38551   3.434   4.385   1.103 -0.3967 -0.1474 -0.5068
 9031SOL    HW138552   3.444   4.318   1.170 -2.4709 -3.0632 -3.0908
 9031SOL    HW238553   3.516   4.371   1.057 -1.4818  1.2802 -2.9127
 9032SOL     OW38554   2.210   0.471  13.600 -0.4501 -0.0917 -0.7487
 9032SOL    HW138555   2.244   0.384  13.622  2.1489  1.1477  0.1167
 9032SOL    HW238556   2.243   0.474  13.510  0.8195  1.6125 -0.2116
 9033SOL     OW38557   2.469   4.601   8.067  0.4366 -0.1192  0.2748
 9033SOL    HW138558   2.476   4.688   8.028  1.3129 -0.9633 -1.4439
 9033SOL    HW238559   2.531   4.611   8.140  0.0555  0.9048  0.4678
 9034SOL     OW38560   3.483   3.208   7.256  0.4056  0.0489 -0.5978
 9034SOL    HW138561   3.475   3.261   7.177  2.3070  0.1656 -0.7248
 9034SOL    HW238562   3.466   3.121   7.219  1.0827 -0.1468 -0.4507
 9035SOL     OW38563   3.579   3.713   6.001  0.4712 -0.4546  0.2504
 9035SOL    HW138564   3.584   3.770   6.078 -1.0118 -1.2825  0.9708
 9035SOL    HW238565   3.500   3.666   6.028  0.5269 -0.6144  0.1294
 9036SOL     OW38566   3.788   3.089   7.471 -0.0696  0.5015  1.1598
 9036SOL    HW138567   3.881   3.067   7.484  0.0671 -0.2685 -1.0318
 9036SOL    HW238568   3.764   3.039   7.393  0.2386  0.0515  1.3507
 9037SOL     OW38569   2.412   1.655   0.744 -0.2259 -0.2062 -0.4846
 9037SOL    HW138570   2.399   1.669   0.650 -0.3996 -0.0135 -0.4326
 9037SOL    HW238571   2.327   1.671   0.785  0.4808  0.4540  0.7500
 9038SOL     OW38572   0.322   4.065   6.901 -0.2097 -0.6746 -0.4067
 9038SOL    HW138573   0.311   4.101   6.989  1.1259 -1.0770 -0.0759
 9038SOL    HW238574   0.349   4.145   6.856  0.0485 -0.0823  0.7959
 9039SOL     OW38575   0.032   1.374   4.543  0.1271 -0.1650  0.7965
 9039SOL    HW138576   0.087   1.378   4.621 -1.1737 -2.0275  1.8086
 9039SOL    HW238577   4.673   1.331   4.573  0.0747 -0.6028  0.0141
 9040SOL     OW38578   1.826   4.499   4.768  0.2264  0.1830  0.3857
 9040SOL    HW138579   1.776   4.417   4.765  0.2028  0.3117 -2.5002
 9040SOL    HW238580   1.760   4.568   4.765 -0.6374 -0.6364  0.4159
 9041SOL     OW38581   3.929   0.867   2.990 -0.3882 -0.2429 -0.3943
 9041SOL    HW138582   3.980   0.945   2.967 -1.1826  0.4867  0.2856
 9041SOL    HW238583   3.897   0.838   2.904 -1.4967 -1.9304  0.6046
 9042SOL     OW38584   2.793   2.764   9.629 -0.0556  0.4389  0.3923
 9042SOL    HW138585   2.720   2.826   9.640 -0.4241  0.6010 -2.9224
 9042SOL    HW238586   2.868   2.823   9.621  0.5503 -0.2734  0.8669
 9043SOL     OW38587   0.181   1.258   8.081  0.4874 -1.1063  0.4677
 9043SOL    HW138588   0.267   1.266   8.122  0.3893  0.6764  0.2914
 9043SOL    HW238589   0.177   1.162   8.090  1.4923 -1.0721  1.3567
 9044SOL     OW38590   0.486   2.306   5.310 -0.0831  0.3661 -0.5940
 9044SOL    HW138591   0.453   2.334   5.395 -0.1881  3.1124 -1.5540
 9044SOL    HW238592   0.576   2.337   5.318 -0.4696  1.4088 -0.3007
 9045SOL     OW38593   0.687   4.427   3.129 -0.3570  0.6562 -0.6179
 9045SOL    HW138594   0.737   4.501   3.163  1.5106  0.3749 -2.7682
 9045SOL    HW238595   0.639   4.458   3.052 -1.2114  0.7610 -0.0538
 9046SOL     OW38596   2.984   0.127   7.102 -0.1825 -0.5320  0.2113
 9046SOL    HW138597   2.927   0.180   7.046  2.3879  0.2257 -1.6698
 9046SOL    HW238598   3.042   0.101   7.031 -0.3522 -1.0446  0.2598
 9047SOL     OW38599   1.039   1.350   4.431  0.0788  0.2748  0.3370
 9047SOL    HW138600   1.058   1.261   4.402 -0.8120 -0.4090  1.8976
 9047SOL    HW238601   0.970   1.336   4.495  0.7042  2.7321  1.5518
 9048SOL     OW38602   4.573   3.447   4.027  0.2859 -0.2066  0.0440
 9048SOL    HW138603   4.500   3.461   3.966 -0.3493 -1.0740  0.6009
 9048SOL    HW238604   4.626   3.526   4.019  2.5580 -1.5326  2.0226
 9049SOL     OW38605   0.608   4.254   9.500  0.1951  0.1889 -0.8006
 9049SOL    HW138606   0.665   4.188   9.460  1.3990 -0.5152  2.0945
 9049SOL    HW238607   0.523   4.213   9.488  0.2721 -0.0185 -0.6225
 9050SOL     OW38608   1.610   4.207   7.847  0.0054 -0.5139 -0.1340
 9050SOL    HW138609   1.538   4.149   7.824 -1.1541 -0.3803  3.1304
 9050SOL    HW238610   1.669   4.139   7.880  0.4850  0.8444  1.8003
 9051SOL     OW38611   0.857   2.783   2.220 -0.5458 -0.1897 -0.2293
 9051SOL    HW138612   0.817   2.747   2.299  1.7876  0.5550  1.2880
 9051SOL    HW238613   0.884   2.869   2.253  0.6381 -1.3608  1.7879
 9052SOL     OW38614   1.853   0.799   4.489 -0.0930  0.1502 -0.0634
 9052SOL    HW138615   1.777   0.757   4.528 -0.1383  0.1020 -0.2015
 9052SOL    HW238616   1.815   0.839   4.411 -0.5967 -1.7255 -0.7813
 9053SOL     OW38617   4.327   4.559   3.974 -0.7907  0.0876  0.2364
 9053SOL    HW138618   4.342   4.650   3.948 -2.0414  0.5814  1.2237
 9053SOL    HW238619   4.257   4.582   4.035  0.1424  1.0058  0.9604
 9054SOL     OW38620   1.831   2.283   3.106  0.3381  0.3699  0.3730
 9054SOL    HW138621   1.877   2.241   3.033 -0.9423  3.7405 -2.3681
 9054SOL    HW238622   1.865   2.372   3.095  1.5470 -0.0716  0.6251
 9055SOL     OW38623   4.493   3.875  16.905  0.4136 -0.3026  0.0547
 9055SOL    HW138624   4.556   3.813  16.868 -1.0554 -1.8323  0.1681
 9055SOL    HW238625   4.428   3.819  16.948  0.5426 -0.9110 -0.5504
 9056SOL     OW38626   1.170   3.498   1.480 -0.0870 -0.1629  0.7806
 9056SOL    HW138627   1.257   3.468   1.504  0.0909 -0.8250 -0.6891
 9056SOL    HW238628   1.166   3.463   1.391  0.3156 -2.1778  1.5570
 9057SOL     OW38629   0.043   3.544   8.010  0.1231  0.8368 -0.1410
 9057SOL    HW138630   0.102   3.503   8.072 -0.0413  0.7831 -0.0204
 9057SOL    HW238631   0.038   3.624   8.064  1.9521 -0.0740  1.3773
 9058SOL     OW38632   2.424   0.699  11.237  0.2119 -0.4740  0.1862
 9058SOL    HW138633   2.371   0.699  11.316 -0.8956 -1.8364 -0.5587
 9058SOL    HW238634   2.460   0.610  11.242  0.8739 -0.2165 -0.0199
 9059SOL     OW38635   2.236   1.367   3.817 -0.6291  0.4337 -0.1944
 9059SOL    HW138636   2.267   1.384   3.728  3.5923 -2.0065  0.7936
 9059SOL    HW238637   2.239   1.460   3.837  0.2090  0.7536 -1.8308
 9060SOL     OW38638   2.619   0.977   4.797 -0.1415 -0.1239 -0.4935
 9060SOL    HW138639   2.675   0.908   4.834 -1.2633 -1.2631 -0.8963
 9060SOL    HW238640   2.574   1.008   4.876 -1.0170 -1.4048 -0.4912
 9061SOL     OW38641   0.174   1.735   3.661  0.1358  0.0340 -0.9018
 9061SOL    HW138642   0.252   1.765   3.708  0.0582 -0.6522 -0.3358
 9061SOL    HW238643   0.107   1.739   3.730  0.8144 -0.1128 -0.2299
 9062SOL     OW38644   4.498   2.478   2.442 -0.2208 -0.0966 -0.3859
 9062SOL    HW138645   4.592   2.494   2.449 -0.4080  0.1803  1.3725
 9062SOL    HW238646   4.495   2.390   2.479  0.2858 -0.2304 -0.6651
 9063SOL     OW38647   4.592   3.085  11.202  0.1626 -0.2917  0.1016
 9063SOL    HW138648   4.526   3.054  11.140 -0.9328  1.6079  0.3168
 9063SOL    HW238649   4.654   3.131  11.147 -1.7003 -0.6012 -2.2485
 9064SOL     OW38650   0.139   3.687   9.878 -0.2267  0.4447 -0.1374
 9064SOL    HW138651   0.232   3.669   9.884 -1.0390 -3.4272  1.2160
 9064SOL    HW238652   0.131   3.760   9.939  1.1343 -0.9530  1.7021
 9065SOL     OW38653   1.425   2.062  16.222  0.4729  0.3002  0.2883
 9065SOL    HW138654   1.469   2.147  16.223  1.6480 -0.3158  0.6903
 9065SOL    HW238655   1.473   2.020  16.293  0.1543 -0.3864  0.0931
 9066SOL     OW38656   1.945   4.551  16.878 -0.9258 -0.0577  0.0658
 9066SOL    HW138657   1.931   4.644  16.891 -2.3480 -0.1948 -0.4801
 9066SOL    HW238658   1.864   4.526  16.834 -0.8413 -1.8691  0.9436
 9067SOL     OW38659   1.227   3.056   5.422  0.4882  0.1751 -0.0998
 9067SOL    HW138660   1.311   3.101   5.412 -0.1806  1.3048 -0.6654
 9067SOL    HW238661   1.242   2.976   5.371 -0.9977  0.2159 -0.5917
 9068SOL     OW38662   2.493   1.351  10.716  0.0302  0.3683 -0.0210
 9068SOL    HW138663   2.436   1.410  10.667  0.3481  1.4215  0.8825
 9068SOL    HW238664   2.427   1.286  10.741  0.9108 -0.5389 -0.0443
 9069SOL     OW38665   2.901   4.344  10.852 -0.3316  0.1708 -0.4380
 9069SOL    HW138666   2.980   4.320  10.901 -0.9177  1.2635  1.0248
 9069SOL    HW238667   2.838   4.294  10.904 -1.6551  0.9412 -1.2891
 9070SOL     OW38668   2.517   0.962   7.688  0.0224 -0.2927 -0.7183
 9070SOL    HW138669   2.492   1.045   7.647  1.0073  0.9220  1.1002
 9070SOL    HW238670   2.611   0.978   7.689 -0.1162  0.4985  1.0074
 9071SOL     OW38671   2.102   2.524  15.086  0.3280 -0.4862  0.4824
 9071SOL    HW138672   2.096   2.596  15.024 -5.0294 -0.6435  0.8096
 9071SOL    HW238673   2.180   2.477  15.055 -0.1721 -1.8978  1.3557
 9072SOL     OW38674   1.077   2.719   2.046  0.4753 -0.2504 -0.0526
 9072SOL    HW138675   1.053   2.777   2.118  1.4722  0.2147 -0.0994
 9072SOL    HW238676   1.111   2.781   1.982  0.2166 -0.5210 -0.4501
 9073SOL     OW38677   1.029   0.862   8.724 -0.1248  0.6667 -0.0140
 9073SOL    HW138678   1.109   0.911   8.709  0.3503  0.0201  0.4299
 9073SOL    HW238679   0.994   0.858   8.635  0.1003 -1.5252 -0.0086
 9074SOL     OW38680   3.708   1.371   8.929  0.5495  0.7838 -0.1569
 9074SOL    HW138681   3.708   1.423   9.010  1.3917 -0.5553  0.6914
 9074SOL    HW238682   3.785   1.320   8.955 -0.1686 -0.5359 -0.6093
 9075SOL     OW38683   2.173   1.723   8.144  0.1340 -0.1333  0.1799
 9075SOL    HW138684   2.254   1.756   8.105 -1.0281  2.4151 -0.0854
 9075SOL    HW238685   2.159   1.648   8.086  0.3914 -0.1831  0.1819
 9076SOL     OW38686   1.889   0.554  14.657  0.1693 -0.3049 -0.4108
 9076SOL    HW138687   1.958   0.512  14.606  0.3359  1.6721 -1.8046
 9076SOL    HW238688   1.925   0.554  14.746 -0.8921  0.6288  0.0354
 9077SOL     OW38689   1.380   0.699   8.275  0.1756 -0.9779  0.3456
 9077SOL    HW138690   1.341   0.711   8.188  1.7846  0.5004 -0.1686
 9077SOL    HW238691   1.376   0.789   8.308  1.3478 -0.3511 -1.2328
 9078SOL     OW38692   0.500   0.441   4.542  0.1005 -0.5265  0.5527
 9078SOL    HW138693   0.481   0.500   4.615 -0.2667 -1.0188  0.8503
 9078SOL    HW238694   0.457   0.360   4.568  1.6316 -2.2572 -2.3367
 9079SOL     OW38695   4.343   0.782   6.204  0.1693  0.4056 -0.1674
 9079SOL    HW138696   4.428   0.813   6.173 -0.5074  2.2634 -0.1951
 9079SOL    HW238697   4.322   0.833   6.282 -0.8045 -0.0887 -0.1093
 9080SOL     OW38698   4.148   3.341  10.809  0.0745 -0.0011  0.1342
 9080SOL    HW138699   4.229   3.293  10.792  0.5357  0.8362 -0.0193
 9080SOL    HW238700   4.092   3.331  10.731  1.3145  0.2640 -0.7983
 9081SOL     OW38701   4.471   1.330  14.806  0.1184 -0.0741  0.0606
 9081SOL    HW138702   4.394   1.350  14.859  0.6132  1.6285  0.1347
 9081SOL    HW238703   4.539   1.307  14.869  0.6149  2.8969  0.5828
 9082SOL     OW38704   3.718   1.013   2.021  0.1383  0.2864  0.2164
 9082SOL    HW138705   3.672   0.977   1.945  2.0204 -2.2039  0.2177
 9082SOL    HW238706   3.801   1.037   1.979 -0.8744  1.6308 -0.9890
 9083SOL     OW38707   4.466   3.652  10.899 -0.0605  0.1101  0.0939
 9083SOL    HW138708   4.561   3.645  10.886  0.0373 -1.7548  1.7809
 9083SOL    HW238709   4.436   3.632  10.810  1.8698  0.7363 -0.6995
 9084SOL     OW38710   2.352   1.734   3.473  0.1947 -0.4081  0.2682
 9084SOL    HW138711   2.422   1.765   3.530  1.5878 -3.8076  0.3898
 9084SOL    HW238712   2.310   1.817   3.452 -2.6918 -1.8797  0.1821
 9085SOL     OW38713   2.300   0.773   6.819  0.4268 -0.5869  0.3082
 9085SOL    HW138714   2.383   0.781   6.866  0.4104 -3.3726  0.8258
 9085SOL    HW238715   2.240   0.784   6.893 -1.0846  0.9973 -1.1615
 9086SOL     OW38716   4.320   3.510  17.411 -0.1267  0.6763 -0.0302
 9086SOL    HW138717   4.313   3.441  17.477 -0.5563 -0.9744 -1.8032
 9086SOL    HW238718   4.269   3.583  17.448 -0.9814 -0.5772  1.2506
 9087SOL     OW38719   3.613   1.922   5.350  0.3844  0.7176  0.5772
 9087SOL    HW138720   3.625   1.922   5.445 -4.0865  0.3515  1.1466
 9087SOL    HW238721   3.520   1.944   5.338 -0.1385 -0.7524  2.0485
 9088SOL     OW38722   2.302   2.310   4.230 -0.2783 -0.4314 -0.1457
 9088SOL    HW138723   2.371   2.296   4.165 -1.5581 -4.1918 -0.6551
 9088SOL    HW238724   2.329   2.255   4.303 -1.0174  1.0045  1.2123
 9089SOL     OW38725   4.421   3.085   1.949  0.2780 -0.6279 -0.2897
 9089SOL    HW138726   4.416   3.121   2.037  0.2762  1.0540 -0.9771
 9089SOL    HW238727   4.327   3.073   1.934  0.0251  0.1609  0.6556
 9090SOL     OW38728   4.639   4.486   6.198 -0.2328  0.3232 -0.5424
 9090SOL    HW138729   4.575   4.544   6.159 -1.8660 -0.0098  1.6339
 9090SOL    HW238730   4.713   4.503   6.139  0.7939  2.0294  1.2285
 9091SOL     OW38731   1.454   2.683  12.959 -0.4895 -0.4623  0.0818
 9091SOL    HW138732   1.518   2.713  13.024 -1.3835 -1.0694  1.2522
 9091SOL    HW238733   1.445   2.763  12.906 -0.7656  1.4937  3.0806
 9092SOL     OW38734   4.059   3.060   2.324 -0.3996  0.6385 -0.3307
 9092SOL    HW138735   3.964   3.063   2.315 -0.6908 -2.7189  1.7786
 9092SOL    HW238736   4.073   2.967   2.305  1.0346  1.0783 -1.4096
 9093SOL     OW38737   2.893   4.407   9.858 -0.7761  0.3912 -0.3234
 9093SOL    HW138738   2.984   4.420   9.886 -0.7681 -2.9929  1.2148
 9093SOL    HW238739   2.852   4.358   9.929  1.4237 -1.0194 -0.0006
 9094SOL     OW38740   0.042   4.517   0.852 -0.0554  0.4361  0.1687
 9094SOL    HW138741   4.684   4.537   0.903  0.0951  1.3154  0.0462
 9094SOL    HW238742   0.103   4.570   0.903 -2.4722  3.1321  0.2970
 9095SOL     OW38743   3.831   2.957   6.145  1.0065 -0.0998 -0.1161
 9095SOL    HW138744   3.893   3.023   6.178  0.5506  0.2206  0.0987
 9095SOL    HW238745   3.853   2.884   6.203  2.0679  0.0318 -0.3476
 9096SOL     OW38746   4.216   4.417   5.234 -0.4454  0.1476  0.2067
 9096SOL    HW138747   4.129   4.379   5.238 -0.8853  1.3874  2.7834
 9096SOL    HW238748   4.216   4.462   5.319  0.9509 -0.3109  0.4602
 9097SOL     OW38749   2.806   0.962   3.896  0.0787 -0.1088  0.5534
 9097SOL    HW138750   2.861   0.896   3.855  0.7283 -0.0286  1.2998
 9097SOL    HW238751   2.830   0.941   3.986  0.0863  0.7400  0.7532
 9098SOL     OW38752   4.642   4.606   4.530  0.3425 -0.0643  0.0396
 9098SOL    HW138753   4.624   4.527   4.581  4.8536  0.5752  2.6233
 9098SOL    HW238754   4.601   4.679   4.576  0.9057  0.0717  0.3155
 9099SOL     OW38755   1.442   2.834  15.147  0.1994  0.0454 -0.0799
 9099SOL    HW138756   1.479   2.755  15.187  1.6867 -0.9618 -3.4397
 9099SOL    HW238757   1.516   2.854  15.089  0.4774  0.9491  0.5694
 9100SOL     OW38758   4.377   1.182  10.717 -0.4634 -0.3260  0.8042
 9100SOL    HW138759   4.369   1.124  10.642  0.1813 -0.5467  0.9019
 9100SOL    HW238760   4.414   1.251  10.663  1.0214 -1.2313  0.6401
 9101SOL     OW38761   2.080   1.584   8.629  0.1146 -0.5068 -0.1514
 9101SOL    HW138762   2.151   1.534   8.589 -0.0881 -1.0508  0.1670
 9101SOL    HW238763   2.082   1.665   8.578  0.6345 -1.0324 -0.9606
 9102SOL     OW38764   2.579   4.459  17.298  0.2266 -0.0516 -0.1729
 9102SOL    HW138765   2.630   4.419  17.228 -1.2060 -0.2082 -1.1269
 9102SOL    HW238766   2.521   4.518  17.250 -1.6784  0.6359  2.9625
 9103SOL     OW38767   4.554   4.242   0.396 -0.1027 -0.2373 -0.1222
 9103SOL    HW138768   4.625   4.289   0.353  0.3018 -0.9219 -0.2037
 9103SOL    HW238769   4.563   4.155   0.358  1.1287 -0.3758  0.5017
 9104SOL     OW38770   2.891   3.763  17.596 -0.1173 -0.1199 -0.2504
 9104SOL    HW138771   2.977   3.727  17.576  0.0495  0.9154 -1.3656
 9104SOL    HW238772   2.862   3.787  17.508 -0.4025  1.3283  0.2345
 9105SOL     OW38773   0.097   4.216  16.687 -0.2037 -0.0426 -0.6865
 9105SOL    HW138774   0.135   4.303  16.702  0.3730 -0.7364  1.9671
 9105SOL    HW238775   0.072   4.194  16.777 -0.1888 -0.7832 -0.8618
 9106SOL     OW38776   2.782   1.426   5.149 -0.1457  0.1374 -0.1678
 9106SOL    HW138777   2.834   1.493   5.104  3.0570 -1.9127  0.4282
 9106SOL    HW238778   2.849   1.401   5.213 -2.0017 -2.8878  0.5706
 9107SOL     OW38779   2.271   0.052  13.418 -0.0917 -0.5057  1.0004
 9107SOL    HW138780   2.220   0.113  13.471 -0.2878  0.7955 -0.6821
 9107SOL    HW238781   2.256   0.085  13.330  0.0677 -1.1990  0.7126
 9108SOL     OW38782   1.743   4.487   1.215 -0.3311  0.1226 -0.3949
 9108SOL    HW138783   1.755   4.581   1.230  2.9354 -1.1127  4.7629
 9108SOL    HW238784   1.657   4.483   1.173  0.3636 -2.2529 -1.5984
 9109SOL     OW38785   0.550   3.092   0.230  0.2435  0.5603 -0.3539
 9109SOL    HW138786   0.614   3.023   0.245 -0.5535  0.3053  1.7891
 9109SOL    HW238787   0.605   3.169   0.215  2.2846 -0.7669  0.3722
 9110SOL     OW38788   3.487   3.669   6.839  0.3481 -0.3745  0.1282
 9110SOL    HW138789   3.570   3.627   6.865  0.0724 -0.6420  0.5701
 9110SOL    HW238790   3.491   3.757   6.877 -4.6670  0.5448 -1.5690
 9111SOL     OW38791   4.426   2.590   3.916  0.2013 -0.0847  0.1092
 9111SOL    HW138792   4.424   2.682   3.944  1.3963 -0.1180  0.2790
 9111SOL    HW238793   4.493   2.601   3.849  1.8849 -2.4460  1.4210
 9112SOL     OW38794   1.894   3.284   6.841 -0.3724  0.6111 -0.1118
 9112SOL    HW138795   1.819   3.240   6.882 -0.6680 -0.9230 -2.2521
 9112SOL    HW238796   1.860   3.372   6.830  0.8717  1.1520  0.4141
 9113SOL     OW38797   0.838   1.750   8.841 -0.0331 -0.4584 -0.2539
 9113SOL    HW138798   0.824   1.773   8.749  2.3864 -0.4919 -0.6299
 9113SOL    HW238799   0.866   1.659   8.831 -0.8855 -0.7431 -0.0060
 9114SOL     OW38800   1.685   0.559   3.614 -0.4724 -0.0917  0.2443
 9114SOL    HW138801   1.695   0.651   3.637  0.1789  0.0305 -0.5484
 9114SOL    HW238802   1.601   0.529   3.651 -0.1914 -0.2040  0.7901
 9115SOL     OW38803   0.341   3.476   4.730 -0.5246  0.1221 -0.2224
 9115SOL    HW138804   0.331   3.499   4.822  2.1295 -0.1602  0.1491
 9115SOL    HW238805   0.260   3.505   4.689 -1.9665 -0.4294  2.2134
 9116SOL     OW38806   4.644   2.332  14.597  0.5901  0.3367  0.4795
 9116SOL    HW138807   4.572   2.339  14.534 -1.1707  0.2290  2.4742
 9116SOL    HW238808   4.697   2.269  14.548 -0.8714 -0.3912 -0.1786
 9117SOL     OW38809   1.309   4.291   5.185 -0.4514 -0.7817  0.5390
 9117SOL    HW138810   1.251   4.216   5.191 -1.8421  0.2626  0.1592
 9117SOL    HW238811   1.281   4.347   5.257 -3.8525 -0.8012 -0.7673
 9118SOL     OW38812   2.786   0.707  15.564  0.5286  0.3820  0.3065
 9118SOL    HW138813   2.833   0.791  15.558  0.6186  0.2346 -1.0919
 9118SOL    HW238814   2.760   0.691  15.473  3.3357 -2.0657 -0.0541
 9119SOL     OW38815   3.501   1.194   4.963 -0.2665  0.3126 -0.3811
 9119SOL    HW138816   3.558   1.176   4.889  0.4723  0.7746  0.0705
 9119SOL    HW238817   3.469   1.105   4.978 -0.3117  0.4573  0.4277
 9120SOL     OW38818   0.932   3.967   4.577 -0.4635 -0.5634 -0.4189
 9120SOL    HW138819   0.989   3.978   4.653 -1.9627  0.0772  0.6297
 9120SOL    HW238820   0.955   3.876   4.560 -0.3261 -0.4980 -0.5791
 9121SOL     OW38821   2.002   1.820   7.504  0.0955  0.3748  0.0071
 9121SOL    HW138822   2.095   1.798   7.503 -0.4648 -2.0304 -0.1838
 9121SOL    HW238823   1.963   1.737   7.533 -0.5482  1.1062  1.2614
 9122SOL     OW38824   2.201   2.422   5.165 -0.0182  0.5016  0.4491
 9122SOL    HW138825   2.233   2.511   5.174 -0.0974  0.6750 -0.8950
 9122SOL    HW238826   2.270   2.392   5.105 -1.8938 -2.0189 -0.4952
 9123SOL     OW38827   4.210   4.213  11.905 -0.2561 -0.6086 -0.0919
 9123SOL    HW138828   4.208   4.162  11.823 -0.9890  0.8405 -0.9802
 9123SOL    HW238829   4.125   4.256  11.896  0.2789  0.1909 -1.3348
 9124SOL     OW38830   2.462   0.169   5.712 -0.6079  0.0865 -0.0839
 9124SOL    HW138831   2.415   0.160   5.795 -0.7558 -0.4618 -0.2300
 9124SOL    HW238832   2.522   0.095   5.720  1.4273  1.9134  1.4243
 9125SOL     OW38833   4.633   2.012   6.567 -0.2979 -0.3283  0.2180
 9125SOL    HW138834   4.710   2.001   6.510  0.3960  1.3131  0.8559
 9125SOL    HW238835   4.615   2.105   6.559  0.7678 -0.2753 -1.6670
 9126SOL     OW38836   0.451   2.221   7.260  0.2691 -0.1299  0.4833
 9126SOL    HW138837   0.385   2.189   7.322  0.0296 -1.2303 -0.3353
 9126SOL    HW238838   0.530   2.174   7.286 -0.8917 -2.1238  0.4605
 9127SOL     OW38839   4.549   4.062   3.848  0.0272  0.0275 -0.1152
 9127SOL    HW138840   4.478   4.065   3.784  1.5772 -2.2492 -1.9324
 9127SOL    HW238841   4.532   4.146   3.890  2.0983  0.2855  0.1679
 9128SOL     OW38842   2.872   2.557  13.608 -0.3576  0.4909 -0.0888
 9128SOL    HW138843   2.845   2.511  13.688 -1.1971  1.4921  0.2002
 9128SOL    HW238844   2.938   2.498  13.571 -1.2107 -0.1227 -0.6106
 9129SOL     OW38845   0.027   4.419   0.319  0.5273 -0.4180  0.2293
 9129SOL    HW138846   0.038   4.513   0.334  0.0556 -0.5449  1.3323
 9129SOL    HW238847   4.697   4.437   0.239 -0.0523  2.2776  1.1881
 9130SOL     OW38848   4.648   2.345   5.947 -0.0073  0.5257  0.3692
 9130SOL    HW138849   4.624   2.342   6.040 -0.9776 -0.7421  0.0901
 9130SOL    HW238850   0.022   2.350   5.950  0.1028 -1.1035  0.1148
 9131SOL     OW38851   3.770   3.024   3.619  0.1038 -0.0846 -0.3718
 9131SOL    HW138852   3.851   3.065   3.586  0.4012 -0.5707 -0.2381
 9131SOL    HW238853   3.780   2.932   3.595  1.7457 -0.1869  0.7377
 9132SOL     OW38854   4.335   2.792   8.460 -0.0421 -0.3664  0.0333
 9132SOL    HW138855   4.361   2.883   8.468 -1.4365  0.0505 -0.2487
 9132SOL    HW238856   4.261   2.788   8.520  0.1390 -4.0487  0.0106
 9133SOL     OW38857   3.970   3.764   5.787 -0.5640 -0.1183 -0.2654
 9133SOL    HW138858   3.965   3.816   5.706 -1.0956  0.0563 -0.1178
 9133SOL    HW238859   4.024   3.693   5.752  1.0664 -0.3005  2.5699
 9134SOL     OW38860   4.623   2.105   8.925 -0.4944 -0.2506 -0.2701
 9134SOL    HW138861   4.625   2.061   8.840  2.0524  1.7522 -1.2395
 9134SOL    HW238862   4.692   2.170   8.921 -0.0902 -0.6458  0.2462
 9135SOL     OW38863   1.709   1.340   3.627  0.0943  0.0156 -0.1531
 9135SOL    HW138864   1.794   1.383   3.634 -0.1005  0.4590 -0.5304
 9135SOL    HW238865   1.687   1.331   3.534 -1.3659 -0.4919  0.2378
 9136SOL     OW38866   1.597   0.716   1.080  0.2591  0.2594  0.0469
 9136SOL    HW138867   1.531   0.736   1.146 -0.1454 -0.3723 -0.1737
 9136SOL    HW238868   1.543   0.698   1.003  1.5975 -0.6019 -0.6772
 9137SOL     OW38869   0.402   1.487   0.902 -0.3852  0.0752 -0.3116
 9137SOL    HW138870   0.348   1.469   0.978 -0.8645 -1.0854 -0.9188
 9137SOL    HW238871   0.477   1.433   0.925  0.1453  1.2069  0.5695
 9138SOL     OW38872   0.460   4.572   2.541  1.0338 -0.1451  0.0350
 9138SOL    HW138873   0.457   4.510   2.469  0.8360  0.4318 -0.4573
 9138SOL    HW238874   0.552   4.567   2.565  0.1203 -1.8214  3.1811
 9139SOL     OW38875   1.865   3.780   8.103 -0.0991  0.6067 -0.2752
 9139SOL    HW138876   1.832   3.838   8.034 -1.2478  1.0729  0.6541
 9139SOL    HW238877   1.786   3.790   8.156  0.3257 -0.3342  0.5319
 9140SOL     OW38878   3.512   3.590   7.532 -0.4256  0.2572  0.0882
 9140SOL    HW138879   3.599   3.618   7.504 -0.8412  2.0596  0.6305
 9140SOL    HW238880   3.532   3.512   7.585 -1.1726  0.4567  0.6592
 9141SOL     OW38881   2.261   0.817  11.695 -0.7711  0.0845  0.0007
 9141SOL    HW138882   2.260   0.830  11.600  1.4841 -0.4901 -0.0931
 9141SOL    HW238883   2.166   0.814  11.708 -0.5095 -2.4634  1.1767
 9142SOL     OW38884   2.211   0.644  10.234  0.5334 -0.4968  0.2936
 9142SOL    HW138885   2.192   0.724  10.186  1.3875 -2.0318 -2.5959
 9142SOL    HW238886   2.246   0.588  10.165 -2.0603 -1.6040 -0.1120
 9143SOL     OW38887   3.055   3.995  12.353  0.6300  0.0974 -0.4806
 9143SOL    HW138888   3.145   3.962  12.362  0.6964  0.9775  2.0983
 9143SOL    HW238889   3.052   4.077  12.402 -0.8451  1.0051 -2.0989
 9144SOL     OW38890   4.503   1.509   7.257  0.3403  0.1587 -0.2800
 9144SOL    HW138891   4.429   1.514   7.196 -0.7117  1.4240  1.0816
 9144SOL    HW238892   4.453   1.471   7.329  0.7363 -0.0531 -0.1195
 9145SOL     OW38893   3.080   1.355   2.340 -0.2203  0.5147  0.2035
 9145SOL    HW138894   3.135   1.401   2.277 -0.6619 -0.7877 -1.1280
 9145SOL    HW238895   3.070   1.429   2.401  0.8741 -0.7368  1.9048
 9146SOL     OW38896   2.559   1.005   5.659  0.3463 -0.0884  0.2241
 9146SOL    HW138897   2.573   1.083   5.607 -0.6223 -0.6546 -0.8622
 9146SOL    HW238898   2.622   0.941   5.624  0.6366 -0.4205  1.3241
 9147SOL     OW38899   1.253   2.070   7.812 -0.3107 -0.2282 -0.5955
 9147SOL    HW138900   1.345   2.088   7.792 -0.0585 -0.3489  0.4229
 9147SOL    HW238901   1.227   2.146   7.864  1.1977  0.2778 -0.5772
 9148SOL     OW38902   1.825   3.730   2.714 -0.5967  0.0300  0.0589
 9148SOL    HW138903   1.838   3.635   2.707 -2.1674 -0.1906  0.2226
 9148SOL    HW238904   1.869   3.756   2.633  0.7407  2.2321  1.4687
 9149SOL     OW38905   3.310   1.435   5.187 -0.3473 -0.2834 -0.2199
 9149SOL    HW138906   3.293   1.508   5.248  0.5292 -0.4797  0.2653
 9149SOL    HW238907   3.364   1.386   5.249  1.7840 -1.7249 -3.2066
 9150SOL     OW38908   0.727   4.490   5.078  0.3111  0.0958 -0.6411
 9150SOL    HW138909   0.643   4.527   5.049  0.5298  0.3661 -0.9356
 9150SOL    HW238910   0.705   4.398   5.093  1.6207  0.0464  0.9912
 9151SOL     OW38911   3.722   3.528  12.486 -0.1888  0.7522  0.4981
 9151SOL    HW138912   3.757   3.515  12.574 -0.6931 -1.4382  0.3835
 9151SOL    HW238913   3.775   3.602  12.457 -0.4870  0.6803 -0.2427
 9152SOL     OW38914   1.876   2.895  11.242  0.1919 -0.0365 -0.4540
 9152SOL    HW138915   1.841   2.865  11.326  0.2331 -1.4211 -0.9309
 9152SOL    HW238916   1.794   2.916  11.197  0.4894  0.0996 -0.9347
 9153SOL     OW38917   2.458   0.189  10.176  0.8984 -0.4366 -0.3249
 9153SOL    HW138918   2.461   0.101  10.213 -0.5038 -0.5619 -0.5011
 9153SOL    HW238919   2.364   0.184  10.160  0.8035  0.9207 -0.1663
 9154SOL     OW38920   4.449   4.634   5.973 -0.9907 -0.3205 -0.1891
 9154SOL    HW138921   4.476   4.544   5.961  2.1571  1.3683 -5.7809
 9154SOL    HW238922   4.451   4.650   5.878  1.8230 -1.9821 -0.3869
 9155SOL     OW38923   2.034   0.951   8.078  0.0739  0.1207  0.1444
 9155SOL    HW138924   2.027   0.862   8.114 -1.6988  0.4121  0.5266
 9155SOL    HW238925   2.090   0.998   8.139  1.0403  0.3204 -0.9059
 9156SOL     OW38926   3.675   1.703  12.416  0.2309 -0.2936 -0.0703
 9156SOL    HW138927   3.669   1.712  12.511 -2.3816 -1.4856 -0.1299
 9156SOL    HW238928   3.650   1.612  12.398 -0.6282 -0.2408  0.8567
 9157SOL     OW38929   3.272   2.792   4.773  0.1014  0.5116 -0.6985
 9157SOL    HW138930   3.273   2.820   4.682 -1.6126  0.0676 -0.8681
 9157SOL    HW238931   3.178   2.811   4.781  0.6568  1.9588  2.0843
 9158SOL     OW38932   0.619   0.808  13.355  0.3111  0.1284  0.0103
 9158SOL    HW138933   0.604   0.887  13.302 -0.0035 -0.2744 -0.4988
 9158SOL    HW238934   0.637   0.733  13.299  1.6424 -0.2372  0.9172
 9159SOL     OW38935   1.699   0.553   3.235  0.2436 -0.3384 -0.7614
 9159SOL    HW138936   1.679   0.460   3.246 -0.8310  0.0394  0.5118
 9159SOL    HW238937   1.784   0.562   3.277  0.4973  1.6899 -1.7388
 9160SOL     OW38938   1.690   1.403   5.669  0.3382  0.0011  0.0429
 9160SOL    HW138939   1.717   1.353   5.746  0.8273 -4.0656 -2.7055
 9160SOL    HW238940   1.773   1.439   5.639 -0.3173 -0.0875 -1.8806
 9161SOL     OW38941   0.852   2.473  13.233 -0.2275 -0.8311 -0.1386
 9161SOL    HW138942   0.890   2.386  13.230  2.1070  0.1593  0.3910
 9161SOL    HW238943   0.777   2.457  13.290 -0.2172 -0.1287  0.0746
 9162SOL     OW38944   2.246   0.984  14.335 -0.0075  0.7385  0.0533
 9162SOL    HW138945   2.276   1.024  14.254 -1.3758 -0.4231 -1.0175
 9162SOL    HW238946   2.304   1.025  14.399  2.2011 -0.7680 -1.0001
 9163SOL     OW38947   0.370   1.038   2.357  0.0310 -0.0479 -0.1510
 9163SOL    HW138948   0.419   1.113   2.323 -0.7635  0.8978  0.8018
 9163SOL    HW238949   0.357   1.068   2.447  0.3577  0.0063 -0.1209
 9164SOL     OW38950   1.595   3.720   6.928  0.3630  0.0641  0.1512
 9164SOL    HW138951   1.529   3.653   6.948 -0.6527  1.0138  0.0046
 9164SOL    HW238952   1.643   3.742   7.007  0.1320 -0.4494  0.4348
 9165SOL     OW38953   0.009   3.899   6.746  0.0734 -0.2835 -0.5370
 9165SOL    HW138954   0.085   3.851   6.712 -1.8948 -2.4199 -1.9985
 9165SOL    HW238955   0.033   3.991   6.736  2.0576 -0.7214  0.1903
 9166SOL     OW38956   2.813   3.651   4.561  0.3731 -0.0966  0.3442
 9166SOL    HW138957   2.880   3.717   4.543 -0.5792  0.4450 -1.2298
 9166SOL    HW238958   2.771   3.705   4.627 -0.6469 -1.6264  0.9458
 9167SOL     OW38959   0.297   2.648   9.280  0.4776  0.1234 -0.6610
 9167SOL    HW138960   0.256   2.577   9.330 -2.0815 -0.4060 -3.5127
 9167SOL    HW238961   0.375   2.682   9.325 -0.0000 -1.3668  1.3069
 9168SOL     OW38962   2.580   0.548   3.687 -0.3624  0.5208 -0.3614
 9168SOL    HW138963   2.522   0.501   3.748 -0.7937  0.6641 -0.6607
 9168SOL    HW238964   2.665   0.538   3.731 -0.4972  1.1141  0.0413
 9169SOL     OW38965   3.194   0.557   3.464 -0.1577 -0.2399  0.0112
 9169SOL    HW138966   3.116   0.524   3.419 -0.1142  1.7333 -1.5378
 9169SOL    HW238967   3.256   0.548   3.391 -0.8476 -0.2654 -0.5737
 9170SOL     OW38968   2.163   3.941   7.296  1.0949  0.7533 -0.0565
 9170SOL    HW138969   2.089   4.001   7.305  0.7903  0.1873  1.2016
 9170SOL    HW238970   2.137   3.851   7.278  1.0966  0.4590  1.4259
 9171SOL     OW38971   0.220   1.155   5.177 -0.1527 -0.1284  0.1175
 9171SOL    HW138972   0.305   1.144   5.221 -0.4976  1.2429  1.1488
 9171SOL    HW238973   0.225   1.082   5.116  0.1379 -0.6518  0.7662
 9172SOL     OW38974   3.868   1.748   1.339  0.1484 -0.5464 -0.3776
 9172SOL    HW138975   3.793   1.799   1.372  0.6302  1.2126 -1.9236
 9172SOL    HW238976   3.821   1.666   1.326  1.3371 -1.3178  0.2733
 9173SOL     OW38977   1.652   0.293   9.069  0.0150  0.2085  0.6701
 9173SOL    HW138978   1.651   0.217   9.128 -2.2327 -0.3731 -0.1106
 9173SOL    HW238979   1.744   0.317   9.082  0.6546 -1.0864 -1.2868
 9174SOL     OW38980   2.930   0.835  11.377 -0.3767 -0.3020 -0.0114
 9174SOL    HW138981   2.838   0.842  11.404 -0.4303 -1.4214  0.0962
 9174SOL    HW238982   2.946   0.917  11.331 -2.0455  0.6770  1.1163
 9175SOL     OW38983   4.037   4.553   2.510  0.2949 -0.2836 -0.2102
 9175SOL    HW138984   4.011   4.491   2.442  0.5420  0.7411 -1.2357
 9175SOL    HW238985   3.960   4.610   2.513  1.4795  1.2901  0.2565
 9176SOL     OW38986   1.266   0.022   5.361 -0.0107  0.1109  0.0477
 9176SOL    HW138987   1.263   0.117   5.349  0.3380  0.2669  1.2275
 9176SOL    HW238988   1.283   0.001   5.269 -0.2439 -0.9403  0.2441
 9177SOL     OW38989   1.199   0.519   2.623  0.7936 -0.4068 -0.5862
 9177SOL    HW138990   1.233   0.597   2.579 -0.2878  1.2947  1.6069
 9177SOL    HW238991   1.223   0.546   2.712 -0.6239 -2.2162  0.3420
 9178SOL     OW38992   4.658   2.989   7.635  0.0902 -0.1073  0.6895
 9178SOL    HW138993   4.664   2.894   7.642  0.0818 -0.2470 -1.3182
 9178SOL    HW238994   4.586   3.011   7.695 -1.0860 -0.4220 -0.5954
 9179SOL     OW38995   1.789   3.649   3.665  0.1304  0.2213  0.6307
 9179SOL    HW138996   1.880   3.676   3.653  0.0875 -0.4313 -1.2668
 9179SOL    HW238997   1.752   3.728   3.626  0.6024  1.2909  2.3778
 9180SOL     OW38998   3.636   1.469  14.326 -0.3347 -0.3133  0.1604
 9180SOL    HW138999   3.656   1.385  14.285  0.1615 -0.5152  0.8173
 9180SOL    HW239000   3.554   1.489  14.282 -0.0726 -0.0410 -0.1977
 9181SOL     OW39001   0.198   3.784   4.852  0.1480  0.7600  0.3342
 9181SOL    HW139002   0.158   3.715   4.905 -0.4092 -1.8977 -3.5401
 9181SOL    HW239003   0.138   3.774   4.778  1.1073 -0.7987 -0.2235
 9182SOL     OW39004   3.080   1.759   4.124 -0.0631  0.1541  0.3199
 9182SOL    HW139005   3.116   1.829   4.068  0.7980 -1.8694 -1.6645
 9182SOL    HW239006   3.052   1.814   4.196 -1.7208 -0.8552  0.4324
 9183SOL     OW39007   4.289   3.111   3.628  0.0666  0.0296 -0.2577
 9183SOL    HW139008   4.200   3.083   3.610 -1.4176  3.2491  2.0711
 9183SOL    HW239009   4.325   3.031   3.667  1.4566  0.9797  0.4504
 9184SOL     OW39010   0.376   3.906   4.000 -0.3052 -0.5306  0.0219
 9184SOL    HW139011   0.311   3.864   3.943  0.1977 -1.6423  0.2839
 9184SOL    HW239012   0.357   3.871   4.087 -2.2785  0.2174 -0.1061
 9185SOL     OW39013   3.595   3.257  11.295 -0.8255 -0.2886 -0.1581
 9185SOL    HW139014   3.533   3.308  11.243  1.1547  1.3530 -0.9094
 9185SOL    HW239015   3.540   3.250  11.374 -0.3045  2.0596  0.4209
 9186SOL     OW39016   4.471   1.754   4.839 -0.4588  0.3682  0.1389
 9186SOL    HW139017   4.557   1.789   4.815 -0.6513  1.2510  0.7673
 9186SOL    HW239018   4.485   1.659   4.837 -0.6178  0.3500 -0.2835
 9187SOL     OW39019   1.294   2.318   4.790 -0.3745 -0.5007  0.2137
 9187SOL    HW139020   1.305   2.317   4.694  0.8483  0.4560  0.3442
 9187SOL    HW239021   1.384   2.339   4.816 -0.4560 -1.2860  1.1028
 9188SOL     OW39022   3.873   0.107   9.409  0.1380 -0.4568  0.0346
 9188SOL    HW139023   3.820   0.029   9.421 -1.0430  0.2235 -0.8347
 9188SOL    HW239024   3.907   0.118   9.498 -1.4721  0.2345  0.5609
 9189SOL     OW39025   1.261   2.180   3.650  0.0658  0.0463  0.1977
 9189SOL    HW139026   1.186   2.160   3.594  0.5006  1.3004 -0.8294
 9189SOL    HW239027   1.313   2.251   3.613  0.9886 -1.6041 -1.6474
 9190SOL     OW39028   3.253   1.635   7.725  0.1559 -0.3857 -0.0024
 9190SOL    HW139029   3.331   1.688   7.706 -0.2009 -0.7562 -2.4631
 9190SOL    HW239030   3.211   1.639   7.639 -1.8461 -1.6905  0.9266
 9191SOL     OW39031   0.225   4.091   4.591 -0.7337 -0.3857  0.2869
 9191SOL    HW139032   0.205   4.178   4.625  0.4858 -0.1125  0.3013
 9191SOL    HW239033   0.137   4.053   4.589 -0.3226 -1.3394  0.2408
 9192SOL     OW39034   4.359   0.582   4.483 -0.4049  0.8078  0.5262
 9192SOL    HW139035   4.416   0.506   4.473 -2.4521 -0.8704  1.3673
 9192SOL    HW239036   4.274   0.546   4.510  0.7091 -0.2685  2.5376
 9193SOL     OW39037   2.662   2.501   5.666  0.0581 -0.3014  0.3780
 9193SOL    HW139038   2.718   2.510   5.588 -0.0503 -0.1154  0.3228
 9193SOL    HW239039   2.628   2.412   5.652  0.1612 -0.2751 -0.0463
 9194SOL     OW39040   0.653   4.204   2.374  0.2821 -0.3102 -0.0966
 9194SOL    HW139041   0.703   4.124   2.361  0.0800 -0.4802  0.1763
 9194SOL    HW239042   0.709   4.281   2.359  0.1603 -0.3676 -0.8338
 9195SOL     OW39043   2.358   2.845   4.796  0.4030  0.0079 -0.0003
 9195SOL    HW139044   2.317   2.921   4.838  0.3776 -0.0892  0.1494
 9195SOL    HW239045   2.450   2.867   4.811 -0.1530  0.3591  2.9516
 9196SOL     OW39046   1.317   0.929   2.074  0.5640 -1.1417 -0.1507
 9196SOL    HW139047   1.362   1.001   2.117 -0.2065 -0.4405 -0.5102
 9196SOL    HW239048   1.311   0.866   2.145  0.7755 -0.8255  0.1508
 9197SOL     OW39049   0.660   1.698   5.257  0.2043  0.5484  0.0047
 9197SOL    HW139050   0.608   1.740   5.326 -1.8407  1.6473 -2.2349
 9197SOL    HW239051   0.701   1.775   5.218 -0.5032  1.1678  0.4842
 9198SOL     OW39052   3.770   3.128  16.928  0.5914 -0.7713 -0.2213
 9198SOL    HW139053   3.743   3.219  16.942  1.8637 -0.2790 -0.9523
 9198SOL    HW239054   3.788   3.124  16.835  0.6040  2.2834 -0.3606
 9199SOL     OW39055   1.654   0.736   8.978  0.4400  0.2073 -0.3686
 9199SOL    HW139056   1.663   0.661   8.919 -0.4727  1.5320 -2.2049
 9199SOL    HW239057   1.675   0.688   9.058  2.3636 -1.3700 -1.8392
 9200SOL     OW39058   1.693   0.447  11.579 -0.1636  0.4482  0.3836
 9200SOL    HW139059   1.674   0.399  11.498  0.2478  0.5730  0.2151
 9200SOL    HW239060   1.698   0.539  11.553 -1.8644  0.7095  0.9967
 9201SOL     OW39061   3.175   3.601  10.164  0.2467  0.0570  0.7900
 9201SOL    HW139062   3.198   3.601  10.257 -1.0752  0.6245  1.1278
 9201SOL    HW239063   3.104   3.537  10.154  0.7596 -0.5099  0.8066
 9202SOL     OW39064   3.888   3.854   6.042 -0.0322  0.3862 -0.3557
 9202SOL    HW139065   3.872   3.830   5.950  0.5254 -1.1059 -0.0731
 9202SOL    HW239066   3.802   3.873   6.078  0.5450  1.8327  0.2328
 9203SOL     OW39067   2.985   1.900  13.212 -0.3390  0.2755 -0.5617
 9203SOL    HW139068   3.006   1.809  13.232  0.2680  0.8116  1.2082
 9203SOL    HW239069   3.042   1.915  13.137  0.3048 -1.4646 -0.4213
 9204SOL     OW39070   2.021   0.865   3.475  0.0639  0.4590  0.3757
 9204SOL    HW139071   2.035   0.946   3.523  0.5695  0.9243 -0.5519
 9204SOL    HW239072   2.105   0.868   3.430 -0.8843 -0.7726 -1.4947
 9205SOL     OW39073   0.679   1.699   3.061  0.3377 -0.6494  1.0243
 9205SOL    HW139074   0.740   1.668   3.128  0.9696 -1.9201 -0.1351
 9205SOL    HW239075   0.746   1.730   3.000 -0.7917  1.5045  0.8697
 9206SOL     OW39076   3.138   1.110  14.193  0.5786 -0.3851  0.0005
 9206SOL    HW139077   3.079   1.181  14.166 -0.8827 -0.9079  1.7735
 9206SOL    HW239078   3.205   1.124  14.127 -1.0947  0.9055 -1.4315
 9207SOL     OW39079   4.023   4.003  11.071  0.1955  0.2737  0.5487
 9207SOL    HW139080   4.012   4.057  10.993 -0.9374 -0.6191  0.0922
 9207SOL    HW239081   3.969   3.925  11.059  1.3123 -0.4000 -0.1395
 9208SOL     OW39082   4.580   0.538   6.141 -0.0904  0.7552  0.2599
 9208SOL    HW139083   4.596   0.632   6.132 -0.1454  0.8363  1.0650
 9208SOL    HW239084   4.549   0.518   6.052  0.8069  0.3880  0.0253
 9209SOL     OW39085   2.533   1.940   6.869  0.3775 -0.0919 -0.8174
 9209SOL    HW139086   2.580   1.988   6.938 -2.0495  0.4749  0.4230
 9209SOL    HW239087   2.594   1.868   6.850  0.8783  0.1579 -0.1583
 9210SOL     OW39088   0.416   2.641   9.574 -0.1024  0.4660  0.3665
 9210SOL    HW139089   0.436   2.571   9.637  0.8947 -0.3853 -0.8933
 9210SOL    HW239090   0.342   2.684   9.617  0.4405  1.6234  0.1139
 9211SOL     OW39091   2.901   3.258   3.122 -0.4619 -0.2660  0.0234
 9211SOL    HW139092   2.892   3.338   3.175 -0.5268  0.7304 -1.4819
 9211SOL    HW239093   2.961   3.204   3.173  0.0716 -1.2115 -1.6278
 9212SOL     OW39094   2.364   1.117  17.642 -0.0523  0.2072  0.0088
 9212SOL    HW139095   2.389   1.127  17.550 -1.7396 -1.5946 -0.6393
 9212SOL    HW239096   2.316   1.200  17.647 -0.3544  0.0432 -0.1346
 9213SOL     OW39097   2.149   4.393   7.150 -0.0608 -0.1273  0.5233
 9213SOL    HW139098   2.144   4.371   7.243  0.0395 -1.2352  0.2678
 9213SOL    HW239099   2.178   4.484   7.151 -2.8898  0.7681 -0.2475
 9214SOL     OW39100   2.102   4.316   5.330  0.4665  0.2159  0.6133
 9214SOL    HW139101   2.009   4.335   5.346  0.2264  0.9822 -1.7470
 9214SOL    HW239102   2.138   4.404   5.324  0.0562  0.2279 -1.6955
 9215SOL     OW39103   3.991   4.554   3.063 -0.1823 -0.0318  0.2451
 9215SOL    HW139104   3.901   4.540   3.093  0.5888 -0.0146  2.6130
 9215SOL    HW239105   3.989   4.519   2.974  0.9378 -0.9049  0.5554
 9216SOL     OW39106   3.303   2.950  13.239  0.1810  0.1679  0.4406
 9216SOL    HW139107   3.229   2.969  13.297 -1.7636  0.2605 -2.0280
 9216SOL    HW239108   3.283   3.020  13.176 -0.1213  1.9189  2.4553
 9217SOL     OW39109   2.464   2.890   3.070  0.0952  0.2931 -0.5256
 9217SOL    HW139110   2.496   2.926   3.153  0.4183 -0.9416 -0.1250
 9217SOL    HW239111   2.418   2.965   3.031  0.1403  1.7331  2.2453
 9218SOL     OW39112   2.916   3.655   8.045 -0.9977 -0.1344 -0.0857
 9218SOL    HW139113   2.905   3.621   8.134  0.7498 -0.3177  0.0561
 9218SOL    HW239114   2.956   3.578   8.005  0.1931  0.4654 -0.0281
 9219SOL     OW39115   2.743   1.583   9.666 -0.5969  0.0737 -0.2232
 9219SOL    HW139116   2.784   1.586   9.579  0.7480 -1.2160  0.3581
 9219SOL    HW239117   2.781   1.656   9.715  0.7908 -1.7930  1.4768
 9220SOL     OW39118   4.136   1.720  11.977  0.2136  0.4007 -0.5742
 9220SOL    HW139119   4.172   1.756  12.058  0.7654  0.4162 -0.8260
 9220SOL    HW239120   4.206   1.656  11.960 -0.6212 -0.7182  0.2318
 9221SOL     OW39121   1.352   0.911   4.726  0.0062  0.0043 -0.2964
 9221SOL    HW139122   1.361   0.889   4.633 -1.6652 -0.0111 -0.4509
 9221SOL    HW239123   1.257   0.914   4.725  0.2018  5.1726 -3.3076
 9222SOL     OW39124   1.884   2.404   7.197  0.6427 -0.1536 -0.0538
 9222SOL    HW139125   1.975   2.398   7.224  1.0740  1.0523 -1.1985
 9222SOL    HW239126   1.868   2.312   7.177 -0.2417 -0.0438  0.1233
 9223SOL     OW39127   4.128   3.438  11.421  0.0040 -0.5891 -0.3646
 9223SOL    HW139128   4.048   3.394  11.448 -0.8420  0.5992 -0.9245
 9223SOL    HW239129   4.164   3.450  11.509  0.1240  0.2809 -0.5245
 9224SOL     OW39130   4.284   3.253   6.262  0.3184 -0.2359  0.2608
 9224SOL    HW139131   4.373   3.283   6.248  1.0581 -2.3163  0.4992
 9224SOL    HW239132   4.278   3.249   6.358 -1.5710  0.1113  0.1587
 9225SOL     OW39133   0.386   3.629  14.359  0.6478 -0.2441 -0.0888
 9225SOL    HW139134   0.471   3.646  14.317  1.3698 -1.4949  0.8647
 9225SOL    HW239135   0.329   3.669  14.293 -0.8578 -1.3166  0.5555
 9226SOL     OW39136   0.942   3.965   7.587 -0.4814 -0.1216  0.0424
 9226SOL    HW139137   0.934   3.872   7.566  1.9518 -0.3253 -0.0714
 9226SOL    HW239138   0.965   3.968   7.680  1.1143 -0.1865 -0.3519
 9227SOL     OW39139   4.137   3.028   6.186 -0.1797 -0.6568  0.1280
 9227SOL    HW139140   4.154   3.122   6.197  1.8661 -0.8903 -1.2348
 9227SOL    HW239141   4.166   3.004   6.274  0.7889 -0.2135 -0.0685
 9228SOL     OW39142   4.721   3.676   4.053  0.3702  0.7606  0.0132
 9228SOL    HW139143   4.700   3.696   4.145 -0.0370  0.5841 -0.0420
 9228SOL    HW239144   0.095   3.681   4.046  0.3133  0.2804 -1.0347
 9229SOL     OW39145   3.243   4.177   3.373  0.1027 -0.4529 -0.7610
 9229SOL    HW139146   3.240   4.129   3.455  1.9870  0.4400 -0.1838
 9229SOL    HW239147   3.152   4.208   3.372  0.7004  1.2947 -1.2077
 9230SOL     OW39148   4.423   3.575   2.056 -0.4845  0.0772 -0.2832
 9230SOL    HW139149   4.381   3.658   2.033  0.6170 -0.0892 -2.9137
 9230SOL    HW239150   4.506   3.602   2.016 -0.4120 -0.2416 -0.3473
 9231SOL     OW39151   1.780   4.546  14.184  0.0433  0.1387  0.2425
 9231SOL    HW139152   1.784   4.580  14.094  2.6071 -0.1064  0.2535
 9231SOL    HW239153   1.772   4.626  14.236  0.9634 -0.9339  2.0328
 9232SOL     OW39154   3.213   3.089  13.591  0.1798  0.4311 -0.5189
 9232SOL    HW139155   3.227   3.173  13.548 -1.0464  0.8324 -0.1269
 9232SOL    HW239156   3.161   3.053  13.518  1.3314  2.2298 -2.2210
 9233SOL     OW39157   2.552   1.893   2.761 -0.2326  0.2842  0.0351
 9233SOL    HW139158   2.551   1.970   2.819  0.7166  1.0904 -1.0062
 9233SOL    HW239159   2.572   1.819   2.817  2.0602 -1.6359 -3.3346
 9234SOL     OW39160   2.974   4.251   3.409  0.2851  0.3013 -0.4956
 9234SOL    HW139161   2.908   4.232   3.342  0.3292 -2.1259  0.1594
 9234SOL    HW239162   2.983   4.345   3.396  2.4347  0.1280 -0.2563
 9235SOL     OW39163   0.442   3.525   7.148  0.6910  0.3411  0.2822
 9235SOL    HW139164   0.428   3.430   7.145 -1.0178  0.6885 -1.8493
 9235SOL    HW239165   0.356   3.565   7.139 -0.2317 -1.7677 -0.3264
 9236SOL     OW39166   2.769   1.131   3.588  0.0244 -0.0341  0.1589
 9236SOL    HW139167   2.862   1.149   3.596  0.1116 -0.2389 -0.3918
 9236SOL    HW239168   2.725   1.152   3.670  0.1201 -0.7347  0.3886
 9237SOL     OW39169   3.459   3.878   6.526  0.7793  0.4451 -0.3887
 9237SOL    HW139170   3.515   3.895   6.601 -0.9065 -0.3222  1.0478
 9237SOL    HW239171   3.422   3.965   6.515  2.6538  1.4677  1.5137
 9238SOL     OW39172   1.574   2.944   5.242 -0.2798 -0.5420 -0.6025
 9238SOL    HW139173   1.606   2.959   5.331 -3.9231  0.7499  0.5081
 9238SOL    HW239174   1.642   2.885   5.210 -0.6636 -0.0326 -2.3660
 9239SOL     OW39175   1.656   3.730   2.973  0.4602 -0.4020 -0.3839
 9239SOL    HW139176   1.649   3.795   2.903  1.5448  0.3611  0.1970
 9239SOL    HW239177   1.645   3.648   2.925 -3.1053 -0.2465  0.1399
 9240SOL     OW39178   0.033   0.865  14.631  0.1452  0.2298  0.0791
 9240SOL    HW139179   0.018   0.812  14.552  0.1487 -1.0644  0.9613
 9240SOL    HW239180   0.128   0.870  14.622 -0.1877  2.0093 -2.5950
 9241SOL     OW39181   3.853   3.558   6.326 -0.3612  0.0769 -0.9262
 9241SOL    HW139182   3.926   3.574   6.267 -0.9160 -1.9074 -2.1471
 9241SOL    HW239183   3.811   3.643   6.342  2.2939  1.0455  0.8395
 9242SOL     OW39184   3.548   0.689   4.015 -0.0551 -0.0282  0.4028
 9242SOL    HW139185   3.511   0.625   4.074 -0.1133 -2.1463 -1.9257
 9242SOL    HW239186   3.546   0.638   3.934 -0.5759  0.0624  0.3581
 9243SOL     OW39187   1.837   3.834   9.336 -0.0770 -0.4326  0.1354
 9243SOL    HW139188   1.788   3.914   9.353  0.1783  0.0493 -1.3522
 9243SOL    HW239189   1.782   3.778   9.390 -1.8072  0.2836 -0.8941
 9244SOL     OW39190   2.190   4.707  14.440 -0.0657 -0.1672 -0.1530
 9244SOL    HW139191   2.273   4.661  14.446 -1.2093 -2.3454 -0.9264
 9244SOL    HW239192   2.127   4.638  14.459 -0.8006  0.8085  0.9598
 9245SOL     OW39193   4.161   0.125   7.739  0.5081  0.2106 -0.3682
 9245SOL    HW139194   4.212   0.065   7.794  1.3014  0.0403 -1.2858
 9245SOL    HW239195   4.164   0.204   7.793 -0.1033 -0.1277  0.1528
 9246SOL     OW39196   3.588   3.589   1.007  0.0888  0.0386 -0.2004
 9246SOL    HW139197   3.551   3.670   1.042  0.7126 -0.7295  2.2664
 9246SOL    HW239198   3.642   3.566   1.083  0.9509 -0.3601 -0.9362
 9247SOL     OW39199   3.295   0.363   9.856  0.9620  0.0046  0.3039
 9247SOL    HW139200   3.324   0.362   9.948 -0.1583 -0.7150  0.6435
 9247SOL    HW239201   3.279   0.269   9.853 -0.0167  0.2342 -1.1082
 9248SOL     OW39202   3.930   1.008   5.070  0.1652 -0.2397 -0.2796
 9248SOL    HW139203   3.952   1.101   5.065 -1.2098  0.0883 -0.2004
 9248SOL    HW239204   4.015   0.968   5.052  0.1750  1.1670 -3.3739
 9249SOL     OW39205   0.320   0.479   4.788  0.0084  0.0746  0.5833
 9249SOL    HW139206   0.348   0.456   4.877 -1.5819 -0.3504  0.9793
 9249SOL    HW239207   0.242   0.430   4.763  0.4642  1.0266 -2.6211
 9250SOL     OW39208   3.132   3.656  17.586  0.5931 -0.3573 -0.2085
 9250SOL    HW139209   3.222   3.686  17.568  1.0834 -0.5084  1.9517
 9250SOL    HW239210   3.148   3.639  17.679 -1.4947  1.5598  0.4775
 9251SOL     OW39211   3.171   2.015   4.032 -0.0299 -0.0867 -0.4799
 9251SOL    HW139212   3.133   1.999   3.946  0.2534  0.7024 -0.7514
 9251SOL    HW239213   3.129   2.096   4.060  0.5180 -0.1185  0.4576
 9252SOL     OW39214   2.040   3.530   7.509 -0.1216 -0.0701  0.2579
 9252SOL    HW139215   2.086   3.532   7.592  1.4991  3.4323 -0.7524
 9252SOL    HW239216   2.105   3.487   7.453  0.7627 -0.0691  1.2870
 9253SOL     OW39217   3.269   3.827   1.879 -0.2608  1.3820  0.3471
 9253SOL    HW139218   3.174   3.835   1.887 -0.3204  0.8770  0.1279
 9253SOL    HW239219   3.278   3.806   1.786 -1.8199  1.3347  0.2084
 9254SOL     OW39220   0.098   4.032  11.395  0.2694  0.2313 -0.0931
 9254SOL    HW139221   0.027   3.969  11.383 -0.4602  0.8718  0.8462
 9254SOL    HW239222   0.085   4.097  11.326 -0.1277  0.9882  0.7018
 9255SOL     OW39223   3.771   2.350   2.450 -0.3360  0.1769 -0.1674
 9255SOL    HW139224   3.698   2.344   2.512 -0.4502 -0.1243 -0.3339
 9255SOL    HW239225   3.735   2.304   2.374 -1.2852 -2.3983  1.8518
 9256SOL     OW39226   2.994   2.683   6.465  0.6416 -0.2253 -0.2655
 9256SOL    HW139227   3.037   2.768   6.475  0.8041 -0.3269 -0.0952
 9256SOL    HW239228   2.933   2.681   6.539  0.4553 -2.2746 -0.4695
 9257SOL     OW39229   3.664   4.167   1.704  0.1599 -0.4598 -0.5888
 9257SOL    HW139230   3.754   4.159   1.673 -0.9621  0.5466 -4.0815
 9257SOL    HW239231   3.666   4.127   1.791  0.6196  1.3993  0.2470
 9258SOL     OW39232   2.307   0.035  11.696 -0.0162  1.0936 -0.0463
 9258SOL    HW139233   2.394   0.070  11.714 -0.0563  0.7979  0.7212
 9258SOL    HW239234   2.309   4.672  11.743 -0.2627  0.9995 -0.2054
 9259SOL     OW39235   3.568   4.641  15.167  0.0851 -0.3095 -0.4594
 9259SOL    HW139236   3.636   4.705  15.145  0.9425 -0.7611  0.8847
 9259SOL    HW239237   3.580   4.615  15.258 -1.6211 -2.5667 -0.8760
 9260SOL     OW39238   4.116   0.557   7.583  0.2097 -0.4373  0.1233
 9260SOL    HW139239   4.147   0.603   7.661 -0.2643  1.1505 -0.6348
 9260SOL    HW239240   4.068   0.487   7.627  1.5467 -3.3542 -2.9906
 9261SOL     OW39241   4.160   1.509  11.262 -0.5507  0.0121 -0.8756
 9261SOL    HW139242   4.252   1.520  11.239 -0.5167 -0.8516 -1.1724
 9261SOL    HW239243   4.117   1.460  11.192 -1.5108 -1.9751  1.0701
 9262SOL     OW39244   1.159   3.308   8.294  0.2672 -0.4073  0.5066
 9262SOL    HW139245   1.201   3.310   8.380 -0.1849  1.1378  0.6983
 9262SOL    HW239246   1.092   3.376   8.305 -1.9167 -2.2980 -1.2160
 9263SOL     OW39247   2.159   3.967  16.165 -0.1874 -0.3259 -0.3362
 9263SOL    HW139248   2.222   3.951  16.095 -0.0097 -1.2856  0.0419
 9263SOL    HW239249   2.121   4.049  16.131  0.4242  0.8229  1.7484
 9264SOL     OW39250   0.471   1.529   3.115  0.0856  0.2871  0.2751
 9264SOL    HW139251   0.509   1.452   3.073  0.5568  1.2839 -1.1341
 9264SOL    HW239252   0.549   1.585   3.120  1.1367 -1.1545  0.2684
 9265SOL     OW39253   0.907   0.507  17.287  1.0834  0.4034 -0.0612
 9265SOL    HW139254   0.967   0.575  17.257  0.8502  0.4687 -0.3894
 9265SOL    HW239255   0.851   0.561  17.343  1.9343  1.6956 -0.4843
 9266SOL     OW39256   3.234   1.595  11.910  0.1758  0.1444 -0.0347
 9266SOL    HW139257   3.300   1.527  11.925  1.0679  1.3947  1.5874
 9266SOL    HW239258   3.244   1.643  11.992 -1.5789  1.1538 -0.4038
 9267SOL     OW39259   0.530   2.920   1.868 -0.2643 -0.3836  0.0317
 9267SOL    HW139260   0.454   2.870   1.839  0.2468 -0.9891 -0.2733
 9267SOL    HW239261   0.595   2.862   1.908  0.9664  1.0645  0.1112
 9268SOL     OW39262   1.737   3.303  16.843 -0.1651 -0.1801 -0.2531
 9268SOL    HW139263   1.807   3.344  16.791 -1.4887  0.7610 -1.3077
 9268SOL    HW239264   1.717   3.372  16.906  1.3203 -0.2665  0.3222
 9269SOL     OW39265   0.389   0.665   3.139  0.5977 -0.8450 -0.3530
 9269SOL    HW139266   0.360   0.627   3.056 -0.2053 -0.9373 -0.0350
 9269SOL    HW239267   0.352   0.600   3.199 -0.5909  0.7163  0.5984
 9270SOL     OW39268   2.115   1.557  13.347  0.0651  0.1769 -0.3030
 9270SOL    HW139269   2.077   1.470  13.330 -1.8794  1.1234 -0.7778
 9270SOL    HW239270   2.159   1.542  13.431  2.0753  0.7662 -1.2612
 9271SOL     OW39271   3.593   0.624   8.827 -0.2463 -0.2563 -0.1271
 9271SOL    HW139272   3.545   0.677   8.890  0.6295 -1.4450  1.5367
 9271SOL    HW239273   3.542   0.553   8.787  1.3587 -1.2688 -0.3796
 9272SOL     OW39274   4.043   4.488  11.110 -0.4280 -0.7971  0.1986
 9272SOL    HW139275   3.953   4.521  11.119  0.6127  2.1162  0.0015
 9272SOL    HW239276   4.050   4.401  11.148  1.5689 -0.5617  0.3736
 9273SOL     OW39277   1.503   3.465   2.980  0.1789 -0.2110 -0.0228
 9273SOL    HW139278   1.451   3.387   2.963  0.8026 -0.8281  0.8709
 9273SOL    HW239279   1.561   3.470   2.904 -0.1320 -0.3379 -0.2665
 9274SOL     OW39280   0.667   0.450   3.735  0.3263 -0.9069  0.4528
 9274SOL    HW139281   0.646   0.433   3.827 -1.3792  0.6428  0.3477
 9274SOL    HW239282   0.749   0.498   3.746 -0.3983  0.4287  0.0886
 9275SOL     OW39283   3.696   3.170   5.921  0.3529 -0.5797  0.0012
 9275SOL    HW139284   3.667   3.203   6.006  3.3977  0.2616  0.7147
 9275SOL    HW239285   3.665   3.080   5.932 -1.1497  0.1610  1.7173
 9276SOL     OW39286   2.390   1.288  13.609 -0.5098  0.0123  0.2821
 9276SOL    HW139287   2.391   1.308  13.516  1.1729  1.5594  0.6247
 9276SOL    HW239288   2.336   1.209  13.615  0.0707 -0.0533  5.1234
 9277SOL     OW39289   3.071   0.982   8.965  0.3306 -0.3657  0.2883
 9277SOL    HW139290   3.087   0.954   9.056  0.6751 -1.3588 -0.0762
 9277SOL    HW239291   3.158   0.969   8.927 -0.7804 -0.1092 -2.3214
 9278SOL     OW39292   3.193   3.144   4.903  0.1766  0.9849 -0.3541
 9278SOL    HW139293   3.286   3.122   4.911 -0.7396 -2.1606  1.5632
 9278SOL    HW239294   3.150   3.118   4.984 -1.2295 -0.2395 -1.4931
 9279SOL     OW39295   0.466   3.507  10.283  0.4946 -0.0261 -0.5225
 9279SOL    HW139296   0.440   3.596  10.306  1.3706  0.7424 -2.5302
 9279SOL    HW239297   0.495   3.474  10.368  0.5291  0.4322 -0.3528
 9280SOL     OW39298   3.685   2.552   6.377 -0.0986  0.1782 -0.4591
 9280SOL    HW139299   3.711   2.464   6.349 -1.1633 -0.6255  1.0989
 9280SOL    HW239300   3.664   2.597   6.295  2.4332  2.2413  0.0188
 9281SOL     OW39301   0.797   4.221   1.053  0.0044  0.2196  0.0145
 9281SOL    HW139302   0.888   4.218   1.084 -0.5067  0.1396  1.5198
 9281SOL    HW239303   0.760   4.274   1.123  0.5354 -0.4602  0.8188
 9282SOL     OW39304   0.011   3.487   5.797 -0.3364  0.1485 -0.0330
 9282SOL    HW139305   0.032   3.537   5.875  3.0951  0.9547 -1.5077
 9282SOL    HW239306   0.097   3.448   5.784 -0.9147 -1.4785  1.0418
 9283SOL     OW39307   3.607   1.718  10.107  0.1582 -0.7807 -0.1633
 9283SOL    HW139308   3.655   1.635  10.098  0.3466 -0.6032 -0.7815
 9283SOL    HW239309   3.580   1.713  10.199  1.7870  3.1324  0.5011
 9284SOL     OW39310   0.385   0.058   4.905  0.7208  0.4793 -0.0087
 9284SOL    HW139311   0.387   4.684   4.920 -0.3588  0.8871  2.7372
 9284SOL    HW239312   0.360   0.096   4.989  1.7702  1.7607 -0.2713
 9285SOL     OW39313   0.353   2.201   8.829 -0.4408 -0.1359  0.0883
 9285SOL    HW139314   0.441   2.203   8.867 -0.4325  0.4684  0.0363
 9285SOL    HW239315   0.355   2.268   8.761  0.8530  3.2081  3.3607
 9286SOL     OW39316   4.139   3.803  15.127 -0.0629 -0.6074  0.5881
 9286SOL    HW139317   4.201   3.741  15.088 -0.4931 -0.3684 -0.4912
 9286SOL    HW239318   4.185   3.850  15.197 -1.8330  1.6328  0.2582
 9287SOL     OW39319   2.175   0.289   2.900 -0.5399  0.7547  0.2226
 9287SOL    HW139320   2.268   0.288   2.922 -0.2114 -0.5839 -1.2252
 9287SOL    HW239321   2.135   0.349   2.963 -0.7878  0.0042  0.7838
 9288SOL     OW39322   2.122   2.922  16.455  0.3659 -0.0945  0.3463
 9288SOL    HW139323   2.211   2.956  16.467  0.2879 -0.6173  2.4709
 9288SOL    HW239324   2.095   2.922  16.547 -0.3643 -1.4458  0.1264
 9289SOL     OW39325   3.846   2.811   9.415  0.6788  0.2696 -0.1664
 9289SOL    HW139326   3.766   2.847   9.455  1.5160 -0.0030  1.7280
 9289SOL    HW239327   3.837   2.723   9.451  0.5582  0.3753  0.0579
 9290SOL     OW39328   1.230   1.692   0.474 -0.4582  0.5549  0.5055
 9290SOL    HW139329   1.260   1.695   0.565  0.7758  1.1992  0.0720
 9290SOL    HW239330   1.242   1.601   0.448 -3.4350  0.0932  0.6883
 9291SOL     OW39331   3.234   0.423   3.219 -0.1902 -0.7837 -0.1089
 9291SOL    HW139332   3.184   0.477   3.157 -1.7969 -0.9000  1.0642
 9291SOL    HW239333   3.197   0.334   3.222 -0.7062 -0.6054 -1.1516
 9292SOL     OW39334   3.814   3.942   3.585  0.0358 -0.0985 -0.1364
 9292SOL    HW139335   3.838   4.030   3.557 -0.5910  0.0886 -0.0890
 9292SOL    HW239336   3.725   3.968   3.608  0.1755 -0.4845  0.8342
 9293SOL     OW39337   0.518   4.097   3.845 -0.2802 -0.2640 -0.6418
 9293SOL    HW139338   0.478   4.032   3.903 -1.3828  0.2217 -0.8599
 9293SOL    HW239339   0.515   4.043   3.765 -2.1324 -0.3720 -0.5002
 9294SOL     OW39340   3.485   4.413   5.960 -0.6979  0.1646  0.4440
 9294SOL    HW139341   3.434   4.426   6.041  0.2904 -1.2015  1.2843
 9294SOL    HW239342   3.437   4.348   5.909  1.0858 -0.4425 -0.4674
 9295SOL     OW39343   1.670   2.862  16.665  0.5985 -0.1200 -0.8007
 9295SOL    HW139344   1.723   2.902  16.733 -0.1924  1.3181 -1.0490
 9295SOL    HW239345   1.590   2.913  16.653  0.3001  0.1643  2.6079
 9296SOL     OW39346   4.522   1.375  10.600  0.6609 -0.3212 -0.5040
 9296SOL    HW139347   4.524   1.385  10.505  0.9463  0.7809 -0.3877
 9296SOL    HW239348   4.608   1.342  10.625  1.1397  0.0830 -1.5998
 9297SOL     OW39349   3.323   2.329   5.054  0.2178  0.0184 -0.0941
 9297SOL    HW139350   3.270   2.391   5.003  0.7677  0.9997  0.5320
 9297SOL    HW239351   3.380   2.308   4.981 -2.3264 -1.3178 -1.7074
 9298SOL     OW39352   4.115   2.851  10.351  0.3075 -0.1731 -0.0478
 9298SOL    HW139353   4.076   2.799  10.422 -3.2724  1.4998 -0.7959
 9298SOL    HW239354   4.144   2.775  10.301  1.6490  0.6936 -0.5955
 9299SOL     OW39355   2.187   3.242  16.972 -0.5920  0.1718  0.3507
 9299SOL    HW139356   2.215   3.151  16.964  0.8811  0.6433  0.1364
 9299SOL    HW239357   2.092   3.237  16.958 -0.5363 -0.8119  0.3315
 9300SOL     OW39358   1.177   2.900   2.511 -0.0967 -0.0591  0.1793
 9300SOL    HW139359   1.264   2.909   2.472  0.6509  1.0884  2.0751
 9300SOL    HW239360   1.162   2.994   2.523  0.0157  0.0830 -0.8211
 9301SOL     OW39361   1.540   1.906   5.340  0.4911 -0.2705  0.0545
 9301SOL    HW139362   1.581   1.959   5.272 -1.3360 -0.0327 -0.8593
 9301SOL    HW239363   1.543   1.955   5.422  0.8980  0.6522 -0.5057
 9302SOL     OW39364   3.778   1.431   5.279  0.7070 -0.1083  0.4841
 9302SOL    HW139365   3.716   1.421   5.206  0.6652 -0.4775  0.5746
 9302SOL    HW239366   3.791   1.524   5.296 -0.4107 -0.3935  2.9222
 9303SOL     OW39367   1.132   2.755   1.172 -0.0268 -0.7076  0.5876
 9303SOL    HW139368   1.116   2.706   1.091 -1.7847  2.3035 -0.9005
 9303SOL    HW239369   1.097   2.838   1.141 -1.8269 -1.4602  0.6272
 9304SOL     OW39370   1.344   2.690  13.347  0.6343 -0.3625 -0.0273
 9304SOL    HW139371   1.422   2.636  13.335  0.9056  0.2513 -1.0668
 9304SOL    HW239372   1.279   2.620  13.345 -1.0914  1.2366  0.5969
 9305SOL     OW39373   4.703   0.364   3.681 -0.3602  0.5456 -0.4261
 9305SOL    HW139374   4.674   0.375   3.591 -3.1768 -1.1878  0.2815
 9305SOL    HW239375   4.634   0.317   3.728  2.4998 -3.1984  0.1324
 9306SOL     OW39376   4.505   3.987   4.822  0.0646 -0.4748 -0.5969
 9306SOL    HW139377   4.424   4.038   4.815  0.4504  0.4316  1.9238
 9306SOL    HW239378   4.469   3.902   4.850 -0.1393 -0.2491 -0.1841
 9307SOL     OW39379   3.947   3.516   2.879 -0.0451 -0.0997 -0.0282
 9307SOL    HW139380   4.018   3.457   2.902 -1.3081 -1.5373  0.2393
 9307SOL    HW239381   3.966   3.579   2.948 -1.6926 -0.3846  0.7003
 9308SOL     OW39382   0.586   3.761   6.170  0.1938 -0.4749  0.2266
 9308SOL    HW139383   0.588   3.829   6.237 -1.5451  0.6171 -0.8317
 9308SOL    HW239384   0.629   3.685   6.209 -0.3554 -0.2384  1.2953
 9309SOL     OW39385   0.590   2.497   7.340 -0.1401 -0.0723 -0.0300
 9309SOL    HW139386   0.645   2.521   7.265  0.7845  0.8136  0.9351
 9309SOL    HW239387   0.561   2.408   7.323 -2.7299  0.8712 -0.5458
 9310SOL     OW39388   1.079   3.746   1.469  0.2730 -0.9948 -0.9415
 9310SOL    HW139389   1.162   3.792   1.452  0.1068 -0.6373 -0.8048
 9310SOL    HW239390   1.101   3.653   1.472  0.1795 -0.9851  0.1124
 9311SOL     OW39391   0.950   1.709   0.421 -0.1422  0.6565 -0.2824
 9311SOL    HW139392   0.926   1.802   0.422  0.4211  0.7705  1.3423
 9311SOL    HW239393   1.042   1.720   0.442  0.0953 -2.9321  0.5071
 9312SOL     OW39394   2.658   1.067  11.300  0.4058 -0.4739  0.1783
 9312SOL    HW139395   2.678   0.981  11.264 -1.8225 -1.6526  1.8300
 9312SOL    HW239396   2.585   1.048  11.359  0.4846  0.6643  0.6427
 9313SOL     OW39397   1.750   2.196   8.247  0.2053 -0.0994 -0.1031
 9313SOL    HW139398   1.752   2.268   8.184  0.4988  0.2008  0.2472
 9313SOL    HW239399   1.658   2.199   8.273  0.5073 -3.2879  1.3716
 9314SOL     OW39400   3.832   2.910   5.377 -0.0164 -1.1356  0.6011
 9314SOL    HW139401   3.870   2.941   5.459  2.7943 -3.1246  0.0651
 9314SOL    HW239402   3.748   2.955   5.377 -0.5016 -2.0047 -1.4698
 9315SOL     OW39403   3.665   3.136  13.284 -0.4398 -0.4636  0.1436
 9315SOL    HW139404   3.734   3.201  13.298  0.2196 -0.7972 -1.5842
 9315SOL    HW239405   3.605   3.207  13.263 -0.2007 -0.5391 -0.7662
 9316SOL     OW39406   1.297   1.593   3.104  0.8919 -0.2176 -0.3802
 9316SOL    HW139407   1.318   1.503   3.130 -2.3488 -0.2310  2.2573
 9316SOL    HW239408   1.269   1.622   3.191 -2.7540 -0.8973 -1.3278
 9317SOL     OW39409   3.679   1.740   4.103  0.1064  1.3888  0.1952
 9317SOL    HW139410   3.586   1.754   4.087 -0.4891 -1.2055  1.4984
 9317SOL    HW239411   3.688   1.759   4.196 -0.5180 -1.6379  0.8781
 9318SOL     OW39412   4.321   4.449  17.643 -0.5349  0.3045 -0.0586
 9318SOL    HW139413   4.275   4.478   0.035  1.7776  1.6225  0.8332
 9318SOL    HW239414   4.357   4.365  17.673  0.4999  1.0403  0.7682
 9319SOL     OW39415   2.157   2.445   2.210  0.6579 -0.2622  0.1015
 9319SOL    HW139416   2.136   2.447   2.304  3.5599  0.1747  0.7546
 9319SOL    HW239417   2.198   2.530   2.193 -4.1402  2.4715  2.2159
 9320SOL     OW39418   3.646   1.180   4.466  0.0650  0.0895 -0.0020
 9320SOL    HW139419   3.570   1.125   4.448 -1.2234  1.0684  2.4951
 9320SOL    HW239420   3.647   1.244   4.395 -3.2626 -0.1216 -0.2473
 9321SOL     OW39421   3.681   2.058   9.749 -0.0588  0.6416  0.0827
 9321SOL    HW139422   3.655   2.044   9.840  0.3379 -1.7336 -0.1646
 9321SOL    HW239423   3.776   2.048   9.761  0.1330  2.7102  0.1979
 9322SOL     OW39424   1.701   3.085  12.762  0.2419 -0.1551 -0.0336
 9322SOL    HW139425   1.633   3.148  12.739  0.9366  0.1776 -1.1926
 9322SOL    HW239426   1.765   3.088  12.690  1.6740  2.1533  1.3137
 9323SOL     OW39427   0.897   0.098   8.332  0.9583  0.0309  0.3037
 9323SOL    HW139428   0.959   0.141   8.391  0.0849  1.5045  0.1524
 9323SOL    HW239429   0.907   0.007   8.362 -0.9839  0.1827  1.3950
 9324SOL     OW39430   4.528   3.473  17.630  0.1179 -0.2421 -0.4879
 9324SOL    HW139431   4.536   3.471   0.040  1.1616 -0.9919 -0.5888
 9324SOL    HW239432   4.468   3.399  17.617  0.0022 -0.3554  0.6635
 9325SOL     OW39433   4.437   0.293   7.778  0.2217  0.0031 -0.3330
 9325SOL    HW139434   4.509   0.271   7.837 -0.1700  0.7318  0.4175
 9325SOL    HW239435   4.374   0.316   7.846 -1.2305  1.6199 -2.2257
 9326SOL     OW39436   0.076   1.498   6.535 -0.5859 -0.2752 -0.4577
 9326SOL    HW139437   0.031   1.505   6.619  1.9631 -1.2376  0.9796
 9326SOL    HW239438   0.027   1.424   6.500  1.2322 -1.4713 -0.4298
 9327SOL     OW39439   4.408   2.206   9.057  0.2656 -0.4386 -0.0304
 9327SOL    HW139440   4.377   2.271   8.994  1.5562  0.0183 -0.1942
 9327SOL    HW239441   4.480   2.163   9.010 -0.2462 -0.5925 -0.6743
 9328SOL     OW39442   0.730   0.407   5.335  0.5474  0.1852 -0.6125
 9328SOL    HW139443   0.775   0.340   5.386  3.8658 -0.2552 -4.0628
 9328SOL    HW239444   0.710   0.471   5.403  2.2236  0.8118 -0.7146
 9329SOL     OW39445   2.636   0.114  16.307 -0.1762  0.0217 -0.3326
 9329SOL    HW139446   2.544   0.088  16.300 -1.3818  4.4705 -0.9731
 9329SOL    HW239447   2.621   0.199  16.348  0.3800 -0.4884  0.9135
 9330SOL     OW39448   3.107   1.251  11.472 -0.2058 -0.4712 -0.6748
 9330SOL    HW139449   3.083   1.256  11.565 -0.0108 -1.5384 -0.5696
 9330SOL    HW239450   3.154   1.167  11.467  0.0355 -0.3351 -0.7171
 9331SOL     OW39451   4.158   0.059  17.362  0.0055  0.0073 -0.2289
 9331SOL    HW139452   4.180   0.107  17.441 -1.9699  1.6467 -0.6899
 9331SOL    HW239453   4.161   4.690  17.395 -1.5938 -0.0066 -0.1163
 9332SOL     OW39454   1.800   0.109  14.226  0.3204  0.1347 -0.3912
 9332SOL    HW139455   1.753   0.179  14.179  0.8985 -1.5569 -3.4271
 9332SOL    HW239456   1.884   0.151  14.245  0.3621 -0.7343  1.2606
 9333SOL     OW39457   4.014   4.714   1.863  0.5778  0.1585  0.7647
 9333SOL    HW139458   3.989   0.022   1.951 -1.2734 -2.2988  1.0493
 9333SOL    HW239459   4.034   4.622   1.877  1.0073  0.2893  1.0225
 9334SOL     OW39460   3.717   4.281   9.200  0.1301  0.7832  0.3711
 9334SOL    HW139461   3.638   4.231   9.221  1.3970 -0.9164  1.0926
 9334SOL    HW239462   3.726   4.243   9.113  0.2861 -0.2879  0.8515
 9335SOL     OW39463   0.809   2.633  15.984  0.2675  0.2147 -0.1925
 9335SOL    HW139464   0.731   2.580  15.997  0.8290 -1.1166 -2.2453
 9335SOL    HW239465   0.784   2.712  16.032 -0.4102 -1.5452  2.3040
 9336SOL     OW39466   2.279   3.079  10.695 -0.2365  0.5832  0.6787
 9336SOL    HW139467   2.333   3.131  10.636 -0.2289 -1.3772 -1.0399
 9336SOL    HW239468   2.250   3.147  10.756  0.8688  1.1951  0.5095
 9337SOL     OW39469   0.004   0.204   5.764  0.4242  0.0995 -0.0225
 9337SOL    HW139470   0.054   0.260   5.824 -0.4184  0.8313 -0.0138
 9337SOL    HW239471   0.049   0.213   5.680  3.0869 -0.4121  1.3353
 9338SOL     OW39472   3.212   0.556   9.639  0.0694 -0.5405 -0.0482
 9338SOL    HW139473   3.210   0.479   9.695 -1.3091  0.0831  0.7484
 9338SOL    HW239474   3.231   0.624   9.703  0.0101 -0.0417 -0.5631
 9339SOL     OW39475   2.581   3.853   6.240  0.2525  1.0646  0.0940
 9339SOL    HW139476   2.490   3.869   6.214  0.9277  0.1814 -2.8205
 9339SOL    HW239477   2.568   3.833   6.333 -0.1378  1.7038  0.1781
 9340SOL     OW39478   3.811   3.121   4.784  0.2166  0.0477 -0.8312
 9340SOL    HW139479   3.856   3.187   4.730 -0.2723  3.2478  2.7363
 9340SOL    HW239480   3.854   3.137   4.868  0.5783  0.8011 -1.1551
 9341SOL     OW39481   0.314   3.665   6.732  0.1815 -0.3458 -0.7900
 9341SOL    HW139482   0.238   3.617   6.698  1.1020 -2.2347 -0.2008
 9341SOL    HW239483   0.289   3.695   6.819  0.3696  1.3353 -1.3134
 9342SOL     OW39484   0.339   0.454   8.655  0.1486 -0.3531 -0.5375
 9342SOL    HW139485   0.416   0.440   8.710  1.0123 -0.8302 -1.8384
 9342SOL    HW239486   0.292   0.375   8.678 -1.1144  1.3241  2.5904
 9343SOL     OW39487   1.297   3.311   8.052  0.4352 -0.3471 -0.1453
 9343SOL    HW139488   1.237   3.294   8.124  1.4015  1.5033  1.1129
 9343SOL    HW239489   1.239   3.284   7.981  0.6820 -1.0713 -0.0767
 9344SOL     OW39490   1.245   3.427   7.451  0.1051  0.6844 -0.4834
 9344SOL    HW139491   1.283   3.421   7.539 -0.5628  2.5970 -0.0622
 9344SOL    HW239492   1.313   3.473   7.402  0.7258 -1.5467 -1.6780
 9345SOL     OW39493   2.318   2.594   8.658 -0.9305  0.0051 -0.2352
 9345SOL    HW139494   2.323   2.499   8.643  0.5426 -0.0191  0.4238
 9345SOL    HW239495   2.372   2.604   8.736  0.4292  1.3351 -1.3530
 9346SOL     OW39496   3.611   3.801   4.284  0.2523 -0.2012  0.1210
 9346SOL    HW139497   3.692   3.824   4.330 -0.1871 -1.2519  1.4128
 9346SOL    HW239498   3.565   3.884   4.293  1.7240  0.7919 -1.4439
 9347SOL     OW39499   1.555   3.516   5.814 -0.1182 -0.5905 -0.8862
 9347SOL    HW139500   1.649   3.528   5.823 -0.2638 -0.7615  0.7724
 9347SOL    HW239501   1.549   3.531   5.719  0.5029  2.2121 -0.4658
 9348SOL     OW39502   1.406   4.178   3.688 -0.3217  0.4972 -0.8533
 9348SOL    HW139503   1.324   4.153   3.644 -0.7303 -0.7728  0.6421
 9348SOL    HW239504   1.422   4.258   3.638 -3.8994  2.0192  0.3978
 9349SOL     OW39505   3.754   4.214  10.639 -0.4932 -0.2778 -0.5037
 9349SOL    HW139506   3.710   4.130  10.624 -1.0070  0.3380 -2.3325
 9349SOL    HW239507   3.684   4.278  10.625 -0.6344 -0.5553 -1.0699
 9350SOL     OW39508   3.043   4.499  11.125  0.0175 -0.1859  0.2572
 9350SOL    HW139509   2.979   4.545  11.070  0.6466  0.2118 -0.1455
 9350SOL    HW239510   3.006   4.532  11.207 -3.1879 -0.4875 -1.0334
 9351SOL     OW39511   3.174   2.927  13.795  0.4123  0.3483 -0.3275
 9351SOL    HW139512   3.207   2.994  13.736  3.6542 -0.5266  0.5038
 9351SOL    HW239513   3.126   2.872  13.734  0.6346 -0.3017  0.0844
 9352SOL     OW39514   4.218   3.797  10.962 -0.2828 -0.2590  0.6115
 9352SOL    HW139515   4.294   3.757  10.920  0.0588  3.2588 -2.1211
 9352SOL    HW239516   4.171   3.831  10.885  2.1270 -0.4640 -0.9433
 9353SOL     OW39517   0.218   2.601   6.528 -0.5594 -0.3197 -0.1975
 9353SOL    HW139518   0.223   2.574   6.436  0.5641  0.8757 -0.4936
 9353SOL    HW239519   0.167   2.681   6.520  1.9306  1.3433  0.6310
 9354SOL     OW39520   1.560   0.615   3.880 -1.0658  0.6761  0.0278
 9354SOL    HW139521   1.655   0.620   3.878 -1.0171 -0.0446  0.4494
 9354SOL    HW239522   1.540   0.630   3.972  0.0468 -0.1593  0.4110
 9355SOL     OW39523   1.184   2.990   0.462  0.0376 -0.4074  0.7698
 9355SOL    HW139524   1.219   2.909   0.498  2.0892  0.3050  0.3472
 9355SOL    HW239525   1.220   2.987   0.373 -0.6964 -3.2808  0.5579
 9356SOL     OW39526   0.684   3.778  11.105  0.6065  0.0121 -0.0275
 9356SOL    HW139527   0.655   3.848  11.047  0.8752  0.2522  0.1281
 9356SOL    HW239528   0.608   3.744  11.152  0.4398 -2.6666 -2.1715
 9357SOL     OW39529   2.873   2.145   5.781 -0.8370  0.8710 -0.1710
 9357SOL    HW139530   2.827   2.117   5.860 -0.3637 -2.3015 -1.0158
 9357SOL    HW239531   2.814   2.203   5.733 -0.8287 -0.1973 -1.5003
 9358SOL     OW39532   2.278   3.151   1.494 -0.2335 -0.3020  0.2745
 9358SOL    HW139533   2.183   3.142   1.482  0.0553  0.6887 -2.5523
 9358SOL    HW239534   2.305   3.117   1.409  1.1157  0.0996  0.5413
 9359SOL     OW39535   1.495   2.397   1.982  0.4535 -0.0572 -0.1837
 9359SOL    HW139536   1.445   2.328   1.940  1.4650 -0.2386 -1.0993
 9359SOL    HW239537   1.563   2.410   1.916  1.0497 -0.9645  0.2565
 9360SOL     OW39538   1.117   2.818   7.487 -0.3535  0.2927  0.0372
 9360SOL    HW139539   1.206   2.787   7.502 -0.2901  0.4541 -0.0130
 9360SOL    HW239540   1.134   2.877   7.414  1.1742  1.2938  1.2229
 9361SOL     OW39541   3.622   2.591   6.095  0.2129 -0.0215  0.2285
 9361SOL    HW139542   3.582   2.541   6.023  0.5044  0.2552 -0.1295
 9361SOL    HW239543   3.556   2.660   6.099 -1.1533 -1.3610  0.6006
 9362SOL     OW39544   1.624   0.217   3.164 -0.2052 -0.0824  0.2712
 9362SOL    HW139545   1.581   0.196   3.247 -1.6563 -1.8837 -0.9429
 9362SOL    HW239546   1.564   0.165   3.111  2.0204 -2.1269 -0.2280
 9363SOL     OW39547   4.464   1.771  13.645  0.5978  0.2803 -0.2953
 9363SOL    HW139548   4.396   1.712  13.614 -1.3122  2.3159  0.0647
 9363SOL    HW239549   4.444   1.792  13.736  1.2411 -1.5792  0.2858
 9364SOL     OW39550   0.775   3.835   8.016 -0.0696 -0.5893 -0.0188
 9364SOL    HW139551   0.738   3.807   7.932 -1.7834 -0.2785  0.6202
 9364SOL    HW239552   0.721   3.781   8.074  0.1688  0.3827  1.0882
 9365SOL     OW39553   4.710   0.715  14.378  0.4847  0.0609  0.7692
 9365SOL    HW139554   0.078   0.717  14.341  0.5114  1.8308  0.9345
 9365SOL    HW239555   4.662   0.679  14.303 -0.8064 -1.1172  2.1690
 9366SOL     OW39556   2.348   1.858   4.435 -0.8333  0.3689  0.2860
 9366SOL    HW139557   2.431   1.812   4.439 -0.3742  1.0825 -0.8335
 9366SOL    HW239558   2.378   1.932   4.381 -1.2262  1.7384  1.9442
 9367SOL     OW39559   0.870   2.032  16.872 -0.2491 -0.1798  0.1956
 9367SOL    HW139560   0.784   2.006  16.839 -0.0902  2.1254 -1.9968
 9367SOL    HW239561   0.884   1.987  16.956  0.6846  2.7680  1.6285
 9368SOL     OW39562   0.695   1.511   4.617  0.3404 -0.6520  0.0723
 9368SOL    HW139563   0.690   1.499   4.712  2.8800 -0.2419  0.2682
 9368SOL    HW239564   0.779   1.556   4.604 -0.4626  0.6433 -0.6976
 9369SOL     OW39565   4.207   1.069   0.219 -0.3113  0.0036  0.7342
 9369SOL    HW139566   4.267   1.073   0.144  0.8183  0.4975  1.6686
 9369SOL    HW239567   4.156   1.151   0.216 -1.8904 -0.9551  1.8352
 9370SOL     OW39568   0.636   1.241   7.480  0.2187 -0.3744 -0.0549
 9370SOL    HW139569   0.729   1.251   7.503  0.2674 -2.4216  0.5867
 9370SOL    HW239570   0.589   1.307   7.532  0.7423  0.1443 -0.2383
 9371SOL     OW39571   2.738   2.049   6.421  0.2845  0.0508 -0.6661
 9371SOL    HW139572   2.779   2.044   6.507 -0.0502  1.3011 -0.4314
 9371SOL    HW239573   2.697   1.963   6.414  0.3646 -0.0462  0.1023
 9372SOL     OW39574   1.563   1.153   3.811  0.7925  0.2517 -0.3407
 9372SOL    HW139575   1.617   1.223   3.772  0.2485  0.9014  0.0815
 9372SOL    HW239576   1.490   1.158   3.749  0.9667 -0.1866 -0.5805
 9373SOL     OW39577   1.290   2.187   6.252 -0.4158  0.3362  0.3115
 9373SOL    HW139578   1.282   2.224   6.340 -0.9124  1.4859 -0.2262
 9373SOL    HW239579   1.200   2.168   6.227 -0.4566  0.3346  0.4580
 9374SOL     OW39580   1.193   0.262   7.213 -0.4689 -0.7063 -0.0502
 9374SOL    HW139581   1.264   0.247   7.276 -0.8113 -0.2196  0.4593
 9374SOL    HW239582   1.140   0.183   7.225 -1.2851 -0.0532  0.6519
 9375SOL     OW39583   1.339   0.865   9.606  0.4679  0.1003  0.3487
 9375SOL    HW139584   1.401   0.935   9.629  0.9205 -0.1788 -0.0439
 9375SOL    HW239585   1.354   0.802   9.677 -0.8028  0.0697  0.5969
 9376SOL     OW39586   2.125   1.587   1.259  0.2263  0.0641  0.4471
 9376SOL    HW139587   2.058   1.616   1.197  1.1128 -0.1963 -0.6248
 9376SOL    HW239588   2.145   1.501   1.223 -0.8904 -0.2713  0.6254
 9377SOL     OW39589   4.050   1.474   2.228 -0.1660  0.1144 -0.3235
 9377SOL    HW139590   4.025   1.545   2.169 -0.2970  1.6990  1.6727
 9377SOL    HW239591   4.141   1.456   2.202  0.0604 -0.7218  1.0793
 9378SOL     OW39592   1.362   0.256   4.603 -0.2643 -0.4016  0.2035
 9378SOL    HW139593   1.325   0.317   4.539 -1.0091  0.1422  1.1600
 9378SOL    HW239594   1.307   0.280   4.678 -1.1106 -0.7463 -0.3067
 9379SOL     OW39595   0.308   0.400   9.310  0.0410 -0.8633 -0.2947
 9379SOL    HW139596   0.310   0.305   9.306  1.9936 -0.8201 -0.3885
 9379SOL    HW239597   0.215   0.414   9.292 -0.4107 -0.9181  1.9870
 9380SOL     OW39598   2.375   4.530  14.383 -0.1886 -0.4686  0.1746
 9380SOL    HW139599   2.445   4.465  14.385 -1.9296 -2.4181 -1.4868
 9380SOL    HW239600   2.299   4.472  14.382 -0.5777  0.0134  1.1569
 9381SOL     OW39601   2.758   1.956   7.149  0.2125 -0.1397 -0.4501
 9381SOL    HW139602   2.749   2.047   7.122  2.9147 -0.5812 -2.9148
 9381SOL    HW239603   2.677   1.939   7.196  0.7382  0.7197  0.7664
 9382SOL     OW39604   2.341   4.444   6.935  0.4054  0.7653  0.8513
 9382SOL    HW139605   2.363   4.389   7.010  0.9494 -0.7701 -0.4559
 9382SOL    HW239606   2.377   4.529   6.962  2.5023 -0.3617  1.5271
 9383SOL     OW39607   4.415   2.053   6.177 -0.1252 -0.2331  0.1501
 9383SOL    HW139608   4.464   2.132   6.200 -0.1251  1.2681 -4.9925
 9383SOL    HW239609   4.358   2.051   6.254 -0.4868 -0.3900 -0.1238
 9384SOL     OW39610   4.049   0.343  11.792  0.2376  0.0746 -0.3505
 9384SOL    HW139611   3.976   0.283  11.776 -0.9824  1.7539 -1.0533
 9384SOL    HW239612   4.011   0.423  11.828 -0.5243 -0.7114  0.5998
 9385SOL     OW39613   0.777   2.635   7.149 -0.4986  0.2083 -0.3488
 9385SOL    HW139614   0.846   2.575   7.120 -1.4821 -1.3508  0.5333
 9385SOL    HW239615   0.835   2.712   7.148  0.6736 -0.6963 -2.6772
 9386SOL     OW39616   1.524   3.086   3.535  0.2684 -0.3156 -0.0851
 9386SOL    HW139617   1.575   3.021   3.582  0.6360  0.1095  0.1063
 9386SOL    HW239618   1.599   3.137   3.505  0.7483 -1.3649 -0.6729
 9387SOL     OW39619   3.369   3.161  11.784  0.4237 -0.2942  0.6140
 9387SOL    HW139620   3.391   3.227  11.850  0.4691 -0.1984  0.5021
 9387SOL    HW239621   3.274   3.153  11.784  0.1765  2.7629 -0.9057
 9388SOL     OW39622   0.420   1.954  16.261 -0.0711 -0.2127 -0.3744
 9388SOL    HW139623   0.487   1.903  16.216 -1.4804  0.5906 -3.3585
 9388SOL    HW239624   0.415   2.035  16.210  0.4814  1.0499  1.5561
 9389SOL     OW39625   2.897   0.709  15.945 -0.4050 -0.0734  0.4788
 9389SOL    HW139626   2.905   0.804  15.949  2.1415 -0.3418  1.5392
 9389SOL    HW239627   2.804   0.693  15.926  0.1802 -1.8389 -0.9273
 9390SOL     OW39628   4.056   0.230  11.098 -0.2166 -0.4505 -0.1346
 9390SOL    HW139629   4.029   0.316  11.066  0.7862  0.3031  1.0768
 9390SOL    HW239630   4.107   0.255  11.175  2.8903  0.8379 -2.6191
 9391SOL     OW39631   0.410   2.501   2.445  0.0919  0.4100 -0.5324
 9391SOL    HW139632   0.447   2.426   2.491  0.5556  0.2055 -1.2566
 9391SOL    HW239633   0.402   2.458   2.360 -1.6608 -0.6502  0.1688
 9392SOL     OW39634   3.351   3.603   0.509  0.8600  0.2693  0.0401
 9392SOL    HW139635   3.327   3.531   0.450 -1.1606 -0.5387  1.8721
 9392SOL    HW239636   3.397   3.568   0.586 -2.9759 -2.3234  1.1574
 9393SOL     OW39637   3.330   4.422   8.550 -0.6321 -0.2597 -0.7045
 9393SOL    HW139638   3.277   4.500   8.562  0.4228  0.4466 -0.6437
 9393SOL    HW239639   3.343   4.429   8.455  1.9199 -0.9372 -0.4112
 9394SOL     OW39640   1.256   0.032   1.985  0.0276  0.2212  0.1041
 9394SOL    HW139641   1.300   0.093   2.044 -0.0897 -1.9553  2.4669
 9394SOL    HW239642   1.326   0.020   1.920  0.3199 -0.0526  0.4684
 9395SOL     OW39643   3.365   4.191   5.848  0.1876  0.0255 -0.1841
 9395SOL    HW139644   3.398   4.221   5.763 -0.3816  4.5060  1.1544
 9395SOL    HW239645   3.280   4.157   5.821  0.5032 -1.6428  0.9674
 9396SOL     OW39646   1.474   4.585  10.348  0.1156 -0.0112  0.1413
 9396SOL    HW139647   1.519   4.539  10.276  0.5602  0.7043 -0.0412
 9396SOL    HW239648   1.460   4.669  10.303 -2.0384 -0.3034  0.2896
 9397SOL     OW39649   1.893   0.228   7.575 -0.4631 -0.3011 -0.0874
 9397SOL    HW139650   1.980   0.266   7.561 -0.2934  0.7510  3.8345
 9397SOL    HW239651   1.827   0.259   7.513  0.5695  0.1840 -0.9425
 9398SOL     OW39652   2.636   4.112   4.499 -0.2683 -0.4031 -0.0791
 9398SOL    HW139653   2.657   4.205   4.511  0.4420 -0.6764  0.7979
 9398SOL    HW239654   2.547   4.111   4.465  0.6448 -1.8986 -2.3496
 9399SOL     OW39655   0.521   3.473   2.502  0.6908 -0.2579 -0.0865
 9399SOL    HW139656   0.564   3.408   2.446 -0.5641 -0.4192 -0.8517
 9399SOL    HW239657   0.501   3.427   2.584  1.4788 -3.2270 -1.5596
 9400SOL     OW39658   0.946   3.685   2.151 -0.1986  0.6076  0.4646
 9400SOL    HW139659   0.944   3.623   2.079 -1.9155  1.2111  0.0026
 9400SOL    HW239660   1.001   3.644   2.218  0.2423  0.9215  0.2959
 9401SOL     OW39661   3.461   2.607   7.431  0.2785 -0.3086 -0.0970
 9401SOL    HW139662   3.383   2.576   7.385  0.8449  0.2598 -1.4531
 9401SOL    HW239663   3.456   2.701   7.414 -2.8006 -0.4499  0.0089
 9402SOL     OW39664   1.141   3.007   6.301 -0.3654 -0.4286  0.6562
 9402SOL    HW139665   1.207   2.970   6.360 -2.0087 -0.3971  2.5103
 9402SOL    HW239666   1.060   2.979   6.343 -0.3290  0.2645  1.1843
 9403SOL     OW39667   1.781   4.571   7.500  0.2267  0.0345  0.0135
 9403SOL    HW139668   1.735   4.520   7.566 -0.7500  1.8413  0.7160
 9403SOL    HW239669   1.820   4.627   7.567 -0.9534  1.1389 -0.2345
 9404SOL     OW39670   0.117   3.886   3.628 -0.4985  0.1666 -0.7225
 9404SOL    HW139671   0.108   3.977   3.601  0.3539  1.1800  2.4245
 9404SOL    HW239672   0.040   3.844   3.589 -0.0759 -0.4864 -0.8734
 9405SOL     OW39673   2.789   3.734   2.624 -0.6861  0.2284  0.1739
 9405SOL    HW139674   2.758   3.675   2.556 -0.4396 -0.1173  0.3594
 9405SOL    HW239675   2.708   3.772   2.657 -0.3012  1.3209 -0.1298
 9406SOL     OW39676   3.394   2.754  16.574  0.2033 -0.1954 -0.1351
 9406SOL    HW139677   3.390   2.668  16.618 -0.2221  0.4410  1.0692
 9406SOL    HW239678   3.485   2.774  16.598 -0.1927 -1.1803  2.2558
 9407SOL     OW39679   4.347   4.176   5.105  0.4960 -0.0246 -0.0933
 9407SOL    HW139680   4.338   4.250   5.164 -0.5541 -0.8553  0.7734
 9407SOL    HW239681   4.258   4.175   5.070 -0.0349 -3.0745  1.3300
 9408SOL     OW39682   0.434   1.269   6.918 -0.8905 -0.1361  0.8447
 9408SOL    HW139683   0.419   1.273   7.013 -1.0562  2.7486  0.6955
 9408SOL    HW239684   0.358   1.317   6.886  1.7244  1.4540 -2.8946
 9409SOL     OW39685   0.057   0.151   6.518 -0.8377 -0.0077  0.7601
 9409SOL    HW139686   0.087   0.215   6.583  3.9732  0.3828 -1.8426
 9409SOL    HW239687   0.060   0.074   6.575 -1.0568 -0.7002 -0.1576
 9410SOL     OW39688   1.526   1.074   0.972 -0.6197  0.0508 -0.3508
 9410SOL    HW139689   1.516   0.984   0.940 -1.3741 -0.0039  0.0293
 9410SOL    HW239690   1.452   1.072   1.033 -0.5032  1.0086 -0.1826
 9411SOL     OW39691   2.085   2.813   7.672  0.2383 -1.0774 -0.1543
 9411SOL    HW139692   2.053   2.902   7.690  0.8859 -0.7368 -0.6928
 9411SOL    HW239693   2.022   2.774   7.612  1.7950 -2.7947 -0.6750
 9412SOL     OW39694   2.003   1.487   5.837  0.4314 -0.2444  0.3100
 9412SOL    HW139695   2.064   1.426   5.878  0.5054  0.4800  1.2907
 9412SOL    HW239696   2.005   1.463   5.745 -0.5085  1.3135 -0.1221
 9413SOL     OW39697   0.461   2.575   1.966 -0.2472 -0.0629  0.5649
 9413SOL    HW139698   0.544   2.535   1.991 -0.8734 -2.0556 -0.5348
 9413SOL    HW239699   0.466   2.653   2.021 -0.1520 -0.9696  1.8301
 9414SOL     OW39700   2.038   1.456   6.579 -0.0543 -0.5188  0.1732
 9414SOL    HW139701   2.114   1.403   6.556 -1.7074 -2.5572 -0.5792
 9414SOL    HW239702   1.986   1.390   6.625 -0.0499 -0.4745  0.2426
 9415SOL     OW39703   1.310   2.285   1.830 -0.1622 -0.0655  0.4840
 9415SOL    HW139704   1.275   2.199   1.853 -0.9634 -0.0160 -0.5416
 9415SOL    HW239705   1.259   2.339   1.891 -0.7794 -2.0045  1.6685
 9416SOL     OW39706   0.495   1.890   8.387 -0.2662  0.2755  0.6289
 9416SOL    HW139707   0.588   1.905   8.368  0.1627 -1.6130  1.3185
 9416SOL    HW239708   0.482   1.899   8.481  0.3017  3.1927  0.4455
 9417SOL     OW39709   4.328   4.181   4.168 -0.4302 -1.0564 -0.3769
 9417SOL    HW139710   4.384   4.232   4.110  0.4000 -0.3327  1.0836
 9417SOL    HW239711   4.243   4.225   4.157 -0.8479 -1.8314 -0.2589
 9418SOL     OW39712   0.267   3.948   8.872 -0.1243  0.8423 -0.8327
 9418SOL    HW139713   0.228   3.900   8.946  0.4833 -1.1776 -1.8273
 9418SOL    HW239714   0.347   3.988   8.906  0.4010 -0.4669 -0.5248
 9419SOL     OW39715   3.099   2.089   3.516 -0.5920 -0.7738 -0.2420
 9419SOL    HW139716   3.129   2.174   3.482 -1.3739  0.5142  2.2780
 9419SOL    HW239717   3.158   2.033   3.466  0.4682 -1.9797  2.3575
 9420SOL     OW39718   2.367   0.165   4.859  0.1411 -0.4964 -0.3159
 9420SOL    HW139719   2.394   0.255   4.838 -0.2623 -0.5932 -1.2754
 9420SOL    HW239720   2.445   0.135   4.906  0.3468 -0.4662 -0.6325
 9421SOL     OW39721   0.155   3.362   5.255 -0.2643  0.2392  0.1940
 9421SOL    HW139722   0.155   3.457   5.270  1.8736  0.2847 -0.1163
 9421SOL    HW239723   0.108   3.327   5.331  1.1842  0.5872  1.2374
 9422SOL     OW39724   2.560   2.762   8.477  0.1069 -0.0921 -0.1699
 9422SOL    HW139725   2.600   2.804   8.401 -0.9502  0.6321 -0.3161
 9422SOL    HW239726   2.614   2.793   8.550 -0.4475  0.2738  0.0793
 9423SOL     OW39727   3.798   1.936  11.250  0.0053  0.2607  0.1367
 9423SOL    HW139728   3.789   1.956  11.344 -0.4190 -1.6729  0.4958
 9423SOL    HW239729   3.794   2.026  11.216  1.0624  0.9629  1.8346
 9424SOL     OW39730   2.578   4.630   5.859 -0.3007  0.1484  0.1413
 9424SOL    HW139731   2.576   4.699   5.925 -1.0451  0.0432  0.2237
 9424SOL    HW239732   2.497   4.586   5.884  0.1389 -0.6064  0.2446
 9425SOL     OW39733   1.449   2.052   0.889 -0.1667 -0.0717 -0.3438
 9425SOL    HW139734   1.501   2.099   0.824 -1.7447  1.4134 -0.5083
 9425SOL    HW239735   1.395   2.125   0.917  0.0117  0.3037 -0.9846
 9426SOL     OW39736   4.035   0.227   5.407 -0.3681 -0.5444  1.0901
 9426SOL    HW139737   4.055   0.167   5.479  2.6334  0.8619  1.4295
 9426SOL    HW239738   4.010   0.304   5.457 -2.2081  0.8823 -2.0235
 9427SOL     OW39739   3.682   1.630   7.267 -0.2576  0.0411  0.9304
 9427SOL    HW139740   3.618   1.598   7.331  0.6379 -2.8725  0.3417
 9427SOL    HW239741   3.755   1.653   7.324  1.8319 -1.9649 -0.9254
 9428SOL     OW39742   1.977   0.434   9.393 -0.0123  0.9562  0.1770
 9428SOL    HW139743   1.989   0.516   9.440 -0.5645  1.3349 -0.3512
 9428SOL    HW239744   2.045   0.379   9.433 -0.4043  0.3091 -0.0385
 9429SOL     OW39745   0.256   0.212   8.657 -0.4942  0.7615 -0.6143
 9429SOL    HW139746   0.208   0.140   8.697  0.5177 -0.1382 -0.9952
 9429SOL    HW239747   0.253   0.177   8.567  1.3036 -0.4141 -0.2191
 9430SOL     OW39748   2.648   4.250   0.439 -0.1519 -0.3947  0.0662
 9430SOL    HW139749   2.567   4.206   0.413 -0.7014  1.0231 -0.6425
 9430SOL    HW239750   2.712   4.178   0.436 -1.3351 -1.4531  0.4669
 9431SOL     OW39751   0.794   4.072  12.139 -0.0068 -0.1584  0.0719
 9431SOL    HW139752   0.877   4.055  12.095  0.1818  0.1563  0.3048
 9431SOL    HW239753   0.752   3.989  12.118  2.5073 -1.8593  1.8452
 9432SOL     OW39754   3.599   4.512  14.885 -0.2670  0.4672 -0.6298
 9432SOL    HW139755   3.604   4.583  14.949  0.3690  0.4543 -0.6699
 9432SOL    HW239756   3.689   4.479  14.885 -0.1239  0.8767  0.5192
 9433SOL     OW39757   1.377   3.542   6.945 -0.1743  0.3869 -0.1659
 9433SOL    HW139758   1.356   3.501   6.861 -0.4058 -1.6754  0.8824
 9433SOL    HW239759   1.294   3.538   6.992  0.1618 -2.3447  0.2090
 9434SOL     OW39760   1.210   0.465   6.833  0.6204 -0.9683  0.1797
 9434SOL    HW139761   1.115   0.456   6.826  0.3345  3.1819 -1.1213
 9434SOL    HW239762   1.227   0.549   6.790  0.5336 -0.8995  0.2800
 9435SOL     OW39763   0.138   3.879   2.083  0.4828  0.2898  0.5624
 9435SOL    HW139764   0.221   3.909   2.120 -1.6255  0.6089  5.0630
 9435SOL    HW239765   0.175   3.808   2.030 -0.8114  1.0524 -1.3265
 9436SOL     OW39766   3.243   1.304   7.891 -0.0423 -0.1699 -0.2700
 9436SOL    HW139767   3.215   1.219   7.926 -0.6707  1.5656  3.4569
 9436SOL    HW239768   3.158   1.348   7.890 -1.0136 -2.0060  1.5273
 9437SOL     OW39769   2.035   0.512  14.910 -0.0829  0.2050 -0.3863
 9437SOL    HW139770   2.123   0.537  14.938 -0.0191  2.5853 -2.6554
 9437SOL    HW239771   2.052   0.418  14.915 -0.4551  0.2616  1.8793
 9438SOL     OW39772   3.254   1.094  14.481 -0.4216  0.2150 -0.0518
 9438SOL    HW139773   3.163   1.068  14.499 -0.1315  1.5697  3.3327
 9438SOL    HW239774   3.272   1.082  14.388 -0.7738  1.5651 -0.2916
 9439SOL     OW39775   2.095   4.169   4.419 -0.2611 -0.1640  0.9320
 9439SOL    HW139776   2.119   4.261   4.407  0.6109 -0.2962  1.6295
 9439SOL    HW239777   2.158   4.119   4.367  2.4071  1.6267  2.4169
 9440SOL     OW39778   2.261   2.488  14.323  0.4563  0.5150 -0.5889
 9440SOL    HW139779   2.258   2.397  14.294 -2.3005 -0.4436  2.7138
 9440SOL    HW239780   2.219   2.482  14.409 -0.8937 -0.5432 -1.3147
 9441SOL     OW39781   2.359   1.794  15.617 -0.4878 -0.2112  0.5660
 9441SOL    HW139782   2.290   1.787  15.684 -1.1963  0.6963 -0.0741
 9441SOL    HW239783   2.404   1.874  15.642 -2.7374  1.5022 -0.9816
 9442SOL     OW39784   4.074   1.778   7.466 -0.2442 -0.0595  0.1872
 9442SOL    HW139785   3.991   1.825   7.468  0.6196  1.4630 -0.3067
 9442SOL    HW239786   4.102   1.781   7.557  0.5688 -1.1726 -0.0253
 9443SOL     OW39787   2.459   1.601   8.569  0.4152  0.0991 -0.0593
 9443SOL    HW139788   2.533   1.545   8.547  0.8421 -0.1280  1.9261
 9443SOL    HW239789   2.432   1.568   8.655  1.1522  0.7609  0.4232
 9444SOL     OW39790   2.793   1.981   6.666  0.6309 -0.2872 -0.1913
 9444SOL    HW139791   2.887   2.001   6.662  0.0391  2.5160  0.2991
 9444SOL    HW239792   2.804   1.902   6.720 -1.5559 -0.2231  0.3381
 9445SOL     OW39793   4.039   0.094   6.625  0.2952 -0.2747 -0.1059
 9445SOL    HW139794   4.054   0.113   6.718  0.9662 -0.4095 -0.1923
 9445SOL    HW239795   4.072   0.005   6.622 -0.9306 -0.7727  0.9309
 9446SOL     OW39796   4.324   0.237   0.148  0.1629 -0.1209 -0.0110
 9446SOL    HW139797   4.372   0.161   0.182 -0.0454 -0.7874 -1.1687
 9446SOL    HW239798   4.372   0.306   0.193 -1.0931 -0.5821  2.0313
 9447SOL     OW39799   0.580   0.402   7.428 -0.2871 -0.4133  0.1690
 9447SOL    HW139800   0.548   0.490   7.449 -1.9317 -1.4998  2.1714
 9447SOL    HW239801   0.516   0.365   7.367 -1.5437  2.1445 -0.0827
 9448SOL     OW39802   1.556   0.109  17.556 -0.0600  0.0582 -0.2792
 9448SOL    HW139803   1.610   0.106  17.635  2.4347  1.5167 -1.9426
 9448SOL    HW239804   1.488   0.044  17.574 -0.0050  0.0720 -0.0243
 9449SOL     OW39805   4.518   1.521   2.534  0.3001  0.2141 -0.0774
 9449SOL    HW139806   4.576   1.591   2.564  0.7463  0.3808 -1.3472
 9449SOL    HW239807   4.473   1.558   2.458  0.3016 -0.8664 -0.5988
 9450SOL     OW39808   1.997   3.563   8.123  0.5622  0.0969  0.2938
 9450SOL    HW139809   1.943   3.642   8.116  0.8663  0.1557 -1.4127
 9450SOL    HW239810   1.983   3.545   8.216 -3.5607 -0.9392 -0.5207
 9451SOL     OW39811   4.284   1.381  16.531  0.4290  0.1157 -0.1082
 9451SOL    HW139812   4.294   1.355  16.439  2.7064  0.5096  0.0104
 9451SOL    HW239813   4.325   1.468  16.527  2.1579 -0.7681 -2.1529
 9452SOL     OW39814   0.301   1.298   7.171 -0.4537  0.5179 -0.3166
 9452SOL    HW139815   0.219   1.320   7.128 -0.2760  3.0047  0.6068
 9452SOL    HW239816   0.285   1.335   7.258  1.5840 -0.6149  0.5347
 9453SOL     OW39817   3.723   0.615   6.047  0.0309 -0.4697  0.4624
 9453SOL    HW139818   3.788   0.683   6.060  0.5087 -0.5929 -1.3073
 9453SOL    HW239819   3.649   0.665   6.013 -0.1151 -1.0281 -0.0389
 9454SOL     OW39820   0.432   2.877   5.427 -0.0808 -0.2001  0.3137
 9454SOL    HW139821   0.372   2.880   5.502  0.6185  0.2960  0.8394
 9454SOL    HW239822   0.426   2.784   5.403  0.3651  0.1691 -1.1985
 9455SOL     OW39823   1.758   4.054   9.491 -0.1349 -0.0177  0.4152
 9455SOL    HW139824   1.807   4.127   9.454 -0.6302 -0.8354 -1.8321
 9455SOL    HW239825   1.751   4.085   9.581  1.4297  0.9171  0.2094
 9456SOL     OW39826   0.281   2.270  13.033  0.6498  0.3580  0.1533
 9456SOL    HW139827   0.261   2.187  13.075 -1.0320  0.1246 -1.1389
 9456SOL    HW239828   0.213   2.330  13.065  0.6470  0.0056  0.8070
 9457SOL     OW39829   3.531   2.926   1.845  0.4976 -0.1248  0.0364
 9457SOL    HW139830   3.561   3.017   1.845 -1.0517  0.3882  1.3579
 9457SOL    HW239831   3.496   2.913   1.757 -3.8543  0.4172  1.7346
 9458SOL     OW39832   0.109   2.666   4.013  0.2694 -0.2197 -0.0352
 9458SOL    HW139833   0.166   2.735   3.979  0.1331  0.4760  1.1408
 9458SOL    HW239834   0.169   2.600   4.048  0.2244 -0.9796 -1.3812
 9459SOL     OW39835   1.407   2.953   1.119  0.3608 -0.0180 -0.0371
 9459SOL    HW139836   1.321   2.992   1.101  1.1091  1.1304 -1.1319
 9459SOL    HW239837   1.459   3.026   1.086 -0.5935  1.3394  1.5040
 9460SOL     OW39838   4.330   1.546   3.748 -0.2707  0.0591  0.5496
 9460SOL    HW139839   4.315   1.528   3.841 -1.2463  0.4313  0.4628
 9460SOL    HW239840   4.406   1.604   3.754  0.9757 -1.7130  1.7332
 9461SOL     OW39841   1.209   0.228  15.861 -0.4193 -0.3348  0.3580
 9461SOL    HW139842   1.267   0.276  15.802 -1.1493  0.0480 -0.0527
 9461SOL    HW239843   1.124   0.244  15.821 -0.0233 -0.9833 -0.7590
 9462SOL     OW39844   0.487   3.824   5.104 -0.0537 -0.1145  0.3426
 9462SOL    HW139845   0.571   3.857   5.136 -0.7399 -1.2309  3.3506
 9462SOL    HW239846   0.437   3.854   5.179  0.7742 -0.4416  1.0355
 9463SOL     OW39847   3.883   2.130   6.504  0.4056  0.1644 -0.0484
 9463SOL    HW139848   3.793   2.107   6.525  0.2658  0.8901  0.1618
 9463SOL    HW239849   3.907   2.122   6.597  2.1181  1.2019 -0.3973
 9464SOL     OW39850   4.647   3.382   6.649  0.5789 -0.3787 -0.4011
 9464SOL    HW139851   4.564   3.429   6.637  0.8126 -0.0631 -0.7968
 9464SOL    HW239852   4.605   3.298   6.629  2.9411 -1.3905 -1.1029
 9465SOL     OW39853   1.410   0.253   9.910 -0.2535 -0.0859 -0.0375
 9465SOL    HW139854   1.470   0.179   9.915 -1.0991 -0.7265  0.6207
 9465SOL    HW239855   1.329   0.205   9.929 -0.0186  0.1499  1.5745
 9466SOL     OW39856   2.567   0.867   6.248  0.0718  0.0679  0.3701
 9466SOL    HW139857   2.528   0.888   6.333 -0.6299 -0.2350  0.1142
 9466SOL    HW239858   2.542   0.775   6.244  1.9874 -0.5069  1.3092
 9467SOL     OW39859   0.756   2.621  17.214 -0.0627 -0.0003  0.0704
 9467SOL    HW139860   0.833   2.565  17.223  1.4288  1.5756 -2.8416
 9467SOL    HW239861   0.753   2.626  17.119 -0.6499 -1.4017  0.0209
 9468SOL     OW39862   1.073   4.552  15.580 -0.1827  0.2730  0.4473
 9468SOL    HW139863   1.061   4.647  15.575 -1.5208  0.1473  1.2950
 9468SOL    HW239864   1.088   4.544  15.675 -1.2018  1.3339  0.7045
 9469SOL     OW39865   3.102   1.598  15.865  0.6648 -0.7693 -0.0479
 9469SOL    HW139866   3.056   1.592  15.949 -0.1127  0.0573 -0.4267
 9469SOL    HW239867   3.188   1.627  15.897  0.2130  0.2910  0.2067
 9470SOL     OW39868   3.262   2.740  12.482  0.6409 -0.5492  0.4094
 9470SOL    HW139869   3.328   2.677  12.452  0.4254  0.4443 -2.1383
 9470SOL    HW239870   3.225   2.771  12.400 -0.3866  1.3941  1.6139
 9471SOL     OW39871   4.702   3.673   9.369  0.5159  0.0215 -0.7639
 9471SOL    HW139872   4.681   3.735   9.440 -2.4818 -0.1242 -1.5193
 9471SOL    HW239873   4.613   3.652   9.342  0.5821 -2.4898  0.9365
 9472SOL     OW39874   2.517   0.258   6.418 -0.9714  0.9123 -0.2269
 9472SOL    HW139875   2.568   0.304   6.484 -1.2499 -1.9707  2.0095
 9472SOL    HW239876   2.430   0.248   6.458  0.1158 -1.6191  1.5149
 9473SOL     OW39877   3.530   4.273   8.737 -0.2949  0.1034  0.4150
 9473SOL    HW139878   3.457   4.322   8.698  1.2621  1.9339 -0.1663
 9473SOL    HW239879   3.588   4.344   8.765 -0.5628  0.8688 -1.0152
 9474SOL     OW39880   0.688   1.279   0.720  0.0980 -0.0665 -0.7641
 9474SOL    HW139881   0.701   1.246   0.631 -3.1832 -1.2779 -0.7999
 9474SOL    HW239882   0.762   1.339   0.732  0.4021 -0.3397 -1.2485
 9475SOL     OW39883   1.196   4.656  14.818  0.4803 -0.2541 -0.4651
 9475SOL    HW139884   1.240   4.573  14.799  1.3327  0.3197 -0.9920
 9475SOL    HW239885   1.150   4.667  14.735 -1.3883 -0.9406  0.4778
 9476SOL     OW39886   2.626   3.607   3.196 -0.6166  0.5616  0.4790
 9476SOL    HW139887   2.600   3.553   3.121  0.2767  1.1635 -0.2652
 9476SOL    HW239888   2.663   3.686   3.156 -1.2056  0.7042  0.2163
 9477SOL     OW39889   2.657   3.340   8.108 -0.3452 -0.5293 -0.3866
 9477SOL    HW139890   2.579   3.379   8.069  1.0021  1.7853 -0.7222
 9477SOL    HW239891   2.627   3.311   8.194  1.1779 -1.9754 -0.3404
 9478SOL     OW39892   4.001   3.168   3.539 -0.0127  0.6882  0.6503
 9478SOL    HW139893   3.982   3.259   3.561  1.1933  0.6309  1.9577
 9478SOL    HW239894   4.003   3.158   3.444 -0.2312 -0.5989  0.7781
 9479SOL     OW39895   1.946   4.487  15.551  0.0063  0.2615  0.1713
 9479SOL    HW139896   2.014   4.542  15.590  0.4268  1.1976 -1.8704
 9479SOL    HW239897   1.886   4.542  15.499 -0.0590 -0.2416 -0.2834
 9480SOL     OW39898   1.844   4.067   7.645  0.0394 -0.0622  0.0438
 9480SOL    HW139899   1.924   4.118   7.634  1.1261 -1.4418  1.5587
 9480SOL    HW239900   1.784   4.142   7.643  2.3273  1.7968  0.7505
 9481SOL     OW39901   4.297   1.778   0.906  0.4063 -0.2300 -0.0778
 9481SOL    HW139902   4.389   1.802   0.910  0.2193  0.5896 -0.6712
 9481SOL    HW239903   4.290   1.773   0.811 -1.2532  3.2352 -0.1378
 9482SOL     OW39904   1.468   1.813  16.095 -0.0004  0.0610  0.3224
 9482SOL    HW139905   1.459   1.907  16.115 -0.5420 -0.3921  2.2215
 9482SOL    HW239906   1.404   1.769  16.150  0.9649 -1.9115 -0.1442
 9483SOL     OW39907   3.897   1.368   4.365  0.1274  0.0672  0.3273
 9483SOL    HW139908   3.947   1.385   4.286 -0.2018  0.4198  0.1900
 9483SOL    HW239909   3.809   1.360   4.327 -0.0459 -1.1030  0.9601
 9484SOL     OW39910   3.254   1.575  14.876 -0.0930 -0.1938 -0.1155
 9484SOL    HW139911   3.343   1.596  14.849  0.6130 -1.1021  1.4941
 9484SOL    HW239912   3.261   1.585  14.971 -0.4856 -0.0301 -0.1017
 9485SOL     OW39913   0.598   4.161   6.277  0.2159 -0.1996  0.4624
 9485SOL    HW139914   0.608   4.243   6.325 -1.4339 -0.6203  1.5628
 9485SOL    HW239915   0.596   4.195   6.188  0.9962  0.5351  0.7294
 9486SOL     OW39916   1.997   0.471   6.830 -0.4616  0.1867 -0.6213
 9486SOL    HW139917   1.958   0.534   6.891 -2.4674  0.0090 -1.7115
 9486SOL    HW239918   1.977   0.383   6.861 -0.5208 -0.8585 -3.6067
 9487SOL     OW39919   2.742   0.113   8.044  0.3560 -0.3375 -0.3519
 9487SOL    HW139920   2.786   0.048   8.099 -1.3286 -0.4909  0.8041
 9487SOL    HW239921   2.736   0.182   8.110 -1.1825 -1.7147  0.9254
 9488SOL     OW39922   3.929   2.883  11.270 -0.0760 -0.4269  0.5583
 9488SOL    HW139923   3.922   2.973  11.302 -0.7432  0.4905 -2.2301
 9488SOL    HW239924   3.870   2.825  11.319  0.9876 -0.1095  2.2262
 9489SOL     OW39925   2.050   0.071   6.404  0.7627  0.1469  0.3842
 9489SOL    HW139926   2.067   4.717   6.347  0.8253 -1.1897  2.1810
 9489SOL    HW239927   1.974   0.040   6.453  0.7553  2.4356  1.8080
 9490SOL     OW39928   2.267   1.151   7.100 -0.4320  0.0535  0.2070
 9490SOL    HW139929   2.344   1.094   7.093  1.4465  2.5537  0.4021
 9490SOL    HW239930   2.208   1.109   7.037  1.5542 -0.3342 -1.4116
 9491SOL     OW39931   1.551   2.999   8.991  0.2757 -0.1475  1.3272
 9491SOL    HW139932   1.496   3.074   9.012  0.8176  0.3431  0.9913
 9491SOL    HW239933   1.623   3.044   8.946  1.0068 -1.9610  0.6943
 9492SOL     OW39934   2.778   2.393   1.456 -0.2187 -0.1514 -0.0249
 9492SOL    HW139935   2.872   2.383   1.444 -0.3928 -2.3358  0.5239
 9492SOL    HW239936   2.781   2.357   1.545 -0.1074  2.3884  1.0271
 9493SOL     OW39937   0.079   2.451   2.427  0.6518 -0.2685  0.3884
 9493SOL    HW139938   0.099   2.358   2.430 -0.3326 -0.4629  1.0039
 9493SOL    HW239939   0.148   2.485   2.370  0.0406  0.4352  0.0633
 9494SOL     OW39940   2.563   2.639   0.872  0.0758 -0.5973  0.1813
 9494SOL    HW139941   2.528   2.710   0.926  1.4917 -0.5213  0.9874
 9494SOL    HW239942   2.596   2.583   0.942  0.2163 -0.4762  0.2107
 9495SOL     OW39943   2.651   1.680  16.559  0.2992 -0.0163  0.0701
 9495SOL    HW139944   2.713   1.744  16.523 -0.8554  0.7974 -0.4820
 9495SOL    HW239945   2.620   1.723  16.639  3.0435  0.7207  0.7487
 9496SOL     OW39946   0.936   4.193   9.325  0.5978 -0.0335  0.1126
 9496SOL    HW139947   1.000   4.185   9.395  0.1157  3.6291  0.9674
 9496SOL    HW239948   0.959   4.255   9.256  0.4210 -0.7163 -0.5613
 9497SOL     OW39949   3.861   3.746   4.432 -0.1282  0.0932 -0.1077
 9497SOL    HW139950   3.830   3.666   4.474  1.2746  0.0625  0.8487
 9497SOL    HW239951   3.946   3.751   4.475 -0.9314  1.4816  1.3004
 9498SOL     OW39952   0.569   3.486  10.550 -0.1076 -0.1145 -0.3327
 9498SOL    HW139953   0.627   3.536  10.607 -1.1141 -1.1340  1.6027
 9498SOL    HW239954   0.519   3.445  10.621 -1.8056 -0.5798 -1.7939
 9499SOL     OW39955   1.281   3.859   5.445 -0.0149  0.4104 -0.1340
 9499SOL    HW139956   1.201   3.880   5.494  0.1559  0.2243  0.2275
 9499SOL    HW239957   1.254   3.802   5.373 -0.6121  0.5105  0.0147
 9500SOL     OW39958   0.323   2.899   1.293  0.5991 -0.1879  0.1282
 9500SOL    HW139959   0.382   2.958   1.340 -0.7658  2.0213 -0.9126
 9500SOL    HW239960   0.375   2.831   1.250  1.3995  0.5370 -0.0476
 9501SOL     OW39961   0.035   2.581   5.664  0.5429 -0.1874  0.3238
 9501SOL    HW139962   4.691   2.531   5.615 -0.8486  1.1887  0.7745
 9501SOL    HW239963   0.021   2.563   5.757 -0.9557  1.4247  0.4060
 9502SOL     OW39964   3.291   0.947   6.696 -0.0171  0.1678  0.1215
 9502SOL    HW139965   3.272   1.026   6.747 -4.4786  0.4064 -1.9418
 9502SOL    HW239966   3.253   0.970   6.611  1.0597 -1.9333 -0.9479
 9503SOL     OW39967   0.295   2.258   4.298 -0.1771  0.0725 -0.0342
 9503SOL    HW139968   0.390   2.254   4.306 -0.1882 -0.7961 -0.2908
 9503SOL    HW239969   0.264   2.175   4.262  2.2537 -0.1498 -1.5562
 9504SOL     OW39970   0.658   2.258   4.024 -0.0561 -0.3491  0.4591
 9504SOL    HW139971   0.566   2.233   4.018 -0.4408  0.6549  2.2008
 9504SOL    HW239972   0.694   2.180   3.982 -1.5998 -0.9573  0.2423
 9505SOL     OW39973   0.337   0.028   3.531  0.4171  0.0834 -0.5209
 9505SOL    HW139974   0.394   0.089   3.579 -0.4751 -1.3679  2.3993
 9505SOL    HW239975   0.345   4.661   3.566  1.2089  0.7102  0.8869
 9506SOL     OW39976   1.398   0.489   5.715 -0.8655 -0.4073 -0.3820
 9506SOL    HW139977   1.325   0.548   5.698 -1.4704 -0.6375  1.4134
 9506SOL    HW239978   1.355   0.431   5.778 -0.7703  1.8848  1.8066
 9507SOL     OW39979   2.226   0.582   7.369  0.4185  0.3135  0.1451
 9507SOL    HW139980   2.168   0.634   7.425 -0.3023 -1.6379  1.1764
 9507SOL    HW239981   2.282   0.551   7.440 -1.4914  1.6843  2.2348
 9508SOL     OW39982   2.702   3.785  17.329 -0.4854  0.0601  0.7798
 9508SOL    HW139983   2.611   3.760  17.341 -0.1968 -1.6026 -0.3754
 9508SOL    HW239984   2.730   3.734  17.252 -1.1481 -1.8474  1.7951
 9509SOL     OW39985   1.506   3.864   5.611 -0.2678 -0.0900 -0.3464
 9509SOL    HW139986   1.430   3.859   5.553  1.5512  0.2736 -2.7599
 9509SOL    HW239987   1.542   3.949   5.586  0.6038 -0.3174  0.1447
 9510SOL     OW39988   4.634   2.311  10.661 -0.0673 -0.2995 -0.1516
 9510SOL    HW139989   4.710   2.364  10.682  1.3972 -1.8548 -1.5203
 9510SOL    HW239990   4.567   2.378  10.675  0.5777  0.2408  0.3644
 9511SOL     OW39991   3.710   0.376  15.897 -0.0168 -0.4169  0.1370
 9511SOL    HW139992   3.712   0.467  15.867  2.2623 -0.1382  1.1726
 9511SOL    HW239993   3.617   0.353  15.901 -0.6064  1.8149 -0.5765
 9512SOL     OW39994   3.503   1.531   7.453  0.0507 -0.5725 -0.1700
 9512SOL    HW139995   3.478   1.500   7.540  1.1900  0.9213  0.6772
 9512SOL    HW239996   3.455   1.612   7.470  2.9891  0.7012  2.0746
 9513SOL     OW39997   4.670   0.718   6.967  0.1951  0.3746  0.1402
 9513SOL    HW139998   4.619   0.652   6.919  0.5614  2.0583 -2.5660
 9513SOL    HW239999   4.664   0.788   6.902 -0.2010  1.7308  1.6435
 9514SOL     OW40000   2.269   4.158  16.533 -0.1756 -0.1445 -0.0625
 9514SOL    HW140001   2.247   4.200  16.616  0.7976 -0.3337  0.2959
 9514SOL    HW240002   2.177   4.134  16.525 -0.2646  0.3638 -0.5278
 9515SOL     OW40003   1.611   0.805   3.361  0.1483  0.2386 -0.1720
 9515SOL    HW140004   1.640   0.714   3.366 -1.6403 -0.3813 -1.2073
 9515SOL    HW240005   1.532   0.799   3.415  0.6224  0.0813  0.5155
 9516SOL     OW40006   0.410   1.065   5.911 -1.0312 -0.5604  0.0636
 9516SOL    HW140007   0.434   0.973   5.904 -0.1342 -0.4397  1.5867
 9516SOL    HW240008   0.388   1.083   6.002 -0.9722  1.2829 -0.2919
 9517SOL     OW40009   3.008   1.270   8.990 -0.3046  0.2731 -0.1332
 9517SOL    HW140010   2.993   1.176   9.000  0.8787 -0.0780 -1.6718
 9517SOL    HW240011   3.103   1.273   8.991 -0.2260 -2.1070  0.4946
 9518SOL     OW40012   4.200   0.473  15.019  0.0898 -0.1296 -0.6515
 9518SOL    HW140013   4.181   0.392  14.972 -0.3043  0.3777 -1.3795
 9518SOL    HW240014   4.218   0.533  14.946  0.1433 -0.1007 -0.6147
 9519SOL     OW40015   2.470   0.313   8.615 -0.7066  0.1873  0.1769
 9519SOL    HW140016   2.496   0.221   8.616 -0.8396  0.1714  1.5149
 9519SOL    HW240017   2.382   0.307   8.577 -0.5587  1.0231 -0.3118
 9520SOL     OW40018   0.869   3.686   7.650 -0.2982  0.2175  0.3059
 9520SOL    HW140019   0.867   3.598   7.613  0.6833  0.1433  0.4461
 9520SOL    HW240020   0.927   3.670   7.724  1.6457 -1.9599 -1.6984
 9521SOL     OW40021   4.633   2.749   7.406  0.4218  0.2617  0.0018
 9521SOL    HW140022   4.601   2.830   7.367  0.7141  1.5171  2.3898
 9521SOL    HW240023   4.714   2.720   7.363  1.0631 -0.2403  1.5426
 9522SOL     OW40024   0.889   1.824   5.414  0.2135 -0.5514  0.5500
 9522SOL    HW140025   0.972   1.809   5.370  0.4640  1.5582  0.2868
 9522SOL    HW240026   0.848   1.737   5.415 -1.3182  0.1174 -3.0811
 9523SOL     OW40027   4.692   3.121   6.102 -0.3535 -0.8301  0.8369
 9523SOL    HW140028   0.039   3.107   6.169  1.5741 -2.0580 -1.3565
 9523SOL    HW240029   4.658   3.209   6.116  0.2289 -0.6508  1.1118
 9524SOL     OW40030   2.122   1.968  11.480 -0.1106  0.1178 -0.1507
 9524SOL    HW140031   2.053   2.029  11.452  1.9130  1.3592 -2.4005
 9524SOL    HW240032   2.116   1.889  11.426 -3.1678  0.6493 -0.6071
 9525SOL     OW40033   0.546   2.257  11.128  0.2807 -0.5371 -0.0146
 9525SOL    HW140034   0.556   2.219  11.215 -0.3914 -0.7651 -0.0320
 9525SOL    HW240035   0.454   2.286  11.132  0.0620 -1.0070 -1.4199
 9526SOL     OW40036   3.089   2.249  17.279 -0.0070 -0.0202 -0.4117
 9526SOL    HW140037   3.024   2.246  17.349 -0.4334  1.5126 -0.7273
 9526SOL    HW240038   3.105   2.343  17.287 -0.5422  0.1761 -1.7514
 9527SOL     OW40039   3.366   4.348   5.101  0.0605  0.1648  0.7951
 9527SOL    HW140040   3.304   4.378   5.035 -0.9378  0.2027  1.7632
 9527SOL    HW240041   3.375   4.440   5.124 -0.7040 -0.5533  3.8571
 9528SOL     OW40042   1.594   3.102   7.310  0.0654  0.0548  0.3436
 9528SOL    HW140043   1.610   3.043   7.384 -1.3048  1.1523  1.5088
 9528SOL    HW240044   1.562   3.045   7.240 -1.6216  1.8721 -0.3286
 9529SOL     OW40045   4.705   2.138   3.293 -0.7602  0.0002  0.0301
 9529SOL    HW140046   4.657   2.058   3.314 -1.7227  0.7655  0.7457
 9529SOL    HW240047   4.668   2.142   3.205 -2.3374  1.7189  0.7730
 9530SOL     OW40048   1.552   2.816   4.395 -0.5258 -0.0027 -0.1428
 9530SOL    HW140049   1.536   2.903   4.358 -0.3848 -0.0049 -0.2087
 9530SOL    HW240050   1.464   2.784   4.412 -1.4981  1.9869 -1.4933
 9531SOL     OW40051   2.174   3.353   5.020  0.0910 -0.3823 -0.3230
 9531SOL    HW140052   2.100   3.336   5.080  1.4465 -0.7713  1.2312
 9531SOL    HW240053   2.131   3.371   4.936  0.2092  1.3526 -0.0122
 9532SOL     OW40054   3.576   0.374  17.484 -0.1716  0.0357 -0.0825
 9532SOL    HW140055   3.664   0.370  17.522  0.3145 -0.4682 -1.2592
 9532SOL    HW240056   3.591   0.308  17.416 -1.1908  1.4803 -1.7030
 9533SOL     OW40057   4.189   0.056   1.642  0.0372  0.1428 -0.3925
 9533SOL    HW140058   4.223   0.141   1.668 -0.2270 -0.2653  1.2692
 9533SOL    HW240059   4.143   0.027   1.721 -0.2008 -1.5754 -1.1620
 9534SOL     OW40060   0.453   0.672  13.829 -0.2825 -0.7458  0.4799
 9534SOL    HW140061   0.385   0.620  13.787  0.2114 -1.2952  0.3551
 9534SOL    HW240062   0.473   0.712  13.744 -3.6037  1.0493  0.5338
 9535SOL     OW40063   1.187   1.962   4.457 -0.0136  0.2714 -0.6227
 9535SOL    HW140064   1.196   2.045   4.411 -0.6997 -1.0991 -3.2502
 9535SOL    HW240065   1.213   1.906   4.384  1.2463  0.0168  0.0229
 9536SOL     OW40066   0.247   0.413   6.208 -0.0834  0.5570  0.3206
 9536SOL    HW140067   0.206   0.330   6.229  0.2051  0.6386  1.2261
 9536SOL    HW240068   0.299   0.430   6.287 -2.8580 -0.8084  2.4193
 9537SOL     OW40069   3.017   3.358  10.113 -0.6761 -0.2301  0.3164
 9537SOL    HW140070   2.992   3.343  10.022 -0.5222  1.3428  0.0036
 9537SOL    HW240071   2.930   3.362  10.153 -0.7797  0.6172  0.0206
 9538SOL     OW40072   4.538   3.112   6.710  0.2183  0.5555  0.5474
 9538SOL    HW140073   4.451   3.071   6.708 -0.5114  2.0566  0.7717
 9538SOL    HW240074   4.597   3.040   6.731 -0.7560 -0.3793  0.0975
 9539SOL     OW40075   2.251   4.603   2.748 -0.1775  0.3329 -0.3518
 9539SOL    HW140076   2.292   4.610   2.662 -1.3401  0.0849 -0.9224
 9539SOL    HW240077   2.161   4.627   2.728 -0.2055  0.2871 -0.2793
 9540SOL     OW40078   3.184   0.102   8.005  0.0341 -0.1346 -0.1685
 9540SOL    HW140079   3.261   0.066   8.049  1.2092  1.0330 -1.2664
 9540SOL    HW240080   3.194   0.190   8.039  1.8518 -0.3429 -0.1686
 9541SOL     OW40081   3.258   3.593   6.680 -0.3028  0.2748 -0.7473
 9541SOL    HW140082   3.333   3.621   6.733 -1.0357 -0.3933  0.6535
 9541SOL    HW240083   3.190   3.632   6.736  2.6394 -0.4964  3.3862
 9542SOL     OW40084   2.356   3.763   8.503  0.5523  0.1755 -0.1103
 9542SOL    HW140085   2.266   3.764   8.537  0.6176 -0.8634  0.0949
 9542SOL    HW240086   2.363   3.671   8.479  0.0886 -0.1442  0.9346
 9543SOL     OW40087   0.884   0.872   5.590 -0.4421 -0.1957  0.0144
 9543SOL    HW140088   0.975   0.897   5.575 -0.5334  0.0365 -0.1468
 9543SOL    HW240089   0.863   0.832   5.506  0.9596  0.1458 -0.4995
 9544SOL     OW40090   3.485   4.332   6.635 -0.2657 -0.7845 -0.3482
 9544SOL    HW140091   3.510   4.424   6.641 -0.8925 -0.5204 -1.8518
 9544SOL    HW240092   3.542   4.299   6.705 -0.7631 -3.3479 -1.1395
 9545SOL     OW40093   3.517   2.597   8.931  0.4433  0.3654  0.0963
 9545SOL    HW140094   3.436   2.598   8.880 -0.0178 -0.3957  0.8088
 9545SOL    HW240095   3.585   2.569   8.870  0.5289 -0.3952  0.5447
 9546SOL     OW40096   0.436   0.414  17.282 -0.1213 -0.2626  0.3359
 9546SOL    HW140097   0.394   0.361  17.350 -0.0845 -0.6998  0.0139
 9546SOL    HW240098   0.494   0.345  17.250  0.9015  1.7693 -2.1873
 9547SOL     OW40099   0.760   0.960  14.032 -0.1288  0.2525 -0.4303
 9547SOL    HW140100   0.754   0.999  13.945 -1.9322  0.7958 -0.0706
 9547SOL    HW240101   0.844   0.999  14.056  1.7450 -3.6640 -0.6733
 9548SOL     OW40102   0.161   3.138   7.624 -0.1478 -0.0458 -0.0852
 9548SOL    HW140103   0.178   3.095   7.709 -0.9179  1.8533  1.0290
 9548SOL    HW240104   0.093   3.078   7.593  0.9101  0.1536 -2.7844
 9549SOL     OW40105   4.044   0.593   5.292 -0.3248 -0.1141 -0.8593
 9549SOL    HW140106   3.989   0.516   5.271 -0.6625  0.5929 -2.5518
 9549SOL    HW240107   3.987   0.643   5.351  0.6708 -0.0973  0.0739
 9550SOL     OW40108   1.882   3.330   0.979  0.7874 -0.2180  0.1267
 9550SOL    HW140109   1.879   3.246   1.026 -1.0344  0.3248  0.9907
 9550SOL    HW240110   1.807   3.369   1.025  0.2042 -0.3579 -0.7033
 9551SOL     OW40111   4.633   3.225   3.278 -1.1655 -0.1268 -0.4434
 9551SOL    HW140112   4.605   3.316   3.268 -0.5734  0.2897  1.6975
 9551SOL    HW240113   4.557   3.197   3.329 -1.9903  1.5757 -0.7415
 9552SOL     OW40114   0.641   1.882  16.120 -0.0118 -0.6737  0.1274
 9552SOL    HW140115   0.626   1.902  16.028  0.5091  1.1983  0.4447
 9552SOL    HW240116   0.721   1.932  16.139 -1.4540 -0.2719  5.1584
 9553SOL     OW40117   0.425   1.819   7.842  0.2006  0.6077  0.0457
 9553SOL    HW140118   0.491   1.884   7.865 -0.6959  1.2476  0.8118
 9553SOL    HW240119   0.352   1.834   7.902  2.1398 -3.5259  3.4220
 9554SOL     OW40120   0.049   3.216   4.216  0.7297  0.4957 -0.5036
 9554SOL    HW140121   0.117   3.205   4.282  0.9281 -1.2674 -0.9964
 9554SOL    HW240122   0.085   3.292   4.169  3.4188 -0.2622  0.3709
 9555SOL     OW40123   3.171   4.281  12.246 -0.2349  0.2039  0.2317
 9555SOL    HW140124   3.167   4.306  12.154  0.0091  1.2198  0.4982
 9555SOL    HW240125   3.219   4.356  12.282  0.8903  0.0021 -0.8435
 9556SOL     OW40126   3.263   0.862   9.628 -0.1100  0.0604  0.2539
 9556SOL    HW140127   3.201   0.910   9.574  0.8608 -0.7743 -1.5892
 9556SOL    HW240128   3.208   0.852   9.706 -0.4662  2.9802  0.3609
 9557SOL     OW40129   2.803   3.274   2.185 -0.5165  0.3207  0.2576
 9557SOL    HW140130   2.785   3.246   2.275 -2.1823  1.3471  0.2281
 9557SOL    HW240131   2.748   3.352   2.191  0.0664  0.7239  0.3310
 9558SOL     OW40132   3.411   0.834   1.399 -0.3830 -0.0519  0.1526
 9558SOL    HW140133   3.470   0.813   1.326  0.5555  1.6611  0.4427
 9558SOL    HW240134   3.470   0.856   1.470 -1.6975  1.3881  0.8144
 9559SOL     OW40135   2.189   2.073   6.239  0.3800  0.0148  0.3019
 9559SOL    HW140136   2.202   2.118   6.155  0.0931 -1.2848 -0.4474
 9559SOL    HW240137   2.274   2.090   6.279  0.3659  1.3774 -0.2176
 9560SOL     OW40138   0.093   4.498   8.492  0.0538 -0.0372 -0.2843
 9560SOL    HW140139   0.060   4.567   8.434  0.3026 -0.6938 -1.2157
 9560SOL    HW240140   0.019   4.500   8.554 -0.0766  2.6773 -0.5127
 9561SOL     OW40141   3.440   0.416   4.510 -0.2098  0.3169 -0.7419
 9561SOL    HW140142   3.493   0.484   4.553 -0.1087  0.2698 -0.7902
 9561SOL    HW240143   3.377   0.410   4.581  1.4544  1.1325  0.7987
 9562SOL     OW40144   2.887   3.588   5.914  0.1996 -0.4483 -0.6762
 9562SOL    HW140145   2.863   3.558   5.826 -0.3767  2.7805 -1.6390
 9562SOL    HW240146   2.802   3.603   5.957  1.1821  0.2952  0.9828
 9563SOL     OW40147   3.279   4.433   9.770 -0.3823 -0.4285  0.2842
 9563SOL    HW140148   3.212   4.432   9.838  0.5399 -0.4890  1.1925
 9563SOL    HW240149   3.358   4.419   9.822 -1.5896 -1.7963  1.7164
 9564SOL     OW40150   3.699   4.156  13.103  0.4908  0.6384  0.1963
 9564SOL    HW140151   3.792   4.140  13.091  0.0167 -0.3083 -2.1810
 9564SOL    HW240152   3.684   4.230  13.044  0.2787 -0.1780 -0.7618
 9565SOL     OW40153   2.308   2.833  17.199  0.2425  0.2413  0.3792
 9565SOL    HW140154   2.220   2.868  17.214 -0.6539 -0.3833 -3.4247
 9565SOL    HW240155   2.282   2.757  17.251  0.2573  1.6917  2.4727
   4.72094   4.72094  17.68621
