Membrane in water
40155
    1TCq1    O1    1   2.305   0.004  11.100 -0.4646  0.7190  0.5209
    1TCq1    C1    2   2.344   0.016  11.229 -0.2385  0.2692  0.2757
    1TCq1    O2    3   2.421   0.100  11.276  0.3766  0.5449 -0.0004
    1TCq1    C2    4   2.226   4.690  11.303  0.1746  0.7522  0.4228
    1TCq1    C3    5   2.185   0.012  11.426 -0.2458  0.8535 -0.1929
    1TCq1    C4    6   2.107   4.656  11.509 -1.0058 -1.0316 -0.3752
    1TCq1    C5    7   2.058   4.533  11.475 -0.5601 -0.5964  0.3942
    1TCq1    C6    8   2.090   4.496  11.347  0.4662  0.3687  0.4646
    1TCq1    C7    9   2.179   4.566  11.263  0.3900  0.6762 -0.3104
    1TCq1    C8   10   2.034   4.379  11.288  0.3098  0.0095  0.3591
    1TCq1    O4   11   2.083   4.332  11.188  0.5822 -0.2474  0.6569
    1TCq1    C9   12   2.083   4.709  11.639  0.3824 -0.3893  0.3472
    1TCq1    O5   13   2.037   4.632  11.728 -0.1860  0.3389 -0.3908
    1TCq1    O6   14   2.093   0.111  11.657 -0.2999  0.2153 -0.0920
    1TCq1    H1   15   2.222   4.677  11.083 -0.1731 -0.2387  1.9199
    1TCq1    H2   16   2.220   0.110  11.457 -1.8807  0.9956  1.2412
    1TCq1    H3   17   1.979   4.483  11.530 -1.4759 -1.0904 -1.3674
    1TCq1    H4   18   2.209   4.524  11.167 -0.4712 -1.9821  0.5873
    2MPD2     C   19   1.757   3.953  11.295 -0.2113 -0.6717  0.9198
    2MPD2    C1   20   1.707   4.033  11.386 -1.0363  0.1771  0.5869
    2MPD2    C2   21   1.770   4.145  11.421  0.3649 -0.6844 -0.6931
    2MPD2    C3   22   1.882   4.190  11.355  0.6016  0.8546 -0.1103
    2MPD2    C4   23   1.939   4.101  11.264  0.7054 -0.0909  0.1389
    2MPD2    C5   24   1.873   3.981  11.235 -0.6403 -0.1844 -0.0193
    2MPD2     H   25   1.716   4.212  11.486  0.5895 -1.0659 -0.1180
    2MPD2    H1   26   2.035   4.121  11.218  0.3278  2.2587  0.3572
    2MPD2    H2   27   1.707   3.862  11.265 -1.1554 -0.6678  2.5025
    2MPD2    H3   28   1.917   3.903  11.174 -1.1850 -1.1866  0.8568
    2MPD2     N   29   1.928   4.322  11.369  0.0949 -0.3636  0.4729
    2MPD2    H5   30   1.872   4.384  11.426  0.5889  1.6651 -1.2228
    2MPD2    N1   31   1.587   4.004  11.458 -0.7758  0.1472  0.4089
    2MPD2    H7   32   1.544   4.084  11.504  0.0526 -0.1291  1.6642
    3TCq1    O1   33   0.992   0.865  10.529  0.5942  0.2455  0.2887
    3TCq1    C1   34   1.110   0.860  10.585 -0.2502 -0.3068 -0.1381
    3TCq1    O2   35   1.218   0.889  10.537  0.6819  0.0614 -0.6944
    3TCq1    C2   36   1.105   0.766  10.693 -0.1637 -0.2444 -0.6019
    3TCq1    C3   37   1.198   0.791  10.791  0.0112 -0.2113  0.6502
    3TCq1    C4   38   1.184   0.718  10.906  0.4383  0.5120 -0.1619
    3TCq1    C5   39   1.094   0.626  10.924  0.3066  0.2053  0.0157
    3TCq1    C6   40   1.016   0.596  10.819 -0.2526  0.5354 -0.1268
    3TCq1    C7   41   1.013   0.665  10.705 -1.3133  0.6676  0.3623
    3TCq1    C8   42   0.933   0.483  10.830 -0.5600  1.0687 -0.2415
    3TCq1    O4   43   0.965   0.391  10.901  0.4582 -0.2311 -0.5006
    3TCq1    C9   44   1.277   0.747  11.014  0.6468  0.4012 -0.8014
    3TCq1    O5   45   1.255   0.696  11.128 -0.0170 -0.6680  0.4843
    3TCq1    O6   46   1.384   0.803  10.980 -0.1573 -0.7370 -1.1585
    3TCq1    H1   47   0.920   0.840  10.591 -0.8672  1.9467 -0.7512
    3TCq1    H2   48   1.249   0.886  10.784 -2.2418  0.9022 -0.6355
    3TCq1    H3   49   1.080   0.583  11.022 -1.4465 -0.1936 -0.4148
    3TCq1    H4   50   0.963   0.636  10.613  1.0064  1.1520 -1.0790
    4MPD2     C   51   0.533   0.213  10.628 -0.4444  0.3141  0.2522
    4MPD2    C1   52   0.521   0.346  10.582  0.1754  0.4698  0.2897
    4MPD2    C2   53   0.611   0.437  10.643 -0.6219  0.5875 -0.1576
    4MPD2    C3   54   0.724   0.399  10.725  0.3143 -0.1132 -0.4019
    4MPD2    C4   55   0.725   0.265  10.770 -0.0480 -0.6263  0.6516
    4MPD2    C5   56   0.627   0.173  10.724  0.0248 -0.3754 -0.0195
    4MPD2     H   57   0.613   0.540  10.611 -0.6035  0.3828 -0.8036
    4MPD2    H1   58   0.800   0.229  10.840  0.7229 -1.0499 -0.4010
    4MPD2    H2   59   0.458   0.141  10.599  0.9815 -1.5190  1.1081
    4MPD2    H3   60   0.617   0.070  10.756  1.0697 -0.7150 -0.7975
    4MPD2     N   61   0.822   0.495  10.739 -0.0986  0.5378 -0.1432
    4MPD2    H5   62   0.804   0.586  10.698 -1.7273  0.4439  0.3549
    4MPD2    N1   63   0.410   0.387  10.506  0.0621  0.0591  0.1634
    4MPD2    H7   64   0.397   0.486  10.487  2.4489  0.3020 -0.1555
    5TCq1    O1   65   0.165   1.879  11.083 -0.3784  0.2167 -0.5430
    5TCq1    C1   66   0.189   1.795  10.990 -0.0904  0.5541 -0.2771
    5TCq1    O2   67   0.106   1.740  10.921  0.3656 -0.2013  0.0618
    5TCq1    C2   68   0.326   1.785  10.959  0.0781  0.8136 -0.1518
    5TCq1    C3   69   0.421   1.797  11.060  0.4900 -0.2320 -0.2502
    5TCq1    C4   70   0.551   1.760  11.026  0.4443 -0.1536 -0.1770
    5TCq1    C5   71   0.574   1.707  10.905 -0.4249  0.0566  0.4460
    5TCq1    C6   72   0.473   1.664  10.815  0.1309  0.8625 -0.4566
    5TCq1    C7   73   0.352   1.715  10.841  0.2637 -0.4001  0.0309
    5TCq1    C8   74   0.504   1.581  10.699 -0.4843 -0.4454  0.1344
    5TCq1    O4   75   0.620   1.550  10.682 -0.4174 -0.4669  0.7408
    5TCq1    C9   76   0.662   1.774  11.115  0.1506 -0.4478  0.2644
    5TCq1    O5   77   0.764   1.715  11.080 -0.4744  0.7210 -0.1327
    5TCq1    O6   78   0.665   1.874  11.194  0.7564 -0.0304 -0.1557
    5TCq1    H1   79   0.241   1.940  11.096 -0.1247 -0.2405  0.1248
    5TCq1    H2   80   0.407   1.824  11.164  0.0858 -0.5718 -0.2169
    5TCq1    H3   81   0.677   1.680  10.881 -1.1179 -1.9742 -0.3042
    5TCq1    H4   82   0.275   1.706  10.765 -1.3864  3.1186  1.3258
    6MPD2     C   83   0.286   1.486  10.418 -0.3623  0.2543 -0.8153
    6MPD2    C1   84   0.403   1.483  10.494 -0.3531  0.4619  0.3274
    6MPD2    C2   85   0.516   1.416  10.448  0.5109 -0.3338  0.0675
    6MPD2    C3   86   0.514   1.345  10.330  0.2986  0.0024 -0.2199
    6MPD2    C4   87   0.400   1.356  10.250 -0.4152  1.1925  0.5946
    6MPD2    C5   88   0.287   1.426  10.298 -0.1548  0.1812  0.3613
    6MPD2     H   89   0.600   1.419  10.516  1.2886  1.3091 -0.9765
    6MPD2    H1   90   0.403   1.336  10.143  0.1753  1.5245  0.5499
    6MPD2    H2   91   0.198   1.533  10.461  0.7813  0.4831  1.2457
    6MPD2    H3   92   0.202   1.451  10.235 -1.1747  0.5579  1.9139
    6MPD2     N   93   0.633   1.278  10.287  1.2325 -0.3760 -0.3547
    6MPD2    H5   94   0.713   1.278  10.350 -1.5997 -0.1547  3.2491
    6MPD2    N1   95   0.395   1.554  10.616  0.5832 -0.4789 -0.8186
    6MPD2    H7   96   0.303   1.589  10.639 -0.7408 -3.2543 -2.0068
    7TCq1    O1   97   3.092   1.990  12.484 -0.1589 -0.4202 -0.1669
    7TCq1    C1   98   3.133   2.104  12.540  0.2348 -0.3997  0.0297
    7TCq1    O2   99   3.156   2.206  12.486 -0.0260 -0.1817  0.2581
    7TCq1    C2  100   3.122   2.107  12.685  0.4296 -0.0236 -0.4896
    7TCq1    C3  101   3.115   2.232  12.746 -0.4213 -0.1259 -0.8952
    7TCq1    C4  102   3.097   2.250  12.879  1.1325  0.2866  0.1655
    7TCq1    C5  103   3.087   2.135  12.955  0.5575  0.1102  0.2380
    7TCq1    C6  104   3.109   2.013  12.896  0.7760  0.3084 -0.1846
    7TCq1    C7  105   3.112   1.995  12.759  0.5585 -0.3882  0.5333
    7TCq1    C8  106   3.119   1.897  12.984 -0.1764  0.7485  0.1493
    7TCq1    O4  107   3.085   1.794  12.935  0.5678  0.3985 -0.6486
    7TCq1    C9  108   3.071   2.383  12.928  0.5098  0.3180  0.0150
    7TCq1    O5  109   3.048   2.396  13.049  0.0678 -0.2259  0.1150
    7TCq1    O6  110   3.039   2.472  12.837 -0.6529  0.1505 -0.6005
    7TCq1    H1  111   3.038   1.937  12.546  1.1094  0.0304  1.2997
    7TCq1    H2  112   3.136   2.321  12.687  1.0549  0.0757 -0.0462
    7TCq1    H3  113   3.079   2.155  13.061 -2.8088 -0.3788  0.0993
    7TCq1    H4  114   3.134   1.900  12.712 -2.9020 -0.9008 -0.0235
    8MPD2     C  115   3.345   1.635  13.356 -0.2416 -0.2375 -0.4146
    8MPD2    C1  116   3.249   1.591  13.266  0.2485 -0.6197  0.3550
    8MPD2    C2  117   3.198   1.682  13.174  0.0792 -0.0126  0.1627
    8MPD2    C3  118   3.223   1.823  13.190  0.1318 -0.4060 -0.2318
    8MPD2    C4  119   3.313   1.859  13.285  0.9459  0.8758 -0.4798
    8MPD2    C5  120   3.376   1.770  13.365  0.7806 -0.3526 -0.4282
    8MPD2     H  121   3.147   1.647  13.086  2.6916 -0.0975 -1.3201
    8MPD2    H1  122   3.333   1.965  13.295 -0.9135  1.1735  0.0202
    8MPD2    H2  123   3.397   1.568  13.424  0.8561 -0.4446 -1.4618
    8MPD2    H3  124   3.444   1.810  13.439  0.5236  1.5610 -1.2054
    8MPD2     N  125   3.190   1.921  13.099  0.3454 -0.4363 -0.1481
    8MPD2    H5  126   3.233   2.011  13.116 -1.0876  0.1320  0.3897
    8MPD2    N1  127   3.225   1.453  13.261 -0.4248 -0.6870  0.1886
    8MPD2    H7  128   3.278   1.397  13.327  0.0740  0.6602  0.9210
    9TCq1    O1  129   0.914   4.178  10.930  0.5522 -0.5621 -0.1520
    9TCq1    C1  130   0.980   4.239  11.029  0.5859 -0.2757 -0.0931
    9TCq1    O2  131   0.935   4.288  11.132  0.5582 -0.0360 -0.6911
    9TCq1    C2  132   1.120   4.252  10.988 -0.0944 -0.8718 -0.2869
    9TCq1    C3  133   1.162   4.181  10.883 -0.3068 -0.2882  0.3745
    9TCq1    C4  134   1.268   4.221  10.815  1.3532 -0.0157  0.2985
    9TCq1    C5  135   1.336   4.333  10.853 -0.7188 -0.0244  0.6459
    9TCq1    C6  136   1.295   4.403  10.964 -0.8803 -1.0501  0.1359
    9TCq1    C7  137   1.183   4.363  11.032  0.1091  0.1002 -0.1792
    9TCq1    C8  138   1.370   4.518  11.004 -0.1768 -0.2325  0.1599
    9TCq1    O4  139   1.456   4.563  10.933  0.1349 -0.1447  0.4150
    9TCq1    C9  140   1.301   4.142  10.700  0.1677  0.2258  0.0460
    9TCq1    O5  141   1.285   4.018  10.705  0.2300 -0.6280  0.7031
    9TCq1    O6  142   1.352   4.195  10.599 -0.5955  0.0631 -0.4728
    9TCq1    H1  143   0.956   4.160  10.843  2.9143  2.0330  0.4610
    9TCq1    H2  144   1.119   4.084  10.857 -1.0512  0.2915 -0.5494
    9TCq1    H3  145   1.423   4.370  10.799 -0.5287  1.3788  1.9375
    9TCq1    H4  146   1.135   4.416  11.114  0.1348  1.9763 -1.3814
   10MPD2     C  147   1.413   0.061  11.147  0.0507  0.0857 -0.5972
   10MPD2    C1  148   1.331   4.679  11.192 -0.0677  0.4017  0.0084
   10MPD2    C2  149   1.274   4.691  11.325  0.2861  0.9439  0.6142
   10MPD2    C3  150   1.284   0.087  11.394 -0.7614  0.5815 -0.0298
   10MPD2    C4  151   1.340   0.200  11.337 -0.6275 -0.1750  0.0128
   10MPD2    C5  152   1.413   0.187  11.218  0.8018 -0.2243  0.0941
   10MPD2     H  153   1.207   4.615  11.361  0.2741 -0.1689 -1.7449
   10MPD2    H1  154   1.337   0.295  11.390 -1.1759 -1.0703  1.5742
   10MPD2    H2  155   1.468   0.047  11.055 -1.6079  0.4717 -1.6601
   10MPD2    H3  156   1.469   0.269  11.176 -0.8277  1.1143  0.5197
   10MPD2     N  157   1.216   0.106  11.519  0.2724 -0.1298  0.4085
   10MPD2    H5  158   1.216   0.203  11.551 -3.2435  0.1520 -0.4941
   10MPD2    N1  159   1.325   4.556  11.125 -0.1408 -0.6231  0.1489
   10MPD2    H7  160   1.276   4.483  11.176 -0.3790  0.7099  1.8434
   11TCq1    O1  161   1.906   0.164  13.609 -0.1528  0.3070  0.2115
   11TCq1    C1  162   1.816   0.263  13.627  0.9595 -0.3372  0.2899
   11TCq1    O2  163   1.695   0.252  13.600 -0.1582  0.0526 -0.1059
   11TCq1    C2  164   1.864   0.308  13.749 -0.0922 -0.0712 -0.6425
   11TCq1    C3  165   1.988   0.363  13.757  0.1388 -0.4111 -0.3841
   11TCq1    C4  166   2.038   0.383  13.880 -0.3833 -0.8293 -0.6586
   11TCq1    C5  167   1.990   0.330  13.992 -0.1769 -0.0704  0.2659
   11TCq1    C6  168   1.872   0.262  13.987  0.0417 -0.2929  0.1016
   11TCq1    C7  169   1.805   0.254  13.865  0.6572 -0.3798  0.3551
   11TCq1    C8  170   1.852   0.168  14.097  0.3114  0.0515 -0.8894
   11TCq1    O4  171   1.942   0.159  14.179 -0.5495  0.5651 -0.1731
   11TCq1    C9  172   2.151   0.466  13.901 -0.4413  0.1002 -0.0417
   11TCq1    O5  173   2.226   0.496  13.799  0.2821  0.3119 -0.2116
   11TCq1    O6  174   2.168   0.515  14.014  0.5676  0.1262 -1.0626
   11TCq1    H1  175   1.967   0.177  13.684  0.7787  0.1862 -0.5198
   11TCq1    H2  176   2.033   0.421  13.677  5.2610 -0.1714  2.6423
   11TCq1    H3  177   2.047   0.332  14.085 -1.5125 -0.4387  1.0907
   11TCq1    H4  178   1.710   0.204  13.857 -0.1707  1.4116 -0.9860
   12MPD2     C  179   1.793   4.659  14.286  0.4567  0.9148  0.1848
   12MPD2    C1  180   1.718   4.699  14.174 -0.0613  0.0358  0.4884
   12MPD2    C2  181   1.605   4.622  14.139 -0.5083  0.1824 -0.2339
   12MPD2    C3  182   1.574   4.504  14.200 -0.2114 -0.0090 -0.6942
   12MPD2    C4  183   1.661   4.456  14.294  0.6193  0.4273 -0.3115
   12MPD2    C5  184   1.775   4.529  14.326  0.4382 -0.5574 -0.1151
   12MPD2     H  185   1.546   4.666  14.059 -0.0006  1.2234 -0.0346
   12MPD2    H1  186   1.642   4.360  14.341 -0.1905  1.1111  0.7518
   12MPD2    H2  187   1.878   4.712  14.327 -0.2862  2.1533  0.1185
   12MPD2    H3  188   1.854   4.499  14.394  0.3263  1.2081  0.8033
   12MPD2     N  189   1.461   4.420  14.165  0.2228 -0.7325  0.5025
   12MPD2    H5  190   1.456   4.326  14.203  1.8439 -0.4798  1.3712
   12MPD2    N1  191   1.737   0.093  14.094  0.4978  0.4613 -0.2554
   12MPD2    H7  192   1.672   0.117  14.020 -0.5895  2.3887  1.3217
   13TCq1    O1  193   1.820   4.537  10.946 -0.5528  0.4735 -0.5897
   13TCq1    C1  194   1.769   4.477  11.056 -0.1316 -0.8277  0.1556
   13TCq1    O2  195   1.767   4.526  11.167 -0.1330  0.5601 -0.3926
   13TCq1    C2  196   1.698   4.361  11.012 -0.2496  0.2581 -0.8048
   13TCq1    C3  197   1.731   4.295  10.894 -0.0770 -0.2705 -0.1546
   13TCq1    C4  198   1.665   4.179  10.862 -0.3020  0.1870  0.2099
   13TCq1    C5  199   1.576   4.125  10.950  0.7225 -0.1311  0.3877
   13TCq1    C6  200   1.559   4.190  11.068  0.0523  0.1981  0.4151
   13TCq1    C7  201   1.618   4.300  11.106 -0.1409  0.1216 -0.0572
   13TCq1    C8  202   1.440   4.160  11.152  0.2720 -0.6914 -0.1492
   13TCq1    O4  203   1.403   4.246  11.229  0.0670  0.4533 -0.1586
   13TCq1    C9  204   1.685   4.113  10.736  0.3154 -0.0730  0.6312
   13TCq1    O5  205   1.712   4.188  10.646  0.0541 -0.1699 -0.1037
   13TCq1    O6  206   1.623   4.004  10.711  0.0630  0.3820  0.1768
   13TCq1    H1  207   1.835   4.475  10.872 -0.9606  0.6499 -0.8234
   13TCq1    H2  208   1.802   4.343  10.829 -1.6702  0.4749 -1.3584
   13TCq1    H3  209   1.533   4.027  10.930  1.0954 -0.2972  0.3893
   13TCq1    H4  210   1.594   4.349  11.199  1.0870  0.1092  0.2727
   14MPD2     C  211   1.256   3.825  11.210 -0.1890 -0.0808  0.4370
   14MPD2    C1  212   1.281   3.968  11.213  0.4029 -0.0137  0.6833
   14MPD2    C2  213   1.191   4.046  11.276 -0.3382  0.3818  0.3214
   14MPD2    C3  214   1.078   3.995  11.323  0.1530  0.6026 -0.6337
   14MPD2    C4  215   1.038   3.861  11.308 -0.4134 -0.4286 -0.1980
   14MPD2    C5  216   1.133   3.775  11.259 -0.2333  0.4517  0.1872
   14MPD2     H  217   1.205   4.153  11.284 -0.2384  0.2934  1.3110
   14MPD2    H1  218   0.938   3.829  11.333 -0.5607 -0.8636 -1.3876
   14MPD2    H2  219   1.333   3.754  11.182 -0.7006 -0.9332  1.2331
   14MPD2    H3  220   1.104   3.675  11.231  2.2003 -0.9635  2.7340
   14MPD2     N  221   0.986   4.091  11.378  0.5884  0.1837 -0.2331
   14MPD2    H5  222   1.021   4.186  11.374  2.5109 -0.6331 -2.9375
   14MPD2    N1  223   1.397   4.027  11.148  0.2687 -0.2405  0.3147
   14MPD2    H7  224   1.437   3.957  11.086 -2.4240 -2.2401  0.8520
   15TCq1    O1  225   1.998   3.915   1.813  0.1477  0.8837 -0.1435
   15TCq1    C1  226   2.052   3.796   1.762 -0.5055 -0.6299  0.5354
   15TCq1    O2  227   2.065   3.772   1.646 -0.6098  0.3549 -0.3383
   15TCq1    C2  228   2.132   3.727   1.863  0.1550  0.1378  0.2541
   15TCq1    C3  229   2.140   3.773   1.991  0.1706 -1.0975 -0.3855
   15TCq1    C4  230   2.231   3.715   2.074 -0.9564  0.6921  0.2552
   15TCq1    C5  231   2.311   3.613   2.027 -0.4938 -0.4350  0.8685
   15TCq1    C6  232   2.311   3.573   1.898  0.1148  0.5396  0.7054
   15TCq1    C7  233   2.222   3.633   1.808 -0.3093 -0.4257 -0.1690
   15TCq1    C8  234   2.420   3.493   1.847  0.3836  0.6191 -0.4156
   15TCq1    O4  235   2.495   3.437   1.927 -0.2607 -0.9052  0.2452
   15TCq1    C9  236   2.251   3.766   2.202  0.3329 -0.0835 -0.0043
   15TCq1    O5  237   2.194   3.869   2.241  0.2550  0.6455  0.5225
   15TCq1    O6  238   2.316   3.694   2.279  0.3068 -0.4886 -0.5206
   15TCq1    H1  239   1.951   3.893   1.897  0.7903 -1.0886 -0.3080
   15TCq1    H2  240   2.075   3.851   2.030  0.4428 -0.2747 -1.6031
   15TCq1    H3  241   2.385   3.582   2.099  1.1942 -2.6902 -1.8615
   15TCq1    H4  242   2.212   3.610   1.702 -0.7246 -0.0336 -0.2135
   16MPD2     C  243   2.490   3.421   1.497 -0.2134  0.0295  0.9453
   16MPD2    C1  244   2.525   3.434   1.624 -0.0470 -0.0650 -0.0941
   16MPD2    C2  245   2.642   3.375   1.670 -0.0638 -0.3137 -0.4048
   16MPD2    C3  246   2.730   3.317   1.581  0.1647  0.0167 -0.0521
   16MPD2    C4  247   2.695   3.310   1.453 -0.9561 -0.0174 -0.2896
   16MPD2    C5  248   2.576   3.363   1.411 -0.0527 -0.6805 -0.0910
   16MPD2     H  249   2.666   3.389   1.775 -2.4115 -1.3713  0.2739
   16MPD2    H1  250   2.758   3.271   1.375 -1.8968 -2.3586  0.1405
   16MPD2    H2  251   2.395   3.462   1.463 -0.5322 -0.1413  1.6192
   16MPD2    H3  252   2.551   3.356   1.306 -0.5700  1.0739 -0.0852
   16MPD2     N  253   2.852   3.268   1.639 -0.4652 -0.1433 -0.3594
   16MPD2    H5  254   2.843   3.276   1.740 -0.0257  2.1384 -0.5142
   16MPD2    N1  255   2.437   3.502   1.707  0.1216 -0.5682 -0.3278
   16MPD2    H7  256   2.367   3.555   1.656 -1.0064 -0.2239  1.5667
   17TCq1    O1  257   1.644   1.723  11.032 -0.1444 -0.2633 -0.8285
   17TCq1    C1  258   1.707   1.836  11.008  0.8251  0.2043  0.0588
   17TCq1    O2  259   1.774   1.897  11.088 -0.2426  0.2569  0.3619
   17TCq1    C2  260   1.651   1.894  10.885  0.1867  0.7872  0.2922
   17TCq1    C3  261   1.656   1.826  10.763  0.2647 -0.0952  0.3105
   17TCq1    C4  262   1.633   1.894  10.653 -0.1633  0.0736 -0.7494
   17TCq1    C5  263   1.596   2.028  10.655  0.5111  0.4701  0.3232
   17TCq1    C6  264   1.578   2.082  10.779 -0.1767  0.0690 -0.0585
   17TCq1    C7  265   1.617   2.024  10.894 -0.0265  0.4319  0.5940
   17TCq1    C8  266   1.555   2.233  10.783  1.0726  0.6810 -0.2287
   17TCq1    O4  267   1.502   2.265  10.889 -0.2095  0.4590  0.1300
   17TCq1    C9  268   1.660   1.825  10.527 -0.0041 -0.4815 -0.3488
   17TCq1    O5  269   1.685   1.701  10.526 -0.3876  0.0599 -0.3373
   17TCq1    O6  270   1.679   1.899  10.428 -0.0859 -0.6038  0.0659
   17TCq1    H1  271   1.594   1.691  10.954 -1.3231 -1.1964  0.3044
   17TCq1    H2  272   1.687   1.724  10.748 -1.4754  0.0057 -3.8889
   17TCq1    H3  273   1.583   2.076  10.558 -0.7648  0.9663  0.7418
   17TCq1    H4  274   1.604   2.077  10.987  1.2515  0.2341  0.8818
   18MPD2     C  275   1.548   2.523  10.755 -0.0329 -0.7043  0.1678
   18MPD2    C1  276   1.585   2.436  10.654 -0.2527 -0.5307 -0.7347
   18MPD2    C2  277   1.607   2.483  10.522  0.1838  0.2566  0.6426
   18MPD2    C3  278   1.586   2.616  10.489  0.0605  0.9974  0.8445
   18MPD2    C4  279   1.541   2.698  10.596 -0.0362  0.7299  0.6995
   18MPD2    C5  280   1.522   2.653  10.726  0.3578  0.3151  0.1095
   18MPD2     H  281   1.652   2.410  10.456  0.1036  2.2132 -1.5454
   18MPD2    H1  282   1.512   2.800  10.577 -2.2259  0.1598  0.9259
   18MPD2    H2  283   1.546   2.487  10.857  0.6707 -0.0019  0.4301
   18MPD2    H3  284   1.491   2.718  10.807  4.9716  1.6854  0.7322
   18MPD2     N  285   1.622   2.673  10.366 -0.6308  0.3932 -0.5488
   18MPD2    H5  286   1.601   2.772  10.362  0.9310  0.7349 -0.2491
   18MPD2    N1  287   1.596   2.298  10.667  0.2470  0.2343  0.3503
   18MPD2    H7  288   1.641   2.245  10.593 -0.5923  1.3980 -1.0012
   19TMC2    C1  289   1.972   4.534  13.870  0.8871 -0.0114 -0.0100
   19TMC2    C2  290   1.847   4.565  13.828 -0.5880 -0.1288 -0.3475
   19TMC2    C3  291   1.738   4.488  13.862  0.3486 -0.4777 -0.3271
   19TMC2    C4  292   1.996   4.423  13.945  0.3656 -0.1603  1.1070
   19TMC2    C5  293   1.886   4.350  13.983 -0.6612  0.3207 -0.3303
   19TMC2    C6  294   1.761   4.376  13.936  0.1650  0.1264  0.5191
   19TMC2     C  295   2.082   4.627  13.847  0.1010 -0.2882 -0.7776
   19TMC2     O  296   2.049   0.014  13.798  0.0437 -0.2678  0.0896
   19TMC2     H  297   1.840   4.656  13.769 -1.5468 -0.5233 -0.8505
   19TMC2    H1  298   2.096   4.385  13.962  0.1220 -1.4491 -0.3331
   19TMC2    H2  299   1.673   4.323  13.972  0.2800 -0.8148 -0.5949
   19TMC2    C7  300   1.909   4.218  14.043 -0.0938 -0.3394 -0.6543
   19TMC2    C8  301   1.638   4.464  13.760  0.2333  0.0238 -0.6052
   19TMC2    O1  302   1.817   4.140  14.026  0.1248 -0.1605  0.1772
   19TMC2    O2  303   1.537   4.401  13.784 -0.3059  0.2674 -0.5902
   19TMC2    O5  304   1.718   4.426  13.661 -0.3442 -0.7812 -0.4720
   19TMC2    H5  305   1.749   4.506  13.614 -1.8163 -0.6969 -1.3206
   20MPD2     C  306   2.340   0.050  13.820  0.8567 -0.2288  0.6080
   20MPD2    C1  307   2.325   4.655  13.889 -0.7966  0.9381  0.1866
   20MPD2    C2  308   2.436   4.596  13.946  0.0878  0.1209  0.5470
   20MPD2    C3  309   2.561   4.663  13.946  0.3192 -0.6750 -0.0462
   20MPD2    C4  310   2.577   0.052  13.869  0.1061 -0.3417 -0.2154
   20MPD2    C5  311   2.469   0.108  13.797 -0.4343  0.3158  0.3703
   20MPD2     H  312   2.407   4.502  13.992  0.6360  0.7562  2.2114
   20MPD2    H1  313   2.671   0.104  13.877 -0.4514  0.5967  0.3247
   20MPD2    H2  314   2.253   0.096  13.774  1.6567 -0.8999 -1.6062
   20MPD2    H3  315   2.482   0.206  13.751 -1.5902 -0.7379 -2.2058
   20MPD2     N  316   2.676   4.611  14.011 -0.5711 -0.1045 -1.0508
   20MPD2    H5  317   2.755   4.674  14.004 -0.5773  0.0138 -0.0677
   20MPD2    N1  318   2.203   4.585  13.899  0.3292  0.1351  0.1331
   20MPD2    H7  319   2.205   4.496  13.948  1.2999  0.2317  0.2692
   21MPD2     C  320   0.380   0.228  14.169 -0.5201  0.4358 -0.7210
   21MPD2    C1  321   0.384   0.090  14.179 -0.5659 -0.4364  0.5118
   21MPD2    C2  322   0.271   0.019  14.221 -0.5252  0.0543 -0.3449
   21MPD2    C3  323   0.155   0.091  14.264  0.0028  0.5199  0.6237
   21MPD2    C4  324   0.157   0.232  14.260 -0.3770 -0.1501 -0.2497
   21MPD2    C5  325   0.269   0.292  14.217  0.6009 -0.2526  0.6558
   21MPD2     H  326   0.269   4.633  14.222 -1.2110  0.0742  0.8325
   21MPD2    H1  327   0.073   0.294  14.290 -1.0431 -0.9157 -0.5059
   21MPD2    H2  328   0.459   0.298  14.146 -1.5424  1.7065 -0.3703
   21MPD2    H3  329   0.265   0.400  14.212 -4.5408 -0.4807  0.0344
   21MPD2     N  330   0.051   0.030  14.326 -0.5752  0.5937  0.7327
   21MPD2    H5  331   4.703   0.093  14.364 -0.2568  0.8031  0.9714
   21MPD2    N1  332   0.500   0.021  14.146 -0.2882 -0.3697 -0.4427
   21MPD2    H7  333   0.492   4.647  14.176 -1.4106 -0.6718 -1.7315
   22TCq2    C1  334   0.026   4.614  14.345  0.0934  0.2622  0.2633
   22TCq2    O2  335   0.104   4.525  14.320 -0.1163  0.1101 -0.0817
   22TCq2    C2  336   4.628   4.579  14.418 -0.3327  0.0203 -0.6326
   22TCq2    C3  337   4.640   4.462  14.489 -0.3064  0.5719 -0.0486
   22TCq2    C4  338   4.598   4.453  14.619 -0.3436  0.5243 -0.5150
   22TCq2    C5  339   4.529   4.558  14.676  0.0298 -0.1803 -0.7879
   22TCq2    C6  340   4.493   4.662  14.598 -0.7383  0.3376 -0.0476
   22TCq2    C7  341   4.549   4.673  14.474 -0.1185 -0.0987  0.0377
   22TCq2    C8  342   4.424   0.048  14.659 -0.3128  0.8945  0.1048
   22TCq2    O4  343   4.429   0.054  14.780  1.2818  0.5983  0.4092
   22TCq2    C9  344   4.628   4.327  14.694 -1.3023 -0.4089 -0.0714
   22TCq2    O5  345   4.695   4.235  14.641  0.0258  0.0595 -0.8783
   22TCq2    O6  346   4.592   4.326  14.816  0.1624  0.0691 -0.8463
   22TCq2    H2  347   4.695   4.382  14.440 -0.3392  0.5593 -0.0650
   22TCq2    H3  348   4.492   4.553  14.778 -1.5787  0.6612 -1.3313
   22TCq2    H4  349   4.536   0.044  14.422 -1.5763 -0.4938 -0.3165
   23MPD2     C  350   1.860   0.846  14.273  0.3449 -0.2290 -0.4421
   23MPD2    C1  351   1.726   0.819  14.294 -0.1839  0.6446 -0.2908
   23MPD2    C2  352   1.635   0.848  14.195  0.7288 -0.4091 -0.4167
   23MPD2    C3  353   1.678   0.905  14.074  0.0378 -0.2935 -0.4686
   23MPD2    C4  354   1.812   0.923  14.061  0.1556 -0.2502 -0.2430
   23MPD2    C5  355   1.904   0.904  14.160 -0.7536 -0.8231  0.1263
   23MPD2     H  356   1.530   0.832  14.215  0.7119 -2.0841 -1.8535
   23MPD2    H1  357   1.845   0.958  13.964 -0.8537  2.0092  0.2244
   23MPD2    H2  358   1.939   0.826  14.344  1.8382  0.1622 -2.0075
   23MPD2    H3  359   2.011   0.909  14.146 -0.4565 -0.0371  2.6569
   23MPD2     N  360   1.599   0.934  13.963 -0.2983  0.1129 -0.1304
   23MPD2    H5  361   1.653   0.960  13.882  2.2296  0.9224  1.8158
   23MPD2    N1  362   1.674   0.784  14.420 -0.4290 -0.2650  0.1992
   23MPD2    H7  363   1.576   0.810  14.434 -0.3510  0.3109 -0.3060
   24TCq2    C1  364   1.464   0.901  13.940  0.2583 -0.2471 -0.3871
   24TCq2    O2  365   1.386   0.855  14.025 -0.7264  0.3807  0.3853
   24TCq2    C2  366   1.428   0.916  13.801  0.1900 -0.6246  0.5559
   24TCq2    C3  367   1.517   0.983  13.722  0.1901 -0.2604 -0.0474
   24TCq2    C4  368   1.489   0.989  13.590  0.0702 -0.6404 -1.2338
   24TCq2    C5  369   1.387   0.917  13.537  0.0003 -0.6490 -0.3035
   24TCq2    C6  370   1.301   0.858  13.621 -0.3482  0.0442  0.2587
   24TCq2    C7  371   1.317   0.859  13.758  0.2553  0.5333 -0.3771
   24TCq2    C8  372   1.172   0.810  13.562 -0.4923  0.2250  0.8015
   24TCq2    O4  373   1.175   0.803  13.441  0.1677 -0.3618 -0.4321
   24TCq2    C9  374   1.580   1.069  13.498  0.1881  0.3380 -0.0019
   24TCq2    O5  375   1.628   1.171  13.553 -0.4582 -0.4939  0.1822
   24TCq2    O6  376   1.626   1.005  13.402 -0.0540  0.1617 -0.4598
   24TCq2    H2  377   1.610   1.036  13.738  1.6812 -2.8950  0.0527
   24TCq2    H3  378   1.377   0.917  13.429  2.9272  0.3104 -0.5753
   24TCq2    H4  379   1.237   0.818  13.819  0.7552  0.0476 -0.0493
   25TMC2    C1  380   0.830   3.362  11.601 -0.4149 -0.5584 -0.5337
   25TMC2    C2  381   0.813   3.499  11.630  0.1553  0.1334  0.0290
   25TMC2    C3  382   0.735   3.537  11.742 -0.0114  0.1893  0.7953
   25TMC2    C4  383   0.782   3.265  11.683  0.2085  0.1357 -0.0593
   25TMC2    C5  384   0.715   3.308  11.801 -0.0046 -0.3336 -0.1713
   25TMC2    C6  385   0.697   3.443  11.825  0.0516  0.3139 -0.5453
   25TMC2     C  386   0.896   3.326  11.476  0.5558  0.3029 -0.9649
   25TMC2     O  387   0.970   3.410  11.416  0.1165 -0.1145 -0.1771
   25TMC2     H  388   0.860   3.569  11.562  0.3372  0.4373  0.4637
   25TMC2    H1  389   0.790   3.159  11.658 -2.4517 -0.3235  1.1507
   25TMC2    H2  390   0.640   3.475  11.912 -0.0974 -1.3567 -0.0240
   25TMC2    C7  391   0.632   3.223  11.896 -0.7475 -0.6784 -1.2350
   25TMC2    C8  392   0.764   3.664  11.814  0.1592  0.3994 -0.2579
   25TMC2    O1  393   0.599   3.272  12.003 -0.1206  0.4790 -0.1223
   25TMC2    O2  394   0.797   3.664  11.934 -0.2485  0.2102  0.2217
   25TMC2    O5  395   0.815   3.748  11.716 -0.2654 -0.1738 -0.2562
   25TMC2    H5  396   0.773   3.747  11.628  0.3125  3.1570 -0.5614
   26MPD2     C  397   1.055   2.973  11.124 -0.2045  0.3796  0.1380
   26MPD2    C1  398   0.971   2.911  11.213  0.3959 -0.1001  0.4488
   26MPD2    C2  399   0.906   2.987  11.301  0.5101  1.3740  0.5592
   26MPD2    C3  400   0.928   3.126  11.315 -0.3354  0.9904 -0.0883
   26MPD2    C4  401   1.018   3.185  11.219  0.6016 -0.1823  0.3887
   26MPD2    C5  402   1.084   3.104  11.132 -0.1016 -0.4266 -1.0013
   26MPD2     H  403   0.823   2.956  11.363 -0.2195  1.1031 -0.5538
   26MPD2    H1  404   1.036   3.291  11.207 -1.3316 -0.2909 -3.2400
   26MPD2    H2  405   1.112   2.914  11.053 -1.3190 -0.4958 -0.0333
   26MPD2    H3  406   1.149   3.151  11.059 -1.6495  1.9027 -0.8978
   26MPD2     N  407   0.876   3.193  11.429  0.6783 -0.2331 -0.4269
   26MPD2    H5  408   0.808   3.139  11.481  0.1244  0.0335 -0.8742
   26MPD2    N1  409   0.937   2.770  11.190 -0.5436 -0.3794 -0.0172
   26MPD2    H7  410   0.989   2.717  11.122  0.6152  0.8979 -0.1291
   27TMC2    C1  411   4.278   0.309  11.867  0.2725 -0.4583  0.5067
   27TMC2    C2  412   4.407   0.337  11.891  0.2251  0.4897  0.1563
   27TMC2    C3  413   4.455   0.454  11.837  0.1762  0.0048  0.5759
   27TMC2    C4  414   4.191   0.393  11.812 -0.0811 -0.1864 -0.1814
   27TMC2    C5  415   4.234   0.517  11.772  0.3299  0.1335  0.7523
   27TMC2    C6  416   4.369   0.556  11.790 -0.5575 -0.1651  0.1773
   27TMC2     C  417   4.208   0.245  11.972 -0.0225  0.1628  0.7574
   27TMC2     O  418   4.273   0.162  12.031 -0.5568 -0.1331 -0.1343
   27TMC2     H  419   4.467   0.252  11.923 -1.0066  0.4072  2.2752
   27TMC2    H1  420   4.100   0.349  11.773  0.4270 -1.2429 -0.1720
   27TMC2    H2  421   4.414   0.654  11.773  0.5908 -0.9801 -1.4847
   27TMC2    C7  422   4.123   0.605  11.799 -0.4654 -0.4546 -0.5726
   27TMC2    C8  423   4.602   0.473  11.827 -0.2123 -0.0354  0.9922
   27TMC2    O1  424   4.017   0.554  11.830  0.2324 -0.2529 -0.2021
   27TMC2    O2  425   4.687   0.403  11.888 -0.2287  0.1978 -1.3883
   27TMC2    O5  426   4.623   0.538  11.715  0.1523  0.2918  0.3387
   27TMC2    H5  427   4.548   0.533  11.651  2.0432 -1.4221 -1.7462
   28MPD2     C  428   3.821   0.126  12.274 -0.1317  0.4445 -0.2512
   28MPD2    C1  429   3.804   0.259  12.251  0.5945  0.7491 -0.1486
   28MPD2    C2  430   3.898   0.311  12.157 -0.1440 -0.0945  0.2314
   28MPD2    C3  431   4.003   0.240  12.109 -0.6132  0.3728 -0.5393
   28MPD2    C4  432   4.019   0.105  12.136  1.0840  0.1889 -0.2216
   28MPD2    C5  433   3.918   0.044  12.212  0.0169 -0.5297  0.6069
   28MPD2     H  434   3.894   0.417  12.134 -1.5040  0.0559  1.1502
   28MPD2    H1  435   4.095   0.045  12.087 -0.8855 -0.3436 -2.6003
   28MPD2    H2  436   3.758   0.074  12.346 -0.5389 -0.4272 -1.2298
   28MPD2    H3  437   3.928   4.660  12.231  0.2645 -1.0898 -2.6647
   28MPD2     N  438   4.083   0.300  12.006  0.0074  0.0652 -0.2040
   28MPD2    H5  439   4.079   0.392  11.964 -1.1733 -0.1603 -0.5713
   28MPD2    N1  440   3.696   0.331  12.301 -0.3310  0.5361 -0.2677
   28MPD2    H7  441   3.639   0.278  12.367 -0.8298 -0.9663 -1.9036
   29MPD2     C  442   3.636   2.978  14.251  0.5441  0.3501  0.1126
   29MPD2    C1  443   3.599   2.887  14.350 -0.2999 -0.4251 -0.2756
   29MPD2    C2  444   3.535   2.949  14.459  0.0377 -0.5336 -0.3798
   29MPD2    C3  445   3.501   3.086  14.472  0.2737  0.5432  0.3274
   29MPD2    C4  446   3.548   3.167  14.370  0.7354 -0.8480 -0.6303
   29MPD2    C5  447   3.609   3.115  14.257  0.8638  0.0513  1.0954
   29MPD2     H  448   3.512   2.891  14.548  0.5346  1.0219  0.7606
   29MPD2    H1  449   3.547   3.275  14.380  1.7806 -0.9248  0.3168
   29MPD2    H2  450   3.683   2.944  14.160 -0.9921 -1.9779  0.1925
   29MPD2    H3  451   3.629   3.180  14.172 -5.4402 -0.8151 -1.0269
   29MPD2     N  452   3.433   3.148  14.577  0.4679  0.2171  0.2123
   29MPD2    H5  453   3.395   3.241  14.557  0.0428  0.2545  1.1764
   29MPD2    N1  454   3.643   2.749  14.349 -0.4947 -0.3020  0.3023
   29MPD2    H7  455   3.604   2.681  14.413  0.2552 -0.4666  0.5834
   30TCq2    C1  456   3.402   3.093  14.701 -0.2191 -0.2282 -0.6328
   30TCq2    O2  457   3.424   2.981  14.739 -0.4250 -0.1643  0.0729
   30TCq2    C2  458   3.373   3.190  14.798  0.1829 -0.4979  0.1576
   30TCq2    C3  459   3.401   3.167  14.934 -0.3863  0.5728  0.1864
   30TCq2    C4  460   3.396   3.269  15.019  0.6472  0.1181 -0.1250
   30TCq2    C5  461   3.386   3.395  14.976 -0.1045  0.4445  1.0005
   30TCq2    C6  462   3.368   3.417  14.846  0.2960 -0.6631  0.2675
   30TCq2    C7  463   3.349   3.322  14.754 -0.1223  0.1692  0.0458
   30TCq2    C8  464   3.369   3.550  14.784  0.3723 -0.3819 -0.0158
   30TCq2    O4  465   3.283   3.577  14.704 -0.1354 -0.5477  0.1556
   30TCq2    C9  466   3.412   3.243  15.164 -0.5106  0.1616 -0.0537
   30TCq2    O5  467   3.370   3.137  15.212  0.6138 -0.4609 -0.2919
   30TCq2    O6  468   3.444   3.348  15.233 -0.9991  0.4705  0.1912
   30TCq2    H2  469   3.410   3.066  14.973 -1.5751 -1.3877 -4.5899
   30TCq2    H3  470   3.398   3.477  15.046  0.0868 -0.6936  2.3057
   30TCq2    H4  471   3.332   3.353  14.652 -0.9516  0.5316  0.2927
   31MPD2     C  472   1.508   1.742  14.173 -0.2451  0.2873  0.5783
   31MPD2    C1  473   1.378   1.763  14.220 -0.1780  0.0319  0.5764
   31MPD2    C2  474   1.321   1.683  14.320  0.2496  0.1075  0.2025
   31MPD2    C3  475   1.391   1.571  14.367 -0.0439 -0.1941 -0.4664
   31MPD2    C4  476   1.513   1.538  14.309  0.1622 -0.4018  0.2936
   31MPD2    C5  477   1.571   1.630  14.224  0.8671  0.0986 -0.5910
   31MPD2     H  478   1.222   1.711  14.357 -0.3135  0.4597 -1.5974
   31MPD2    H1  479   1.566   1.445  14.321  0.3382 -0.2136  0.9820
   31MPD2    H2  480   1.539   1.811  14.095  0.5630  1.8796  2.3125
   31MPD2    H3  481   1.669   1.605  14.184  2.3437  3.8206  0.6747
   31MPD2     N  482   1.336   1.477  14.452 -0.4009 -0.1196  0.8344
   31MPD2    H5  483   1.389   1.391  14.451  1.6365  1.1511 -1.2888
   31MPD2    N1  484   1.304   1.866  14.151 -0.1398  0.4990  0.1129
   31MPD2    H7  485   1.356   1.925  14.086 -1.3873 -0.1753 -1.4912
   32TCq2    C1  486   1.219   1.495  14.531  0.2570 -0.0073  1.0059
   32TCq2    O2  487   1.160   1.599  14.561  0.2157 -0.3362 -0.0219
   32TCq2    C2  488   1.193   1.382  14.616 -0.4910 -0.5424 -0.0560
   32TCq2    C3  489   1.206   1.256  14.551 -0.4029  0.8730  0.3950
   32TCq2    C4  490   1.204   1.139  14.624 -0.0969 -0.8680 -0.4845
   32TCq2    C5  491   1.215   1.144  14.762 -0.0929  0.2726  1.0061
   32TCq2    C6  492   1.205   1.270  14.826 -0.4572 -0.0438  0.1246
   32TCq2    C7  493   1.203   1.396  14.751  0.4707 -0.6913  0.3308
   32TCq2    C8  494   1.249   1.271  14.965  0.1581  0.3678 -0.1743
   32TCq2    O4  495   1.226   1.176  15.036  0.0452  0.3454 -0.0995
   32TCq2    C9  496   1.199   1.009  14.559 -0.6733  0.2439 -0.0793
   32TCq2    O5  497   1.250   0.995  14.443 -0.3537  0.5974  0.0536
   32TCq2    O6  498   1.149   0.916  14.630  0.0171 -0.0084  0.4191
   32TCq2    H2  499   1.199   1.247  14.443 -1.4533  2.9838  0.2789
   32TCq2    H3  500   1.228   1.054  14.822  0.1501 -1.7285 -2.0483
   32TCq2    H4  501   1.196   1.496  14.793  1.0341 -1.1478  1.5292
   33MPD2     C  502   1.446   3.153   9.690 -0.5688 -0.2527 -0.1931
   33MPD2    C1  503   1.477   3.142   9.824  0.1443  0.2955  0.3456
   33MPD2    C2  504   1.477   3.260   9.900  0.1921  0.2301  0.0568
   33MPD2    C3  505   1.447   3.384   9.839 -0.5460  0.4433 -0.4908
   33MPD2    C4  506   1.406   3.386   9.711  0.5783 -0.1619 -0.2123
   33MPD2    C5  507   1.411   3.271   9.635  0.2020 -0.3653  0.2978
   33MPD2     H  508   1.507   3.253  10.004 -1.0570 -1.6380  0.2813
   33MPD2    H1  509   1.380   3.482   9.667 -1.6848 -0.3395  0.7131
   33MPD2    H2  510   1.445   3.069   9.622  1.8245  0.6530 -1.3572
   33MPD2    H3  511   1.395   3.268   9.528 -0.2097 -0.3451  0.3581
   33MPD2     N  512   1.462   3.510   9.906  0.0428 -0.1295  0.1784
   33MPD2    H5  513   1.457   3.593   9.848 -3.4202  0.7238  1.7392
   33MPD2    N1  514   1.526   3.014   9.869  0.1068  0.4202 -0.1165
   33MPD2    H7  515   1.527   2.941   9.799  1.1878 -0.2587  0.6057
   34TCq2    C1  516   1.503   3.530  10.034 -0.5737 -0.2654 -0.9209
   34TCq2    O2  517   1.540   3.450  10.120 -0.0073  0.3062 -0.1255
   34TCq2    C2  518   1.506   3.671  10.076  0.1245  0.1622  0.1619
   34TCq2    C3  519   1.480   3.700  10.210 -1.0372 -0.0807 -0.2703
   34TCq2    C4  520   1.491   3.831  10.252  0.3735  0.8661  0.2660
   34TCq2    C5  521   1.524   3.932  10.158 -0.0039  0.3305  0.5441
   34TCq2    C6  522   1.554   3.899  10.028 -0.7120 -0.3025  0.1009
   34TCq2    C7  523   1.537   3.767   9.985 -0.1418  0.5348 -0.2804
   34TCq2    C8  524   1.603   3.996   9.933  0.6021  0.2753 -0.2985
   34TCq2    O4  525   1.591   4.116   9.966 -0.1878  0.3918  0.2843
   34TCq2    C9  526   1.449   3.861  10.387 -0.4946 -0.1576  0.3911
   34TCq2    O5  527   1.429   3.768  10.467 -0.0270  0.4055  0.1244
   34TCq2    O6  528   1.445   3.981  10.425 -0.0240  0.0961 -0.2505
   34TCq2    H2  529   1.452   3.623  10.281 -1.9341 -0.6578 -1.2457
   34TCq2    H3  530   1.528   4.029  10.207 -0.6502  1.3776 -1.4663
   34TCq2    H4  531   1.564   3.751   9.881  0.1939  0.5954 -0.2009
   35MPD2     C  532   3.648   0.815  11.674 -0.1664  0.5499  0.6288
   35MPD2    C1  533   3.511   0.836  11.687 -0.3033 -0.5691 -0.0064
   35MPD2    C2  534   3.426   0.852  11.582 -0.8368  0.2079 -0.3206
   35MPD2    C3  535   3.477   0.838  11.456  0.0489  0.3089 -1.1312
   35MPD2    C4  536   3.609   0.821  11.435 -0.0295 -0.1488 -0.1925
   35MPD2    C5  537   3.690   0.810  11.542 -0.0051  0.2893  0.3507
   35MPD2     H  538   3.321   0.871  11.597 -0.7029 -0.2793  1.2229
   35MPD2    H1  539   3.658   0.827  11.338 -1.1809  2.1532 -0.6462
   35MPD2    H2  540   3.715   0.792  11.756 -1.1292 -0.5346  1.1083
   35MPD2    H3  541   3.794   0.780  11.526  0.2449  1.7555 -0.7765
   35MPD2     N  542   3.383   0.850  11.348  0.5349  0.0882 -0.8323
   35MPD2    H5  543   3.286   0.858  11.378  1.2688 -1.6353  1.9553
   35MPD2    N1  544   3.459   0.833  11.819 -0.5193  0.1003  0.2928
   35MPD2    H7  545   3.522   0.817  11.897 -0.3742  1.4187  0.4477
   36TCq2    C1  546   3.396   0.842  11.214 -0.5612  0.5831  0.6284
   36TCq2    O2  547   3.492   0.872  11.142  0.5975  0.1782 -0.1461
   36TCq2    C2  548   3.274   0.793  11.156  0.0896 -0.5870 -0.0755
   36TCq2    C3  549   3.271   0.803  11.019  0.4731 -0.7749 -0.1358
   36TCq2    C4  550   3.191   0.718  10.950 -0.1379  0.3483 -0.4621
   36TCq2    C5  551   3.119   0.623  11.017  0.3722  0.2523  0.1653
   36TCq2    C6  552   3.115   0.621  11.156 -0.6341  0.3643  1.0702
   36TCq2    C7  553   3.197   0.704  11.222 -0.5117 -0.1571 -0.6441
   36TCq2    C8  554   3.018   0.535  11.227 -0.2802 -0.1824  0.3135
   36TCq2    O4  555   2.984   0.427  11.172 -0.5164  0.3148 -0.2614
   36TCq2    C9  556   3.197   0.726  10.808 -0.2721  0.0949  0.2168
   36TCq2    O5  557   3.231   0.839  10.760  0.2178 -0.0560  0.6772
   36TCq2    O6  558   3.166   0.628  10.740  0.1867 -0.7702 -0.3105
   36TCq2    H2  559   3.340   0.869  10.969 -0.3468 -1.1039 -1.6819
   36TCq2    H3  560   3.055   0.558  10.959 -0.1659  1.8633 -1.0314
   36TCq2    H4  561   3.204   0.701  11.330  2.7392 -1.7634 -0.9028
   37TMC2    C1  562   0.339   0.715  11.167 -0.4908 -0.0817 -0.4134
   37TMC2    C2  563   0.379   0.642  11.062  0.0087 -1.1507  0.0138
   37TMC2    C3  564   0.507   0.656  11.012  0.2251  0.1075  0.4718
   37TMC2    C4  565   0.421   0.795  11.247 -0.1878 -0.2816 -0.0687
   37TMC2    C5  566   0.549   0.807  11.191  0.4303 -0.3089  0.6302
   37TMC2    C6  567   0.593   0.737  11.080 -1.2149 -0.1435 -0.1522
   37TMC2     C  568   0.201   0.723  11.173  0.1557  0.7031  0.3393
   37TMC2     O  569   0.135   0.702  11.074 -0.1445 -0.2579 -0.2379
   37TMC2     H  570   0.308   0.572  11.019 -2.2532  0.7608  0.6671
   37TMC2    H1  571   0.395   0.858  11.331  0.0667 -1.1657  0.6646
   37TMC2    H2  572   0.689   0.757  11.034  0.5599 -3.5420  2.0910
   37TMC2    C7  573   0.656   0.885  11.267 -0.4489  0.3450 -0.1258
   37TMC2    C8  574   0.525   0.670  10.867  0.3770 -0.0742 -0.2227
   37TMC2    O1  575   0.637   0.919  11.384 -0.1567 -0.5535  0.2990
   37TMC2    O2  576   0.595   0.757  10.816  0.1425  0.1099 -0.2331
   37TMC2    O5  577   0.412   0.617  10.812  0.1142 -0.3414  0.0396
   37TMC2    H5  578   0.391   0.532  10.856  1.4800 -0.2882  0.7905
   38MPD2     C  579   4.511   0.850  11.459  0.2463 -0.2765 -0.4918
   38MPD2    C1  580   4.616   0.845  11.544 -0.6732 -0.2345 -0.1691
   38MPD2    C2  581   0.014   0.820  11.484  1.3659 -0.5248  0.7022
   38MPD2    C3  582   0.032   0.783  11.350  0.3402  0.2223 -0.2585
   38MPD2    C4  583   4.646   0.786  11.272 -0.0476  0.9020 -0.2381
   38MPD2    C5  584   4.528   0.824  11.321  0.2569 -0.8208 -0.0433
   38MPD2     H  585   0.101   0.830  11.549 -0.0047  0.5379  2.3740
   38MPD2    H1  586   4.658   0.762  11.167  0.2658  1.1739 -0.2642
   38MPD2    H2  587   4.414   0.889  11.489  1.1559  1.8571 -0.3130
   38MPD2    H3  588   4.438   0.833  11.260  0.7352 -0.6227 -0.7132
   38MPD2     N  589   0.162   0.753  11.303 -0.5099 -0.5432  0.5027
   38MPD2    H5  590   0.236   0.770  11.371  1.0540  0.8440 -1.5264
   38MPD2    N1  591   4.610   0.861  11.686 -0.4685  0.1925 -0.0572
   38MPD2    H7  592   4.699   0.848  11.731  1.3029 -0.0528 -3.6759
   39MPD2     C  593   3.151   2.777   1.794  0.1408  0.5412 -0.6636
   39MPD2    C1  594   3.080   2.851   1.872 -0.0589  0.5656  0.5480
   39MPD2    C2  595   2.947   2.876   1.832  0.5222  0.4775 -0.1725
   39MPD2    C3  596   2.890   2.841   1.709 -0.1156  0.0502  0.2048
   39MPD2    C4  597   2.970   2.761   1.633  0.1904 -0.0494 -0.1078
   39MPD2    C5  598   3.100   2.727   1.674 -0.6939 -0.5551  0.2614
   39MPD2     H  599   2.880   2.939   1.890 -0.1547 -1.4777  1.1600
   39MPD2    H1  600   2.939   2.723   1.537 -1.3286 -1.0220  0.7611
   39MPD2    H2  601   3.257   2.757   1.808 -0.2998 -0.5959  1.0543
   39MPD2    H3  602   3.161   2.667   1.607 -0.3974 -1.4090  1.2928
   39MPD2     N  603   2.764   2.871   1.653 -0.3610  0.7233 -0.1879
   39MPD2    H5  604   2.753   2.839   1.558 -0.5194  2.3847 -0.7387
   39MPD2    N1  605   3.152   2.912   1.977 -0.1029  0.3137  0.5874
   39MPD2    H7  606   3.246   2.877   1.988 -0.0826 -0.1847 -1.2920
   40TCq2    C1  607   3.101   3.007   2.060  0.2038 -0.0505  0.7096
   40TCq2    O2  608   2.983   3.043   2.062 -0.2656  0.5102  0.3964
   40TCq2    C2  609   3.200   3.074   2.143 -0.1748 -0.4023  0.2874
   40TCq2    C3  610   3.145   3.169   2.234  0.1309 -0.0149 -0.3572
   40TCq2    C4  611   3.229   3.262   2.282  0.0513 -0.0084  0.4720
   40TCq2    C5  612   3.361   3.269   2.247  0.2341  0.3274  0.2178
   40TCq2    C6  613   3.409   3.181   2.153 -0.4651 -0.6590 -0.3067
   40TCq2    C7  614   3.332   3.076   2.105  0.4506  0.3665 -0.0150
   40TCq2    C8  615   3.547   3.175   2.115  0.8891  0.5943  0.0981
   40TCq2    O4  616   3.586   3.068   2.070  0.2958  0.4807  0.0319
   40TCq2    C9  617   3.174   3.369   2.372  0.5273 -0.3197 -0.6169
   40TCq2    O5  618   3.055   3.350   2.409  0.1390  0.2650  0.0765
   40TCq2    O6  619   3.264   3.441   2.435 -0.5461 -0.1904 -0.1788
   40TCq2    H2  620   3.040   3.179   2.260  0.6851  0.0015  1.8520
   40TCq2    H3  621   3.411   3.356   2.287  0.4610  0.1588  0.2970
   40TCq2    H4  622   3.371   3.008   2.030  0.5504 -1.3932  1.6122
   41TMC2    C1  623   2.435   1.098  13.348 -0.3677  0.7986 -0.1226
   41TMC2    C2  624   2.443   1.236  13.372  0.3651 -0.1048  0.1938
   41TMC2    C3  625   2.380   1.319  13.281 -0.5034  0.2987  0.1304
   41TMC2    C4  626   2.356   1.044  13.254  0.2346 -0.4875 -0.1365
   41TMC2    C5  627   2.305   1.132  13.163 -0.3242  0.0530  0.4603
   41TMC2    C6  628   2.308   1.268  13.179 -0.4637 -0.0839  0.7045
   41TMC2     C  629   2.458   1.010  13.460 -0.9056 -0.4803  0.1822
   41TMC2     O  630   2.461   0.890  13.443  0.6286 -0.2829  0.1399
   41TMC2     H  631   2.515   1.267  13.447  2.2927 -0.8110 -1.3446
   41TMC2    H1  632   2.327   0.940  13.268 -0.6360 -0.4791 -1.8074
   41TMC2    H2  633   2.249   1.331  13.114  1.0866 -1.0144 -1.6072
   41TMC2    C7  634   2.189   1.078  13.091  0.5529  0.0952 -0.1395
   41TMC2    C8  635   2.367   1.458  13.295  0.4511 -0.5722 -0.2351
   41TMC2    O1  636   2.132   0.979  13.139 -0.3093  0.3397 -0.0224
   41TMC2    O2  637   2.328   1.532  13.210  0.1554 -0.6194  0.1545
   41TMC2    O5  638   2.392   1.485  13.431 -0.4644  0.6360  0.1853
   41TMC2    H5  639   2.394   1.396  13.471 -0.0995  1.3648  1.7655
   42MPD2     C  640   2.570   0.894  13.710  0.2110 -0.0479  0.3008
   42MPD2    C1  641   2.484   0.998  13.703  0.3078 -0.5022  1.1943
   42MPD2    C2  642   2.433   1.043  13.823  0.5090 -0.2326  0.4789
   42MPD2    C3  643   2.448   0.981  13.943  0.1388  0.6165  0.2899
   42MPD2    C4  644   2.535   0.877  13.946  0.8390  0.4646 -0.1183
   42MPD2    C5  645   2.592   0.832  13.830  0.0472  0.9498  0.2617
   42MPD2     H  646   2.371   1.131  13.813 -1.2520 -1.5859 -0.4525
   42MPD2    H1  647   2.565   0.822  14.035 -1.4542 -0.1484  0.2975
   42MPD2    H2  648   2.624   0.865  13.620 -1.1603  2.6455 -1.3813
   42MPD2    H3  649   2.658   0.746  13.825 -1.4792 -0.0813 -2.2142
   42MPD2     N  650   2.386   1.008  14.064 -0.4460 -0.2583 -0.5467
   42MPD2    H5  651   2.422   0.970  14.151 -0.0967  1.4431  0.0409
   42MPD2    N1  652   2.448   1.064  13.586  0.1431  0.1295  0.6629
   42MPD2    H7  653   2.406   1.155  13.597 -2.5766 -0.9771 -0.5361
   43MPD2     C  654   3.898   0.079   1.031  0.4958  0.4819  0.0103
   43MPD2    C1  655   3.928   4.714   1.135 -0.5166  0.3419  0.1655
   43MPD2    C2  656   3.844   4.707   1.246 -0.1157  0.1829 -1.3448
   43MPD2    C3  657   3.730   0.063   1.243  0.2659 -0.3898 -0.9603
   43MPD2    C4  658   3.702   0.149   1.139 -0.1599  0.0815 -0.5223
   43MPD2    C5  659   3.789   0.161   1.033 -0.0910  0.3389 -0.5162
   43MPD2     H  660   3.861   4.631   1.322 -0.1583  2.0285  0.5057
   43MPD2    H1  661   3.613   0.211   1.142  1.0635  1.8747 -1.3825
   43MPD2    H2  662   3.963   0.085   0.945 -1.6332  1.3891 -1.5343
   43MPD2    H3  663   3.772   0.231   0.952 -2.1304 -2.3264 -2.3930
   43MPD2     N  664   3.632   0.049   1.344 -0.2913 -0.4385 -0.2038
   43MPD2    H5  665   3.544   0.100   1.338 -0.1323 -0.2345 -0.8765
   43MPD2    N1  666   4.047   4.643   1.137  0.7966  0.0821 -0.6329
   43MPD2    H7  667   4.085   4.609   1.225  0.7297  0.3968 -0.4822
   44TCq2    C1  668   3.392   4.704   1.869  0.4397  0.1878  0.3692
   44TCq2    O2  669   3.494   4.669   1.926  0.0478  0.0079  0.2762
   44TCq2    C2  670   3.400   0.019   1.725 -0.1155  0.4293 -0.1795
   44TCq2    C3  671   3.308   0.087   1.653 -0.3127 -0.9126  0.3913
   44TCq2    C4  672   3.297   0.072   1.519  0.3187  0.6568 -0.9933
   44TCq2    C5  673   3.399   0.007   1.454 -0.0475 -0.3961 -0.1740
   44TCq2    C6  674   3.507   4.682   1.525  0.0705  0.1993 -0.4545
   44TCq2    C7  675   3.510   4.695   1.663 -0.0429  0.5313 -0.0001
   44TCq2    C8  676   3.633   4.682   1.455 -0.2511  0.3980 -0.2823
   44TCq2    O4  677   3.728   4.618   1.498  0.2901  0.3786  0.1432
   44TCq2    C9  678   3.188   0.131   1.447  0.5697 -0.2502 -0.1205
   44TCq2    O5  679   3.194   0.118   1.321  0.5678  0.6210 -0.2649
   44TCq2    O6  680   3.087   0.159   1.514 -0.3949  0.6602  0.5559
   44TCq2    H2  681   3.231   0.145   1.703  1.0971  0.9773  0.3736
   44TCq2    H3  682   3.397   4.716   1.346  1.2793 -2.0050  0.0017
   44TCq2    H4  683   3.607   4.677   1.709 -0.5395  0.2535  0.9237
   45TMC2    C1  684   4.615   1.324   9.534 -0.0658 -0.0459  0.0535
   45TMC2    C2  685   4.495   1.368   9.487 -0.2994 -0.1051  1.4537
   45TMC2    C3  686   4.472   1.501   9.490  0.6011 -0.2892  0.5414
   45TMC2    C4  687   4.710   1.407   9.593 -0.1695 -0.3943  0.1249
   45TMC2    C5  688   4.669   1.534   9.616  0.0214  0.1393 -0.0030
   45TMC2    C6  689   4.555   1.585   9.556  0.1158  0.3608  0.2592
   45TMC2     C  690   4.624   1.179   9.539  0.6557 -0.5938  0.0127
   45TMC2     O  691   4.690   1.131   9.628  0.4058  0.3657  0.5338
   45TMC2     H  692   4.415   1.302   9.455 -0.9767  1.2903  0.2922
   45TMC2    H1  693   0.087   1.372   9.616 -0.6810 -0.4958  2.1878
   45TMC2    H2  694   4.540   1.692   9.548 -2.0159 -0.0381 -1.1339
   45TMC2    C7  695   0.056   1.629   9.627  0.3245 -0.3867 -0.2958
   45TMC2    C8  696   4.353   1.549   9.427  0.0581 -0.2312 -0.4756
   45TMC2    O1  697   0.060   1.725   9.552 -0.1775 -0.1336 -0.2640
   45TMC2    O2  698   4.255   1.477   9.421 -0.0224 -0.5435 -0.2452
   45TMC2    O5  699   4.408   1.618   9.318  0.3798 -0.2020 -0.5269
   45TMC2    H5  700   4.498   1.651   9.341 -0.5672  0.8847  1.6631
   46MPD2     C  701   4.582   0.886   9.510 -0.2129 -0.2182  0.0747
   46MPD2    C1  702   4.548   0.981   9.414  0.2132  0.0580  0.2774
   46MPD2    C2  703   4.505   0.933   9.291  0.0705  0.7526 -0.4819
   46MPD2    C3  704   4.504   0.800   9.256 -0.0373 -0.2591  0.2632
   46MPD2    C4  705   4.537   0.701   9.352 -0.2842 -0.1923 -0.8347
   46MPD2    C5  706   4.574   0.755   9.474 -0.1442 -0.0271 -0.7253
   46MPD2     H  707   4.474   1.007   9.219 -2.0654  0.3448  0.0308
   46MPD2    H1  708   4.549   0.598   9.322  0.6422 -0.7440  1.4927
   46MPD2    H2  709   4.613   0.911   9.611 -0.8371  0.6565  0.0497
   46MPD2    H3  710   4.603   0.680   9.547 -0.0442  3.0382  2.3805
   46MPD2     N  711   4.455   0.758   9.129 -1.1022  0.2947 -0.7833
   46MPD2    H5  712   4.411   0.828   9.071 -1.1734  0.4994 -0.4795
   46MPD2    N1  713   4.559   1.125   9.433  0.0298 -0.2228  1.0381
   46MPD2    H7  714   4.531   1.173   9.348  4.3602 -0.6293 -0.6031
   47TMC2    C1  715   2.188   1.175   8.531  0.1479 -0.4176  0.4204
   47TMC2    C2  716   2.232   1.055   8.486 -0.1043 -0.0470 -0.1287
   47TMC2    C3  717   2.200   1.021   8.353  0.3783  0.0803 -0.0467
   47TMC2    C4  718   2.110   1.262   8.454 -0.3994 -0.0261  0.6526
   47TMC2    C5  719   2.089   1.226   8.324 -0.0604 -0.2542 -0.0368
   47TMC2    C6  720   2.127   1.105   8.275 -0.2077  0.1327 -0.2788
   47TMC2     C  721   2.232   1.228   8.663  0.1248 -0.4082  0.3343
   47TMC2     O  722   2.185   1.339   8.690  0.2603 -0.3534  0.0939
   47TMC2     H  723   2.305   0.999   8.543  1.0460  3.1296  1.5164
   47TMC2    H1  724   2.103   1.366   8.484  2.6334  0.7627 -1.3526
   47TMC2    H2  725   2.126   1.082   8.169 -0.6338  3.0868 -0.9266
   47TMC2    C7  726   1.987   1.294   8.248  0.1293 -0.0645  0.3769
   47TMC2    C8  727   2.217   0.885   8.310  0.2123  0.5046 -0.7023
   47TMC2    O1  728   1.985   1.273   8.125  0.1194  0.2947  0.8988
   47TMC2    O2  729   2.286   0.810   8.376  0.4064  0.3877  0.1717
   47TMC2    O5  730   2.119   0.841   8.225 -0.4869  0.2581 -0.4649
   47TMC2    H5  731   2.041   0.902   8.219  0.0878  1.2461  2.0105
   48MPD2     C  732   2.362   1.296   8.923 -0.5945  0.4224  0.1074
   48MPD2    C1  733   2.366   1.173   8.865 -0.3085 -0.5410 -0.7085
   48MPD2    C2  734   2.429   1.069   8.936 -0.2650 -0.4826  0.4421
   48MPD2    C3  735   2.495   1.099   9.058  0.0898  0.4084 -0.2019
   48MPD2    C4  736   2.491   1.225   9.113  0.1930 -0.3568  0.1212
   48MPD2    C5  737   2.420   1.318   9.043 -0.6345  0.7074  0.2077
   48MPD2     H  738   2.434   0.966   8.902 -0.3693  0.4115 -2.2421
   48MPD2    H1  739   2.535   1.251   9.209 -2.3414 -0.5933  1.3478
   48MPD2    H2  740   2.335   1.384   8.866  1.3765  2.1159  1.7795
   48MPD2    H3  741   2.414   1.421   9.078  1.1486  0.2500  1.7930
   48MPD2     N  742   2.567   0.988   9.111  0.0098  0.2509 -0.3254
   48MPD2    H5  743   2.540   0.900   9.069  2.5363 -0.1672 -1.1100
   48MPD2    N1  744   2.320   1.141   8.737  0.1554  0.1808 -0.2051
   48MPD2    H7  745   2.352   1.053   8.698  0.5262  0.1935  0.0736
   49MPD2     C  746   0.991   3.134  10.762 -0.0458 -0.0871  0.2312
   49MPD2    C1  747   0.864   3.178  10.812  0.2160  0.3532 -0.2179
   49MPD2    C2  748   0.829   3.307  10.795  0.3784  0.1045  0.3978
   49MPD2    C3  749   0.905   3.395  10.718 -0.5138  0.1092  0.0511
   49MPD2    C4  750   1.028   3.350  10.674  0.0649  0.0964  0.4075
   49MPD2    C5  751   1.069   3.218  10.690 -0.0584 -0.7252  0.0918
   49MPD2     H  752   0.737   3.332  10.847 -0.2822  0.6655 -1.0494
   49MPD2    H1  753   1.098   3.416  10.625 -0.9947 -1.0176 -2.6012
   49MPD2    H2  754   1.025   3.033  10.780 -1.4445 -0.6564 -0.3606
   49MPD2    H3  755   1.163   3.184  10.650  1.5680  3.0425  0.6718
   49MPD2     N  756   0.864   3.531  10.708 -0.4523 -0.2565 -0.2366
   49MPD2    H5  757   0.939   3.597  10.687  1.0342 -1.1378  2.2285
   49MPD2    N1  758   0.781   3.107  10.898 -0.2569 -0.3819  0.1724
   49MPD2    H7  759   0.714   3.161  10.952 -2.0312 -2.1167 -0.2604
   50TCq2    C1  760   0.774   2.967  10.890  0.0697 -0.5164  0.1586
   50TCq2    O2  761   0.834   2.891  10.816  0.4107  0.0319 -0.0784
   50TCq2    C2  762   0.670   2.911  10.970 -0.1862  0.5331 -0.2069
   50TCq2    C3  763   0.623   2.788  10.932  0.0004  0.6453  0.1251
   50TCq2    C4  764   0.520   2.743  11.005 -0.0830 -0.5630 -0.6731
   50TCq2    C5  765   0.472   2.806  11.114  0.4868  0.3686  0.1004
   50TCq2    C6  766   0.525   2.920  11.153  0.8764  0.1004 -0.5267
   50TCq2    C7  767   0.629   2.982  11.085  0.4189  0.1127 -0.5108
   50TCq2    C8  768   0.490   2.974  11.283  0.3920  0.2481 -0.4896
   50TCq2    O4  769   0.475   2.899  11.378  0.3829  0.6719 -0.3573
   50TCq2    C9  770   0.458   2.618  10.965  0.8685  0.0641  0.5490
   50TCq2    O5  771   0.483   2.564  10.855  0.4846 -0.3213 -0.6744
   50TCq2    O6  772   0.377   2.561  11.046  0.0445 -0.3428 -0.0376
   50TCq2    H2  773   0.669   2.735  10.849  0.2743 -0.0167  0.6961
   50TCq2    H3  774   0.383   2.767  11.162 -0.1309 -0.3404 -1.5999
   50TCq2    H4  775   0.678   3.068  11.130 -2.4085  2.8601 -2.5870
   51MPD2     C  776   0.616   3.053   1.033  0.0594  0.3397 -0.1176
   51MPD2    C1  777   0.537   2.943   1.075  0.3599  0.4421 -0.4606
   51MPD2    C2  778   0.515   2.916   1.205  0.1321  0.0564 -0.2768
   51MPD2    C3  779   0.580   2.986   1.300 -0.2765  0.0873  0.3022
   51MPD2    C4  780   0.661   3.090   1.263  0.2790 -0.1396 -0.6652
   51MPD2    C5  781   0.685   3.119   1.130  0.0394 -0.1426 -0.3309
   51MPD2     H  782   0.448   2.835   1.234  2.0689 -2.1224 -1.8647
   51MPD2    H1  783   0.715   3.157   1.330  0.5950  0.5477 -1.6039
   51MPD2    H2  784   0.639   3.089   0.934  0.6156 -0.6369 -0.3380
   51MPD2    H3  785   0.738   3.207   1.095  0.1532  0.3567  1.1042
   51MPD2     N  786   0.566   2.959   1.440  0.3519  0.4652 -0.3733
   51MPD2    H5  787   0.626   3.004   1.509 -0.8779  2.1443 -0.3931
   51MPD2    N1  788   0.461   2.872   0.983 -0.1240 -0.2141  0.3035
   51MPD2    H7  789   0.388   2.817   1.025 -1.3983 -0.3093 -2.0389
   52TCq2    C1  790   0.497   2.848   1.486  0.4262 -0.8270  0.6062
   52TCq2    O2  791   0.450   2.748   1.438 -0.1136  0.0437  0.1296
   52TCq2    C2  792   0.491   2.836   1.636 -0.1407 -0.7577  0.3873
   52TCq2    C3  793   0.491   2.714   1.691 -0.1780 -0.1890 -0.0999
   52TCq2    C4  794   0.505   2.699   1.824 -0.1934  0.6145 -0.9272
   52TCq2    C5  795   0.501   2.803   1.911  0.3828  0.2821  0.0058
   52TCq2    C6  796   0.489   2.925   1.850  0.0792 -0.9387 -0.2774
   52TCq2    C7  797   0.488   2.946   1.714  0.3269 -0.4270  0.4071
   52TCq2    C8  798   0.487   3.045   1.928 -0.3877  0.4514  0.1848
   52TCq2    O4  799   0.527   3.148   1.874 -0.2415  0.5883  0.2788
   52TCq2    C9  800   0.509   2.565   1.875 -0.7237  0.2895  0.8577
   52TCq2    O5  801   0.557   2.547   1.991  0.4504 -0.4222  0.3414
   52TCq2    O6  802   0.452   2.477   1.810 -0.6957 -0.2900 -0.5405
   52TCq2    H2  803   0.492   2.626   1.628 -0.3383 -0.1516 -0.1555
   52TCq2    H3  804   0.505   2.786   2.018 -1.5239 -1.6742 -0.2145
   52TCq2    H4  805   0.481   3.045   1.671  1.3661 -1.0043 -1.1034
   53TMC2    C1  806   1.139   1.279  11.664 -0.4314  0.0068  0.4238
   53TMC2    C2  807   1.232   1.268  11.757  0.4432  0.5326 -0.1558
   53TMC2    C3  808   1.199   1.319  11.879 -0.2392  0.3846 -0.2916
   53TMC2    C4  809   1.013   1.325  11.687  0.5091 -0.3242  0.2281
   53TMC2    C5  810   0.983   1.363  11.818  0.0829  0.7849 -0.1306
   53TMC2    C6  811   1.076   1.348  11.921  0.5026  0.1777 -0.1486
   53TMC2     C  812   1.163   1.214  11.538 -0.3753  0.2560 -0.5643
   53TMC2     O  813   1.277   1.207  11.493  0.2315  0.6259 -0.3115
   53TMC2     H  814   1.332   1.244  11.723  0.7812 -0.3301  1.4379
   53TMC2    H1  815   0.957   1.348  11.597  0.8769 -2.4559 -0.5559
   53TMC2    H2  816   1.057   1.367  12.026  1.0733 -1.5985  0.2836
   53TMC2    C7  817   0.842   1.403  11.842  0.3754  0.2843 -0.0695
   53TMC2    C8  818   1.296   1.314  11.986 -0.3621 -0.8514 -0.3886
   53TMC2    O1  819   0.758   1.370  11.762  0.3515  0.5820 -0.3200
   53TMC2    O2  820   1.315   1.399  12.072 -0.3374  0.1647  0.0911
   53TMC2    O5  821   1.392   1.233  11.941 -0.2649  0.4316  0.0633
   53TMC2    H5  822   1.343   1.166  11.888 -0.7220  0.5700  0.3075
   54MPD2     C  823   1.149   1.079  11.277 -0.4862  0.9841 -0.2253
   54MPD2    C1  824   1.046   1.089  11.364 -0.1861  0.1401  0.3233
   54MPD2    C2  825   0.923   1.030  11.342  0.2468 -0.7477  0.3717
   54MPD2    C3  826   0.898   0.947  11.235 -0.1279 -0.0840  0.4440
   54MPD2    C4  827   0.998   0.949  11.136 -0.4686  0.4083  0.0517
   54MPD2    C5  828   1.124   1.009  11.160  0.5689  0.0661 -0.3826
   54MPD2     H  829   0.851   1.042  11.422  1.6735 -2.0662  1.8566
   54MPD2    H1  830   0.994   0.902  11.039 -1.3759 -0.2631  0.4157
   54MPD2    H2  831   1.247   1.123  11.288 -0.1454 -0.3439  2.0440
   54MPD2    H3  832   1.204   1.009  11.086  2.7999  0.0295  2.0326
   54MPD2     N  833   0.776   0.884  11.198 -0.5089  0.5178 -0.1008
   54MPD2    H5  834   0.783   0.846  11.105 -0.0587 -0.5042  0.3499
   54MPD2    N1  835   1.049   1.156  11.489  0.2088  0.3123 -0.1728
   54MPD2    H7  836   0.963   1.154  11.542  0.5501 -1.1714  0.3331
   55MPD2     C  837   1.391   4.400  17.271 -0.4219 -0.2427 -0.1230
   55MPD2    C1  838   1.393   4.318  17.375  0.4814 -0.6260  0.5159
   55MPD2    C2  839   1.325   4.357  17.493  0.5948 -0.4456  0.3903
   55MPD2    C3  840   1.271   4.476  17.506  0.0324  0.0659 -0.1166
   55MPD2    C4  841   1.272   4.556  17.395 -0.1994  0.2810 -0.1211
   55MPD2    C5  842   1.333   4.524  17.277  0.3492  0.2158 -0.4094
   55MPD2     H  843   1.325   4.301  17.586  2.7338 -0.9047  0.1342
   55MPD2    H1  844   1.223   4.653  17.404  0.1015  0.2412  1.8864
   55MPD2    H2  845   1.433   4.369  17.176  0.3564  0.2578  0.0549
   55MPD2    H3  846   1.313   4.585  17.190  0.1929  0.7648  0.0091
   55MPD2     N  847   1.217   4.514  17.635  0.4326 -1.0179 -0.2876
   55MPD2    H5  848   1.225   4.440   0.011  0.1982  0.5682  1.4501
   55MPD2    N1  849   1.479   4.202  17.356  0.5457 -0.1198 -0.1552
   55MPD2    H7  850   1.523   4.195  17.265  0.3201  1.1173 -0.3573
   56TCq2    C1  851   1.493   4.107  17.455  0.0238  0.2127  0.2735
   56TCq2    O2  852   1.443   4.104  17.568 -0.1164 -0.1648  0.6014
   56TCq2    C2  853   1.568   3.990  17.418  0.2194 -0.7860 -0.2586
   56TCq2    C3  854   1.582   3.953  17.286  0.4779 -0.0768 -0.2473
   56TCq2    C4  855   1.664   3.853  17.253 -0.7071  0.3083 -0.1169
   56TCq2    C5  856   1.711   3.775  17.351  0.5244  0.4100  0.0289
   56TCq2    C6  857   1.689   3.804  17.483 -0.2025 -0.1769 -0.7981
   56TCq2    C7  858   1.610   3.911  17.512 -0.2379  0.4355  0.2522
   56TCq2    C8  859   1.750   3.715  17.585  0.0685 -0.7668  0.8139
   56TCq2    O4  860   1.825   3.625  17.552  0.0849 -0.3213  0.1668
   56TCq2    C9  861   1.665   3.794  17.119  0.0366  0.5682  0.1296
   56TCq2    O5  862   1.698   3.674  17.113  0.2454  0.1271 -0.5304
   56TCq2    O6  863   1.640   3.867  17.021 -0.8061  0.3598  0.0068
   56TCq2    H2  864   1.528   3.999  17.205  0.5943 -0.2382 -0.4142
   56TCq2    H3  865   1.774   3.690  17.326  1.3163  1.0920 -0.2623
   56TCq2    H4  866   1.614   3.952  17.612  0.4333  2.0971 -0.4602
   57TMC2    C1  867   1.085   0.040  13.801 -0.3188  0.6227 -0.4943
   57TMC2    C2  868   1.150   0.104  13.907 -0.4459  0.6197 -0.8111
   57TMC2    C3  869   1.284   0.123  13.884  0.2440  0.1368  0.2143
   57TMC2    C4  870   1.152   4.710  13.689  0.0981 -0.7413  0.1806
   57TMC2    C5  871   1.282   0.005  13.687 -0.2988 -0.0796  0.6888
   57TMC2    C6  872   1.350   0.092  13.770  0.4901  0.3131  0.1870
   57TMC2     C  873   0.941   0.025  13.805  0.7606  0.4179  0.4127
   57TMC2     O  874   0.879   0.099  13.880 -0.0837 -0.1243 -0.0599
   57TMC2     H  875   1.097   0.141  13.994 -2.0446 -0.7539 -1.1972
   57TMC2    H1  876   1.101   4.654  13.611 -0.3029 -0.0150 -0.0883
   57TMC2    H2  877   1.458   0.093  13.768  0.4861  0.5245  0.0962
   57TMC2    C7  878   1.353   4.708  13.562 -1.1921 -0.3940 -0.5384
   57TMC2    C8  879   1.381   0.177  13.982  0.5809  0.0873  0.2494
   57TMC2    O1  880   1.439   0.068  13.534  0.7667 -0.5440  0.2586
   57TMC2    O2  881   1.498   0.212  13.956 -0.0313  0.0303  0.3359
   57TMC2    O5  882   1.309   0.205  14.092 -0.0299  0.2168 -0.4192
   57TMC2    H5  883   1.224   0.156  14.096 -0.4628  0.8859 -1.1935
   58MPD2     C  884   0.502   4.518  13.768  0.0166 -0.1143 -0.0106
   58MPD2    C1  885   0.532   4.649  13.774 -0.1669  0.0590 -0.8810
   58MPD2    C2  886   0.659   4.690  13.756 -1.3932 -0.1751 -0.7185
   58MPD2    C3  887   0.761   4.599  13.737  0.7292 -0.4446 -0.1572
   58MPD2    C4  888   0.732   4.469  13.720 -0.7448 -0.5649 -0.2013
   58MPD2    C5  889   0.601   4.425  13.744 -0.4514  0.2835 -0.7405
   58MPD2     H  890   0.678   0.074  13.755 -1.0955 -0.2291 -0.8623
   58MPD2    H1  891   0.813   4.398  13.727 -1.2393 -0.9768  1.2668
   58MPD2    H2  892   0.399   4.485  13.775 -0.5495  0.9290 -3.5179
   58MPD2    H3  893   0.582   4.319  13.736  2.6643 -0.2554 -0.9859
   58MPD2     N  894   0.893   4.633  13.738 -0.2048 -0.0507  0.2792
   58MPD2    H5  895   0.962   4.564  13.711  1.4115  0.4955  3.0555
   58MPD2    N1  896   0.435   0.024  13.797 -0.0255 -0.7412 -0.3122
   58MPD2    H7  897   0.459   0.122  13.786 -3.0742  0.0600  0.2525
   59MPD2     C  898   3.152   4.678  13.042  0.2126  0.6247  0.0563
   59MPD2    C1  899   3.255   4.684  12.941 -0.9513 -0.4338 -0.4841
   59MPD2    C2  900   3.379   0.010  12.970  0.8911 -0.2470 -0.0003
   59MPD2    C3  901   3.402   0.062  13.095  0.2112 -0.5593  0.2874
   59MPD2    C4  902   3.301   0.052  13.193  0.7069  0.1489  0.7206
   59MPD2    C5  903   3.179   4.721  13.169 -0.6013 -0.0327 -0.2037
   59MPD2     H  904   3.453   0.021  12.891  1.4056 -2.2610  0.1827
   59MPD2    H1  905   3.324   0.088  13.293  0.1794  0.5309  0.7071
   59MPD2    H2  906   3.052   4.639  13.028 -0.1770  1.7707 -0.4135
   59MPD2    H3  907   3.103   0.005  13.246  3.4199  1.1456  3.6205
   59MPD2     N  908   3.523   0.125  13.131  1.1027  0.0810  0.1985
   59MPD2    H5  909   3.533   0.149  13.229  1.1613 -0.6320  0.3718
   59MPD2    N1  910   3.238   4.645  12.800  0.8769 -0.7365 -0.3819
   59MPD2    H7  911   3.322   4.644  12.744  1.6282  0.5958  0.7267
   60TCq2    C1  912   3.122   4.580  12.755  0.2126 -0.8478  0.1917
   60TCq2    O2  913   3.012   4.580  12.809 -0.0253  0.0584 -0.2740
   60TCq2    C2  914   3.138   4.527  12.624  0.4246 -0.1073 -0.0170
   60TCq2    C3  915   3.073   4.415  12.579 -0.0378 -0.6073  0.6653
   60TCq2    C4  916   3.094   4.362  12.450  0.0611  0.0645  0.1552
   60TCq2    C5  917   3.185   4.425  12.372 -0.1732  0.1672 -0.4062
   60TCq2    C6  918   3.253   4.535  12.420 -0.3041  0.3255  0.4706
   60TCq2    C7  919   3.226   4.589  12.542 -0.5390 -0.0011  0.0693
   60TCq2    C8  920   3.353   4.598  12.334 -0.3660 -0.1337 -0.2345
   60TCq2    O4  921   3.417   4.517  12.269 -0.0798  0.1571  0.0203
   60TCq2    C9  922   3.034   4.238  12.410  0.1009 -0.2421  0.4275
   60TCq2    O5  923   3.069   4.202  12.292  0.2624 -0.6422 -0.0820
   60TCq2    O6  924   2.939   4.187  12.474  0.1977 -0.4197  0.0024
   60TCq2    H2  925   3.007   4.362  12.648 -1.6254 -0.7303 -0.9592
   60TCq2    H3  926   3.225   4.386  12.279 -0.8163 -1.1991 -0.1079
   60TCq2    H4  927   3.268   4.684  12.572  1.0088 -0.6650 -0.0228
   61MPD2     C  928   3.087   1.497  15.385 -0.0402 -0.3761  0.0298
   61MPD2    C1  929   2.964   1.508  15.331  0.5503 -0.5642  0.3088
   61MPD2    C2  930   2.960   1.510  15.195 -0.0848 -0.5299 -0.5736
   61MPD2    C3  931   3.067   1.487  15.112 -0.6424  0.6854 -0.6283
   61MPD2    C4  932   3.189   1.467  15.172 -0.0601 -0.1595 -0.1396
   61MPD2    C5  933   3.197   1.483  15.307 -0.2461 -0.4137 -1.1799
   61MPD2     H  934   2.867   1.531  15.143 -1.2857  0.4268  1.9541
   61MPD2    H1  935   3.284   1.447  15.124 -0.8576 -0.2071 -1.6856
   61MPD2    H2  936   3.105   1.487  15.491 -1.6093 -1.2769  0.2081
   61MPD2    H3  937   3.293   1.478  15.356  0.8730 -0.9597 -3.4310
   61MPD2     N  938   3.070   1.493  14.967  0.0265  0.0064 -0.3654
   61MPD2    H5  939   3.152   1.464  14.914  0.5200  1.1236 -0.2051
   61MPD2    N1  940   2.845   1.511  15.407 -0.1417 -0.1388 -0.1258
   61MPD2    H7  941   2.752   1.510  15.365  0.9923 -0.3466 -2.5958
   62TCq2    C1  942   2.839   1.489  15.544 -0.2660  0.0392 -0.7900
   62TCq2    O2  943   2.927   1.462  15.624 -0.1446 -0.0996  0.2224
   62TCq2    C2  944   2.698   1.489  15.596  0.4769 -0.0465  0.1398
   62TCq2    C3  945   2.677   1.417  15.707 -0.0245 -0.7586  0.2552
   62TCq2    C4  946   2.550   1.393  15.746 -0.7764 -0.5435  0.2665
   62TCq2    C5  947   2.449   1.451  15.671 -1.1157  0.0815 -0.2922
   62TCq2    C6  948   2.471   1.532  15.562  0.0209  0.2871  0.1616
   62TCq2    C7  949   2.604   1.544  15.519  0.1248 -0.5346 -0.1704
   62TCq2    C8  950   2.363   1.608  15.502 -0.9280  0.5970 -0.0456
   62TCq2    O4  951   2.244   1.580  15.526 -0.6980  0.1804 -0.0632
   62TCq2    C9  952   2.526   1.300  15.853  0.6420 -0.5908  0.0793
   62TCq2    O5  953   2.405   1.289  15.882 -0.7523  0.2543  0.5446
   62TCq2    O6  954   2.619   1.223  15.890  0.0191  0.2698  0.0019
   62TCq2    H2  955   2.760   1.366  15.755  0.7441  0.7669  0.5354
   62TCq2    H3  956   2.345   1.435  15.696 -0.8239  1.4701  1.8191
   62TCq2    H4  957   2.630   1.612  15.439  0.4647 -1.4020 -0.7975
   63TMC2    C1  958   1.977   1.198  10.498 -0.1591 -0.6701  0.2622
   63TMC2    C2  959   1.912   1.270  10.592 -0.3959 -0.6247  0.1704
   63TMC2    C3  960   1.973   1.377  10.651  0.5099 -0.4071  0.2790
   63TMC2    C4  961   2.107   1.226  10.462  0.4353 -0.1400 -0.1907
   63TMC2    C5  962   2.164   1.332  10.522  0.2142 -0.0404  0.3215
   63TMC2    C6  963   2.101   1.414  10.621 -0.5724  0.5631 -0.6152
   63TMC2     C  964   1.888   1.114  10.420  0.3198  0.1077 -0.0134
   63TMC2     O  965   1.771   1.152  10.401 -0.5669 -0.0477  0.2776
   63TMC2     H  966   1.808   1.246  10.610  0.1332 -2.4226  0.8968
   63TMC2    H1  967   2.152   1.184  10.373  1.4567  0.1306  0.1934
   63TMC2    H2  968   2.144   1.504  10.662 -0.3702 -0.5722  1.6672
   63TMC2    C7  969   2.261   1.400  10.441 -0.1560 -0.9673 -0.0119
   63TMC2    C8  970   1.887   1.462  10.727 -0.6998 -0.5342  0.4492
   63TMC2    O1  971   2.258   1.379  10.321  0.0763  0.7325 -0.1613
   63TMC2    O2  972   1.765   1.444  10.731 -0.2272  0.2127  0.5801
   63TMC2    O5  973   1.958   1.528  10.820 -0.3225 -0.1728 -0.1603
   63TMC2    H5  974   2.044   1.485  10.842 -0.6317 -1.1944 -0.9573
   64MPD2     C  975   1.841   0.733  10.066  0.2031  0.3475 -0.5280
   64MPD2    C1  976   1.951   0.710  10.135 -0.9869  0.0117 -0.3055
   64MPD2    C2  977   1.990   0.814  10.220  0.3940 -0.3694  1.2058
   64MPD2    C3  978   1.912   0.923  10.259  0.1029 -0.1262  0.8260
   64MPD2    C4  979   1.796   0.935  10.187  0.1771  0.5391 -0.1640
   64MPD2    C5  980   1.766   0.840  10.088 -0.4530  0.1884 -0.2759
   64MPD2     H  981   2.087   0.810  10.267  1.5418 -0.4421 -1.1633
   64MPD2    H1  982   1.737   1.022  10.212  3.8982  2.5333  1.7199
   64MPD2    H2  983   1.815   0.664   9.986  1.0021  0.1952 -0.6518
   64MPD2    H3  984   1.675   0.848  10.029 -2.0226 -0.0907  2.1102
   64MPD2     N  985   1.964   1.016  10.358  0.4010 -0.2179  0.6350
   64MPD2    H5  986   2.059   0.997  10.390 -0.5239 -2.0919  2.2934
   64MPD2    N1  987   2.042   0.600  10.123  0.5365 -0.1658 -0.6568
   64MPD2    H7  988   2.119   0.600  10.190 -0.3626  0.5271  0.3726
   65MPD2     C  989   3.412   0.954  15.619  0.2611  0.3988 -0.4335
   65MPD2    C1  990   3.481   0.945  15.497 -0.1637  0.2043  0.2389
   65MPD2    C2  991   3.508   0.818  15.448 -0.2494 -0.8435  0.4884
   65MPD2    C3  992   3.452   0.702  15.509  0.5038 -0.0674 -0.1374
   65MPD2    C4  993   3.365   0.717  15.617 -1.2221  0.2169  0.0540
   65MPD2    C5  994   3.353   0.839  15.674 -0.4199 -0.0456  0.0439
   65MPD2     H  995   3.570   0.808  15.359 -0.0685 -1.7123  0.7175
   65MPD2    H1  996   3.320   0.634  15.669 -1.3182  0.3612  0.2024
   65MPD2    H2  997   3.404   1.049  15.670 -0.0374 -0.6247  1.4069
   65MPD2    H3  998   3.289   0.852  15.761 -3.1584  0.3224 -2.0461
   65MPD2     N  999   3.455   0.577  15.438 -0.1773 -0.4461 -0.1232
   65MPD2    H5 1000   3.377   0.514  15.456 -1.5091  0.2516 -3.4567
   65MPD2    N1 1001   3.536   1.061  15.436 -0.1961  0.6232  0.6146
   65MPD2    H7 1002   3.588   1.039  15.352 -3.3037 -1.0420 -0.8872
   66TCq2    C1 1003   3.513   1.192  15.473 -0.0549  0.3217 -0.2875
   66TCq2    O2 1004   3.436   1.247  15.556  0.5183  0.0912 -0.4814
   66TCq2    C2 1005   3.564   1.278  15.365 -0.1135 -0.5226 -0.2392
   66TCq2    C3 1006   3.572   1.229  15.231 -0.2363 -0.0562 -0.1797
   66TCq2    C4 1007   3.593   1.314  15.126  0.4209  0.4544 -0.4368
   66TCq2    C5 1008   3.586   1.449  15.156  0.3466  0.3048  0.2510
   66TCq2    C6 1009   3.580   1.494  15.287  0.1247  0.1424 -0.0595
   66TCq2    C7 1010   3.566   1.410  15.393 -0.0496  0.5785 -0.1322
   66TCq2    C8 1011   3.567   1.637  15.312 -0.2380  0.4651  0.3821
   66TCq2    O4 1012   3.614   1.718  15.232  0.1040 -0.2915 -0.2994
   66TCq2    C9 1013   3.603   1.262  14.992  0.1796  0.0878 -0.5812
   66TCq2    O5 1014   3.579   1.143  14.984  0.3231  0.2968  0.2324
   66TCq2    O6 1015   3.600   1.349  14.898  0.1647 -0.2029  0.0182
   66TCq2    H2 1016   3.563   1.124  15.208  2.7846  0.0451 -1.9801
   66TCq2    H3 1017   3.605   1.525  15.081 -1.2836  1.4258  0.9721
   66TCq2    H4 1018   3.587   1.435  15.496 -0.0168  1.8379 -0.4476
   67MPD2     C 1019   3.324   0.530  13.995 -0.7224  0.0314  0.0474
   67MPD2    C1 1020   3.315   0.653  14.058 -0.0144  0.0830  0.5259
   67MPD2    C2 1021   3.229   0.744  13.999  0.5091 -0.4608  0.0692
   67MPD2    C3 1022   3.154   0.720  13.885  0.0011  0.0693  0.5848
   67MPD2    C4 1023   3.164   0.591  13.830  0.7201 -0.1256  0.3713
   67MPD2    C5 1024   3.254   0.500  13.881  0.5750  0.3561 -0.0234
   67MPD2     H 1025   3.221   0.836  14.056  0.8611 -0.1035 -0.4595
   67MPD2    H1 1026   3.102   0.563  13.746  0.4354 -1.6375  1.0811
   67MPD2    H2 1027   3.383   0.451  14.041 -4.2789 -2.0037  1.0780
   67MPD2    H3 1028   3.246   0.399  13.843  4.0610  0.7581 -1.8068
   67MPD2     N 1029   3.064   0.811  13.826  0.0535  0.7660 -0.2121
   67MPD2    H5 1030   3.010   0.783  13.744 -0.3931  1.3133 -0.1088
   67MPD2    N1 1031   3.369   0.678  14.184 -0.4088  0.5900 -0.0082
   67MPD2    H7 1032   3.337   0.762  14.231 -0.2676 -0.2157  1.5366
   68TCq2    C1 1033   3.447   0.594  14.259  0.6301 -0.4673  0.5810
   68TCq2    O2 1034   3.508   0.498  14.223 -0.2180 -0.2869 -0.4359
   68TCq2    C2 1035   3.479   0.654  14.394 -0.0264  0.4902 -0.0181
   68TCq2    C3 1036   3.409   0.760  14.441 -0.1351  0.0714  0.6951
   68TCq2    C4 1037   3.441   0.793  14.570 -0.3858  0.5134 -0.0471
   68TCq2    C5 1038   3.529   0.723  14.654 -0.8398 -0.1321 -0.7008
   68TCq2    C6 1039   3.588   0.610  14.603 -0.3384 -0.5449  0.2427
   68TCq2    C7 1040   3.562   0.578  14.470  0.4673 -0.0118 -0.2476
   68TCq2    C8 1041   3.713   0.560  14.662  0.1636 -0.5593  0.2165
   68TCq2    O4 1042   3.780   0.487  14.590 -0.5918  0.3217  0.3326
   68TCq2    C9 1043   3.383   0.907  14.628  0.0100 -0.6252  0.5787
   68TCq2    O5 1044   3.319   0.981  14.544 -0.1017  0.6673  0.1915
   68TCq2    O6 1045   3.382   0.916  14.755  0.0668 -0.2797  0.5413
   68TCq2    H2 1046   3.335   0.815  14.382  0.5252  1.6295  1.3127
   68TCq2    H3 1047   3.552   0.769  14.749  1.6434 -1.3267 -0.7370
   68TCq2    H4 1048   3.626   0.506  14.422 -1.3552 -0.3568 -2.1653
   69TMC2    C1 1049   4.681   1.738  11.581  0.0537  0.9827 -0.0656
   69TMC2    C2 1050   4.573   1.776  11.509 -0.7438 -0.3766 -0.5617
   69TMC2    C3 1051   4.579   1.767  11.373  0.1396  0.2962 -0.3012
   69TMC2    C4 1052   0.062   1.673  11.515 -0.2265  0.1522 -0.2647
   69TMC2    C5 1053   0.056   1.649  11.380 -0.0112 -0.0266 -0.9156
   69TMC2    C6 1054   4.676   1.697  11.306  0.2440  0.4295 -0.2048
   69TMC2     C 1055   4.678   1.716  11.723 -0.0355 -0.5811  0.4346
   69TMC2     O 1056   0.058   1.670  11.769 -0.6479  0.8621  0.2903
   69TMC2     H 1057   4.480   1.817  11.546  1.0496 -0.5013  4.0359
   69TMC2    H1 1058   0.150   1.634  11.565 -1.3631  0.3020  1.8196
   69TMC2    H2 1059   4.685   1.715  11.200  0.9988 -1.2178 -0.4338
   69TMC2    C7 1060   0.179   1.599  11.313  0.9719  0.6092 -0.4143
   69TMC2    C8 1061   4.470   1.810  11.296  0.0948 -1.3965 -0.6668
   69TMC2    O1 1062   0.288   1.616  11.372  0.2818 -0.1261 -0.5864
   69TMC2    O2 1063   4.434   1.759  11.187 -0.0548 -0.3090 -0.5466
   69TMC2    O5 1064   4.394   1.899  11.364 -0.1464 -0.5175  0.0573
   69TMC2    H5 1065   4.451   1.942  11.431  2.6496 -1.9161 -1.4044
   70MPD2     C 1066   4.418   1.818  11.944  0.6796 -0.2418 -0.4586
   70MPD2    C1 1067   4.529   1.740  11.916 -0.5453 -0.0994  0.2568
   70MPD2    C2 1068   4.607   1.682  12.009  0.4019 -0.8617 -0.3743
   70MPD2    C3 1069   4.569   1.695  12.138  0.0918  0.2336 -0.1990
   70MPD2    C4 1070   4.457   1.774  12.175  0.1899 -0.1552 -0.5956
   70MPD2    C5 1071   4.381   1.819  12.073  0.2509 -0.1784 -0.3145
   70MPD2     H 1072   4.709   1.651  11.991  0.5275  0.0716 -1.2618
   70MPD2    H1 1073   4.417   1.779  12.276  0.0999 -1.4021 -0.5700
   70MPD2    H2 1074   4.355   1.861  11.867  1.7681  1.1583 -0.5541
   70MPD2    H3 1075   4.290   1.867  12.109  0.8973  1.0855 -0.3449
   70MPD2     N 1076   4.637   1.617  12.234 -0.2824  0.0823  0.9190
   70MPD2    H5 1077   0.002   1.582  12.195  0.7819  0.2766  3.1375
   70MPD2    N1 1078   4.560   1.740  11.778 -0.2318  0.4318  0.6736
   70MPD2    H7 1079   4.489   1.788  11.724  0.5429 -1.3123 -1.9076
   71TMC2    C1 1080   3.557   1.988   2.270  0.3954 -0.0546  0.2116
   71TMC2    C2 1081   3.603   1.890   2.354 -0.1150 -0.0258  0.0288
   71TMC2    C3 1082   3.513   1.810   2.421 -0.2848 -0.0040  0.6394
   71TMC2    C4 1083   3.423   1.990   2.240 -0.0396  0.1553  0.3529
   71TMC2    C5 1084   3.340   1.895   2.292  0.5561  0.5199 -0.2513
   71TMC2    C6 1085   3.382   1.804   2.383  0.1267 -0.3688 -0.0956
   71TMC2     C 1086   3.648   2.081   2.191 -0.4078  0.1559 -0.2062
   71TMC2     O 1087   3.599   2.125   2.092 -0.1166  0.7197  0.0336
   71TMC2     H 1088   3.708   1.885   2.383  0.0398  1.2200 -0.2922
   71TMC2    H1 1089   3.395   2.067   2.169 -0.7405  0.3045  0.7993
   71TMC2    H2 1090   3.307   1.744   2.434 -0.3035 -0.0760 -0.3803
   71TMC2    C7 1091   3.200   1.920   2.300 -0.5505 -0.7426  0.6077
   71TMC2    C8 1092   3.568   1.698   2.485 -0.1323 -0.4684 -0.6857
   71TMC2    O1 1093   3.138   1.857   2.383 -0.6245 -0.4103  0.1979
   71TMC2    O2 1094   3.684   1.661   2.473  0.1815  0.3781  0.5243
   71TMC2    O5 1095   3.466   1.612   2.513  0.2052 -0.3268  0.8711
   71TMC2    H5 1096   3.400   1.670   2.556 -1.1360 -1.5325  0.4357
   72MPD2     C 1097   4.118   2.188   2.033  0.8760 -0.2415 -0.2062
   72MPD2    C1 1098   3.999   2.242   1.990 -0.0337  0.1658  0.0252
   72MPD2    C2 1099   3.884   2.211   2.055 -0.3868 -0.1630 -0.4745
   72MPD2    C3 1100   3.893   2.126   2.172  0.3022 -0.3630 -0.0150
   72MPD2    C4 1101   4.013   2.069   2.214  0.7286  0.2272  0.5031
   72MPD2    C5 1102   4.121   2.108   2.143 -0.9322 -0.4789 -0.1960
   72MPD2     H 1103   3.786   2.253   2.036 -0.2437 -1.1340 -3.3615
   72MPD2    H1 1104   4.023   1.997   2.294 -1.0448 -1.1177 -0.5022
   72MPD2    H2 1105   4.204   2.191   1.967  1.0811 -2.4924 -0.0266
   72MPD2    H3 1106   4.219   2.062   2.157  0.8819  2.9128 -1.8432
   72MPD2     N 1107   3.774   2.081   2.239  0.0774  0.0098  0.3892
   72MPD2    H5 1108   3.796   2.027   2.322 -0.5167  0.5241  0.8766
   72MPD2    N1 1109   3.992   2.333   1.879  0.5016 -0.2996  0.3346
   72MPD2    H7 1110   3.899   2.358   1.847  1.6050  0.2847 -2.4086
   73TMC2    C1 1111   2.288   4.012  13.885 -0.3451 -0.0314  0.6836
   73TMC2    C2 1112   2.240   3.941  13.779 -0.9144  0.5221  0.2067
   73TMC2    C3 1113   2.289   3.809  13.765  0.4918  0.1047 -0.4879
   73TMC2    C4 1114   2.393   3.963  13.964 -1.0891  0.0214 -0.4829
   73TMC2    C5 1115   2.445   3.839  13.938  0.0902 -0.4305 -0.2074
   73TMC2    C6 1116   2.390   3.755  13.844  0.3161 -0.6203  1.0226
   73TMC2     C 1117   2.301   4.153  13.865  0.2634  1.2392 -0.5979
   73TMC2     O 1118   2.373   4.221  13.938 -0.2586 -0.3476  0.6702
   73TMC2     H 1119   2.151   3.976  13.729  0.7767  0.5684 -2.7780
   73TMC2    H1 1120   2.433   4.013  14.051 -1.1945 -0.0492 -0.3935
   73TMC2    H2 1121   2.430   3.656  13.825 -0.6803 -0.8842  0.3233
   73TMC2    C7 1122   2.588   3.827  13.952  0.8930  0.0286 -0.2148
   73TMC2    C8 1123   2.273   3.733  13.643  0.0868 -0.2330  0.4820
   73TMC2    O1 1124   2.638   3.718  13.949 -0.0721  0.2014 -0.8343
   73TMC2    O2 1125   2.293   3.612  13.637  0.1795 -0.4408 -0.3061
   73TMC2    O5 1126   2.176   3.788  13.569  0.2685 -0.1459 -0.4993
   73TMC2    H5 1127   2.190   3.885  13.564 -0.1106  0.0549  2.9287
   74MPD2     C 1128   2.326   4.545  13.557 -0.4260  0.2572 -0.5124
   74MPD2    C1 1129   2.426   4.477  13.623  0.5039  0.4437  0.5605
   74MPD2    C2 1130   2.393   4.360  13.689 -0.1840 -0.3690 -0.7590
   74MPD2    C3 1131   2.265   4.312  13.687  0.9543  0.0806 -0.3500
   74MPD2    C4 1132   2.172   4.380  13.621  1.0718  0.5727  0.0787
   74MPD2    C5 1133   2.200   4.502  13.564 -0.1009 -0.3085  0.7235
   74MPD2     H 1134   2.471   4.304  13.739 -0.7737 -1.6088 -1.2012
   74MPD2    H1 1135   2.069   4.347  13.627  0.8939  0.7540 -2.2987
   74MPD2    H2 1136   2.352   4.639  13.509  2.5747 -0.3636 -0.0704
   74MPD2    H3 1137   2.121   4.562  13.520  1.3931 -1.2390 -3.2149
   74MPD2     N 1138   2.224   4.199  13.759 -0.3317  0.2305  0.0503
   74MPD2    H5 1139   2.141   4.150  13.728 -0.1081 -0.3939  0.4222
   74MPD2    N1 1140   2.562   4.518  13.603 -0.5861  1.0002  0.4854
   74MPD2    H7 1141   2.581   4.606  13.557  0.9039 -0.7013 -2.1716
   75TCq2    C1 1142   3.033   0.935  13.882  0.1286 -0.3135 -0.6891
   75TCq2    O2 1143   3.050   0.981  13.992 -0.1703 -0.3947  0.5557
   75TCq2    C2 1144   2.970   1.026  13.787 -0.1404 -0.4514 -0.1440
   75TCq2    C3 1145   2.939   1.151  13.838 -0.2872 -0.0860  0.2815
   75TCq2    C4 1146   2.866   1.234  13.758  0.0730 -0.1552  0.4019
   75TCq2    C5 1147   2.817   1.188  13.634 -0.1971 -0.1000 -0.3249
   75TCq2    C6 1148   2.853   1.062  13.585  0.2890 -0.0936 -0.2136
   75TCq2    C7 1149   2.933   0.983  13.658 -0.0332  0.4868 -0.6875
   75TCq2    C8 1150   2.823   1.032  13.449  0.4978 -0.4604 -0.1721
   75TCq2    O4 1151   2.797   0.910  13.424 -0.1140 -0.3426 -0.2507
   75TCq2    C9 1152   2.843   1.371  13.794  0.1295 -0.0171 -0.0103
   75TCq2    O5 1153   2.842   1.410  13.916  0.8041 -0.5067  0.1819
   75TCq2    O6 1154   2.797   1.442  13.702 -0.4547  0.2932  0.4255
   75TCq2    H2 1155   2.994   1.197  13.919  1.4767 -2.0671  0.2049
   75TCq2    H3 1156   2.749   1.254  13.580  1.5054 -0.4455 -2.9160
   75TCq2    H4 1157   2.958   0.885  13.618  1.2676  0.3025  0.5928
   76MPD2     C 1158   1.299   1.696  11.410  0.3440  0.4074  0.1355
   76MPD2    C1 1159   1.331   1.583  11.333 -0.2277  0.3005  0.0753
   76MPD2    C2 1160   1.463   1.553  11.310  0.1874 -0.5010 -0.7366
   76MPD2    C3 1161   1.572   1.624  11.364 -0.0103 -0.0128  0.4552
   76MPD2    C4 1162   1.538   1.730  11.442 -0.3776 -0.3212  0.6028
   76MPD2    C5 1163   1.403   1.766  11.465  0.0469 -0.4543 -0.6282
   76MPD2     H 1164   1.483   1.463  11.253 -0.1835 -0.8905 -0.2552
   76MPD2    H1 1165   1.616   1.787  11.490 -1.2851  1.0048  0.4861
   76MPD2    H2 1166   1.199   1.724  11.442  0.8662  0.9426  1.2953
   76MPD2    H3 1167   1.385   1.851  11.529  2.4618 -0.7313  0.4263
   76MPD2     N 1168   1.709   1.598  11.344 -0.1979 -0.4122 -0.1473
   76MPD2    H5 1169   1.779   1.667  11.369 -1.3533  1.3492 -1.6979
   76MPD2    N1 1170   1.230   1.497  11.274 -0.1742 -0.0874  0.1678
   76MPD2    H7 1171   1.263   1.413  11.228 -3.7579 -0.2001 -2.2086
   77TCq2    C1 1172   1.768   1.482  11.289  0.1775  0.3163 -0.1777
   77TCq2    O2 1173   1.717   1.384  11.238  0.2178 -0.0168  0.2625
   77TCq2    C2 1174   1.914   1.498  11.285  0.1812  0.5212  1.2010
   77TCq2    C3 1175   1.975   1.458  11.174 -0.2880  0.4488  0.3205
   77TCq2    C4 1176   2.115   1.438  11.167  0.6522 -0.2424 -0.3575
   77TCq2    C5 1177   2.184   1.473  11.280  0.1830  0.2796 -0.5026
   77TCq2    C6 1178   2.125   1.508  11.395 -0.0651 -1.0469  0.5495
   77TCq2    C7 1179   1.989   1.529  11.394 -0.4759  0.0738  1.0287
   77TCq2    C8 1180   2.202   1.526  11.514 -0.3553  0.4972 -0.3089
   77TCq2    O4 1181   2.325   1.524  11.506  0.1138  0.6398 -0.2109
   77TCq2    C9 1182   2.189   1.409  11.046 -0.0410  0.4924 -0.0687
   77TCq2    O5 1183   2.315   1.405  11.059  0.2843  0.5796 -0.4027
   77TCq2    O6 1184   2.130   1.405  10.936 -0.3173  0.3698  1.0754
   77TCq2    H2 1185   1.911   1.431  11.091  2.0111 -0.1347 -1.2676
   77TCq2    H3 1186   2.292   1.469  11.279  0.2272  0.9366  1.7367
   77TCq2    H4 1187   1.940   1.581  11.476 -0.9995 -0.0855  0.8194
   78MPD1     C 1188   2.414   2.313   1.366 -0.7437 -0.1788 -0.0486
   78MPD1    C1 1189   2.536   2.253   1.334 -0.7037  0.6522  0.0341
   78MPD1    C2 1190   2.588   2.163   1.428 -0.0540 -0.5275 -0.2190
   78MPD1    C3 1191   2.548   2.157   1.559  0.4615 -0.0979 -0.7877
   78MPD1    C4 1192   2.430   2.225   1.591 -0.2022 -0.0458 -0.9125
   78MPD1    C5 1193   2.372   2.306   1.500  0.0082 -0.2667 -0.1025
   78MPD1     H 1194   2.666   2.098   1.392  0.0800 -0.8189  0.5973
   78MPD1    H1 1195   2.391   2.228   1.692 -1.0126 -1.1450 -1.1947
   78MPD1    H2 1196   2.351   2.358   1.289 -0.1190 -1.0894 -1.0907
   78MPD1    H3 1197   2.278   2.355   1.524  1.3528  1.9308  0.7242
   78MPD1     N 1198   2.609   2.077   1.659  0.1094 -0.5526  0.0814
   78MPD1    H5 1199   2.569   2.084   1.752  1.0160  0.0960  0.4279
   78MPD1    N1 1200   2.576   2.253   1.199 -0.0043 -0.9608 -0.1782
   78MPD1    H6 1201   2.549   2.342   1.157  0.9428 -0.2346  0.7562
   78MPD1    H7 1202   2.676   2.243   1.182 -0.2513 -1.0270 -1.6354
   79TCq2    C1 1203   2.713   1.996   1.646  0.1615  0.0365  0.7225
   79TCq2    O2 1204   2.779   1.969   1.550 -0.4317  0.3063 -0.1852
   79TCq2    C2 1205   2.750   1.945   1.774 -0.1325 -0.1597 -0.0868
   79TCq2    C3 1206   2.653   1.915   1.868  0.1085 -0.0062 -0.2753
   79TCq2    C4 1207   2.691   1.845   1.975 -0.6597  0.1851 -0.4326
   79TCq2    C5 1208   2.828   1.811   2.001  0.2209  0.2418 -0.1214
   79TCq2    C6 1209   2.916   1.835   1.900  0.9523  0.5270 -0.4022
   79TCq2    C7 1210   2.885   1.910   1.789 -0.7092 -0.2152 -0.1937
   79TCq2    C8 1211   3.058   1.786   1.916  0.1170  0.0214  0.5307
   79TCq2    O4 1212   3.141   1.835   1.841 -0.2629  0.3232 -0.0166
   79TCq2    C9 1213   2.602   1.810   2.078  0.4300 -0.2374 -0.0051
   79TCq2    O5 1214   2.647   1.732   2.169 -0.3597 -0.4947  0.1601
   79TCq2    O6 1215   2.478   1.835   2.066  0.4520  0.0226 -0.1762
   79TCq2    H2 1216   2.546   1.925   1.858 -0.2501 -2.9106  0.5062
   79TCq2    H3 1217   2.858   1.758   2.091  1.4492 -1.5955 -1.6034
   79TCq2    H4 1218   2.961   1.920   1.713  0.2950 -0.2681  0.8119
   80MPD2     C 1219   0.627   1.161  12.135 -0.4360 -0.3650  0.0686
   80MPD2    C1 1220   0.595   1.069  12.035 -0.1436  0.3016  0.5812
   80MPD2    C2 1221   0.463   1.026  12.021 -0.2619 -0.5948 -0.7429
   80MPD2    C3 1222   0.369   1.064  12.119  0.2521 -0.4937  0.5260
   80MPD2    C4 1223   0.402   1.151  12.220 -0.1944  0.0625 -0.1627
   80MPD2    C5 1224   0.529   1.201  12.225 -0.4392  0.1910  0.5405
   80MPD2     H 1225   0.430   0.957  11.944  0.9936 -0.3252 -1.5287
   80MPD2    H1 1226   0.334   1.199  12.290  0.8527 -0.0220  0.9128
   80MPD2    H2 1227   0.727   1.198  12.151 -1.3658  2.1262 -0.0058
   80MPD2    H3 1228   0.548   1.284  12.292 -0.1182 -0.2438  0.9870
   80MPD2     N 1229   0.231   1.028  12.109 -0.1476  0.2088 -0.0406
   80MPD2    H5 1230   0.181   1.040  12.197 -0.3579 -2.0850  0.1351
   80MPD2    N1 1231   0.682   1.029  11.933  0.5564 -0.4515 -0.2195
   80MPD2    H7 1232   0.641   0.986  11.851 -3.0345  0.8298  0.8921
   81TCq2    C1 1233   0.823   1.031  11.948 -0.6593 -0.2233  0.1302
   81TCq2    O2 1234   0.892   1.071  12.039 -1.2461  0.4833  0.1471
   81TCq2    C2 1235   0.894   0.963  11.837 -0.1380  0.3197  0.2078
   81TCq2    C3 1236   1.031   0.978  11.839 -0.7224 -0.4743  0.6768
   81TCq2    C4 1237   1.112   0.918  11.749 -0.3674  0.1155 -0.4766
   81TCq2    C5 1238   1.058   0.840  11.653 -0.3378 -0.9052  0.1123
   81TCq2    C6 1239   0.923   0.816  11.654  0.3389 -0.3214 -0.6132
   81TCq2    C7 1240   0.831   0.877  11.744  0.2594 -0.5532  0.3104
   81TCq2    C8 1241   0.880   0.687  11.603 -0.0736  0.1551 -0.1456
   81TCq2    O4 1242   0.904   0.670  11.482 -0.4446  0.6503  0.0655
   81TCq2    C9 1243   1.257   0.934  11.757  0.2462 -0.5581  0.0779
   81TCq2    O5 1244   1.321   0.840  11.697 -0.5657  0.3547 -0.1209
   81TCq2    O6 1245   1.305   1.014  11.837  0.4552  0.2754  0.1892
   81TCq2    H2 1246   1.085   1.017  11.925 -1.3804  2.7324 -0.3808
   81TCq2    H3 1247   1.110   0.773  11.585 -0.4300 -0.0724 -0.7902
   81TCq2    H4 1248   0.731   0.835  11.757  0.3865 -1.0947 -0.4536
   82MPD2     C 1249   4.011   0.212  10.243  0.1717 -0.5908 -0.1884
   82MPD2    C1 1250   4.142   0.186  10.207  0.1482 -0.3016  0.4592
   82MPD2    C2 1251   4.235   0.176  10.310  0.6892  0.0748 -0.1702
   82MPD2    C3 1252   4.194   0.190  10.441  0.5594  0.4812  0.1572
   82MPD2    C4 1253   4.070   0.213  10.473  0.3322 -0.2589 -0.1916
   82MPD2    C5 1254   3.981   0.222  10.374 -0.2664  0.2283 -0.4924
   82MPD2     H 1255   4.338   0.151  10.285  0.9553 -0.1730  1.1607
   82MPD2    H1 1256   4.042   0.207  10.578  1.2855  0.6340  0.1181
   82MPD2    H2 1257   3.933   0.231  10.170 -2.4112 -0.2867  2.6474
   82MPD2    H3 1258   3.878   0.240  10.403 -0.3640 -0.2580 -0.5366
   82MPD2     N 1259   4.277   0.169  10.551 -0.5378 -0.0394 -0.3138
   82MPD2    H5 1260   4.235   0.153  10.642  1.5908  1.3597  0.9159
   82MPD2    N1 1261   4.174   0.171  10.073 -0.0945 -0.0217  0.0284
   82MPD2    H7 1262   4.110   0.208  10.003 -2.4772 -0.9557  1.7244
   83TCq2    C1 1263   4.413   0.162  10.550 -0.6407  0.2381  0.3498
   83TCq2    O2 1264   4.483   0.188  10.456  0.4965  0.3612 -0.4671
   83TCq2    C2 1265   4.475   0.123  10.676 -0.2305 -0.4087 -0.0668
   83TCq2    C3 1266   4.597   0.163  10.712  0.0136 -0.0712 -0.3615
   83TCq2    C4 1267   4.633   0.149  10.843  0.1296 -0.9634  0.0976
   83TCq2    C5 1268   4.547   0.098  10.939  0.3331 -0.7214  0.3409
   83TCq2    C6 1269   4.441   0.035  10.893 -0.3019  0.1268  0.1447
   83TCq2    C7 1270   4.395   0.063  10.769  0.5109 -0.5217 -0.6317
   83TCq2    C8 1271   4.361   4.675  10.979  0.3026  0.1572 -1.2902
   83TCq2    O4 1272   4.249   4.639  10.947 -0.2784 -0.0319  0.3145
   83TCq2    C9 1273   0.033   0.207  10.890 -0.3761 -0.2262  0.0187
   83TCq2    O5 1274   0.106   0.267  10.805  0.0880  0.2069  0.1309
   83TCq2    O6 1275   0.070   0.192  11.009 -0.1179  0.5824 -0.0695
   83TCq2    H2 1276   4.660   0.226  10.649 -1.2253  0.4185 -1.1143
   83TCq2    H3 1277   4.569   0.095  11.045  0.1066  1.1956  0.4464
   83TCq2    H4 1278   4.296   0.024  10.750  0.4283 -0.4529 -0.3341
   84TCq2    C1 1279   0.749   3.582  10.759 -0.0559  0.4778  0.4390
   84TCq2    O2 1280   0.651   3.534  10.806 -0.2876 -0.1013  0.0556
   84TCq2    C2 1281   0.758   3.725  10.772 -0.0051 -0.3601 -0.6838
   84TCq2    C3 1282   0.843   3.804  10.694  0.2739  0.1012  0.5762
   84TCq2    C4 1283   0.830   3.942  10.699  0.0140  0.0651 -0.4302
   84TCq2    C5 1284   0.724   3.996  10.771  0.1310  0.1870 -0.1110
   84TCq2    C6 1285   0.650   3.913  10.858  0.9701  0.2055  0.8017
   84TCq2    C7 1286   0.677   3.779  10.868 -0.3709 -0.5159  0.0463
   84TCq2    C8 1287   0.598   3.977  10.979  0.2607  0.2701  0.8244
   84TCq2    O4 1288   0.518   3.910  11.040  0.1189  0.1565  0.3223
   84TCq2    C9 1289   0.931   4.021  10.630 -0.3009 -0.8284  0.5676
   84TCq2    O5 1290   1.019   3.955  10.570  0.0441 -0.4126 -0.1140
   84TCq2    O6 1291   0.939   4.133  10.682  0.3174  0.0119  0.0060
   84TCq2    H2 1292   0.931   3.758  10.649  0.7458  1.4430  0.1392
   84TCq2    H3 1293   0.706   4.101  10.749 -2.7413 -0.7794 -2.3389
   84TCq2    H4 1294   0.615   3.714  10.929  2.4569 -3.6649 -0.4648
   85MPD2     C 1295   0.702   1.984  16.140  0.2370 -0.4650 -0.2055
   85MPD2    C1 1296   0.672   1.904  16.031  0.6949  0.7754  0.4713
   85MPD2    C2 1297   0.736   1.922  15.912  1.1483  0.1360 -0.3372
   85MPD2    C3 1298   0.834   2.021  15.900  0.6581  0.0076 -0.4748
   85MPD2    C4 1299   0.852   2.114  16.001 -0.8827 -0.1393  0.4563
   85MPD2    C5 1300   0.797   2.088  16.123  0.0853 -0.2915 -0.3089
   85MPD2     H 1301   0.704   1.864  15.827 -0.2363  0.4980 -0.0602
   85MPD2    H1 1302   0.910   2.206  15.991 -0.0155 -0.5762  1.4491
   85MPD2    H2 1303   0.660   1.971  16.239  0.1063 -4.3798 -0.7501
   85MPD2    H3 1304   0.809   2.166  16.197 -2.8360  1.5194 -1.7624
   85MPD2     N 1305   0.898   2.047  15.773  0.3859 -0.1932  0.8598
   85MPD2    H5 1306   0.870   2.000  15.687  0.0018 -0.7490  1.2922
   85MPD2    N1 1307   0.587   1.793  16.034 -0.0667 -0.1021 -0.2408
   85MPD2    H7 1308   0.549   1.760  15.946 -0.5238 -1.3693  0.4287
   86TCq2    C1 1309   0.993   2.145  15.738 -0.1737 -0.7390  0.0122
   86TCq2    O2 1310   1.005   2.252  15.791  0.4723 -0.1464  0.1032
   86TCq2    C2 1311   1.041   2.130  15.602 -0.0492 -0.6468  0.3197
   86TCq2    C3 1312   1.066   2.241  15.531  0.1608 -0.5204  0.2116
   86TCq2    C4 1313   1.081   2.228  15.395 -0.2841  0.7926  0.2470
   86TCq2    C5 1314   1.076   2.110  15.326 -0.0834 -0.1103  0.4546
   86TCq2    C6 1315   1.070   1.999  15.408 -0.0407  0.3163 -0.4333
   86TCq2    C7 1316   1.044   2.006  15.542  0.1370  0.2898 -0.4345
   86TCq2    C8 1317   1.091   1.864  15.354 -0.8138 -0.4734 -0.3850
   86TCq2    O4 1318   1.106   1.781  15.438  0.6124  0.3455 -0.1579
   86TCq2    C9 1319   1.072   2.349  15.315  0.0403 -0.4073  0.8852
   86TCq2    O5 1320   1.051   2.462  15.368 -0.6359 -0.4995  0.0620
   86TCq2    O6 1321   1.093   2.345  15.189  0.0443 -0.1692  0.3541
   86TCq2    H2 1322   1.080   2.341  15.569  0.6179 -0.7511  0.6574
   86TCq2    H3 1323   1.085   2.111  15.218  0.7619  1.0308  0.5371
   86TCq2    H4 1324   1.010   1.924  15.606 -0.4646  1.2048  0.4344
   87MPD2     C 1325   2.529   1.081   1.099  0.5367  0.1013  0.3960
   87MPD2    C1 1326   2.561   1.001   0.993  0.2873 -0.4758  0.1246
   87MPD2    C2 1327   2.511   1.029   0.870 -0.5674 -0.3020 -0.2221
   87MPD2    C3 1328   2.431   1.136   0.846 -0.0524 -0.0969  0.4692
   87MPD2    C4 1329   2.391   1.218   0.953  0.1561 -0.4097 -0.0135
   87MPD2    C5 1330   2.432   1.184   1.086 -0.2539  0.3601  0.0566
   87MPD2     H 1331   2.534   0.967   0.784 -0.7128 -1.9455  0.9089
   87MPD2    H1 1332   2.332   1.309   0.949  0.5021 -0.1796  0.1367
   87MPD2    H2 1333   2.566   1.060   1.199  1.9027  1.0015  0.0909
   87MPD2    H3 1334   2.393   1.238   1.172 -2.3195 -1.0424  0.0101
   87MPD2     N 1335   2.384   1.150   0.717  0.6449 -0.3385  0.1109
   87MPD2    H5 1336   2.413   1.086   0.643  1.6170  1.0186 -0.6687
   87MPD2    N1 1337   2.657   0.901   1.016 -0.2905  0.8057  0.0963
   87MPD2    H7 1338   2.682   0.877   1.112 -2.0796 -2.5286 -0.2408
   88TCq2    C1 1339   2.727   0.832   0.917 -0.4655 -0.4516  1.0750
   88TCq2    O2 1340   2.726   0.846   0.798 -0.1590 -0.5418 -0.3951
   88TCq2    C2 1341   2.812   0.726   0.978 -0.2426  0.1582  0.4276
   88TCq2    C3 1342   2.835   0.711   1.108 -0.2407 -0.1803 -0.2471
   88TCq2    C4 1343   2.927   0.617   1.150  0.5225  0.4237  0.1050
   88TCq2    C5 1344   3.001   0.553   1.061 -0.5858 -0.1669 -0.4150
   88TCq2    C6 1345   2.976   0.572   0.926 -0.1359 -0.0785 -0.0391
   88TCq2    C7 1346   2.879   0.655   0.885 -0.2680 -0.3467 -0.3063
   88TCq2    C8 1347   3.077   0.545   0.828  0.5022  0.2106  1.0338
   88TCq2    O4 1348   3.088   0.625   0.740  0.6149 -0.2836 -0.1336
   88TCq2    C9 1349   2.954   0.604   1.288  0.1131  0.2136  0.1966
   88TCq2    O5 1350   2.902   0.687   1.368 -0.5853 -0.0075 -0.3366
   88TCq2    O6 1351   3.019   0.499   1.319  0.0434 -0.4041  0.0850
   88TCq2    H2 1352   2.778   0.766   1.182  0.1486 -0.0475 -0.0453
   88TCq2    H3 1353   3.087   0.499   1.101 -0.0607  0.4069 -0.7599
   88TCq2    H4 1354   2.853   0.671   0.781 -0.7278  0.3260 -0.0909
   89MPD2     C 1355   3.848   3.229   2.134  0.3027 -0.8752 -0.1994
   89MPD2    C1 1356   3.751   3.317   2.168  0.1481  0.3657  0.8289
   89MPD2    C2 1357   3.782   3.449   2.188  0.0328 -0.0472 -0.4101
   89MPD2    C3 1358   3.911   3.491   2.176  0.3988  0.8736 -0.2870
   89MPD2    C4 1359   4.002   3.401   2.126 -0.1548  0.2812  0.6822
   89MPD2    C5 1360   3.973   3.269   2.115  0.1031 -0.0280  0.4905
   89MPD2     H 1361   3.704   3.522   2.206  1.5042  0.9922  1.7890
   89MPD2    H1 1362   4.107   3.429   2.119 -0.3439  0.8966  0.3364
   89MPD2    H2 1363   3.824   3.123   2.133 -1.8124 -0.4067 -0.4286
   89MPD2    H3 1364   4.056   3.203   2.093  0.4995  0.3238  0.9201
   89MPD2     N 1365   3.936   3.626   2.203  0.2262  0.0506  0.2457
   89MPD2    H5 1366   3.858   3.692   2.209 -0.6173 -0.7114 -2.0902
   89MPD2    N1 1367   3.615   3.277   2.176 -0.1617 -0.2332  1.0298
   89MPD2    H7 1368   3.557   3.351   2.215 -0.3365 -1.0581  2.3508
   90TCq2    C1 1369   4.060   3.682   2.206  0.3294  0.7796 -0.3382
   90TCq2    O2 1370   4.169   3.626   2.201  0.0590  0.5532 -0.0865
   90TCq2    C2 1371   4.065   3.826   2.208  0.7027 -0.0200  0.6672
   90TCq2    C3 1372   3.967   3.896   2.268  0.2057  0.2063 -0.2002
   90TCq2    C4 1373   3.948   4.029   2.239  0.0593  0.1877 -0.0944
   90TCq2    C5 1374   4.019   4.087   2.138  0.1757 -0.1385  0.0358
   90TCq2    C6 1375   4.117   4.012   2.083  0.0262 -0.2579 -0.6291
   90TCq2    C7 1376   4.145   3.883   2.116  0.1499 -0.2629  0.7555
   90TCq2    C8 1377   4.220   4.086   2.017  0.1718  0.0603 -0.9301
   90TCq2    O4 1378   4.202   4.198   1.971  0.5826  0.4293  0.4590
   90TCq2    C9 1379   3.870   4.124   2.315 -0.5185  0.6879 -0.3251
   90TCq2    O5 1380   3.839   4.235   2.257 -0.5631 -0.5855  0.2546
   90TCq2    O6 1381   3.856   4.091   2.437 -0.3315  0.1198 -0.1872
   90TCq2    H2 1382   3.905   3.858   2.349  1.3665  1.1053  1.1061
   90TCq2    H3 1383   4.006   4.186   2.095  1.5998 -0.4955 -1.2332
   90TCq2    H4 1384   4.211   3.822   2.056 -0.0465 -1.4297  1.7393
   91TMC2    C1 1385   0.757   3.493  16.924 -0.7925  0.4174  0.2691
   91TMC2    C2 1386   0.712   3.541  17.050 -1.0843 -0.5344  0.3478
   91TMC2    C3 1387   0.609   3.639  17.050 -0.1732  0.2637  0.3363
   91TMC2    C4 1388   0.684   3.515  16.813 -0.2552  0.5347  0.2958
   91TMC2    C5 1389   0.583   3.606  16.822 -0.0062  0.1035  0.6378
   91TMC2    C6 1390   0.552   3.675  16.933  0.4259  0.8400  0.8779
   91TMC2     C 1391   0.834   3.367  16.944 -0.0526  0.7794  0.6589
   91TMC2     O 1392   0.795   3.294  17.036  0.1670 -0.1977  0.0218
   91TMC2     H 1393   0.775   3.520  17.135 -1.8370 -0.7940  0.8417
   91TMC2    H1 1394   0.701   3.461  16.720 -0.6390 -0.1590  0.6277
   91TMC2    H2 1395   0.466   3.740  16.934 -0.2502 -0.0318 -0.5026
   91TMC2    C7 1396   0.493   3.623  16.708 -0.5110 -0.1281  0.0150
   91TMC2    C8 1397   0.516   3.633  17.162 -0.0228  0.6636  0.3693
   91TMC2    O1 1398   0.455   3.739  16.691  0.5438 -0.3502  0.1001
   91TMC2    O2 1399   0.403   3.681  17.149  0.1482 -0.2551  0.6013
   91TMC2    O5 1400   0.556   3.543  17.255  0.0735 -0.4002 -0.4709
   91TMC2    H5 1401   0.654   3.536  17.259  0.1464  1.6833  1.8139
   92MPD2     C 1402   0.983   3.115  16.909 -0.5225 -0.3828 -0.2045
   92MPD2    C1 1403   0.989   3.218  16.819  0.5400 -0.0886  0.4242
   92MPD2    C2 1404   1.080   3.217  16.720  0.4326 -0.1140  0.4690
   92MPD2    C3 1405   1.151   3.103  16.687  0.6983 -1.0778 -0.2274
   92MPD2    C4 1406   1.138   2.994  16.766  0.4264 -0.8113  0.2892
   92MPD2    C5 1407   1.052   2.997  16.876 -0.1294  0.5510  0.6687
   92MPD2     H 1408   1.084   3.304  16.656 -1.4793 -0.3046  0.0793
   92MPD2    H1 1409   1.197   2.907  16.743  1.2678  0.3898 -2.0667
   92MPD2    H2 1410   0.919   3.118  16.996 -1.9921  2.0621 -1.3571
   92MPD2    H3 1411   1.039   2.909  16.938  0.1503 -0.0059 -0.0647
   92MPD2     N 1412   1.232   3.120  16.567  0.2780  0.0367 -0.0108
   92MPD2    H5 1413   1.213   3.210  16.525 -1.8761 -0.2271  0.3936
   92MPD2    N1 1414   0.920   3.338  16.837  0.4087 -0.8104 -0.1664
   92MPD2    H7 1415   0.926   3.408  16.764 -0.8656  0.1282  0.6304
   93MPD2     C 1416   2.126   3.051  13.933 -0.4567 -0.2514  0.7078
   93MPD2    C1 1417   2.049   3.078  14.045 -0.7651  0.4393 -0.0867
   93MPD2    C2 1418   1.907   3.063  14.044 -0.3538  0.0970 -0.7374
   93MPD2    C3 1419   1.851   3.026  13.922  0.1464  0.2690  0.1312
   93MPD2    C4 1420   1.928   3.001  13.811  0.0448 -0.4203 -0.3790
   93MPD2    C5 1421   2.063   3.018  13.815 -0.3706  1.1184 -0.0241
   93MPD2     H 1422   1.841   3.086  14.127  0.6137 -1.5729  0.4858
   93MPD2    H1 1423   1.879   2.965  13.721 -2.5336  0.9094  0.5054
   93MPD2    H2 1424   2.234   3.040  13.933 -0.7040 -2.7058 -2.1229
   93MPD2    H3 1425   2.123   2.997  13.728  2.0467  1.6544  1.5170
   93MPD2     N 1426   1.714   2.999  13.893 -0.6013  1.0019 -0.5454
   93MPD2    H5 1427   1.690   2.952  13.806  2.0572  1.1187 -1.3295
   93MPD2    N1 1428   2.103   3.119  14.172 -0.0602 -0.7342  0.4668
   93MPD2    H7 1429   2.043   3.164  14.241 -0.0388  1.4753 -0.9584
   94TCq2    C1 1430   2.233   3.094  14.205 -0.0423 -0.5290 -0.0723
   94TCq2    O2 1431   2.327   3.049  14.145  0.2563 -0.1738 -0.1144
   94TCq2    C2 1432   2.264   3.112  14.349 -0.5054  0.0457  0.2625
   94TCq2    C3 1433   2.183   3.188  14.421  0.1626 -1.0274  0.0738
   94TCq2    C4 1434   2.239   3.275  14.515  1.0247  0.5049 -0.2183
   94TCq2    C5 1435   2.373   3.286  14.534  0.3920  1.3224  0.2554
   94TCq2    C6 1436   2.453   3.210  14.454 -0.0288  0.2198 -0.0685
   94TCq2    C7 1437   2.398   3.115  14.366  0.1936 -0.0583  0.3751
   94TCq2    C8 1438   2.584   3.256  14.422 -0.3872 -0.0377 -0.3948
   94TCq2    O4 1439   2.634   3.194  14.325 -0.4295  0.0265 -1.0174
   94TCq2    C9 1440   2.147   3.358  14.589 -0.1600 -0.1281  0.3690
   94TCq2    O5 1441   2.186   3.397  14.702  0.3480 -0.1088  0.3818
   94TCq2    O6 1442   2.054   3.412  14.524  0.3047  0.4463 -0.1119
   94TCq2    H2 1443   2.075   3.185  14.427  0.0783 -0.0570 -1.1523
   94TCq2    H3 1444   2.412   3.362  14.601  1.4833  2.0624 -1.2304
   94TCq2    H4 1445   2.460   3.052  14.303 -1.8435 -2.0918  0.4321
   95TMC2    C1 1446   2.682   4.670  15.640 -0.2714  0.5774  0.2410
   95TMC2    C2 1447   2.694   4.609  15.765 -0.3230 -0.4004 -0.0554
   95TMC2    C3 1448   2.577   4.580  15.824  0.7714 -0.2006 -0.8678
   95TMC2    C4 1449   2.558   4.685  15.581 -0.7346  0.2610  0.6176
   95TMC2    C5 1450   2.449   4.638  15.645  0.0424  0.5511  0.0223
   95TMC2    C6 1451   2.459   4.592  15.769 -0.1416 -0.1127  0.1408
   95TMC2     C 1452   2.800   4.706  15.571  0.3262 -0.1793 -0.3737
   95TMC2     O 1453   2.783   0.049  15.467  1.1202 -0.7810  0.6994
   95TMC2     H 1454   2.790   4.604  15.815 -0.6973  2.3189  0.9365
   95TMC2    H1 1455   2.555   4.694  15.474 -0.9752  0.3339  0.6312
   95TMC2    H2 1456   2.371   4.557  15.822 -0.7620  2.3877  0.7720
   95TMC2    C7 1457   2.319   4.703  15.612 -0.3770  0.0121  0.4059
   95TMC2    C8 1458   2.570   4.488  15.932  0.3778 -0.3169  0.1318
   95TMC2    O1 1459   2.236   4.701  15.700  0.5248  0.2313  0.0523
   95TMC2    O2 1460   2.657   4.407  15.954  0.7383 -0.3784 -0.1815
   95TMC2    O5 1461   2.506   4.566  16.016 -0.5373  0.2226  0.2572
   95TMC2    H5 1462   2.488   4.656  15.983  1.8704  0.7743  0.4466
   96MPD2     C 1463   3.282   4.585  15.426 -0.0750 -0.4100  0.3282
   96MPD2    C1 1464   3.207   4.700  15.391  0.5517 -0.1349 -0.0936
   96MPD2    C2 1465   3.069   4.702  15.428  0.4466  0.4802 -0.5355
   96MPD2    C3 1466   3.021   4.600  15.511  0.5186  0.4945  0.1013
   96MPD2    C4 1467   3.099   4.489  15.544 -0.1138  0.7215  0.8542
   96MPD2    C5 1468   3.228   4.478  15.490  0.2096 -0.1714 -0.3874
   96MPD2     H 1469   3.003   0.064  15.416 -0.4613 -0.0898  0.4446
   96MPD2    H1 1470   3.067   4.402  15.600  0.4365 -1.0322 -1.5720
   96MPD2    H2 1471   3.388   4.572  15.408  0.3324 -2.0781  3.9594
   96MPD2    H3 1472   3.286   4.388  15.508 -0.1867 -0.2708  0.4287
   96MPD2     N 1473   2.903   4.613  15.589  0.1109  0.4524  0.0787
   96MPD2    H5 1474   2.880   4.540  15.656  0.2317 -0.9396 -1.3930
   96MPD2    N1 1475   3.271   0.088  15.338 -0.0074  0.1949 -0.5708
   96MPD2    H7 1476   3.370   0.088  15.318  0.4563  0.1267  1.7444
   97MPD2     C 1477   0.290   3.209   1.236 -0.6791 -0.2072 -0.3252
   97MPD2    C1 1478   0.219   3.096   1.225  0.3397  0.1110  1.0055
   97MPD2    C2 1479   0.183   3.057   1.090 -0.5451  0.7169  0.1849
   97MPD2    C3 1480   0.202   3.147   0.982  0.8156  0.6135  0.3335
   97MPD2    C4 1481   0.270   3.267   1.011  0.0018  0.4573  0.4878
   97MPD2    C5 1482   0.319   3.295   1.140 -0.0096 -0.0251  0.2313
   97MPD2     H 1483   0.127   2.964   1.081 -0.5838  0.6994  0.6166
   97MPD2    H1 1484   0.273   3.343   0.934 -1.2685 -1.8214 -1.8240
   97MPD2    H2 1485   0.326   3.235   1.335 -1.4789  3.0383 -0.8860
   97MPD2    H3 1486   0.363   3.389   1.172 -1.0212  0.5183  0.0325
   97MPD2     N 1487   0.152   3.129   0.851  0.3526  0.3296  0.5266
   97MPD2    H5 1488   0.166   3.204   0.784 -1.2198  0.1858  0.0427
   97MPD2    N1 1489   0.190   3.018   1.336  0.3201  0.7212  0.0068
   97MPD2    H7 1490   0.200   3.072   1.421  1.0649 -0.9607  0.9869
   98TCq2    C1 1491   0.072   3.023   0.805 -0.8038 -0.9719 -0.5288
   98TCq2    O2 1492   0.016   2.940   0.873 -0.4940 -0.5479  0.0257
   98TCq2    C2 1493   0.031   3.038   0.665  0.0201 -0.5724 -0.0097
   98TCq2    C3 1494   4.645   2.981   0.616 -0.5705  0.1185 -0.9144
   98TCq2    C4 1495   4.609   3.001   0.491  0.1703  0.0113  0.2897
   98TCq2    C5 1496   4.681   3.075   0.404  0.2166 -0.0493  0.4773
   98TCq2    C6 1497   0.069   3.129   0.455 -0.1618 -0.1775  0.8981
   98TCq2    C7 1498   0.114   3.109   0.586 -0.1499  0.1679 -0.2525
   98TCq2    C8 1499   0.140   3.233   0.382  0.5525  0.3814  0.0672
   98TCq2    O4 1500   0.257   3.249   0.412 -0.1253  0.1204  0.0029
   98TCq2    C9 1501   4.484   2.952   0.439 -0.0219 -0.3462  0.4111
   98TCq2    O5 1502   4.435   3.017   0.343 -0.4990 -0.2748  0.3727
   98TCq2    O6 1503   4.419   2.887   0.521 -0.0415 -0.1153 -0.1274
   98TCq2    H2 1504   4.583   2.917   0.679 -1.2334 -1.9978 -3.7009
   98TCq2    H3 1505   4.647   3.075   0.301  0.6959  0.3485  0.3213
   98TCq2    H4 1506   0.218   3.124   0.613 -0.4181  2.1435 -0.2715
   99MPD2     C 1507   3.140   0.024   2.318 -0.2316 -0.2979  0.0114
   99MPD2    C1 1508   3.052   0.063   2.219  0.1543  0.2682 -0.8693
   99MPD2    C2 1509   3.090   0.054   2.085 -0.4368  0.2793 -0.6372
   99MPD2    C3 1510   3.217   0.007   2.052 -0.2045  0.2399  0.2618
   99MPD2    C4 1511   3.297   4.686   2.153  0.2515 -1.1582 -0.0108
   99MPD2    C5 1512   3.260   4.694   2.286 -0.9723 -0.3346  0.0408
   99MPD2     H 1513   3.026   0.087   2.004 -0.4459 -0.0633 -0.7716
   99MPD2    H1 1514   3.393   4.640   2.136  0.4632 -1.2614  1.5104
   99MPD2    H2 1515   3.110   0.030   2.422  0.3979  0.9620  0.1304
   99MPD2    H3 1516   3.326   4.646   2.357 -1.7727 -0.3075  0.8126
   99MPD2     N 1517   3.265   0.006   1.919 -0.0989  0.5596 -0.1887
   99MPD2    H5 1518   3.197   0.054   1.861 -2.0357 -1.9813 -0.0039
   99MPD2    N1 1519   2.936   0.131   2.253  0.3843 -0.2541 -0.0638
   99MPD2    H7 1520   2.876   0.168   2.180  0.3154  0.7722  0.5147
  100TCq2    C1 1521   2.880   0.139   2.379 -0.7031 -0.0116 -0.7427
  100TCq2    O2 1522   2.926   0.129   2.491 -0.1503  0.2186  0.1658
  100TCq2    C2 1523   2.754   0.208   2.374 -0.2084 -0.3335  0.8471
  100TCq2    C3 1524   2.725   0.308   2.466  0.7490 -0.4538  0.4591
  100TCq2    C4 1525   2.624   0.400   2.449  0.0263 -1.2480  0.0288
  100TCq2    C5 1526   2.548   0.386   2.334  0.0605  0.8638 -0.6513
  100TCq2    C6 1527   2.575   0.285   2.240  0.5290  1.2634  0.3129
  100TCq2    C7 1528   2.685   0.201   2.255  0.3517  0.0061  0.2618
  100TCq2    C8 1529   2.509   0.283   2.117 -0.2582 -0.3048  0.7419
  100TCq2    O4 1530   2.449   0.388   2.089  0.0654 -0.6896  0.1352
  100TCq2    C9 1531   2.588   0.500   2.545 -0.4401 -0.2346 -0.3169
  100TCq2    O5 1532   2.657   0.491   2.649 -0.5895 -0.7564 -0.2239
  100TCq2    O6 1533   2.487   0.571   2.525 -0.2416 -0.1406  0.2008
  100TCq2    H2 1534   2.787   0.308   2.555  1.0095 -0.9466  0.2803
  100TCq2    H3 1535   2.466   0.455   2.319 -0.8960 -0.3310 -0.9535
  100TCq2    H4 1536   2.705   0.121   2.185  0.9280 -0.9221  1.4669
  101MPD2     C 1537   4.266   0.615  12.660  0.7520  0.2955  0.0887
  101MPD2    C1 1538   4.181   0.693  12.736 -0.5123 -0.4879 -0.3787
  101MPD2    C2 1539   4.136   0.637  12.858 -0.1574 -0.2625  0.1357
  101MPD2    C3 1540   4.167   0.502  12.891 -0.5660 -0.0228  0.5220
  101MPD2    C4 1541   4.262   0.434  12.819  0.1185  0.2405  0.6116
  101MPD2    C5 1542   4.315   0.495  12.702  0.2918 -0.4452 -0.5308
  101MPD2     H 1543   4.057   0.676  12.920  0.1947  1.5247 -0.5372
  101MPD2    H1 1544   4.301   0.335  12.839 -0.3220 -0.0232  0.1595
  101MPD2    H2 1545   4.305   0.658  12.569 -0.8040 -0.1914 -0.8125
  101MPD2    H3 1546   4.386   0.436  12.646  0.0379 -0.6200 -0.6701
  101MPD2     N 1547   4.087   0.446  12.993  0.2157 -0.0340 -0.0934
  101MPD2    H5 1548   4.015   0.507  13.031 -0.8385 -1.5080  0.2948
  101MPD2    N1 1549   4.141   0.821  12.687 -0.0446 -0.0694 -0.2894
  101MPD2    H7 1550   4.185   0.841  12.597 -0.1453 -2.2369 -0.8116
  102TCq2    C1 1551   4.128   1.229  12.395 -0.4713 -0.2849  0.2279
  102TCq2    O2 1552   4.244   1.195  12.390 -0.5896  0.2219 -0.3735
  102TCq2    C2 1553   4.041   1.161  12.489  0.3757 -0.2716  0.0315
  102TCq2    C3 1554   3.912   1.205  12.496  0.5558 -0.3471  0.0157
  102TCq2    C4 1555   3.833   1.157  12.593 -0.0543  0.8210 -0.3508
  102TCq2    C5 1556   3.871   1.060  12.678 -0.5611  0.0986 -0.1226
  102TCq2    C6 1557   3.997   1.015  12.661 -0.0867  0.1280  0.0342
  102TCq2    C7 1558   4.090   1.062  12.566  0.3724 -0.1489  0.2508
  102TCq2    C8 1559   4.041   0.903  12.744 -0.5975 -1.4815  0.7940
  102TCq2    O4 1560   3.976   0.895  12.850 -0.2506 -0.2383 -0.3536
  102TCq2    C9 1561   3.701   1.203  12.621  0.0152 -0.1245  0.4399
  102TCq2    O5 1562   3.658   1.175  12.740  0.7426 -0.7984  0.0054
  102TCq2    O6 1563   3.677   1.311  12.561  0.5165 -0.6780  0.5132
  102TCq2    H2 1564   3.876   1.284  12.432  3.8439  0.0686 -1.3314
  102TCq2    H3 1565   3.807   1.013  12.751  0.5162 -1.2587 -0.0694
  102TCq2    H4 1566   4.190   1.021  12.565  0.5287  0.2125  1.7247
  103TMC2    C1 1567   1.867   1.534  12.258 -0.3987 -0.0884 -0.1299
  103TMC2    C2 1568   1.732   1.565  12.261  0.2403 -0.1450  0.6103
  103TMC2    C3 1569   1.662   1.550  12.378 -0.0073  0.1985 -0.5420
  103TMC2    C4 1570   1.929   1.495  12.374 -0.2947 -0.2545  0.0718
  103TMC2    C5 1571   1.859   1.486  12.484  0.4965  0.4314  0.0548
  103TMC2    C6 1572   1.727   1.514  12.493  0.5720  0.4535  0.5853
  103TMC2     C 1573   1.940   1.567  12.133  0.3202 -0.1357  0.4133
  103TMC2     O 1574   1.875   1.626  12.045  0.3504  0.3867  0.0216
  103TMC2     H 1575   1.680   1.599  12.172  1.0416 -3.3386 -1.0694
  103TMC2    H1 1576   2.036   1.476  12.374 -0.4696 -1.2270  0.5666
  103TMC2    H2 1577   1.669   1.496  12.583  0.6000  1.7887  0.8810
  103TMC2    C7 1578   1.929   1.414  12.587 -0.6125 -0.2218 -0.6141
  103TMC2    C8 1579   1.521   1.570  12.385  0.0884 -0.3838  0.5972
  103TMC2    O1 1580   2.052   1.415  12.596 -0.1772 -0.7943 -0.2097
  103TMC2    O2 1581   1.454   1.667  12.347  0.2952  0.0824  0.4392
  103TMC2    O5 1582   1.471   1.447  12.431 -0.5142  0.0029  0.3095
  103TMC2    H5 1583   1.531   1.373  12.452 -1.6118 -0.8434  0.4195
  104MPD2     C 1584   2.261   1.444  12.023  0.5239  0.5973 -0.0829
  104MPD2    C1 1585   2.136   1.496  12.002 -0.0294 -0.5185  0.1445
  104MPD2    C2 1586   2.094   1.530  11.872 -0.4571  0.1882 -0.0731
  104MPD2    C3 1587   2.181   1.502  11.760 -0.5891 -0.9036  0.3437
  104MPD2    C4 1588   2.313   1.454  11.788 -0.0075 -0.0245  0.7817
  104MPD2    C5 1589   2.346   1.432  11.919  0.6332  0.1691  0.2928
  104MPD2     H 1590   1.995   1.568  11.853 -0.1728  1.3188  0.7253
  104MPD2    H1 1591   2.383   1.422  11.712 -0.9857  0.1902 -0.2093
  104MPD2    H2 1592   2.294   1.419  12.123 -1.6062  1.2339  0.7895
  104MPD2    H3 1593   2.442   1.388  11.942 -0.1312 -0.4996  2.2233
  104MPD2     N 1594   2.126   1.534  11.634  0.1352 -0.0178  0.1045
  104MPD2    H5 1595   2.025   1.547  11.635  0.4734  2.4967 -0.1490
  104MPD2    N1 1596   2.061   1.505  12.122 -0.5838  0.3342  0.0982
  104MPD2    H7 1597   2.088   1.443  12.198 -0.1894 -2.0296 -1.9765
  105MPD2     C 1598   4.093   0.589  17.308  0.5654  0.6803 -0.3253
  105MPD2    C1 1599   3.966   0.617  17.258  0.0338  0.3712 -0.5949
  105MPD2    C2 1600   3.860   0.601  17.343 -0.2290 -0.2609 -0.0551
  105MPD2    C3 1601   3.884   0.565  17.474  0.3399  0.0380  0.0316
  105MPD2    C4 1602   4.010   0.523  17.519 -0.5717  0.3929 -0.5424
  105MPD2    C5 1603   4.116   0.540  17.436  0.1784 -0.4863 -0.3986
  105MPD2     H 1604   3.759   0.612  17.304 -0.4879  1.1419  1.0314
  105MPD2    H1 1605   4.038   0.495  17.620  0.3029  0.8344 -0.6624
  105MPD2    H2 1606   4.182   0.594  17.247  0.6144  0.8142 -0.2406
  105MPD2    H3 1607   4.213   0.509  17.474  0.6843  2.2520  0.5552
  105MPD2     N 1608   3.772   0.553  17.566 -0.1809 -0.2684  0.8000
  105MPD2    H5 1609   3.682   0.576  17.526  0.4078  1.0495  0.2192
  105MPD2    N1 1610   3.933   0.675  17.132  0.1109  1.0251  0.0365
  105MPD2    H7 1611   3.839   0.711  17.117  0.8507  2.1506 -1.9881
  106TCq2    C1 1612   3.767   0.477  17.683 -0.3993 -0.4761 -0.5151
  106TCq2    O2 1613   3.848   0.396   0.034 -0.2004  0.2269  0.7800
  106TCq2    C2 1614   3.644   0.496   0.066  0.3419 -0.1394  0.2457
  106TCq2    C3 1615   3.570   0.613   0.051 -0.4805 -0.4708  0.0381
  106TCq2    C4 1616   3.474   0.636   0.142 -0.0408  0.9291 -0.4668
  106TCq2    C5 1617   3.441   0.548   0.240 -0.0603  0.1707 -0.0957
  106TCq2    C6 1618   3.521   0.435   0.256  0.3863  1.0104  0.1894
  106TCq2    C7 1619   3.624   0.414   0.174  0.2387  0.7744 -0.2528
  106TCq2    C8 1620   3.521   0.363   0.375  0.6440 -0.3351 -0.0815
  106TCq2    O4 1621   3.615   0.285   0.395  0.2784 -0.1339 -0.2608
  106TCq2    C9 1622   3.403   0.766   0.130  0.2831 -0.4381  0.1432
  106TCq2    O5 1623   3.320   0.795   0.219 -0.1571  0.2445 -0.3318
  106TCq2    O6 1624   3.445   0.846   0.039  0.4836  0.2495 -0.0559
  106TCq2    H2 1625   3.590   0.685  17.666 -2.3521  1.5377  1.4315
  106TCq2    H3 1626   3.361   0.581   0.305 -1.6404 -0.9735 -1.4892
  106TCq2    H4 1627   3.699   0.336   0.184  1.0418  2.0657  3.4917
  107TMC2    C1 1628   0.216   4.072  11.848 -0.6216  0.0634 -0.4085
  107TMC2    C2 1629   0.295   3.967  11.871  0.2599  0.8774  1.0229
  107TMC2    C3 1630   0.365   3.915  11.767  0.3382  0.0558 -0.5189
  107TMC2    C4 1631   0.218   4.149  11.736 -0.0436 -0.3905  0.2431
  107TMC2    C5 1632   0.302   4.103  11.636  0.1648  1.0153  0.0515
  107TMC2    C6 1633   0.365   3.984  11.644  0.5182 -0.7082  0.7095
  107TMC2     C 1634   0.122   4.124  11.950 -0.0414 -1.1662  0.4330
  107TMC2     O 1635   0.019   4.179  11.907  0.3459 -0.2182 -0.3856
  107TMC2     H 1636   0.274   3.902  11.955  0.1774 -0.2857  0.1127
  107TMC2    H1 1637   0.174   4.248  11.734  0.5377 -0.1359  0.1381
  107TMC2    H2 1638   0.430   3.955  11.563  0.4583  1.8159 -0.2529
  107TMC2    C7 1639   0.340   4.201  11.539 -0.0130  0.7659 -0.0801
  107TMC2    C8 1640   0.436   3.789  11.775 -0.2274  0.0807  0.7462
  107TMC2    O1 1641   0.337   4.321  11.569 -0.0702 -0.4493  0.3945
  107TMC2    O2 1642   0.437   3.709  11.682 -0.0564  0.3587 -0.0003
  107TMC2    O5 1643   0.500   3.785  11.896 -0.6304 -0.3358 -0.2380
  107TMC2    H5 1644   0.491   3.867  11.948  0.5221  0.5425 -1.4477
  108MPD2     C 1645   0.184   4.131  12.318 -0.0289  0.8752  0.0164
  108MPD2    C1 1646   0.114   4.140  12.202  0.0132  0.9051  0.1257
  108MPD2    C2 1647   4.708   4.185  12.209 -0.0996  0.1585  0.3722
  108MPD2    C3 1648   4.641   4.199  12.330 -0.2788  0.3483  0.4318
  108MPD2    C4 1649   4.714   4.196  12.449 -0.1795 -0.0625  0.5277
  108MPD2    C5 1650   0.122   4.164  12.435 -0.6004  0.2271  0.1457
  108MPD2     H 1651   4.652   4.194  12.117  2.3294  1.2343 -1.0152
  108MPD2    H1 1652   4.674   4.233  12.542  2.2434  1.1549  1.0841
  108MPD2    H2 1653   0.287   4.100  12.332  0.4672  1.0730 -3.0420
  108MPD2    H3 1654   0.177   4.157  12.527 -0.3063 -1.1954 -0.1409
  108MPD2     N 1655   4.495   4.199  12.337  0.5280 -0.3742  0.3102
  108MPD2    H5 1656   4.450   4.206  12.428  0.0311 -0.2918  0.0617
  108MPD2    N1 1657   0.172   4.107  12.079 -0.1472  0.0896 -0.1214
  108MPD2    H7 1658   0.265   4.066  12.079  1.0586  2.8622 -0.3696
  109MPD2     C 1659   4.294   1.558   2.346  0.6571  0.2060 -0.8726
  109MPD2    C1 1660   4.299   1.628   2.223 -0.1644  0.5698  0.5593
  109MPD2    C2 1661   4.418   1.649   2.165 -0.4256 -0.4370 -0.5870
  109MPD2    C3 1662   4.533   1.644   2.243 -0.3907  0.0054 -0.7886
  109MPD2    C4 1663   4.535   1.578   2.363 -0.3605  0.0142  0.1131
  109MPD2    C5 1664   4.416   1.540   2.414  0.5510  0.0059 -0.6617
  109MPD2     H 1665   4.427   1.692   2.066  3.8454  1.0134  0.4248
  109MPD2    H1 1666   4.624   1.576   2.425 -0.7835  0.1907  0.7234
  109MPD2    H2 1667   4.200   1.525   2.390  0.4752  0.9018 -0.7306
  109MPD2    H3 1668   4.403   1.501   2.514 -0.3415  0.6206 -0.5462
  109MPD2     N 1669   4.651   1.710   2.192 -0.2636 -0.1801  0.1040
  109MPD2    H5 1670   4.641   1.742   2.096  0.5484 -0.9085 -0.2208
  109MPD2    N1 1671   4.181   1.653   2.154 -0.3956 -0.0072  0.4280
  109MPD2    H7 1672   4.099   1.616   2.201 -1.0508  0.6348 -0.2100
  110TCq2    C1 1673   0.044   1.735   2.263  0.0327  0.3872 -0.2155
  110TCq2    O2 1674   0.079   1.711   2.380  0.1164  0.5075  0.2220
  110TCq2    C2 1675   0.130   1.835   2.187 -0.2095  0.0723  0.3000
  110TCq2    C3 1676   0.253   1.850   2.238 -0.1363 -0.6987 -0.7465
  110TCq2    C4 1677   0.324   1.962   2.209  0.3491 -0.2146  0.3405
  110TCq2    C5 1678   0.268   2.061   2.136  0.0614  0.2525  0.1993
  110TCq2    C6 1679   0.145   2.035   2.083  0.2386 -0.6483  0.3158
  110TCq2    C7 1680   0.066   1.924   2.108 -0.6067  0.8313 -0.6749
  110TCq2    C8 1681   0.085   2.141   1.990 -0.8006  0.2879  0.1406
  110TCq2    O4 1682   0.168   2.205   1.930 -0.2704 -0.3302  0.5338
  110TCq2    C9 1683   0.463   1.972   2.243  0.2382  0.0986  0.7074
  110TCq2    O5 1684   0.532   2.055   2.175  0.0655  0.4879  0.4657
  110TCq2    O6 1685   0.515   1.884   2.319 -0.1687 -0.6725 -0.4619
  110TCq2    H2 1686   0.306   1.776   2.296  0.2507 -1.5238 -2.1466
  110TCq2    H3 1687   0.329   2.145   2.106 -0.5467  0.9910  1.0198
  110TCq2    H4 1688   4.692   1.906   2.062  0.5836 -1.6517 -2.1794
  111TMC2    C1 1689   4.515   1.059  10.779  0.1797 -0.1536 -0.0314
  111TMC2    C2 1690   4.581   0.963  10.715  0.4039 -0.6463 -0.5186
  111TMC2    C3 1691   4.690   0.915  10.780 -0.3676 -0.7305  0.0528
  111TMC2    C4 1692   4.544   1.107  10.901 -0.0784  0.2308 -0.3958
  111TMC2    C5 1693   4.656   1.051  10.961 -0.2809  0.6313  0.3146
  111TMC2    C6 1694   0.005   0.950  10.905 -0.1956  0.8859  0.2306
  111TMC2     C 1695   4.434   1.156  10.697 -0.1940 -0.4512  0.0438
  111TMC2     O 1696   4.405   1.260  10.758  0.4407  0.1066  0.2356
  111TMC2     H 1697   4.549   0.921  10.620 -0.7693  4.3765 -2.3429
  111TMC2    H1 1698   4.485   1.186  10.946  0.0178  0.1936 -0.2041
  111TMC2    H2 1699   0.086   0.902  10.958 -0.5985 -0.5999 -0.4765
  111TMC2    C7 1700   4.694   1.093  11.095  0.2342 -0.3763 -0.1454
  111TMC2    C8 1701   0.035   0.803  10.710 -0.1823  0.4990  0.1066
  111TMC2    O1 1702   4.604   1.146  11.163 -0.1174 -0.2356  0.0389
  111TMC2    O2 1703   0.032   0.802  10.587  0.5180 -0.0227  0.2481
  111TMC2    O5 1704   0.121   0.732  10.783  0.0315  0.3878 -0.3434
  111TMC2    H5 1705   0.117   0.737  10.881  2.2432 -0.0258 -0.2284
  112MPD2     C 1706   4.298   1.406  10.282  0.2089 -1.2993  0.6004
  112MPD2    C1 1707   4.325   1.454  10.410  0.0087 -0.1739 -0.0253
  112MPD2    C2 1708   4.373   1.361  10.498  0.5410 -0.1584 -0.6392
  112MPD2    C3 1709   4.387   1.224  10.467 -0.3396 -0.1609  0.0941
  112MPD2    C4 1710   4.369   1.182  10.342  0.4049 -0.2677 -0.7359
  112MPD2    C5 1711   4.326   1.275  10.248  0.1880  0.0246 -0.1351
  112MPD2     H 1712   4.402   1.405  10.592 -1.8072 -1.4576  0.6730
  112MPD2    H1 1713   4.380   1.077  10.317 -2.0990 -0.8554  0.7324
  112MPD2    H2 1714   4.269   1.463  10.194 -0.5810 -0.7708  1.1989
  112MPD2    H3 1715   4.313   1.240  10.147  1.2242 -0.2081 -0.1907
  112MPD2     N 1716   4.436   1.132  10.563  0.5416  0.4680  0.4969
  112MPD2    H5 1717   4.461   1.037  10.538 -1.7372  0.2312 -0.9202
  112MPD2    N1 1718   4.301   1.584  10.462  0.1656  0.1135 -0.1960
  112MPD2    H7 1719   4.337   1.610  10.553 -0.6843  1.3188 -0.1931
  113MPD2     C 1720   2.605   4.441   1.717  0.3696  0.7538  0.2087
  113MPD2    C1 1721   2.627   4.525   1.609 -0.6898  0.7614  0.2118
  113MPD2    C2 1722   2.618   4.472   1.480  0.5394  0.8468  0.1731
  113MPD2    C3 1723   2.593   4.338   1.465 -0.3346 -0.0888  0.1967
  113MPD2    C4 1724   2.576   4.257   1.577  0.2908 -0.0736  0.4330
  113MPD2    C5 1725   2.580   4.309   1.699  0.0944  0.2533  0.6551
  113MPD2     H 1726   2.638   4.536   1.395  1.1576  1.3404  0.6958
  113MPD2    H1 1727   2.545   4.156   1.555  0.9975  0.2215 -1.8778
  113MPD2    H2 1728   2.612   4.473   1.820 -2.9352 -1.5192  1.1498
  113MPD2    H3 1729   2.553   4.244   1.781 -2.6043  0.1958 -0.2480
  113MPD2     N 1730   2.567   4.299   1.329  0.3149 -0.3625 -0.1656
  113MPD2    H5 1731   2.556   4.377   1.266  0.6547 -1.6840 -1.8517
  113MPD2    N1 1732   2.650   4.665   1.624  1.0477 -0.0330 -0.1577
  113MPD2    H7 1733   2.662   4.722   1.541 -1.4020  0.4853 -0.1588
  114TCq2    C1 1734   2.558   4.171   1.282 -0.6884  0.8112  0.5851
  114TCq2    O2 1735   2.554   4.063   1.344  0.0592 -0.6708 -0.0324
  114TCq2    C2 1736   2.513   4.179   1.146 -0.3694  0.2337  0.0406
  114TCq2    C3 1737   2.546   4.291   1.074 -0.0873 -0.1162 -0.2988
  114TCq2    C4 1738   2.477   4.315   0.958  0.2923 -0.0757  0.3344
  114TCq2    C5 1739   2.386   4.220   0.909 -0.3187  0.5932  1.1739
  114TCq2    C6 1740   2.355   4.111   0.989  0.2296  0.3455  0.3747
  114TCq2    C7 1741   2.422   4.086   1.105  0.0774 -0.3449  0.5844
  114TCq2    C8 1742   2.243   4.026   0.949 -0.0486  0.1541 -0.1729
  114TCq2    O4 1743   2.214   4.010   0.834 -0.0593 -0.2910  0.0063
  114TCq2    C9 1744   2.512   4.433   0.883 -0.8892  0.7147 -0.9647
  114TCq2    O5 1745   2.580   4.524   0.930  0.7923 -0.3649  0.3179
  114TCq2    O6 1746   2.476   4.439   0.763  0.1813 -0.5851 -0.4057
  114TCq2    H2 1747   2.625   4.359   1.102  0.8512 -1.5273  0.4869
  114TCq2    H3 1748   2.347   4.235   0.809 -1.1114  0.5446  1.4764
  114TCq2    H4 1749   2.393   4.002   1.167  2.6817 -1.9630 -0.3677
  115TMC2    C1 1750   2.851   2.558  17.405  0.2841  0.6257 -0.9048
  115TMC2    C2 1751   2.836   2.511  17.539 -0.4015  0.1675 -0.3381
  115TMC2    C3 1752   2.918   2.574  17.628 -0.1264  0.3994  0.8144
  115TMC2    C4 1753   2.937   2.647  17.363  0.0169  0.4543 -0.1566
  115TMC2    C5 1754   3.008   2.716  17.456 -0.1371 -0.3300  0.1000
  115TMC2    C6 1755   3.002   2.673  17.591  0.5272 -0.4018  0.3493
  115TMC2     C 1756   2.779   2.474  17.308 -0.3038 -0.1084 -1.0339
  115TMC2     O 1757   2.831   2.485  17.196  0.2760  0.0447  0.0363
  115TMC2     H 1758   2.782   2.421  17.564 -1.6108  0.6351 -1.2767
  115TMC2    H1 1759   2.949   2.668  17.257  2.9346 -0.3221  0.0386
  115TMC2    H2 1760   3.069   2.718  17.665  1.3090 -3.4314  1.4643
  115TMC2    C7 1761   3.039   2.855  17.429 -0.5351  0.3972 -0.8622
  115TMC2    C8 1762   2.948   2.498   0.059  0.1121  0.7862  0.0970
  115TMC2    O1 1763   3.034   2.928  17.527 -0.5236 -0.2944  0.0103
  115TMC2    O2 1764   2.873   2.406   0.094 -0.1557  0.3840  0.2975
  115TMC2    O5 1765   3.084   2.475   0.061 -0.6728  0.1545  0.3786
  115TMC2    H5 1766   3.142   2.538   0.012 -1.2633 -1.8742 -2.9094
  116MPD2     C 1767   2.427   2.117  17.177 -0.2409  0.0412 -0.1192
  116MPD2    C1 1768   2.557   2.134  17.134 -0.3063 -0.1395  0.0304
  116MPD2    C2 1769   2.632   2.239  17.193 -0.0489 -0.2864  0.1199
  116MPD2    C3 1770   2.585   2.315  17.298  0.3171  0.8011  0.1363
  116MPD2    C4 1771   2.458   2.292  17.341 -0.0610  0.0894 -0.3208
  116MPD2    C5 1772   2.381   2.198  17.276  0.4623 -0.2740 -0.2067
  116MPD2     H 1773   2.732   2.247  17.151 -0.0610  1.0561  0.3604
  116MPD2    H1 1774   2.423   2.343  17.431 -0.1525  0.1821 -0.4092
  116MPD2    H2 1775   2.357   2.045  17.138 -0.5878  1.6964 -2.5530
  116MPD2    H3 1776   2.280   2.181  17.311 -0.0301 -0.0921 -1.5394
  116MPD2     N 1777   2.664   2.413  17.358  0.1378 -0.0672  0.0856
  116MPD2    H5 1778   2.631   2.443  17.449 -0.7044  1.4909 -0.7300
  116MPD2    N1 1779   2.608   2.040  17.034 -0.1195 -0.6286  0.2705
  116MPD2    H7 1780   2.536   1.985  16.989 -0.8693 -0.9637  1.8554
  117TMC2    C1 1781   1.873   3.430  13.888  0.1052  0.0735  0.2856
  117TMC2    C2 1782   1.953   3.371  13.790 -0.5026 -0.1646  0.1835
  117TMC2    C3 1783   2.088   3.372  13.798  0.2290  0.6946 -0.7463
  117TMC2    C4 1784   1.930   3.511  13.986  0.6175  0.5432 -0.4305
  117TMC2    C5 1785   2.064   3.522  13.982 -0.0885 -0.4792 -0.5357
  117TMC2    C6 1786   2.142   3.455  13.892  0.1579 -0.6612  0.2034
  117TMC2     C 1787   1.731   3.427  13.875  0.2080 -0.0079  0.1553
  117TMC2     O 1788   1.673   3.333  13.827  0.2064  0.3907 -0.0442
  117TMC2     H 1789   1.902   3.319  13.710 -1.4020 -0.6032  1.0381
  117TMC2    H1 1790   1.872   3.576  14.050 -0.1273 -1.9917  1.4731
  117TMC2    H2 1791   2.248   3.477  13.890  0.3781 -1.7169 -0.0239
  117TMC2    C7 1792   2.129   3.623  14.067 -0.3030 -0.1991  0.1098
  117TMC2    C8 1793   2.163   3.324  13.685 -0.0802  0.1884  0.2548
  117TMC2    O1 1794   2.255   3.616  14.075 -0.2715 -0.0265  0.1201
  117TMC2    O2 1795   2.094   3.292  13.589  0.4587  0.2137  0.7128
  117TMC2    O5 1796   2.278   3.270  13.732  0.1059 -0.8893  0.1812
  117TMC2    H5 1797   2.281   3.296  13.827 -1.8632  0.4740 -0.1269
  118MPD2     C 1798   2.206   3.846  14.236 -0.0475 -0.7847 -0.4053
  118MPD2    C1 1799   2.100   3.842  14.149  0.6239  0.9940 -0.2380
  118MPD2    C2 1800   2.035   3.960  14.118  0.5949 -0.2153 -0.3398
  118MPD2    C3 1801   2.080   4.086  14.169  0.0109 -0.4638  0.3674
  118MPD2    C4 1802   2.197   4.083  14.243 -0.3545  0.3320 -0.0336
  118MPD2    C5 1803   2.261   3.966  14.283  0.4623  0.4363 -0.0421
  118MPD2     H 1804   1.956   3.963  14.045 -0.3573 -0.2760  0.6833
  118MPD2    H1 1805   2.237   4.182  14.264 -0.4777  0.5972 -1.0079
  118MPD2    H2 1806   2.252   3.758  14.280 -2.0744 -1.8752 -0.4997
  118MPD2    H3 1807   2.352   3.957  14.341  1.7793  0.7025 -2.0773
  118MPD2     N 1808   2.027   4.205  14.125 -0.1158 -0.1416 -0.1741
  118MPD2    H5 1809   2.074   4.291  14.154 -1.1417 -0.7563  3.3047
  118MPD2    N1 1810   2.052   3.725  14.084  0.0802 -0.0798 -0.2433
  118MPD2    H7 1811   1.962   3.737  14.039  0.6314 -0.4142 -1.4468
  119MPD2     C 1812   0.512   0.475  13.360 -0.5006  0.1546 -0.0211
  119MPD2    C1 1813   0.381   0.437  13.364  0.2997  0.7086 -0.1839
  119MPD2    C2 1814   0.303   0.438  13.254  0.1701 -0.4514 -0.1919
  119MPD2    C3 1815   0.359   0.465  13.129 -0.4382 -0.6565 -0.0472
  119MPD2    C4 1816   0.488   0.510  13.121 -0.7961  0.6656  0.3546
  119MPD2    C5 1817   0.565   0.508  13.237 -0.0893  0.1008 -0.3324
  119MPD2     H 1818   0.198   0.415  13.267 -0.4329  0.6013 -3.0215
  119MPD2    H1 1819   0.544   0.524  13.029 -2.4628 -1.2523 -0.9439
  119MPD2    H2 1820   0.574   0.464  13.449 -0.3214  0.3405 -0.1229
  119MPD2    H3 1821   0.669   0.532  13.217 -0.6349  1.0344 -2.0947
  119MPD2     N 1822   0.285   0.448  13.011 -0.3299  0.0591  0.1889
  119MPD2    H5 1823   0.327   0.476  12.923 -0.5725 -1.1502 -0.3116
  119MPD2    N1 1824   0.335   0.377  13.486  0.4985 -0.4447  0.5368
  119MPD2    H7 1825   0.410   0.357  13.551  1.1479 -0.2963 -0.1745
  120TCq2    C1 1826   0.167   0.382  13.002  0.9906 -0.3074 -0.3976
  120TCq2    O2 1827   0.133   0.299  13.088  0.0001 -0.2483 -0.6272
  120TCq2    C2 1828   0.068   0.457  12.927  0.1262  0.7354  0.1240
  120TCq2    C3 1829   0.106   0.563  12.849  0.5309 -0.8790  0.0108
  120TCq2    C4 1830   0.010   0.659  12.827  0.8041  0.6503 -0.3329
  120TCq2    C5 1831   4.607   0.654  12.886 -0.0158  0.1932  0.4350
  120TCq2    C6 1832   4.570   0.546  12.971  0.3337  0.2001  0.0397
  120TCq2    C7 1833   4.663   0.448  12.981  0.8856  0.4398  0.3655
  120TCq2    C8 1834   4.465   0.567  13.075 -0.6122  0.3237  0.0242
  120TCq2    O4 1835   4.442   0.685  13.096  0.1273 -0.2827 -0.0893
  120TCq2    C9 1836   0.041   0.787  12.767  0.6174  0.0628  0.0361
  120TCq2    O5 1837   0.146   0.799  12.694 -0.3245 -0.0355 -0.3941
  120TCq2    O6 1838   4.708   0.886  12.820 -0.3694  0.1299  0.0873
  120TCq2    H2 1839   0.209   0.585  12.820  0.2961  0.3442  0.1219
  120TCq2    H3 1840   4.545   0.742  12.875 -1.0937 -0.5781  0.4630
  120TCq2    H4 1841   4.635   0.365  13.045 -2.5425  1.8852  0.7631
  121TMC2    C1 1842   1.401   1.988  13.545  0.9736 -0.8135 -0.0079
  121TMC2    C2 1843   1.334   2.108  13.571  0.4730 -0.7073  0.4970
  121TMC2    C3 1844   1.200   2.103  13.542 -0.4182  0.0925  0.1600
  121TMC2    C4 1845   1.344   1.882  13.481 -0.9773 -0.2586 -0.1902
  121TMC2    C5 1846   1.206   1.878  13.479 -0.2293  0.4632 -0.0350
  121TMC2    C6 1847   1.136   1.992  13.503 -0.5273 -0.4767  0.8891
  121TMC2     C 1848   1.542   2.013  13.549 -0.4640 -0.8885 -0.2057
  121TMC2     O 1849   1.614   1.992  13.452 -0.1998 -0.0720  0.0460
  121TMC2     H 1850   1.384   2.202  13.590  0.1082 -0.0781 -1.5913
  121TMC2    H1 1851   1.410   1.803  13.447 -0.6610  0.1272 -0.4855
  121TMC2    H2 1852   1.028   2.004  13.499 -0.2130  1.5043 -1.9049
  121TMC2    C7 1853   1.147   1.749  13.426 -0.5521  0.3464 -0.1825
  121TMC2    C8 1854   1.123   2.224  13.575  0.0669 -0.7106 -0.6755
  121TMC2    O1 1855   1.220   1.663  13.387 -0.1983 -0.0998 -0.4245
  121TMC2    O2 1856   1.169   2.313  13.650  0.3130  0.0436  0.2341
  121TMC2    O5 1857   1.023   2.234  13.487 -0.2342  0.3294 -0.3057
  121TMC2    H5 1858   1.000   2.147  13.449 -0.0549 -0.0797  0.5338
  122MPD2     C 1859   1.719   2.163  13.835  0.0725  0.4049  0.4629
  122MPD2    C1 1860   1.696   2.134  13.702  0.5731 -0.7770 -0.2465
  122MPD2    C2 1861   1.770   2.202  13.604  0.3795 -0.7132 -0.0984
  122MPD2    C3 1862   1.876   2.288  13.638 -0.6055 -0.6753 -0.6067
  122MPD2    C4 1863   1.907   2.297  13.774 -0.1633 -0.4582  0.1268
  122MPD2    C5 1864   1.825   2.240  13.872  0.2632 -0.1265 -0.6783
  122MPD2     H 1865   1.749   2.179  13.500 -1.6291 -1.0997  0.3890
  122MPD2    H1 1866   1.979   2.369  13.813  1.9287 -1.7292 -1.4148
  122MPD2    H2 1867   1.659   2.123  13.916  0.2427  0.6441  0.7078
  122MPD2    H3 1868   1.838   2.268  13.975  0.1649 -1.3010 -0.3453
  122MPD2     N 1869   1.919   2.386  13.548 -0.0214 -0.2590 -0.2537
  122MPD2    H5 1870   1.967   2.462  13.595  0.1926  0.2211 -1.2633
  122MPD2    N1 1871   1.581   2.057  13.669  0.4073 -0.5764 -0.2804
  122MPD2    H7 1872   1.524   2.025  13.747  1.3413  2.6143  1.7447
  123MPD2     C 1873   0.384   4.125   9.931  0.4332 -0.4789 -0.2042
  123MPD2    C1 1874   0.359   4.242   9.859 -0.5615 -0.1390  0.4614
  123MPD2    C2 1875   0.451   4.344   9.858  0.2024 -0.6515 -0.2989
  123MPD2    C3 1876   0.557   4.340   9.947 -0.4007  0.0698 -0.0783
  123MPD2    C4 1877   0.580   4.224  10.024 -0.0607 -0.4312  0.7130
  123MPD2    C5 1878   0.495   4.112  10.004  0.0778  0.1063  0.5221
  123MPD2     H 1879   0.448   4.416   9.776 -0.6933 -0.6000 -0.2269
  123MPD2    H1 1880   0.663   4.211  10.093  0.7416 -2.5429 -0.6199
  123MPD2    H2 1881   0.318   4.041   9.915  0.4506 -0.8427  1.7672
  123MPD2    H3 1882   0.522   4.021  10.057  1.0707  0.4603  0.6295
  123MPD2     N 1883   0.652   4.448   9.940  0.3715  0.1340  0.3094
  123MPD2    H5 1884   0.641   4.508   9.859 -1.3600 -0.9209 -0.2353
  123MPD2    N1 1885   0.247   4.237   9.768 -0.1738  0.5709  0.1263
  123MPD2    H7 1886   0.185   4.157   9.764  0.5703 -0.0276  0.4387
  124TCq2    C1 1887   0.766   4.472  10.015 -0.6047  0.1796 -0.2671
  124TCq2    O2 1888   0.792   4.433  10.129  0.1728  0.3193  0.0828
  124TCq2    C2 1889   0.851   4.573   9.950 -0.2998 -0.0363 -0.0782
  124TCq2    C3 1890   0.979   4.576   9.998 -0.0113 -0.3941  0.4371
  124TCq2    C4 1891   1.077   4.616   9.912 -0.0206 -0.9139  0.2069
  124TCq2    C5 1892   1.043   4.648   9.782 -0.0927 -0.5157  0.2794
  124TCq2    C6 1893   0.915   4.650   9.740 -0.2708 -0.8689  0.1247
  124TCq2    C7 1894   0.816   4.602   9.826  0.0567  0.1828  0.4605
  124TCq2    C8 1895   0.881   4.687   9.598 -0.0392  0.5407 -0.4545
  124TCq2    O4 1896   0.931   0.067   9.556 -0.5232 -0.6196 -0.3370
  124TCq2    C9 1897   1.217   4.608   9.937  0.3565 -0.3965 -0.4058
  124TCq2    O5 1898   1.292   4.567   9.844 -0.6255  0.0706 -0.4618
  124TCq2    O6 1899   1.256   4.600  10.054 -0.7959  0.4391  0.2857
  124TCq2    H2 1900   1.005   4.543  10.098 -0.7316 -2.2492  0.0164
  124TCq2    H3 1901   1.126   4.673   9.717 -0.9355 -1.3785 -1.1344
  124TCq2    H4 1902   0.715   4.616   9.791  0.1487  0.8800  0.4774
  125TMC2    C1 1903   1.209   1.804   8.732  0.1042 -0.4004  0.3637
  125TMC2    C2 1904   1.262   1.741   8.837  0.2696 -0.0509 -0.0460
  125TMC2    C3 1905   1.348   1.637   8.805 -0.7535  0.5545 -0.1110
  125TMC2    C4 1906   1.252   1.786   8.607  0.0372  0.2559  0.6530
  125TMC2    C5 1907   1.363   1.706   8.592 -0.5448 -0.1426 -0.0263
  125TMC2    C6 1908   1.409   1.622   8.688 -0.2837  0.0760 -0.2777
  125TMC2     C 1909   1.075   1.858   8.745 -0.7666  0.2485 -0.0077
  125TMC2     O 1910   1.017   1.871   8.640  0.0617  0.1013 -0.0914
  125TMC2     H 1911   1.244   1.767   8.941  1.5043 -1.2820  0.4764
  125TMC2    H1 1912   1.213   1.829   8.516  3.6773 -1.1139 -1.5663
  125TMC2    H2 1913   1.490   1.551   8.676  2.0832  2.3048  2.4710
  125TMC2    C7 1914   1.420   1.703   8.462 -0.7263  0.2316  0.8989
  125TMC2    C8 1915   1.407   1.575   8.914  0.7259  0.7759  0.8841
  125TMC2    O1 1916   1.363   1.754   8.367  0.3851  0.0921  0.3163
  125TMC2    O2 1917   1.531   1.559   8.918  0.1082 -0.2447  0.0988
  125TMC2    O5 1918   1.306   1.510   8.972 -0.0787  0.0417  0.4247
  125TMC2    H5 1919   1.216   1.525   8.938  0.8142  2.7839 -0.7969
  126MPD1     C 1920   0.647   1.915   9.011 -0.4933  0.0620  0.4991
  126MPD1    C1 1921   0.749   1.917   9.100 -0.3955  0.4233  0.2087
  126MPD1    C2 1922   0.882   1.900   9.044  0.5475 -0.2174 -0.4354
  126MPD1    C3 1923   0.905   1.888   8.915  0.8959  0.3935 -0.3092
  126MPD1    C4 1924   0.797   1.884   8.829 -0.3697  0.7009  0.2894
  126MPD1    C5 1925   0.666   1.896   8.882  0.3461  0.2884 -0.3955
  126MPD1     H 1926   0.963   1.915   9.115  1.6877 -2.5072 -1.2410
  126MPD1    H1 1927   0.799   1.874   8.721 -0.5481  0.4295  0.3118
  126MPD1    H2 1928   0.547   1.918   9.053 -1.3818  0.9694 -1.7266
  126MPD1    H3 1929   0.585   1.905   8.811 -0.7002 -0.7660  0.6763
  126MPD1     N 1930   1.037   1.867   8.876 -1.1734  0.5381  0.1974
  126MPD1    H5 1931   1.114   1.863   8.942 -0.2936  1.2343 -0.7763
  126MPD1    N1 1932   0.730   1.954   9.232 -0.8998  0.6345 -0.2417
  126MPD1    H6 1933   0.635   1.943   9.268  0.1725 -1.6986  1.8505
  126MPD1    H7 1934   0.789   1.899   9.294 -1.6503  2.5830  2.2333
  127MPD2     C 1935   2.080   0.326   9.177 -0.8898  0.9177 -0.3591
  127MPD2    C1 1936   2.143   0.290   9.293  0.4797 -0.3611 -0.2721
  127MPD2    C2 1937   2.267   0.339   9.320 -0.2662  0.7189  0.4992
  127MPD2    C3 1938   2.332   0.419   9.232 -0.1687 -0.1347 -0.6004
  127MPD2    C4 1939   2.276   0.452   9.108 -0.1067 -0.0807 -0.4039
  127MPD2    C5 1940   2.150   0.404   9.087  0.0264 -0.2661 -0.3891
  127MPD2     H 1941   2.322   0.331   9.413  1.0964 -0.9499 -0.4431
  127MPD2    H1 1942   2.328   0.524   9.046  1.1687 -1.2624 -0.7015
  127MPD2    H2 1943   1.978   0.297   9.160 -0.0098 -2.2703 -0.1227
  127MPD2    H3 1944   2.120   0.423   8.985  0.9914 -0.3772 -0.6929
  127MPD2     N 1945   2.459   0.467   9.271  0.7097 -0.5633 -0.0571
  127MPD2    H5 1946   2.482   0.464   9.370 -0.1941 -0.8611  0.1515
  127MPD2    N1 1947   2.078   0.204   9.380  0.1188 -0.2783  0.3462
  127MPD2    H7 1948   1.988   0.165   9.356  0.4290 -1.2411  0.7315
  128TCq2    C1 1949   2.136   0.127   9.472 -0.1561  0.3140 -0.3820
  128TCq2    O2 1950   2.249   0.109   9.505  0.4366  0.2811 -0.4904
  128TCq2    C2 1951   2.029   0.063   9.547  0.6199 -0.1481 -0.1179
  128TCq2    C3 1952   1.907   0.112   9.551  0.5524  0.7274  0.0130
  128TCq2    C4 1953   1.807   0.044   9.610  0.0185  0.5843  0.4389
  128TCq2    C5 1954   1.825   4.637   9.642 -0.1446  0.1070 -0.7330
  128TCq2    C6 1955   1.947   4.581   9.617 -0.4268 -0.2278 -0.6666
  128TCq2    C7 1956   2.046   4.651   9.571  0.0388  0.2155 -0.2807
  128TCq2    C8 1957   1.958   4.436   9.591 -1.1208 -0.1643 -0.8107
  128TCq2    O4 1958   2.040   4.404   9.506  0.3850 -0.3161  0.2634
  128TCq2    C9 1959   1.674   0.100   9.630 -0.0559 -0.5350  0.1336
  128TCq2    O5 1960   1.636   0.204   9.570  0.0685  0.3268 -0.0103
  128TCq2    O6 1961   1.624   0.051   9.733 -0.4805 -0.2085  0.2692
  128TCq2    H2 1962   1.886   0.217   9.536 -0.9675  0.0198 -2.6946
  128TCq2    H3 1963   1.733   4.585   9.667  0.0263  0.3109  0.3199
  128TCq2    H4 1964   2.137   4.599   9.542 -0.6164 -0.2284 -1.5277
  129MPD2     C 1965   4.616   2.304   1.228 -0.0415  0.3259  0.4527
  129MPD2    C1 1966   0.024   2.335   1.254 -0.0830 -0.2747  0.1092
  129MPD2    C2 1967   0.092   2.424   1.169  0.4658  0.5594 -0.4743
  129MPD2    C3 1968   0.027   2.475   1.059 -0.0281 -0.3565  0.5048
  129MPD2    C4 1969   4.626   2.432   1.026 -0.1928 -0.5182 -0.1986
  129MPD2    C5 1970   4.560   2.349   1.112 -0.5845 -0.0464 -0.2026
  129MPD2     H 1971   0.188   2.466   1.196  0.3946 -0.8682  2.0408
  129MPD2    H1 1972   4.574   2.466   0.937  1.4804 -1.2785 -1.4600
  129MPD2    H2 1973   4.558   2.234   1.287  0.7383 -1.0186 -0.3757
  129MPD2    H3 1974   4.459   2.320   1.085 -0.4610 -0.6982  0.0449
  129MPD2     N 1975   0.099   2.559   0.972 -0.3635  0.1636  0.2846
  129MPD2    H5 1976   0.179   2.605   1.014  0.4269 -2.3329  1.5007
  129MPD2    N1 1977   0.091   2.272   1.356  0.0301  0.2228 -0.2371
  129MPD2    H7 1978   0.187   2.299   1.375 -0.1107  0.4443  0.1662
  130TCq2    C1 1979   0.040   2.181   1.443  0.0451  0.9851  0.0473
  130TCq2    O2 1980   4.650   2.130   1.461  0.2335 -0.3538 -0.2438
  130TCq2    C2 1981   0.152   2.123   1.518 -0.6947  0.5322  0.5717
  130TCq2    C3 1982   0.284   2.130   1.479 -0.3511 -0.0213 -0.5860
  130TCq2    C4 1983   0.384   2.068   1.549  0.0302 -0.2456 -0.3469
  130TCq2    C5 1984   0.352   1.983   1.655 -0.3403  0.5745 -0.0308
  130TCq2    C6 1985   0.218   1.955   1.681  1.0119 -0.0261 -0.3133
  130TCq2    C7 1986   0.125   2.032   1.621 -0.4902  0.1006  0.6343
  130TCq2    C8 1987   0.175   1.844   1.766 -0.0701  0.0390  0.4187
  130TCq2    O4 1988   0.055   1.832   1.795 -0.2591  0.0285 -0.1543
  130TCq2    C9 1989   0.518   2.094   1.510  0.1614 -0.1381 -0.4717
  130TCq2    O5 1990   0.530   2.182   1.426  0.0856  0.2026  0.1005
  130TCq2    O6 1991   0.614   2.037   1.573 -0.4000 -0.3476  0.0697
  130TCq2    H2 1992   0.309   2.190   1.393 -0.3115  0.2054 -0.4159
  130TCq2    H3 1993   0.432   1.927   1.703  0.0529  0.2040 -1.1297
  130TCq2    H4 1994   0.021   2.009   1.642 -1.1718  0.8179 -1.9731
  131MPD2     C 1995   4.488   0.199   9.141 -0.1680 -0.0009 -0.4658
  131MPD2    C1 1996   4.596   0.215   9.232 -0.7705 -0.5476 -0.0602
  131MPD2    C2 1997   4.619   0.110   9.322 -0.1711 -0.3613  0.5563
  131MPD2    C3 1998   4.545   4.717   9.320  0.9111 -0.1484 -0.3109
  131MPD2    C4 1999   4.437   4.704   9.232  0.4847  0.6369  0.5905
  131MPD2    C5 2000   4.404   0.089   9.145 -0.0356 -0.0864 -0.0472
  131MPD2     H 2001   4.702   0.116   9.392  1.0667  1.5428 -1.0747
  131MPD2    H1 2002   4.392   4.607   9.211  0.1457  0.6371  1.3307
  131MPD2    H2 2003   4.454   0.281   9.080 -0.3911  0.1698 -0.1062
  131MPD2    H3 2004   4.316   0.088   9.082 -0.4656  1.6758  0.5279
  131MPD2     N 2005   4.592   4.612   9.402 -0.3277  0.0452  0.5830
  131MPD2    H5 2006   4.677   4.636   9.452 -0.4297  4.4433 -1.3607
  131MPD2    N1 2007   4.668   0.337   9.230 -0.3041  0.0153  0.2329
  131MPD2    H7 2008   4.634   0.418   9.181 -2.4321 -0.2831  1.2400
  132TCq2    C1 2009   0.147   0.779   9.071  0.2481 -0.4928  0.2723
  132TCq2    O2 2010   0.078   0.737   8.978 -0.2172  0.3081  0.3312
  132TCq2    C2 2011   0.126   0.713   9.199 -0.4369 -0.6412 -0.0037
  132TCq2    C3 2012   0.162   0.771   9.322 -0.0771 -0.2877 -0.0500
  132TCq2    C4 2013   0.164   0.686   9.431  0.4619  0.4241  0.7879
  132TCq2    C5 2014   0.126   0.553   9.425 -0.1961  0.6451  1.7646
  132TCq2    C6 2015   0.094   0.503   9.299 -0.3972 -0.2415 -0.0566
  132TCq2    C7 2016   0.088   0.580   9.193  0.3326  0.6726 -0.5009
  132TCq2    C8 2017   0.064   0.364   9.295  0.0102  0.6576  0.0122
  132TCq2    O4 2018   0.129   0.281   9.365  0.3691 -0.2718 -0.5659
  132TCq2    C9 2019   0.216   0.730   9.553  0.1204 -0.0971 -0.1590
  132TCq2    O5 2020   0.200   0.647   9.648 -0.4166 -0.5065  0.0897
  132TCq2    O6 2021   0.256   0.846   9.562  0.9945  0.7378  0.0392
  132TCq2    H2 2022   0.198   0.872   9.338  2.8725 -1.5690  1.3404
  132TCq2    H3 2023   0.119   0.495   9.516 -0.4063  0.2774  1.5156
  132TCq2    H4 2024   0.071   0.535   9.096 -0.2370 -1.5058  0.5954
  133MPD2     C 2025   4.350   4.555   8.811 -0.2973  0.1929  0.1261
  133MPD2    C1 2026   4.242   4.626   8.868  0.2422  0.2050  0.1652
  133MPD2    C2 2027   4.238   0.039   8.861  0.1923  0.5261 -0.1990
  133MPD2    C3 2028   4.340   0.113   8.809 -0.3911  0.1473  0.1110
  133MPD2    C4 2029   4.457   0.048   8.773  0.0623 -0.7353  0.0794
  133MPD2    C5 2030   4.457   4.632   8.766 -0.1526 -0.6005  0.2857
  133MPD2     H 2031   4.146   0.087   8.890  0.1593  0.8286 -0.7993
  133MPD2    H1 2032   4.545   0.097   8.734 -0.1250  0.6125  1.3364
  133MPD2    H2 2033   4.349   4.446   8.806  2.1469  0.1834  0.0219
  133MPD2    H3 2034   4.545   4.586   8.722  0.5032  0.2446  0.6964
  133MPD2     N 2035   4.329   0.254   8.795  0.0869  0.3789 -0.2848
  133MPD2    H5 2036   4.412   0.305   8.765  0.0908 -0.3110 -1.4589
  133MPD2    N1 2037   4.143   4.546   8.933  0.8666  0.0011  0.1908
  133MPD2    H7 2038   4.134   4.449   8.905 -1.0283 -0.2267  1.5193
  134TCq2    C1 2039   4.059   4.592   9.034  0.2672 -0.6265 -1.0293
  134TCq2    O2 2040   4.056   4.701   9.086 -0.3628  0.1741 -0.0378
  134TCq2    C2 2041   3.955   4.491   9.059 -0.0702  0.0535  0.3730
  134TCq2    C3 2042   3.964   4.366   9.004  0.2964 -0.1294 -0.5384
  134TCq2    C4 2043   3.856   4.285   8.998  0.0037 -0.0249  0.3217
  134TCq2    C5 2044   3.734   4.337   9.025  0.5308  0.2760 -0.1758
  134TCq2    C6 2045   3.729   4.468   9.072 -0.3273  0.1736  0.1944
  134TCq2    C7 2046   3.838   4.546   9.095 -0.1078  0.2403 -0.1514
  134TCq2    C8 2047   3.596   4.531   9.077  0.3060 -0.4267  0.4947
  134TCq2    O4 2048   3.596   4.649   9.113 -0.2112  0.0319  1.1225
  134TCq2    C9 2049   3.857   4.170   8.916 -0.5679 -0.1635  0.4991
  134TCq2    O5 2050   3.764   4.085   8.932  0.4624  0.0788 -0.0115
  134TCq2    O6 2051   3.942   4.173   8.826 -0.3405 -0.0849  0.5364
  134TCq2    H2 2052   4.057   4.315   8.981  0.4940  0.5739 -1.3001
  134TCq2    H3 2053   3.648   4.272   9.010  0.2609  0.7302 -0.5880
  134TCq2    H4 2054   3.826   4.644   9.139  0.4451  0.8062 -1.2408
  135MPD2     C 2055   2.294   1.936   8.353  0.2126  0.2159 -0.3229
  135MPD2    C1 2056   2.283   1.901   8.487 -0.3284 -0.5391  0.3184
  135MPD2    C2 2057   2.351   1.787   8.532 -0.0169 -0.4348  0.7461
  135MPD2    C3 2058   2.428   1.714   8.446 -0.2034  0.4389  0.0401
  135MPD2    C4 2059   2.454   1.758   8.318  0.1713  0.7489  0.3390
  135MPD2    C5 2060   2.373   1.859   8.274 -0.2107 -0.4255 -0.2829
  135MPD2     H 2061   2.344   1.765   8.638  1.5220  0.5784  1.0662
  135MPD2    H1 2062   2.528   1.703   8.262 -1.2377 -0.8573  0.0530
  135MPD2    H2 2063   2.250   2.022   8.305  0.5431  1.0851  0.9510
  135MPD2    H3 2064   2.374   1.893   8.171  0.4050  1.2331  0.2614
  135MPD2     N 2065   2.489   1.586   8.478 -0.4254 -0.4242 -0.2407
  135MPD2    H5 2066   2.541   1.537   8.405  0.3966 -0.1895  0.1926
  135MPD2    N1 2067   2.206   1.967   8.583  0.6137  0.2561  0.6688
  135MPD2    H7 2068   2.217   1.939   8.679  1.5436 -0.0316  0.4797
  136TCq2    C1 2069   2.130   2.077   8.554  0.5412  0.8224 -0.5725
  136TCq2    O2 2070   2.134   2.145   8.450  0.2331  0.5262  0.3344
  136TCq2    C2 2071   2.042   2.116   8.664  0.6802  0.4184  0.4995
  136TCq2    C3 2072   1.989   2.240   8.661 -0.6735 -0.9318 -0.5589
  136TCq2    C4 2073   1.922   2.289   8.764  0.2475  0.1325 -0.0145
  136TCq2    C5 2074   1.902   2.216   8.877  0.5158  0.3861 -0.0603
  136TCq2    C6 2075   1.952   2.091   8.882 -0.7182 -0.1310  0.9133
  136TCq2    C7 2076   2.028   2.040   8.780 -0.0714 -0.5601 -0.4845
  136TCq2    C8 2077   1.998   2.050   9.006  0.2336  0.6682 -0.4907
  136TCq2    O4 2078   2.117   2.014   9.011 -0.3666  0.1168  0.0049
  136TCq2    C9 2079   1.856   2.423   8.754  0.5664 -0.1431 -0.2943
  136TCq2    O5 2080   1.792   2.465   8.857  0.3430  0.0843 -0.0736
  136TCq2    O6 2081   1.877   2.493   8.650 -0.3418 -0.2122  0.2894
  136TCq2    H2 2082   1.995   2.286   8.564 -3.8957 -1.6323 -1.0814
  136TCq2    H3 2083   1.844   2.257   8.959  0.4197  3.4799 -1.6937
  136TCq2    H4 2084   2.076   1.944   8.793 -0.3909 -0.4182  1.7886
  137MPD2     C 2085   1.933   0.910   8.567  0.3259 -1.2004  0.5186
  137MPD2    C1 2086   1.849   1.020   8.607 -0.0245  0.1549 -0.4512
  137MPD2    C2 2087   1.866   1.064   8.738 -0.2741  0.7928  0.3471
  137MPD2    C3 2088   1.961   1.013   8.825 -0.7844 -0.2454 -0.1797
  137MPD2    C4 2089   2.039   0.905   8.786  0.0820  0.4277  0.1058
  137MPD2    C5 2090   2.022   0.855   8.657 -0.3698 -0.1276 -0.4238
  137MPD2     H 2091   1.816   1.153   8.775 -1.7120  0.0105  0.2748
  137MPD2    H1 2092   2.119   0.854   8.838  1.5603  0.3732 -2.2395
  137MPD2    H2 2093   1.921   0.878   8.464 -0.2440 -2.0184  0.8455
  137MPD2    H3 2094   2.077   0.766   8.627 -3.2936 -0.3235 -5.3385
  137MPD2     N 2095   1.981   1.078   8.946  0.8374 -0.0221  0.0293
  137MPD2    H5 2096   1.935   1.168   8.945  3.0758  1.0899 -2.4606
  137MPD2    N1 2097   1.767   1.070   8.511 -0.7465  0.0138  0.0150
  137MPD2    H7 2098   1.767   1.027   8.419  1.1518  2.3428 -1.0580
  138TCq2    C1 2099   1.660   1.144   8.539 -0.0355 -1.0791  0.4228
  138TCq2    O2 2100   1.617   1.195   8.642  0.2492 -0.1003 -0.3363
  138TCq2    C2 2101   1.587   1.185   8.421 -0.1667 -1.1525  0.1204
  138TCq2    C3 2102   1.623   1.143   8.295 -0.4526 -0.5845 -0.3998
  138TCq2    C4 2103   1.537   1.178   8.192 -0.3852 -0.3714 -0.1932
  138TCq2    C5 2104   1.424   1.245   8.210  0.1488 -0.3349 -0.2968
  138TCq2    C6 2105   1.376   1.272   8.343  0.0153 -0.0899  0.5004
  138TCq2    C7 2106   1.463   1.251   8.449  0.0657  0.0973  0.0697
  138TCq2    C8 2107   1.286   1.387   8.340 -0.2075  0.4322  0.1430
  138TCq2    O4 2108   1.293   1.450   8.235  0.2481  0.2343 -0.6338
  138TCq2    C9 2109   1.577   1.148   8.054  1.0977  0.1949 -0.2123
  138TCq2    O5 2110   1.686   1.083   8.038  0.2637  0.2297  0.6193
  138TCq2    O6 2111   1.489   1.158   7.963  0.2434  0.6633 -0.4485
  138TCq2    H2 2112   1.706   1.085   8.256  0.1865 -0.3142  0.5643
  138TCq2    H3 2113   1.373   1.263   8.116  3.0660  0.1335 -1.8026
  138TCq2    H4 2114   1.433   1.284   8.548 -0.1723 -0.7782  0.2909
  139TMC2    C1 2115   2.125   4.354  13.205 -0.4608 -0.0232  0.2110
  139TMC2    C2 2116   2.264   4.385  13.219 -0.1586  0.4309  0.4435
  139TMC2    C3 2117   2.300   4.516  13.224  0.2611  0.8933  0.0001
  139TMC2    C4 2118   2.030   4.449  13.206  0.1676 -0.2864 -0.5812
  139TMC2    C5 2119   2.065   4.576  13.228 -0.1408  0.3581  0.0351
  139TMC2    C6 2120   2.202   4.615  13.235  0.4504  0.3429  0.0170
  139TMC2     C 2121   2.080   4.218  13.197 -0.1276 -0.0757 -0.2126
  139TMC2     O 2122   2.172   4.141  13.177  0.7264 -0.3699 -0.2145
  139TMC2     H 2123   2.341   4.309  13.234 -2.8462 -2.2545  0.7311
  139TMC2    H1 2124   1.928   4.439  13.172  0.1742  1.8136 -1.2188
  139TMC2    H2 2125   2.224   4.720  13.223 -1.4243  0.9215  1.6412
  139TMC2    C7 2126   1.960   4.682  13.233 -0.0721 -0.0982 -1.1250
  139TMC2    C8 2127   2.439   4.543  13.227 -0.2874 -0.6814  0.2653
  139TMC2    O1 2128   1.842   4.662  13.199  0.0334  0.6632 -0.4914
  139TMC2    O2 2129   2.509   4.475  13.297  0.6931  0.0443  0.4439
  139TMC2    O5 2130   2.462   4.670  13.198 -0.4277 -0.6204  0.5213
  139TMC2    H5 2131   2.402   4.703  13.127 -0.4093  1.2168  1.3638
  140MPD2     C 2132   1.787   4.053  13.363  0.7279  0.0403 -0.7260
  140MPD2    C1 2133   1.910   4.058  13.294 -0.1000 -0.0681  0.3488
  140MPD2    C2 2134   1.966   3.930  13.262 -0.7546 -0.7168 -0.5026
  140MPD2    C3 2135   1.912   3.809  13.305  0.3511  0.7009 -0.6526
  140MPD2    C4 2136   1.794   3.815  13.382 -0.4669 -0.6676 -0.2343
  140MPD2    C5 2137   1.737   3.936  13.405  1.0992 -0.4769 -0.0017
  140MPD2     H 2138   2.053   3.926  13.198  1.5699 -1.0764  2.6819
  140MPD2    H1 2139   1.731   3.735  13.417 -0.1530 -0.6330  0.4173
  140MPD2    H2 2140   1.737   4.144  13.395  0.0900 -0.9374  1.0156
  140MPD2    H3 2141   1.657   3.939  13.478  1.7515 -2.3344  0.7880
  140MPD2     N 2142   1.982   3.684  13.279  0.4185 -0.9968 -0.1533
  140MPD2    H5 2143   2.056   3.688  13.210 -0.1439 -0.8600 -0.7408
  140MPD2    N1 2144   1.958   4.189  13.256  0.6031 -0.3737 -0.6023
  140MPD2    H7 2145   1.905   4.270  13.286 -0.1022 -0.9787 -0.2200
  141TCq2    C1 2146   2.278   1.093  14.065 -0.4556 -0.1735  0.0879
  141TCq2    O2 2147   2.202   1.141  13.980 -0.4718  0.0027  0.0468
  141TCq2    C2 2148   2.228   1.117  14.204  0.1663  0.3912 -0.3594
  141TCq2    C3 2149   2.268   1.036  14.305  0.1242  0.0450  0.1281
  141TCq2    C4 2150   2.233   1.081  14.429  0.2193  0.4889 -0.0915
  141TCq2    C5 2151   2.161   1.196  14.450  0.8538 -0.4153  0.3531
  141TCq2    C6 2152   2.128   1.268  14.340 -0.1844  0.0953 -0.0149
  141TCq2    C7 2153   2.166   1.237  14.216  0.0798  0.1298  0.2047
  141TCq2    C8 2154   2.148   1.411  14.362 -1.3329  0.6200 -0.0424
  141TCq2    O4 2155   2.086   1.492  14.295  0.0197  1.0297  0.0431
  141TCq2    C9 2156   2.255   0.992  14.546 -0.1385 -0.5746 -0.1655
  141TCq2    O5 2157   2.319   0.883  14.531 -0.1934 -0.7189 -0.1030
  141TCq2    O6 2158   2.192   1.018  14.655 -0.4213  0.0408  0.2724
  141TCq2    H2 2159   2.314   0.939  14.286 -0.7149 -0.4307  0.5084
  141TCq2    H3 2160   2.115   1.216  14.546  0.4162 -1.1882  0.3029
  141TCq2    H4 2161   2.150   1.305  14.133  1.1577 -0.3233 -0.3653
  142MPD2     C 2162   0.500   3.758  10.537  0.4087  0.1355  0.2235
  142MPD2    C1 2163   0.575   3.673  10.456  0.3141  0.5750  0.5162
  142MPD2    C2 2164   0.664   3.742  10.367 -0.2578  0.2060 -0.0085
  142MPD2    C3 2165   0.669   3.883  10.364 -0.2833 -0.1082  0.0377
  142MPD2    C4 2166   0.592   3.955  10.447 -0.4607  0.3861  0.3406
  142MPD2    C5 2167   0.509   3.895  10.534 -0.3256 -0.2782  0.2324
  142MPD2     H 2168   0.755   3.706  10.320 -0.2510  0.8035 -0.4534
  142MPD2    H1 2169   0.588   4.062  10.435  0.9495  0.6129  1.8705
  142MPD2    H2 2170   0.433   3.714  10.610 -1.6345 -0.3476 -1.9293
  142MPD2    H3 2171   0.452   3.949  10.609  0.3084  0.0380  0.4856
  142MPD2     N 2172   0.755   3.955  10.283 -0.3402  0.4908  0.7413
  142MPD2    H5 2173   0.766   4.052  10.311  0.1418  0.0170  2.2161
  142MPD2    N1 2174   0.585   3.532  10.479  0.1236 -0.1849  0.0300
  142MPD2    H7 2175   0.534   3.499  10.559 -0.4720  1.1084  0.1748
  143TCq2    C1 2176   0.803   3.917  10.157  1.0727  0.6244  0.0286
  143TCq2    O2 2177   0.782   3.816  10.097 -0.5535 -0.0195 -0.0342
  143TCq2    C2 2178   0.889   4.017  10.098  1.2391  0.2794  0.6322
  143TCq2    C3 2179   0.984   4.067  10.179 -0.5838  1.0053  0.3388
  143TCq2    C4 2180   1.085   4.147  10.131  0.0184 -0.1644 -0.7677
  143TCq2    C5 2181   1.074   4.196   9.999 -0.3813 -0.6074 -0.7462
  143TCq2    C6 2182   0.975   4.142   9.919  0.0094 -0.4040  0.3145
  143TCq2    C7 2183   0.877   4.057   9.968  0.4273 -0.3450 -0.7313
  143TCq2    C8 2184   0.961   4.199   9.784  0.0561  0.7003 -0.0916
  143TCq2    O4 2185   1.049   4.281   9.757  0.1890 -0.6785 -0.3380
  143TCq2    C9 2186   1.179   4.205  10.222 -0.0172  0.1586  0.3608
  143TCq2    O5 2187   1.269   4.291  10.179 -0.3913 -0.0728 -0.7389
  143TCq2    O6 2188   1.168   4.167  10.341 -0.2207 -0.7698 -0.4221
  143TCq2    H2 2189   0.974   4.055  10.286 -1.4104  2.3999  0.4198
  143TCq2    H3 2190   1.147   4.267   9.963  1.1320 -0.7129  2.0976
  143TCq2    H4 2191   0.790   4.026   9.911 -0.5360  1.3697 -0.2028
  144MPD2     C 2192   2.398   3.704   1.027  0.1232  1.0081 -0.0770
  144MPD2    C1 2193   2.512   3.643   0.969  0.1706 -0.4196  0.2082
  144MPD2    C2 2194   2.622   3.623   1.054 -0.2058 -0.4503 -0.7705
  144MPD2    C3 2195   2.620   3.673   1.183 -0.0282  1.2169  0.0330
  144MPD2    C4 2196   2.519   3.754   1.225  0.0512 -0.8013  0.5902
  144MPD2    C5 2197   2.402   3.761   1.153  0.3321 -0.3107  0.1455
  144MPD2     H 2198   2.703   3.561   1.018  0.0871 -1.0015  0.8713
  144MPD2    H1 2199   2.522   3.799   1.324  1.6680 -2.2911  1.2073
  144MPD2    H2 2200   2.304   3.706   0.974  0.3502 -0.4755 -0.5223
  144MPD2    H3 2201   2.317   3.815   1.193  1.0681  0.3152  0.8744
  144MPD2     N 2202   2.727   3.659   1.272 -0.6119 -0.2834 -0.7818
  144MPD2    H5 2203   2.730   3.710   1.360  1.2537 -1.2614 -0.2684
  144MPD2    N1 2204   2.506   3.595   0.841  0.3201  0.1400  0.3383
  144MPD2    H7 2205   2.588   3.547   0.805  0.4147  0.6898 -0.1797
  145TCq2    C1 2206   2.830   3.563   1.261 -0.1354  0.3721  0.0411
  145TCq2    O2 2207   2.843   3.478   1.173 -0.0654  0.0764 -0.6495
  145TCq2    C2 2208   2.920   3.556   1.375 -0.1364 -0.4855 -0.1966
  145TCq2    C3 2209   3.044   3.497   1.367 -0.4936  0.1593 -0.4469
  145TCq2    C4 2210   3.121   3.501   1.483  0.5040  0.1548  0.0652
  145TCq2    C5 2211   3.079   3.547   1.606 -0.0864 -0.0799 -0.4293
  145TCq2    C6 2212   2.954   3.608   1.611 -0.1786  0.0262  0.4549
  145TCq2    C7 2213   2.875   3.610   1.497  0.0078  0.1760  0.4573
  145TCq2    C8 2214   2.902   3.649   1.745  0.2582  0.1876  0.1286
  145TCq2    O4 2215   2.953   3.588   1.839 -0.7779  0.3788  0.2381
  145TCq2    C9 2216   3.247   3.436   1.474 -1.1348 -0.5011  0.2163
  145TCq2    O5 2217   3.273   3.388   1.359 -0.2741 -0.5810 -0.1111
  145TCq2    O6 2218   3.316   3.437   1.579  0.5073 -0.5739 -0.7731
  145TCq2    H2 2219   3.081   3.456   1.274 -0.3432 -0.0288 -0.3039
  145TCq2    H3 2220   3.137   3.529   1.696 -1.2018 -3.2191 -0.3347
  145TCq2    H4 2221   2.768   3.610   1.514 -0.1611  0.1181 -0.6024
  146TMC2    C1 2222   3.779   2.490  12.901  0.4877 -0.4163 -0.3315
  146TMC2    C2 2223   3.730   2.608  12.848 -0.2808  0.1808 -0.0874
  146TMC2    C3 2224   3.746   2.628  12.717  0.9807 -0.3013  0.1733
  146TMC2    C4 2225   3.836   2.391  12.821  0.0998 -0.1395 -1.1650
  146TMC2    C5 2226   3.842   2.415  12.689  0.0045  0.4853  0.2281
  146TMC2    C6 2227   3.794   2.534  12.633  0.2340  0.2815  0.1729
  146TMC2     C 2228   3.810   2.492  13.046 -0.6671  0.0310  0.0306
  146TMC2     O 2229   3.734   2.568  13.102  0.2414 -0.1918  0.7668
  146TMC2     H 2230   3.690   2.680  12.918 -2.2373  0.3825 -1.3951
  146TMC2    H1 2231   3.879   2.299  12.860  3.4679  2.2055  0.6906
  146TMC2    H2 2232   3.790   2.561  12.528  0.0149  0.7647  0.3039
  146TMC2    C7 2233   3.907   2.323  12.594  0.3393 -0.0814 -0.4190
  146TMC2    C8 2234   3.712   2.754  12.658 -1.2530 -0.5437 -0.5937
  146TMC2    O1 2235   3.951   2.373  12.492 -0.0511 -0.3171  0.3734
  146TMC2    O2 2236   3.762   2.801  12.557  0.0921  0.1946 -0.6036
  146TMC2    O5 2237   3.589   2.783  12.712  0.5453  0.2134  0.6809
  146TMC2    H5 2238   3.560   2.714  12.775  0.0037 -0.8272 -0.6935
  147MPD2     C 2239   4.056   1.880  12.404 -0.5481 -0.7621 -0.5501
  147MPD2    C1 2240   4.043   1.866  12.542 -0.7692 -0.1119 -0.8782
  147MPD2    C2 2241   4.001   1.970  12.616  0.0364 -0.3156  0.1772
  147MPD2    C3 2242   3.957   2.088  12.557 -0.1171  0.2695  0.0091
  147MPD2    C4 2243   3.952   2.096  12.418  0.1767  0.6500  0.1197
  147MPD2    C5 2244   4.005   1.992  12.345  0.3782  0.7761 -0.3509
  147MPD2     H 2245   3.992   1.980  12.724  1.4501  0.5389  0.2121
  147MPD2    H1 2246   3.916   2.179  12.359 -0.0587 -0.2582 -1.0387
  147MPD2    H2 2247   4.099   1.800  12.344  0.1461 -1.1412  0.4572
  147MPD2    H3 2248   4.014   1.990  12.237 -0.5725  1.5433 -0.4447
  147MPD2     N 2249   3.911   2.192  12.639  0.3618  0.7350 -0.6714
  147MPD2    H5 2250   3.893   2.168  12.737  0.1799  1.9859 -0.4022
  147MPD2    N1 2251   4.108   1.752  12.605  0.4195  0.5946  0.1426
  147MPD2    H7 2252   4.171   1.694  12.551 -2.4779 -2.6180  0.1814
  148MPD2     C 2253   0.869   4.692  10.393  0.5606  0.6369  0.0316
  148MPD2    C1 2254   0.813   0.031  10.284  0.1595  0.1293 -0.2147
  148MPD2    C2 2255   0.677   0.021  10.272 -0.4817  0.1760  0.2817
  148MPD2    C3 2256   0.597   4.676  10.362 -0.0751  0.2480 -0.3020
  148MPD2    C4 2257   0.657   4.610  10.468 -0.1853 -0.0440  0.1120
  148MPD2    C5 2258   0.795   4.617  10.478 -0.6346 -0.2566  0.2012
  148MPD2     H 2259   0.627   0.070  10.189 -1.1196  0.5732  0.9044
  148MPD2    H1 2260   0.604   4.557  10.547 -0.4233  0.9593  0.6255
  148MPD2    H2 2261   0.975   4.707  10.410  0.4514  0.6046  0.7357
  148MPD2    H3 2262   0.841   4.564  10.561 -0.7339  1.4761  1.3426
  148MPD2     N 2263   0.452   4.656  10.352  0.1618 -0.1910  0.4092
  148MPD2    H5 2264   0.406   4.620  10.435 -2.2128 -2.8112 -2.0499
  148MPD2    N1 2265   0.881   0.112  10.188 -0.8982 -0.0644  0.4721
  148MPD2    H7 2266   0.820   0.142  10.112 -0.0354  2.4707  0.8013
  149TCq2    C1 2267   1.014   0.133  10.182 -0.4380 -0.3246  0.3565
  149TCq2    O2 2268   1.103   0.098  10.254 -0.6678  0.6758  0.1501
  149TCq2    C2 2269   1.041   0.227  10.075 -0.1302 -0.0149 -0.5733
  149TCq2    C3 2270   1.144   0.203   9.987  0.2095  0.8273  0.3890
  149TCq2    C4 2271   1.152   0.258   9.863 -0.0551  0.2965 -0.3265
  149TCq2    C5 2272   1.029   0.313   9.815  0.1837  0.6876  0.2772
  149TCq2    C6 2273   0.933   0.338   9.906 -0.1408  0.2585 -0.4114
  149TCq2    C7 2274   0.938   0.305  10.035 -0.4798  0.0302 -0.5373
  149TCq2    C8 2275   0.798   0.310   9.860  0.0936  0.3210  0.1320
  149TCq2    O4 2276   0.721   0.246   9.933  0.1743  0.4523 -0.2566
  149TCq2    C9 2277   1.245   0.209   9.766  0.1375 -0.2029  0.1975
  149TCq2    O5 2278   1.223   0.250   9.648  0.1739 -0.0390 -0.4075
  149TCq2    O6 2279   1.341   0.138   9.806 -0.2326  0.5981  0.2674
  149TCq2    H2 2280   1.237   0.157  10.017 -0.4265 -1.0307 -0.4731
  149TCq2    H3 2281   1.023   0.332   9.708  3.6585 -1.6065 -0.3284
  149TCq2    H4 2282   0.858   0.328  10.104  0.8295 -2.0102  1.7015
  150MPD2     C 2283   1.459   4.710  12.195  0.1357 -0.3279  0.0544
  150MPD2    C1 2284   1.417   0.105  12.140  0.3185  0.2776 -0.1940
  150MPD2    C2 2285   1.504   0.212  12.149  0.0917  0.3055  0.1288
  150MPD2    C3 2286   1.627   0.200  12.219 -0.1707  0.2263 -0.0373
  150MPD2    C4 2287   1.659   0.080  12.267  0.9256  0.5428 -0.4470
  150MPD2    C5 2288   1.578   4.697  12.257 -0.7035  0.0770 -0.0235
  150MPD2     H 2289   1.477   0.309  12.110  1.9093  1.3512  1.4357
  150MPD2    H1 2290   1.759   0.064  12.304  0.9623 -2.3833 -1.8076
  150MPD2    H2 2291   1.402   4.618  12.187 -1.7065  0.8585 -0.4724
  150MPD2    H3 2292   1.612   4.599  12.286 -0.6461  0.1785  0.2517
  150MPD2     N 2293   1.710   0.318  12.220  0.2329  0.9454 -0.1210
  150MPD2    H5 2294   1.681   0.401  12.167 -1.5842  0.9297  0.8348
  150MPD2    N1 2295   1.290   0.104  12.074  0.4436 -0.3236 -0.3625
  150MPD2    H7 2296   1.238   0.016  12.077  0.9684 -0.5562  1.7019
  151TCq2    C1 2297   1.832   0.331  12.291  0.6666  0.3555  0.1994
  151TCq2    O2 2298   1.886   0.262  12.376 -0.6138 -0.7316 -0.2956
  151TCq2    C2 2299   1.894   0.461  12.259 -0.2484 -0.4988 -0.2745
  151TCq2    C3 2300   1.813   0.568  12.215  0.5434 -1.0999  0.1526
  151TCq2    C4 2301   1.867   0.696  12.219  0.1792  0.2275 -0.7224
  151TCq2    C5 2302   1.988   0.718  12.268 -0.0189  0.0537  0.1221
  151TCq2    C6 2303   2.058   0.614  12.325 -0.2933  0.5249 -0.5958
  151TCq2    C7 2304   2.015   0.482  12.319 -0.3792  0.3198 -0.6203
  151TCq2    C8 2305   2.199   0.649  12.348  0.3325 -0.6049  0.3065
  151TCq2    O4 2306   2.225   0.765  12.343 -0.1720 -0.7274  0.3849
  151TCq2    C9 2307   1.791   0.803  12.179  0.6308  0.6797  0.4101
  151TCq2    O5 2308   1.698   0.788  12.102 -0.3065  0.2092 -0.1192
  151TCq2    O6 2309   1.827   0.918  12.216  0.6760  0.3586  0.8398
  151TCq2    H2 2310   1.713   0.554  12.175  0.0833 -1.9291  1.6076
  151TCq2    H3 2311   2.027   0.818  12.259  1.5202 -0.5238  0.4431
  151TCq2    H4 2312   2.074   0.401  12.359 -1.0269 -0.6526 -1.6155
  152MPD2     C 2313   1.030   4.514  12.628 -0.3037  0.6771  0.7381
  152MPD2    C1 2314   1.056   4.630  12.561 -0.6715  0.1819  0.8707
  152MPD2    C2 2315   0.945   4.689  12.494 -0.9386 -0.0065 -0.0130
  152MPD2    C3 2316   0.822   4.619  12.481  0.1283 -0.1306 -0.2788
  152MPD2    C4 2317   0.807   4.497  12.543 -0.4826 -0.4210 -0.0941
  152MPD2    C5 2318   0.909   4.450  12.618  0.1815  0.8404  0.3259
  152MPD2     H 2319   0.954   0.059  12.439 -1.4707  1.2730  2.0611
  152MPD2    H1 2320   0.725   4.429  12.526 -1.6169  0.9396 -0.0843
  152MPD2    H2 2321   1.100   4.476  12.702  1.2863 -1.3714 -1.8500
  152MPD2    H3 2322   0.881   4.357  12.666 -1.7019  2.0760  1.6956
  152MPD2     N 2323   0.725   4.676  12.391  0.3057  0.0550 -0.8346
  152MPD2    H5 2324   0.753   0.042  12.349 -1.2758  1.2597  0.6279
  152MPD2    N1 2325   1.188   4.691  12.565  0.1793  0.5816 -0.0983
  152MPD2    H7 2326   1.254   4.652  12.632 -0.3218  0.9455  0.6050
  153TCq2    C1 2327   1.231   0.084  12.513 -0.1462  0.7429  0.6742
  153TCq2    O2 2328   1.169   0.173  12.457  0.2833 -0.1153  0.2627
  153TCq2    C2 2329   1.374   0.116  12.546 -0.0953  0.0818  0.4292
  153TCq2    C3 2330   1.465   0.020  12.575  0.1467  0.2226 -0.0088
  153TCq2    C4 2331   1.596   0.059  12.594 -0.1098  1.2743 -0.5770
  153TCq2    C5 2332   1.634   0.186  12.567 -0.1549 -0.4758 -0.3048
  153TCq2    C6 2333   1.540   0.281  12.540  0.4322  0.5487 -0.0672
  153TCq2    C7 2334   1.409   0.242  12.527  0.3237 -0.8796 -0.7691
  153TCq2    C8 2335   1.569   0.423  12.534  0.7863  0.3997 -0.8491
  153TCq2    O4 2336   1.483   0.501  12.497 -0.0734 -0.4434  0.2531
  153TCq2    C9 2337   1.691   4.690  12.656 -0.2518 -0.2869  0.8044
  153TCq2    O5 2338   1.807   0.010  12.659  0.4709 -0.1656 -0.0022
  153TCq2    O6 2339   1.661   4.569  12.680 -0.1017 -0.1461  0.2264
  153TCq2    H2 2340   1.435   4.644  12.607 -2.6748  1.4333  1.0806
  153TCq2    H3 2341   1.741   0.204  12.561 -0.0324 -0.9220  0.5891
  153TCq2    H4 2342   1.333   0.318  12.510 -0.9316 -1.7135  1.1351
  154MPD2     C 2343   3.474   4.652   0.589  0.6670 -0.3253 -0.0897
  154MPD2    C1 2344   3.415   4.664   0.718 -0.1392  0.3740  0.4803
  154MPD2    C2 2345   3.292   4.722   0.734 -0.2242  0.5381  0.3565
  154MPD2    C3 2346   3.231   0.059   0.619  0.2973 -0.0170 -0.8136
  154MPD2    C4 2347   3.303   0.060   0.503  0.1483  0.9895 -0.8814
  154MPD2    C5 2348   3.422   4.717   0.486 -0.5864 -1.0837 -0.5090
  154MPD2     H 2349   3.243   0.004   0.830  1.2737 -0.1084  1.1636
  154MPD2    H1 2350   3.263   0.103   0.412 -0.7553  1.4713 -0.2494
  154MPD2    H2 2351   3.571   4.604   0.577  0.6480 -0.7642  1.4828
  154MPD2    H3 2352   3.474   4.713   0.391  1.3944  1.4995  0.4992
  154MPD2     N 2353   3.105   0.119   0.633  0.0510 -0.3146 -0.1829
  154MPD2    H5 2354   3.066   0.111   0.726  0.1464  1.6199  0.0265
  154MPD2    N1 2355   3.487   4.605   0.819 -0.5868 -0.0824  0.1224
  154MPD2    H7 2356   3.567   4.548   0.791  1.5864  2.7562  0.5496
  155TCq2    C1 2357   3.447   4.588   0.955  0.4111 -0.3319 -0.7521
  155TCq2    O2 2358   3.342   4.623   1.012 -1.0797 -0.4644  0.2403
  155TCq2    C2 2359   3.546   4.502   1.029  0.8992 -1.0279  0.0430
  155TCq2    C3 2360   3.509   4.448   1.153 -0.2326  0.0361 -0.6662
  155TCq2    C4 2361   3.602   4.379   1.223 -0.9320 -0.8417  0.4724
  155TCq2    C5 2362   3.730   4.358   1.173 -0.5038  0.6337 -0.4660
  155TCq2    C6 2363   3.762   4.424   1.063 -0.5466  0.7873  0.2283
  155TCq2    C7 2364   3.673   4.492   0.984 -0.2438 -0.3043 -0.2087
  155TCq2    C8 2365   3.889   4.384   0.995 -0.1091 -0.5921 -0.3295
  155TCq2    O4 2366   3.885   4.400   0.874  0.1552  0.0360 -0.3530
  155TCq2    C9 2367   3.561   4.331   1.357 -0.2626  0.2068  0.1511
  155TCq2    O5 2368   3.446   4.358   1.402 -0.1543  0.4288  0.0107
  155TCq2    O6 2369   3.637   4.251   1.420 -0.3756 -0.0253 -0.0786
  155TCq2    H2 2370   3.416   4.470   1.204  0.1396 -0.4449  0.2152
  155TCq2    H3 2371   3.798   4.304   1.238 -0.5327  0.0863 -0.8914
  155TCq2    H4 2372   3.717   4.547   0.902 -1.3125  1.7872  0.6155
  156MPD2     C 2373   0.891   1.885  12.173  0.4727 -0.1904  0.4037
  156MPD2    C1 2374   1.002   1.955  12.130  0.1477  0.3454 -0.1048
  156MPD2    C2 2375   1.090   2.020  12.222  0.0204  0.2730  0.4452
  156MPD2    C3 2376   1.061   2.026  12.353  0.4987 -0.1039 -0.3538
  156MPD2    C4 2377   0.939   1.970  12.398 -0.1600 -0.2008  0.7019
  156MPD2    C5 2378   0.861   1.899  12.302  0.4266 -0.5261  0.2422
  156MPD2     H 2379   1.187   2.057  12.192  0.7131 -2.0700 -0.2716
  156MPD2    H1 2380   0.897   1.972  12.498 -0.9724  1.8573  0.3234
  156MPD2    H2 2381   0.833   1.835  12.096  0.0325 -0.7529  1.1052
  156MPD2    H3 2382   0.779   1.838  12.338 -0.6462  2.4017  2.7017
  156MPD2     N 2383   1.139   2.111  12.442 -0.2839  0.2187  0.8685
  156MPD2    H5 2384   1.225   2.151  12.405  1.0712 -2.9887  0.5771
  156MPD2    N1 2385   1.018   1.966  11.990  0.0733 -0.3893 -0.1176
  156MPD2    H7 2386   0.955   1.917  11.927 -0.1507  0.1413 -0.3087
  157TCq2    C1 2387   1.124   2.027  11.927  0.4070 -0.3590 -0.1630
  157TCq2    O2 2388   1.221   2.091  11.969  0.4702  0.3542  0.1421
  157TCq2    C2 2389   1.103   2.042  11.786  0.1722  0.2894  0.2443
  157TCq2    C3 2390   1.022   1.952  11.721  0.3808  0.2512 -0.2839
  157TCq2    C4 2391   0.998   1.983  11.593  0.3997  0.0353 -0.4734
  157TCq2    C5 2392   1.046   2.094  11.529  0.2261 -0.4298  1.0928
  157TCq2    C6 2393   1.131   2.171  11.596  0.0501 -0.9742 -0.1839
  157TCq2    C7 2394   1.161   2.145  11.721  0.7089  0.3992  0.4850
  157TCq2    C8 2395   1.142   2.311  11.573  0.4713 -0.2361 -0.2576
  157TCq2    O4 2396   1.255   2.360  11.601  0.1559 -0.2534 -0.8000
  157TCq2    C9 2397   0.894   1.908  11.522  0.3459  0.2517 -0.3390
  157TCq2    O5 2398   0.836   1.821  11.590 -0.2978 -0.1968  0.0544
  157TCq2    O6 2399   0.860   1.948  11.405 -0.0990  0.2182  0.3543
  157TCq2    H2 2400   0.983   1.862  11.766  0.6938  0.4662  0.4188
  157TCq2    H3 2401   1.014   2.115  11.427 -0.7927 -1.4575  1.2076
  157TCq2    H4 2402   1.213   2.222  11.777  1.2967  1.2393 -1.1974
  158TMC2    C1 2403   1.911   1.236  13.280  0.1430  0.0972 -0.9192
  158TMC2    C2 2404   1.966   1.354  13.235  0.2868  0.0331  0.0219
  158TMC2    C3 2405   1.906   1.413  13.129  0.0456  0.2570  0.4416
  158TMC2    C4 2406   1.803   1.167  13.225 -0.9332  0.2100 -0.8702
  158TMC2    C5 2407   1.752   1.233  13.115 -0.7736 -0.1563 -0.5183
  158TMC2    C6 2408   1.800   1.352  13.066 -0.0463  0.3531 -1.0049
  158TMC2     C 2409   1.977   1.171  13.399 -0.1732 -0.4101  0.1264
  158TMC2     O 2410   2.076   1.227  13.449 -0.5571 -0.6355  0.2066
  158TMC2     H 2411   2.054   1.400  13.279  0.5687  0.0773 -0.5999
  158TMC2    H1 2412   1.786   1.065  13.257  0.1404  0.5297  0.7281
  158TMC2    H2 2413   1.752   1.411  12.989 -2.8839  0.6709  1.0233
  158TMC2    C7 2414   1.617   1.204  13.075  0.2952  0.2415  0.6759
  158TMC2    C8 2415   1.948   1.542  13.083  0.1295  0.8481  1.0445
  158TMC2    O1 2416   1.561   1.282  13.002  0.0009 -0.0098  0.0343
  158TMC2    O2 2417   1.955   1.577  12.960 -0.1562 -0.0507 -0.2368
  158TMC2    O5 2418   1.983   1.623  13.181 -0.0030 -0.1168  0.2625
  158TMC2    H5 2419   1.966   1.584  13.269 -0.2232  1.2845  0.8456
  159MPD2     C 2420   2.032   0.814  13.771  0.2846 -0.3125 -0.0449
  159MPD2    C1 2421   1.901   0.811  13.717  0.9442 -0.7160  0.5516
  159MPD2    C2 2422   1.863   0.901  13.617  0.1535 -0.7020  0.3764
  159MPD2    C3 2423   1.960   0.983  13.559 -0.9285  0.7227 -0.1820
  159MPD2    C4 2424   2.094   0.983  13.601  0.1266 -0.1869  0.2066
  159MPD2    C5 2425   2.124   0.902  13.710 -0.0698 -0.8402 -0.2279
  159MPD2     H 2426   1.759   0.907  13.586  1.0370  0.6390 -2.3370
  159MPD2    H1 2427   2.174   1.037  13.552  2.5703 -2.3208  1.8362
  159MPD2    H2 2428   2.063   0.759  13.859 -0.3399 -0.8812 -0.1815
  159MPD2    H3 2429   2.226   0.882  13.740  0.6060  0.9037 -1.3745
  159MPD2     N 2430   1.910   1.065  13.452 -0.6288  0.3157 -1.0857
  159MPD2    H5 2431   1.813   1.048  13.427 -1.0818 -0.1774  0.9786
  159MPD2    N1 2432   1.807   0.727  13.782 -0.1480 -0.1427  0.8994
  159MPD2    H7 2433   1.838   0.702  13.876 -2.0719 -1.3170  1.2435
  160TMC2    C1 2434   1.258   4.181   1.581 -0.0840 -0.4177  0.9097
  160TMC2    C2 2435   1.134   4.146   1.629  0.1491 -0.3838 -0.5577
  160TMC2    C3 2436   1.094   4.020   1.605  0.6202 -0.4725 -0.6479
  160TMC2    C4 2437   1.335   4.098   1.515  0.6723 -0.4420  0.1989
  160TMC2    C5 2438   1.293   3.974   1.486  0.1480  0.0365 -0.6174
  160TMC2    C6 2439   1.165   3.931   1.530 -0.1469  0.4740 -0.2834
  160TMC2     C 2440   1.296   4.320   1.593 -0.4210  0.5669  0.1056
  160TMC2     O 2441   1.414   4.346   1.595  0.5158  0.1910 -0.5617
  160TMC2     H 2442   1.091   4.199   1.713 -0.1557  0.0673 -0.9960
  160TMC2    H1 2443   1.435   4.136   1.497  0.0458  1.2462  0.2904
  160TMC2    H2 2444   1.115   3.837   1.510 -1.1488  0.6708  1.3031
  160TMC2    C7 2445   1.360   3.876   1.405  0.2918  0.1861  0.0968
  160TMC2    C8 2446   0.981   3.981   1.687  0.0409  0.8617  0.3777
  160TMC2    O1 2447   1.315   3.764   1.417 -0.0920  0.1353  0.0831
  160TMC2    O2 2448   0.967   3.871   1.735  0.2222 -0.0183 -0.2500
  160TMC2    O5 2449   0.879   4.054   1.633  0.4994 -0.0900  0.5757
  160TMC2    H5 2450   0.900   4.132   1.577  2.4657  0.8894  2.6919
  161MPD2     C 2451   1.290   4.617   1.620 -0.6822 -0.6697  0.2547
  161MPD2    C1 2452   1.178   4.537   1.607  0.2553  0.1702  0.3379
  161MPD2    C2 2453   1.051   4.586   1.585 -0.6097 -0.6345  0.4254
  161MPD2    C3 2454   1.037   0.001   1.579 -0.0384 -0.3774 -0.2164
  161MPD2    C4 2455   1.143   0.086   1.591  0.2580  1.2721 -0.5751
  161MPD2    C5 2456   1.268   0.029   1.618  0.3221  0.0991 -0.4388
  161MPD2     H 2457   0.960   4.527   1.586  0.3751 -2.1625  1.8623
  161MPD2    H1 2458   1.127   0.193   1.576  1.5923  1.9828  3.0248
  161MPD2    H2 2459   1.390   4.579   1.637 -0.3240 -0.1836 -0.7534
  161MPD2    H3 2460   1.350   0.100   1.621  0.9638 -0.5392 -2.9511
  161MPD2     N 2461   0.915   0.075   1.555 -0.5316  0.3921 -0.2672
  161MPD2    H5 2462   0.925   0.175   1.562 -0.4524  0.5662 -2.7433
  161MPD2    N1 2463   1.185   4.398   1.598 -0.2022  0.6097 -0.4836
  161MPD2    H7 2464   1.097   4.354   1.574 -0.7828  1.0096  0.9439
  162TMC2    C1 2465   3.955   1.780   1.222  0.2192  0.0797  0.2027
  162TMC2    C2 2466   3.871   1.861   1.157  0.1390 -0.0839  0.9318
  162TMC2    C3 2467   3.747   1.893   1.211  0.3215 -0.1209 -0.7013
  162TMC2    C4 2468   3.922   1.712   1.337 -0.3504 -0.1561 -0.7329
  162TMC2    C5 2469   3.798   1.752   1.393 -0.0572  0.3108  0.1804
  162TMC2    C6 2470   3.711   1.842   1.334 -0.0245 -0.6307  0.0026
  162TMC2     C 2471   4.071   1.725   1.141 -0.3324  0.6257  0.2331
  162TMC2     O 2472   4.068   1.725   1.015 -0.1066  0.6300 -0.0571
  162TMC2     H 2473   3.904   1.906   1.064 -2.1409 -1.0015 -0.3217
  162TMC2    H1 2474   3.983   1.630   1.372 -0.3521 -0.1988 -0.8310
  162TMC2    H2 2475   3.619   1.871   1.382  0.2701  0.7126 -0.2409
  162TMC2    C7 2476   3.752   1.688   1.524  0.2733 -0.4845 -0.9948
  162TMC2    C8 2477   3.681   2.015   1.162 -0.0410 -0.2236  0.2763
  162TMC2    O1 2478   3.635   1.696   1.563  0.3384  0.2500 -0.4398
  162TMC2    O2 2479   3.622   2.098   1.235  0.1680 -0.5993 -0.5568
  162TMC2    O5 2480   3.676   2.014   1.029 -0.1294  0.5347 -0.2238
  162TMC2    H5 2481   3.700   1.927   0.989 -0.9172 -0.2714  1.0424
  163MPD2     C 2482   4.571   1.558   1.166  0.9550 -1.3101  1.0506
  163MPD2    C1 2483   4.493   1.583   1.052 -0.6609  0.0660  0.5743
  163MPD2    C2 2484   4.358   1.621   1.073  0.0168  0.5939 -0.3480
  163MPD2    C3 2485   4.312   1.654   1.198  0.7033 -0.0813  0.4497
  163MPD2    C4 2486   4.399   1.642   1.302 -0.6334 -0.3646  0.1995
  163MPD2    C5 2487   4.524   1.592   1.286  0.4276 -0.0044  0.3908
  163MPD2     H 2488   4.290   1.630   0.989 -0.3967  1.0813  0.0360
  163MPD2    H1 2489   4.370   1.681   1.399 -1.7797 -0.5018 -0.0875
  163MPD2    H2 2490   4.673   1.524   1.149  1.0687  0.1546 -1.2388
  163MPD2    H3 2491   4.586   1.590   1.374 -1.2162 -0.4399  1.5342
  163MPD2     N 2492   4.177   1.695   1.225  0.1947  0.1695  0.4382
  163MPD2    H5 2493   4.150   1.705   1.322  0.1283  1.2450  0.3012
  163MPD2    N1 2494   4.537   1.537   0.932 -0.4903  0.1377 -0.1791
  163MPD2    H7 2495   4.623   1.483   0.940 -0.5318 -0.0716 -1.0956
  164TCq2    C1 2496   0.311   0.307  10.456  0.0819  0.5038  0.3788
  164TCq2    O2 2497   0.298   0.189  10.474  0.2105  0.4150 -0.3213
  164TCq2    C2 2498   0.211   0.396  10.403 -0.0694 -0.4376 -0.2815
  164TCq2    C3 2499   0.246   0.488  10.304  0.0195  0.0498  0.1957
  164TCq2    C4 2500   0.146   0.579  10.261 -0.1612  0.1834 -0.0851
  164TCq2    C5 2501   0.033   0.581  10.329  0.3331  0.3104  0.0273
  164TCq2    C6 2502   0.006   0.501  10.430  0.1211 -0.1648  0.0766
  164TCq2    C7 2503   0.100   0.406  10.475 -0.6926  0.4498 -0.7223
  164TCq2    C8 2504   4.619   0.539  10.514 -0.5374  0.4746 -0.5750
  164TCq2    O4 2505   4.531   0.603  10.468  0.1749 -0.3988 -0.8350
  164TCq2    C9 2506   0.162   0.676  10.160 -0.8893  0.1034 -0.1603
  164TCq2    O5 2507   0.253   0.665  10.079  0.4311  0.5205  0.3637
  164TCq2    O6 2508   0.086   0.774  10.167 -0.2497  1.1616  0.2758
  164TCq2    H2 2509   0.330   0.463  10.240 -0.0723  1.2739 -0.4066
  164TCq2    H3 2510   4.684   0.659  10.306  0.0864 -0.6376 -2.4151
  164TCq2    H4 2511   0.089   0.339  10.561  3.4595 -0.1178 -0.6236
  165MPD2     C 2512   0.371   3.081   2.276  0.2816  0.1024  0.2814
  165MPD2    C1 2513   0.439   3.120   2.164  0.2214  0.7479  0.2053
  165MPD2    C2 2514   0.508   3.241   2.153 -0.0598  0.2130  0.0497
  165MPD2    C3 2515   0.494   3.334   2.260  1.0648 -0.2090 -0.5986
  165MPD2    C4 2516   0.437   3.287   2.373 -0.4616 -0.3485 -0.6935
  165MPD2    C5 2517   0.387   3.163   2.383  0.3168  0.5161 -0.0330
  165MPD2     H 2518   0.550   3.267   2.056  2.2460 -3.4877  0.0382
  165MPD2    H1 2519   0.428   3.349   2.461  1.8700 -0.2464 -0.5258
  165MPD2    H2 2520   0.328   2.981   2.286 -1.5182  0.7051 -1.3899
  165MPD2    H3 2521   0.348   3.131   2.479  1.4817  0.4243  0.3995
  165MPD2     N 2522   0.556   3.465   2.264 -0.2232  0.0191  0.5526
  165MPD2    H5 2523   0.542   3.521   2.347  0.0579  1.2754 -0.2543
  165MPD2    N1 2524   0.433   3.035   2.059 -0.3226 -0.0839  0.0212
  165MPD2    H7 2525   0.389   2.949   2.089 -0.0324  0.1782  1.1740
  166TCq2    C1 2526   0.638   3.512   2.160 -0.3666 -0.0377 -0.0203
  166TCq2    O2 2527   0.703   3.452   2.073 -0.0098 -0.5603 -0.2592
  166TCq2    C2 2528   0.697   3.639   2.193  1.0231 -0.5795 -0.3207
  166TCq2    C3 2529   0.626   3.732   2.261  0.4386 -0.5231  0.4999
  166TCq2    C4 2530   0.666   3.860   2.268  0.1323 -0.3126  0.3943
  166TCq2    C5 2531   0.781   3.893   2.213 -0.3078  1.0234 -0.4422
  166TCq2    C6 2532   0.861   3.807   2.145 -0.0813 -0.2848  0.2262
  166TCq2    C7 2533   0.814   3.678   2.137 -0.0116 -0.3378  0.8667
  166TCq2    C8 2534   0.986   3.830   2.086 -0.9348  0.2056 -0.7035
  166TCq2    O4 2535   1.057   3.734   2.059  0.4219  0.2673  0.0464
  166TCq2    C9 2536   0.596   3.958   2.357  0.2271 -0.0379  0.1852
  166TCq2    O5 2537   0.668   4.051   2.400  0.3548  0.7002 -0.1283
  166TCq2    O6 2538   0.475   3.948   2.352 -0.4033 -0.1848  0.0823
  166TCq2    H2 2539   0.527   3.706   2.296  0.5322 -1.8565 -0.2310
  166TCq2    H3 2540   0.806   3.998   2.223 -0.3102  1.0348 -0.5662
  166TCq2    H4 2541   0.870   3.606   2.078  2.0024  0.5647  1.6563
  167TMC2    C1 2542   3.851   0.727  12.472  0.0659  0.0015 -0.6217
  167TMC2    C2 2543   3.767   0.765  12.574  0.1818  0.1188  0.0651
  167TMC2    C3 2544   3.750   0.685  12.678  0.0767 -0.5038 -0.3910
  167TMC2    C4 2545   3.923   0.606  12.474  0.2759 -0.5103 -0.1043
  167TMC2    C5 2546   3.906   0.531  12.586 -0.4712 -0.0829 -0.4303
  167TMC2    C6 2547   3.818   0.567  12.692  0.2315  0.5813 -0.3003
  167TMC2     C 2548   3.879   0.818  12.365  0.0313  0.2176  0.0773
  167TMC2     O 2549   3.806   0.917  12.353  0.4134  0.7138  0.0934
  167TMC2     H 2550   3.693   0.843  12.566  0.1885  0.0685 -0.5434
  167TMC2    H1 2551   3.986   0.572  12.393  2.0530  3.5465 -0.4118
  167TMC2    H2 2552   3.805   0.517  12.787  0.2184  2.5260  0.7248
  167TMC2    C7 2553   3.958   0.393  12.599  0.3737 -0.6629  0.7719
  167TMC2    C8 2554   3.642   0.725  12.774 -0.7607  1.1532 -0.2757
  167TMC2    O1 2555   3.903   0.320  12.681 -0.2509  0.0122  0.8606
  167TMC2    O2 2556   3.606   0.841  12.793 -0.3868 -0.2055  0.3880
  167TMC2    O5 2557   3.577   0.617  12.816 -0.4271  0.6454 -0.2075
  167TMC2    H5 2558   3.607   0.529  12.784 -2.9708  0.8366 -3.1517
  168MPD2     C 2559   4.008   0.967  12.127  0.1455  0.3345  0.0229
  168MPD2    C1 2560   3.994   0.829  12.143 -0.9340  0.1325 -0.0061
  168MPD2    C2 2561   4.054   0.754  12.041  0.3625  0.6276  0.5826
  168MPD2    C3 2562   4.115   0.813  11.932  0.4702 -0.5562 -1.0731
  168MPD2    C4 2563   4.125   0.946  11.926 -0.3014 -0.0051  0.0680
  168MPD2    C5 2564   4.080   1.023  12.024 -0.1276  0.1637  0.1616
  168MPD2     H 2565   4.032   0.649  12.058  0.0149  0.7201  0.7042
  168MPD2    H1 2566   4.156   0.992  11.833  2.1608  0.8435  1.3203
  168MPD2    H2 2567   3.965   1.025  12.207 -0.7630 -2.4795  1.5876
  168MPD2    H3 2568   4.083   1.131  12.014 -3.1215  0.3865  1.5733
  168MPD2     N 2569   4.168   0.727  11.832  0.2260  0.4589 -0.1245
  168MPD2    H5 2570   4.238   0.774  11.775 -0.3194  0.0605 -1.1126
  168MPD2    N1 2571   3.950   0.759  12.261 -0.2175 -0.1626 -0.0297
  168MPD2    H7 2572   3.964   0.659  12.274  1.3973 -0.0847 -1.1238
  169MPD1     C 2573   2.459   3.758   9.115  0.3851 -0.2266  0.2411
  169MPD1    C1 2574   2.531   3.836   9.197 -0.3246  0.0950 -1.0741
  169MPD1    C2 2575   2.490   3.968   9.216 -0.0086  0.1378  0.3249
  169MPD1    C3 2576   2.371   4.017   9.165 -0.6218  0.5310 -0.9510
  169MPD1    C4 2577   2.293   3.929   9.085 -0.1635  0.4588  0.3584
  169MPD1    C5 2578   2.342   3.799   9.062  0.0006 -0.2689  0.3947
  169MPD1     H 2579   2.552   4.040   9.267  1.0057  0.1929 -1.0109
  169MPD1    H1 2580   2.194   3.942   9.043 -0.1881  1.6679  0.8011
  169MPD1    H2 2581   2.502   3.663   9.085 -0.9149 -0.7686  0.1105
  169MPD1    H3 2582   2.277   3.737   9.002  1.3187  0.5453 -1.8651
  169MPD1     N 2583   2.334   4.150   9.198 -0.5362  0.2241  0.2849
  169MPD1    H5 2584   2.398   4.210   9.250  1.2765 -0.3614 -1.3038
  169MPD1    N1 2585   2.649   3.784   9.252  0.2410 -0.7799  0.7374
  169MPD1    H6 2586   2.705   3.835   9.319 -1.3804 -0.0432  1.5372
  169MPD1    H7 2587   2.659   3.683   9.266 -0.3991 -0.5380  2.9057
  170MPD1     C 2588   3.945   3.189  13.357 -0.5904  0.3301 -0.8114
  170MPD1    C1 2589   3.968   3.197  13.496 -0.1145  0.2786  0.5541
  170MPD1    C2 2590   4.094   3.201  13.541  0.3454  0.5132  0.2138
  170MPD1    C3 2591   4.209   3.217  13.468  0.3835  0.4432 -0.2193
  170MPD1    C4 2592   4.187   3.201  13.338  0.0340 -0.3239 -0.1824
  170MPD1    C5 2593   4.062   3.190  13.279 -0.5751 -0.8253  0.2861
  170MPD1     H 2594   4.106   3.182  13.647 -0.6953  0.2515  0.2776
  170MPD1    H1 2595   4.266   3.200  13.264 -0.8919 -0.7056 -1.1499
  170MPD1    H2 2596   3.847   3.172  13.314 -0.9072 -1.4757  0.6554
  170MPD1    H3 2597   4.050   3.160  13.176  1.1346 -2.0414  0.4388
  170MPD1     N 2598   4.333   3.209  13.532 -0.0075  0.6949 -0.7482
  170MPD1    H5 2599   4.328   3.198  13.632  2.1199 -3.7820 -1.1467
  170MPD1    N1 2600   3.863   3.163  13.588  0.2239 -0.6032 -0.4885
  170MPD1    H6 2601   3.874   3.188  13.686 -1.1610  0.7357 -0.6680
  170MPD1    H7 2602   3.776   3.205  13.555 -1.1829 -2.6931  0.5863
  171MPD1     C 2603   4.082   4.546  15.344 -0.2970 -0.9676 -0.1357
  171MPD1    C1 2604   3.983   4.448  15.322 -0.1797  0.2365 -0.8706
  171MPD1    C2 2605   3.991   4.327  15.380 -0.5958  0.2724  0.2192
  171MPD1    C3 2606   4.099   4.301  15.461 -0.7482 -0.3131 -0.6740
  171MPD1    C4 2607   4.194   4.399  15.481 -0.6037 -0.7440 -0.2390
  171MPD1    C5 2608   4.185   4.526  15.428 -0.2858 -0.3334  0.0008
  171MPD1     H 2609   3.910   4.256  15.372 -0.9352  0.7902 -0.8769
  171MPD1    H1 2610   4.292   4.377  15.520 -0.1755  0.7628 -0.4447
  171MPD1    H2 2611   4.076   4.639  15.290 -0.5978  0.3095  2.1167
  171MPD1    H3 2612   4.262   4.599  15.449 -1.7963  1.9421 -2.3827
  171MPD1     N 2613   4.113   4.177  15.532  0.5934  0.4378 -0.4245
  171MPD1    H5 2614   4.194   4.169  15.593 -1.3874  0.5943  2.2162
  171MPD1    N1 2615   3.874   4.483  15.243  0.0936 -0.2586  0.7542
  171MPD1    H6 2616   3.901   4.527  15.155  1.2278  0.8313  1.6585
  171MPD1    H7 2617   3.811   4.407  15.218 -0.0946 -0.2224  1.1315
  172MPD1     C 2618   2.853   4.085   1.180 -0.5690 -0.6492 -0.1842
  172MPD1    C1 2619   2.862   4.013   1.066 -0.5987 -0.0116  0.1677
  172MPD1    C2 2620   2.939   4.066   0.963 -0.1271  0.7818 -0.1137
  172MPD1    C3 2621   2.993   4.194   0.973 -0.0975 -0.5412 -0.2895
  172MPD1    C4 2622   2.973   4.273   1.085 -0.1100  0.5072 -0.2512
  172MPD1    C5 2623   2.903   4.214   1.192  0.9405  0.4443  0.0660
  172MPD1     H 2624   2.958   4.001   0.879  2.3039  0.8313  0.3962
  172MPD1    H1 2625   3.009   4.375   1.079  1.3222  0.0085  0.0559
  172MPD1    H2 2626   2.815   4.036   1.269 -1.1409  0.9521  0.4369
  172MPD1    H3 2627   2.896   4.261   1.290 -1.8401  1.0580 -0.4124
  172MPD1     N 2628   3.051   4.253   0.859 -0.7422  0.6456 -0.4422
  172MPD1    H5 2629   3.101   4.341   0.862 -0.2518  0.4084 -1.4914
  172MPD1    N1 2630   2.836   3.874   1.070  0.2608 -0.1028 -0.5988
  172MPD1    H6 2631   2.808   3.842   0.977  1.5117  0.7088 -1.2598
  172MPD1    H7 2632   2.758   3.851   1.131  1.0649 -0.8327  0.1541
  173MPD1     C 2633   3.214   3.909  14.289  0.8879  0.0590  0.4498
  173MPD1    C1 2634   3.189   3.791  14.356 -0.3582  0.2225  0.3900
  173MPD1    C2 2635   3.292   3.709  14.384  0.6535  0.1808  0.6591
  173MPD1    C3 2636   3.422   3.737  14.364 -1.3812 -0.3339  0.1248
  173MPD1    C4 2637   3.450   3.867  14.313  0.6951 -0.6501  0.2879
  173MPD1    C5 2638   3.346   3.942  14.267 -0.1637  0.5299 -0.0246
  173MPD1     H 2639   3.271   3.620  14.441  2.3445  0.5981  1.9421
  173MPD1    H1 2640   3.549   3.903  14.286 -0.4225  1.8934 -0.3692
  173MPD1    H2 2641   3.142   3.981  14.252  2.0216  0.3997 -1.1350
  173MPD1    H3 2642   3.369   4.038  14.223  3.7080 -1.8425 -3.1550
  173MPD1     N 2643   3.513   3.632  14.392 -0.2209  0.5495 -0.2299
  173MPD1    H5 2644   3.475   3.553  14.442  2.2645 -0.4534  0.0624
  173MPD1    N1 2645   3.061   3.743  14.375  0.1763 -0.1443  0.0515
  173MPD1    H6 2646   3.051   3.686  14.458 -1.8116  3.3407  2.1665
  173MPD1    H7 2647   2.995   3.820  14.381 -1.9118 -2.0759  1.4278
  174MPD1     C 2648   4.309   3.025  14.130 -0.6146 -0.0151  0.1654
  174MPD1    C1 2649   4.324   3.160  14.156 -0.2317  1.1991  0.2583
  174MPD1    C2 2650   4.239   3.214  14.242  0.3992  0.0793 -0.5406
  174MPD1    C3 2651   4.132   3.147  14.293  0.5868 -0.0981  0.3464
  174MPD1    C4 2652   4.119   3.009  14.273  0.2452 -0.1474 -0.2302
  174MPD1    C5 2653   4.207   2.950  14.188 -0.0285  0.5826  0.4864
  174MPD1     H 2654   4.269   3.310  14.283 -1.6533  0.7076 -0.4778
  174MPD1    H1 2655   4.037   2.950  14.313 -1.2620  0.7414 -2.0654
  174MPD1    H2 2656   4.382   2.972  14.070 -2.7623 -3.5962  0.6871
  174MPD1    H3 2657   4.212   2.844  14.170 -0.3717  0.7755 -0.6996
  174MPD1     N 2658   4.036   3.205  14.375 -0.2479 -0.2728 -0.2706
  174MPD1    H5 2659   3.966   3.155  14.429 -0.4387 -0.4899 -0.7273
  174MPD1    N1 2660   4.440   3.226  14.111  0.0821  0.2928  0.3591
  174MPD1    H6 2661   4.464   3.190  14.019 -1.3005 -0.8203  0.4305
  174MPD1    H7 2662   4.431   3.327  14.103  2.1732  0.1868 -3.4723
  175MPD1     C 2663   2.588   4.244  15.348 -0.3501 -0.5544  0.0823
  175MPD1    C1 2664   2.465   4.291  15.389  0.1575  0.2297  0.2693
  175MPD1    C2 2665   2.440   4.293  15.524  0.0588 -0.3422  0.4113
  175MPD1    C3 2666   2.510   4.214  15.615 -0.3364  0.5442 -0.4802
  175MPD1    C4 2667   2.636   4.170  15.572  0.0126  0.2633 -0.0453
  175MPD1    C5 2668   2.667   4.191  15.440  0.3898  0.2551  0.4040
  175MPD1     H 2669   2.346   4.329  15.564 -1.2610 -1.5999 -1.5667
  175MPD1    H1 2670   2.714   4.125  15.631  0.0661 -2.2362 -2.0003
  175MPD1    H2 2671   2.625   4.252  15.247 -1.4087 -0.1219 -0.2679
  175MPD1    H3 2672   2.766   4.162  15.408  0.7449  0.4931  1.2731
  175MPD1     N 2673   2.482   4.196  15.749  0.3441  0.7593  0.6776
  175MPD1    H5 2674   2.553   4.144  15.799 -2.6484 -1.8070  2.2984
  175MPD1    N1 2675   2.380   4.364  15.295  0.1391 -0.2111 -0.4306
  175MPD1    H6 2676   2.383   4.332  15.198 -2.8341 -0.1415 -0.5506
  175MPD1    H7 2677   2.283   4.373  15.323 -0.0975 -1.1403 -0.9710
  176MPD1     C 2678   4.096   1.206  17.386 -0.4415 -0.4778  0.1466
  176MPD1    C1 2679   4.148   1.148  17.274  0.6189 -0.6313 -0.7667
  176MPD1    C2 2680   4.195   1.232  17.172  0.6013 -0.0347  0.5819
  176MPD1    C3 2681   4.188   1.367  17.180 -0.3646  0.8803  0.4382
  176MPD1    C4 2682   4.140   1.427  17.296 -0.0158 -0.1573 -0.1080
  176MPD1    C5 2683   4.097   1.341  17.391  0.4096  0.1276 -0.2428
  176MPD1     H 2684   4.239   1.180  17.087 -1.5215  0.0021 -0.5326
  176MPD1    H1 2685   4.127   1.533  17.309  0.8063  0.1125 -1.4772
  176MPD1    H2 2686   4.067   1.152  17.475  0.5754  0.2049  0.8899
  176MPD1    H3 2687   4.058   1.390  17.479  1.0067 -1.4417  0.8998
  176MPD1     N 2688   4.237   1.435  17.066  0.2164  0.1203  0.2535
  176MPD1    H5 2689   4.270   1.371  16.994  0.3285  0.8465 -0.3303
  176MPD1    N1 2690   4.164   1.011  17.270  0.4906  0.0422 -0.6835
  176MPD1    H6 2691   4.088   0.971  17.325  0.1137  1.4514 -0.1758
  176MPD1    H7 2692   4.191   0.968  17.182 -0.2604  0.3339 -1.0556
  177MPD1     C 2693   2.864   0.934  10.045 -0.1981 -0.1969  0.1361
  177MPD1    C1 2694   2.849   1.033   9.952  0.0963 -0.7690 -0.3641
  177MPD1    C2 2695   2.791   0.998   9.834 -0.5297 -0.4357 -0.2311
  177MPD1    C3 2696   2.767   0.872   9.793 -0.0754  0.3509 -0.7687
  177MPD1    C4 2697   2.800   0.772   9.880 -0.1433 -0.5855  0.0437
  177MPD1    C5 2698   2.846   0.801  10.008 -0.4773 -0.6980 -0.1750
  177MPD1     H 2699   2.772   1.072   9.757 -0.1329 -0.4223 -0.3175
  177MPD1    H1 2700   2.787   0.666   9.861  1.4497 -0.8493  0.4150
  177MPD1    H2 2701   2.904   0.948  10.145 -2.5621  2.3491  0.7214
  177MPD1    H3 2702   2.873   0.721  10.075 -0.4402  0.1095  0.7625
  177MPD1     N 2703   2.721   0.853   9.659  0.6526 -0.0454 -0.3715
  177MPD1    H5 2704   2.690   0.928   9.598  0.9671 -0.2323 -0.7604
  177MPD1    N1 2705   2.839   1.168  10.002 -0.5244  0.5582 -0.0424
  177MPD1    H6 2706   2.866   1.221   9.919  0.2442 -0.5020 -0.4698
  177MPD1    H7 2707   2.907   1.195  10.074 -1.7126  0.0924  1.2506
  178MPD1     C 2708   0.143   2.784   0.354  0.1640 -0.2306  0.0747
  178MPD1    C1 2709   0.090   2.659   0.335 -0.4522  0.0315 -0.3684
  178MPD1    C2 2710   0.140   2.584   0.234  0.0524 -0.3738 -0.8354
  178MPD1    C3 2711   0.233   2.630   0.146  0.4999  0.0376  1.1637
  178MPD1    C4 2712   0.287   2.752   0.168 -0.5619 -0.2448 -0.8163
  178MPD1    C5 2713   0.250   2.832   0.276 -0.2217 -0.3227 -0.4370
  178MPD1     H 2714   0.115   2.480   0.219  0.8251 -1.1070  3.0128
  178MPD1    H1 2715   0.361   2.799   0.104  0.0290  0.7262  0.5929
  178MPD1    H2 2716   0.109   2.850   0.433  1.1262  0.6150 -0.2166
  178MPD1    H3 2717   0.303   2.925   0.295 -0.7042  0.1444 -1.3664
  178MPD1     N 2718   0.293   2.549   0.045  0.5441 -0.4074  0.0154
  178MPD1    H5 2719   0.385   2.577   0.012  1.4822  0.3333  3.2947
  178MPD1    N1 2720   0.002   2.599   0.425  0.0665 -0.4358  1.2101
  178MPD1    H6 2721   4.675   2.670   0.478 -1.1820 -0.1312 -0.3648
  178MPD1    H7 2722   4.659   2.539   0.376 -0.5195  1.5633 -0.4621
  179MPD1     C 2723   0.028   0.969  15.620  0.3295  0.1715  0.6356
  179MPD1    C1 2724   0.004   0.906  15.503  0.0890 -0.1120  0.5759
  179MPD1    C2 2725   0.003   0.766  15.509  0.6623  0.1732 -0.1482
  179MPD1    C3 2726   0.004   0.707  15.632  0.5124  0.0008 -0.2154
  179MPD1    C4 2727   0.029   0.776  15.746 -0.4031 -0.0563 -0.0237
  179MPD1    C5 2728   0.036   0.908  15.739 -0.4025  0.0069  0.1929
  179MPD1     H 2729   4.713   0.706  15.420 -0.0261 -0.7348  0.5644
  179MPD1    H1 2730   0.042   0.721  15.838  0.8080 -0.2701 -0.3296
  179MPD1    H2 2731   0.037   1.077  15.614  0.3099  0.1137 -0.3283
  179MPD1    H3 2732   0.064   0.969  15.824  0.3280 -1.2966  0.8875
  179MPD1     N 2733   4.721   0.561  15.647 -0.0138 -0.7154 -0.4843
  179MPD1    H5 2734   0.005   0.531  15.744  1.4632  0.5905 -0.1941
  179MPD1    N1 2735   0.000   0.976  15.378 -0.1227  0.2232 -0.0149
  179MPD1    H6 2736   4.667   0.935  15.304 -0.8997  2.5859 -0.7317
  179MPD1    H7 2737   4.711   1.078  15.378  0.1588  0.2551  0.2280
  180MPD1     C 2738   4.514   1.356  15.364 -0.0339 -0.0795  0.0200
  180MPD1    C1 2739   4.647   1.377  15.341  0.3396 -0.5814 -0.7940
  180MPD1    C2 2740   4.668   1.445  15.221 -0.3645  0.1060  0.2099
  180MPD1    C3 2741   4.577   1.501  15.134  0.3732  0.0711  0.2552
  180MPD1    C4 2742   4.451   1.493  15.175  0.6130 -0.0463  0.1899
  180MPD1    C5 2743   4.417   1.424  15.290 -0.6244  0.6859 -0.2755
  180MPD1     H 2744   0.051   1.458  15.198 -0.1298 -0.5503  0.9062
  180MPD1    H1 2745   4.360   1.538  15.136  0.7645  1.5875  1.7361
  180MPD1    H2 2746   4.475   1.301  15.449 -1.7894  1.2923  0.0911
  180MPD1    H3 2747   4.315   1.410  15.323 -0.2408  1.3424  1.2080
  180MPD1     N 2748   4.618   1.559  15.008 -0.1260 -0.5490 -0.2882
  180MPD1    H5 2749   4.716   1.551  14.984  0.7699  0.4891  3.0825
  180MPD1    N1 2750   0.024   1.313  15.412  0.0692  0.6419 -0.5508
  180MPD1    H6 2751   0.112   1.364  15.408  1.5396 -1.8124  0.4112
  180MPD1    H7 2752   0.013   1.299  15.513  0.3706  4.4046  0.0266
  181MPD1     C 2753   2.074   2.196  10.244  0.0801  0.5131  0.0967
  181MPD1    C1 2754   1.951   2.244  10.228 -0.1225  0.2753  0.3723
  181MPD1    C2 2755   1.909   2.264  10.099  0.0960 -0.0967 -0.5426
  181MPD1    C3 2756   1.992   2.246   9.992 -0.2142 -0.7136 -0.1084
  181MPD1    C4 2757   2.122   2.202  10.012  0.0513 -0.0993 -0.3387
  181MPD1    C5 2758   2.156   2.175  10.138  0.2223  0.7483 -0.8178
  181MPD1     H 2759   1.811   2.307  10.081 -0.6159 -1.2976  0.4076
  181MPD1    H1 2760   2.177   2.167   9.926 -0.3143 -1.1604 -0.1454
  181MPD1    H2 2761   2.110   2.169  10.343 -1.0574 -3.1638 -0.4657
  181MPD1    H3 2762   2.251   2.126  10.156  0.0985  0.3900 -1.1293
  181MPD1     N 2763   1.959   2.264   9.854 -0.2349  0.6630 -0.0482
  181MPD1    H5 2764   2.036   2.265   9.789  0.4646  0.9941  0.7763
  181MPD1    N1 2765   1.862   2.259  10.334 -0.1801  0.3098  0.4654
  181MPD1    H6 2766   1.795   2.330  10.304 -0.3891 -0.7488 -1.5502
  181MPD1    H7 2767   1.907   2.297  10.417  1.4830  1.8073 -1.1264
  182MPD1     C 2768   2.797   1.972   0.739  0.0378 -0.2109  0.1733
  182MPD1    C1 2769   2.735   2.035   0.845 -0.1115  0.6566  0.1954
  182MPD1    C2 2770   2.645   2.132   0.826  0.1809 -0.2953 -0.2896
  182MPD1    C3 2771   2.628   2.190   0.695  0.3433  0.1423 -0.6514
  182MPD1    C4 2772   2.700   2.140   0.592 -0.2455  0.3372  0.0227
  182MPD1    C5 2773   2.789   2.029   0.615 -0.1955 -0.0024 -0.1380
  182MPD1     H 2774   2.588   2.172   0.909  0.8620  0.8713 -0.3806
  182MPD1    H1 2775   2.685   2.178   0.492 -0.2098  0.4875  0.0754
  182MPD1    H2 2776   2.846   1.878   0.762 -1.7782 -1.1148  0.3342
  182MPD1    H3 2777   2.841   1.980   0.534 -0.2340 -3.0074  1.6412
  182MPD1     N 2778   2.553   2.314   0.672  0.1493  0.1458  0.3124
  182MPD1    H5 2779   2.549   2.355   0.580  0.3166 -2.0873 -0.6768
  182MPD1    N1 2780   2.731   1.966   0.968  0.3443 -0.3677  0.1941
  182MPD1    H6 2781   2.709   2.024   1.048  1.2509 -0.0591  0.2242
  182MPD1    H7 2782   2.812   1.908   0.988 -1.6047 -2.6509  1.4604
  183MPD1     C 2783   2.349   3.455   9.325 -0.3688  0.5788 -0.0546
  183MPD1    C1 2784   2.419   3.380   9.421  0.2716  0.2380  0.3714
  183MPD1    C2 2785   2.459   3.252   9.400 -0.5134  0.2370  0.1183
  183MPD1    C3 2786   2.415   3.194   9.283 -0.2469 -0.0236  0.2403
  183MPD1    C4 2787   2.336   3.262   9.195 -0.4184 -0.3598 -0.2475
  183MPD1    C5 2788   2.304   3.389   9.222 -0.1552 -0.3839 -0.2328
  183MPD1     H 2789   2.521   3.197   9.471 -0.9879  1.9470  1.8292
  183MPD1    H1 2790   2.290   3.224   9.105 -0.0767 -2.3918  0.4499
  183MPD1    H2 2791   2.327   3.561   9.330 -3.0293 -0.0482  1.2344
  183MPD1    H3 2792   2.232   3.435   9.155  0.3556 -0.1935 -0.6461
  183MPD1     N 2793   2.442   3.055   9.264  0.1873  0.3315 -0.7251
  183MPD1    H5 2794   2.480   3.002   9.341 -2.3348 -2.7069 -1.5732
  183MPD1    N1 2795   2.487   3.453   9.519  0.0022  0.0146  0.3409
  183MPD1    H6 2796   2.508   3.396   9.600  1.8389 -2.0550 -1.5867
  183MPD1    H7 2797   2.438   3.536   9.552 -0.0326  0.2886 -0.3873
  184MPD1     C 2798   2.339   0.002   9.966  0.0890  0.3211 -0.0146
  184MPD1    C1 2799   2.206   0.014   9.924  0.2731  0.0577  0.0848
  184MPD1    C2 2800   2.170   0.129   9.855  0.5107 -0.4016 -0.2447
  184MPD1    C3 2801   2.266   0.230   9.823  0.0928  0.1179 -0.1303
  184MPD1    C4 2802   2.397   0.213   9.868 -0.6917 -0.1725  0.2499
  184MPD1    C5 2803   2.433   0.098   9.933 -0.4320 -0.0454  0.5796
  184MPD1     H 2804   2.067   0.133   9.823  0.2782 -0.1143  0.5655
  184MPD1    H1 2805   2.473   0.285   9.841  0.0471 -0.9845  0.1573
  184MPD1    H2 2806   2.373   4.640  10.024  0.6778  0.1855 -0.5559
  184MPD1    H3 2807   2.536   0.094   9.967 -0.0982  0.6769 -0.3391
  184MPD1     N 2808   2.240   0.353   9.758 -0.0734  0.5025 -0.4894
  184MPD1    H5 2809   2.325   0.394   9.720  0.7924 -0.6307  0.2332
  184MPD1    N1 2810   2.118   4.627   9.937  0.9501 -0.3731  0.1229
  184MPD1    H6 2811   2.019   4.652   9.941  1.1250  0.5765 -1.5796
  184MPD1    H7 2812   2.154   4.567  10.011 -0.2860  0.0274  1.0439
  185MPD1     C 2813   1.618   0.718   8.949 -0.2242 -0.0754  0.4056
  185MPD1    C1 2814   1.576   0.692   9.078  0.3811 -0.0318  0.3987
  185MPD1    C2 2815   1.672   0.690   9.176 -1.0226  0.1617 -0.0036
  185MPD1    C3 2816   1.802   0.697   9.143  1.0071  0.3595  0.4029
  185MPD1    C4 2817   1.844   0.712   9.011  0.5491  0.2230 -0.8376
  185MPD1    C5 2818   1.752   0.722   8.916 -0.2155  0.1605  0.6449
  185MPD1     H 2819   1.640   0.680   9.279  0.0590  1.5560  0.4749
  185MPD1    H1 2820   1.949   0.718   8.984  0.6662  1.0200 -0.2195
  185MPD1    H2 2821   1.547   0.731   8.868 -1.2253  1.4314  1.5211
  185MPD1    H3 2822   1.791   0.729   8.816 -1.9742 -0.3634 -0.0835
  185MPD1     N 2823   1.903   0.662   9.240 -0.2043 -0.8016 -0.6752
  185MPD1    H5 2824   1.997   0.677   9.204  0.7336 -1.9153  1.3594
  185MPD1    N1 2825   1.441   0.706   9.106  0.0007  0.0708 -0.4285
  185MPD1    H6 2826   1.404   0.656   9.186 -1.0829  2.3721  0.4828
  185MPD1    H7 2827   1.389   0.685   9.021 -0.1920  0.1042 -0.3178
  186MPD1     C 2828   0.568   0.349  15.859 -0.2168  0.9661 -0.1237
  186MPD1    C1 2829   0.444   0.310  15.909 -0.1649  0.1146 -0.2034
  186MPD1    C2 2830   0.359   0.407  15.964  0.8838 -0.3652 -0.4221
  186MPD1    C3 2831   0.402   0.541  15.962 -0.0526  0.1684 -0.2142
  186MPD1    C4 2832   0.513   0.573  15.894 -0.1567  0.4794 -0.0627
  186MPD1    C5 2833   0.594   0.477  15.843  0.4434  0.6504 -0.8949
  186MPD1     H 2834   0.275   0.382  16.027  0.3193  0.0218 -1.0220
  186MPD1    H1 2835   0.539   0.678  15.885 -1.6330  0.8125 -0.4001
  186MPD1    H2 2836   0.641   0.280  15.817  0.0063  0.9107  0.3504
  186MPD1    H3 2837   0.692   0.502  15.805  0.3960  1.2225 -0.6396
  186MPD1     N 2838   0.345   0.655  16.036 -0.6086  0.3578  0.3044
  186MPD1    H5 2839   0.393   0.745  16.029 -1.4026  0.6080 -1.8115
  186MPD1    N1 2840   0.410   0.174  15.919  0.1542  0.2649  0.0503
  186MPD1    H6 2841   0.313   0.145  15.927  0.2493  0.6706  2.5252
  186MPD1    H7 2842   0.458   0.117  15.850 -1.9116 -0.9798 -0.3497
  187MPD1     C 2843   3.159   3.948   0.084  0.1707  0.5271  0.4962
  187MPD1    C1 2844   3.116   3.820   0.067  1.0502  0.2800 -0.3377
  187MPD1    C2 2845   3.182   3.737  17.664 -0.4043 -0.1395  0.0780
  187MPD1    C3 2846   3.276   3.804  17.578  0.0834 -0.6293 -0.2789
  187MPD1    C4 2847   3.309   3.939  17.591  1.1858 -0.1989  0.0567
  187MPD1    C5 2848   3.254   4.006   0.005 -0.1254 -0.1609  0.2399
  187MPD1     H 2849   3.172   3.629  17.664  1.4358 -0.3037  1.8961
  187MPD1    H1 2850   3.383   3.991  17.531  1.6406 -2.7492 -1.5461
  187MPD1    H2 2851   3.112   4.016   0.154  0.8943 -1.3600  2.8333
  187MPD1    H3 2852   3.280   4.110   0.022 -0.6230  0.0494 -0.2611
  187MPD1     N 2853   3.325   3.739  17.461  0.0539  0.0619 -0.4127
  187MPD1    H5 2854   3.393   3.789  17.404  0.3819  0.4212  0.2940
  187MPD1    N1 2855   3.032   3.768   0.169  0.3904 -0.2987 -0.1188
  187MPD1    H6 2856   2.974   3.699   0.121 -2.5446  1.1335  1.4365
  187MPD1    H7 2857   2.971   3.840   0.206 -0.1041 -0.6000 -0.3400
  188MPD1     C 2858   3.190   2.448   9.507 -0.5457 -0.5604  0.0622
  188MPD1    C1 2859   3.215   2.395   9.635 -1.4497  0.4793 -0.0922
  188MPD1    C2 2860   3.314   2.293   9.647 -0.5366  0.4099  0.4410
  188MPD1    C3 2861   3.380   2.241   9.530 -0.0579  0.2503  0.2161
  188MPD1    C4 2862   3.345   2.298   9.408 -1.0492 -0.8316 -1.2522
  188MPD1    C5 2863   3.257   2.400   9.394 -0.1375 -0.5783 -0.3243
  188MPD1     H 2864   3.328   2.255   9.747 -1.2424 -1.1270 -0.0354
  188MPD1    H1 2865   3.402   2.273   9.320  1.4002  0.5617 -0.0636
  188MPD1    H2 2866   3.142   2.545   9.498  0.1054 -0.3652 -1.2574
  188MPD1    H3 2867   3.240   2.445   9.297  1.9744 -0.7464 -0.7570
  188MPD1     N 2868   3.479   2.141   9.531  0.0887  0.2215  0.0718
  188MPD1    H5 2869   3.527   2.118   9.445  0.5584 -1.9596  0.9166
  188MPD1    N1 2870   3.164   2.462   9.748 -0.2453 -0.5404  0.1869
  188MPD1    H6 2871   3.150   2.392   9.821 -2.6856  1.0347  1.2252
  188MPD1    H7 2872   3.082   2.517   9.722 -0.7639 -1.1065  0.6224
  189MPD1     C 2873   1.301   3.402   0.331  0.6513 -0.4102 -0.6504
  189MPD1    C1 2874   1.188   3.325   0.355 -0.5531  0.2618  0.5182
  189MPD1    C2 2875   1.068   3.402   0.362  0.1119 -0.1775  0.0235
  189MPD1    C3 2876   1.061   3.541   0.332  0.1034 -0.1860  0.2393
  189MPD1    C4 2877   1.175   3.605   0.289 -1.6668 -0.6965 -0.7660
  189MPD1    C5 2878   1.297   3.532   0.282 -0.7861  0.1275 -0.2809
  189MPD1     H 2879   0.975   3.361   0.398 -1.0267  1.4750 -1.0260
  189MPD1    H1 2880   1.188   3.712   0.275 -0.7077 -0.4959  1.5430
  189MPD1    H2 2881   1.398   3.353   0.326  1.3148  0.9894 -1.6360
  189MPD1    H3 2882   1.383   3.577   0.234  0.0088 -0.2173  0.8166
  189MPD1     N 2883   0.936   3.607   0.346 -0.1838 -0.0250 -0.1190
  189MPD1    H5 2884   0.859   3.559   0.391 -0.8965  1.1958 -0.0075
  189MPD1    N1 2885   1.195   3.199   0.410  0.1327  0.0845  0.1859
  189MPD1    H6 2886   1.277   3.143   0.386 -0.2460 -1.1119  1.7293
  189MPD1    H7 2887   1.111   3.143   0.396  1.6323 -2.1903  0.2890
  190MPD1     C 2888   4.615   2.567  15.486  0.8922  0.2250  0.4317
  190MPD1    C1 2889   4.515   2.517  15.561  0.6293 -0.1256 -0.3185
  190MPD1    C2 2890   4.532   2.390  15.616 -0.1238 -0.2545 -0.0519
  190MPD1    C3 2891   4.658   2.325  15.610  0.2244  0.6243 -0.2247
  190MPD1    C4 2892   0.040   2.390  15.556 -0.2294 -0.0554 -0.0330
  190MPD1    C5 2893   0.017   2.508  15.487  0.0026 -0.4088 -0.1287
  190MPD1     H 2894   4.452   2.341  15.671 -0.6063 -1.1850 -1.5691
  190MPD1    H1 2895   0.140   2.348  15.568 -0.6983 -1.1618 -0.0179
  190MPD1    H2 2896   4.601   2.663  15.438  0.9707 -0.1042 -0.2556
  190MPD1    H3 2897   0.100   2.567  15.452  1.9791 -3.1711 -0.0756
  190MPD1     N 2898   4.675   2.190  15.650 -0.1058  0.5029 -0.8205
  190MPD1    H5 2899   4.604   2.151  15.712 -0.3600  1.5206 -0.4730
  190MPD1    N1 2900   4.389   2.585  15.567 -0.4082  0.1042 -0.7097
  190MPD1    H6 2901   4.329   2.548  15.641  0.7944 -1.7627 -0.6645
  190MPD1    H7 2902   4.404   2.684  15.585 -3.3654  0.4271 -0.1338
  191MPD1     C 2903   3.618   3.394  13.083  0.3262  0.2947 -0.0620
  191MPD1    C1 2904   3.534   3.476  13.015 -0.3942 -0.0866 -0.3813
  191MPD1    C2 2905   3.580   3.541  12.900  0.1003 -0.2046 -0.1256
  191MPD1    C3 2906   3.710   3.528  12.862  0.6082  0.4490  0.5363
  191MPD1    C4 2907   3.797   3.446  12.934 -0.4383 -0.5996  0.0504
  191MPD1    C5 2908   3.751   3.376  13.038 -0.2905 -0.4588 -0.2351
  191MPD1     H 2909   3.514   3.595  12.833  0.0413 -0.8310 -0.5704
  191MPD1    H1 2910   3.900   3.425  12.906 -0.8684 -0.4688 -1.6629
  191MPD1    H2 2911   3.586   3.343  13.173 -2.5928  3.4320  0.6661
  191MPD1    H3 2912   3.815   3.316  13.101 -0.9427 -0.7882  0.1071
  191MPD1     N 2913   3.745   3.595  12.739 -0.0641  0.6567 -0.2350
  191MPD1    H5 2914   3.668   3.649  12.701 -1.1524 -0.4016  0.4651
  191MPD1    N1 2915   3.393   3.464  13.036 -0.0422  0.4109  0.1573
  191MPD1    H6 2916   3.347   3.552  13.016  0.7833  0.7560 -0.2070
  191MPD1    H7 2917   3.378   3.445  13.135  1.0682 -0.7637  0.0999
  192MPD1     C 2918   3.199   3.825  12.155 -0.0260 -0.2157  0.0214
  192MPD1    C1 2919   3.310   3.804  12.076  0.0089  0.4415 -0.1044
  192MPD1    C2 2920   3.431   3.809  12.135  0.2794 -0.3267 -0.7810
  192MPD1    C3 2921   3.439   3.819  12.273  0.5434  0.1456 -0.5090
  192MPD1    C4 2922   3.329   3.835  12.351  0.0634 -0.1371 -0.1051
  192MPD1    C5 2923   3.208   3.837  12.292  0.5410 -0.0223 -0.5439
  192MPD1     H 2924   3.510   3.785  12.065  2.3001  2.2611  0.6244
  192MPD1    H1 2925   3.335   3.835  12.460  0.2606  1.2696 -0.1203
  192MPD1    H2 2926   3.101   3.840  12.109  0.1129 -0.5139 -0.3719
  192MPD1    H3 2927   3.116   3.842  12.348 -1.0587  2.2586 -3.3778
  192MPD1     N 2928   3.556   3.815  12.344 -0.1848 -0.1055  0.0458
  192MPD1    H5 2929   3.545   3.834  12.443 -0.3411  2.2902 -0.4504
  192MPD1    N1 2930   3.308   3.802  11.935  0.0053 -0.2132 -0.2258
  192MPD1    H6 2931   3.395   3.766  11.896  0.0275  1.3315 -1.6025
  192MPD1    H7 2932   3.227   3.754  11.896  1.3193 -3.7564  1.3600
  193MPD1     C 2933   3.749   3.643  16.161  0.0124  0.0949  0.3874
  193MPD1    C1 2934   3.685   3.754  16.219 -0.4712  0.0248  0.0579
  193MPD1    C2 2935   3.769   3.836  16.295  0.3482 -0.6716  0.0739
  193MPD1    C3 2936   3.911   3.831  16.289  0.3338  0.0666  0.2645
  193MPD1    C4 2937   3.965   3.733  16.215 -0.0304 -0.3231  0.3920
  193MPD1    C5 2938   3.884   3.643  16.150  0.0193  0.1339  0.1563
  193MPD1     H 2939   3.720   3.914  16.353 -0.3063  0.3406 -1.8402
  193MPD1    H1 2940   4.072   3.724  16.201  0.2734 -0.7013  3.1400
  193MPD1    H2 2941   3.689   3.567  16.112 -0.8448 -0.5508  2.4615
  193MPD1    H3 2942   3.922   3.556  16.097  1.6268 -0.2376  1.9266
  193MPD1     N 2943   3.999   3.917  16.353  0.1483  0.0949 -0.0452
  193MPD1    H5 2944   4.097   3.891  16.353  0.0190 -0.3912  1.1343
  193MPD1    N1 2945   3.545   3.739  16.221 -0.0704 -0.6234 -0.2069
  193MPD1    H6 2946   3.501   3.831  16.222 -0.0175 -0.5996 -0.0597
  193MPD1    H7 2947   3.515   3.687  16.139  2.2516  0.1508 -1.5366
  194MPD1     C 2948   1.608   1.580  17.479 -0.5031 -0.6640  0.6354
  194MPD1    C1 2949   1.666   1.510  17.378 -0.1152  0.5583 -0.6195
  194MPD1    C2 2950   1.590   1.408  17.320  0.5929  0.8581 -0.7107
  194MPD1    C3 2951   1.465   1.379  17.368  0.1399  0.0965  0.8629
  194MPD1    C4 2952   1.417   1.443  17.475  0.6385  0.2131 -0.0614
  194MPD1    C5 2953   1.487   1.550  17.530  0.1180 -0.3587 -0.0564
  194MPD1     H 2954   1.637   1.352  17.240  0.1852 -0.5576  0.0477
  194MPD1    H1 2955   1.321   1.421  17.521  0.8194 -0.5929 -0.0722
  194MPD1    H2 2956   1.661   1.658  17.531 -1.0329  0.4979 -0.5643
  194MPD1    H3 2957   1.445   1.604  17.614  0.1053  2.4469 -1.8666
  194MPD1     N 2958   1.378   1.283  17.320 -0.2511  0.1611  0.5425
  194MPD1    H5 2959   1.293   1.258  17.370 -0.0587 -1.7872 -0.1101
  194MPD1    N1 2960   1.781   1.547  17.313  0.1252  0.1619 -0.7832
  194MPD1    H6 2961   1.818   1.467  17.262  1.3538 -0.0597  0.4560
  194MPD1    H7 2962   1.849   1.585  17.378 -0.4190 -1.1715  0.5684
  195MPD1     C 2963   3.846   2.817  16.973 -0.4576 -1.1668 -0.4340
  195MPD1    C1 2964   3.915   2.696  16.966 -0.4759 -0.3435 -0.2751
  195MPD1    C2 2965   3.844   2.583  16.933 -0.0432 -0.1372  0.2265
  195MPD1    C3 2966   3.712   2.590  16.893 -0.0981 -1.0509 -0.2162
  195MPD1    C4 2967   3.648   2.709  16.889 -0.0981 -0.4386  0.3602
  195MPD1    C5 2968   3.715   2.824  16.924 -0.3228  0.3358 -0.3021
  195MPD1     H 2969   3.886   2.484  16.948  1.8862  0.3001 -2.3642
  195MPD1    H1 2970   3.546   2.724  16.857 -0.5049 -1.9870  0.9174
  195MPD1    H2 2971   3.896   2.906  17.010  0.0429 -0.9545 -1.5929
  195MPD1    H3 2972   3.671   2.923  16.922  0.6012  0.7181 -1.8161
  195MPD1     N 2973   3.626   2.480  16.866  0.0446  0.3228 -0.0695
  195MPD1    H5 2974   3.525   2.494  16.865 -0.1945 -1.3117  0.6991
  195MPD1    N1 2975   4.042   2.679  17.022  0.2661 -0.8588  0.0331
  195MPD1    H6 2976   4.037   2.637  17.114 -3.5089 -0.7219 -0.1117
  195MPD1    H7 2977   4.086   2.768  17.047  0.2596 -0.2885 -1.9901
  196MPD1     C 2978   4.433   2.957   1.068 -0.7061 -0.5065  0.2612
  196MPD1    C1 2979   4.485   2.841   1.123 -0.8188 -0.2097 -0.5787
  196MPD1    C2 2980   4.421   2.779   1.224 -0.1483 -0.0123  0.3733
  196MPD1    C3 2981   4.318   2.841   1.292  0.0604 -0.0426 -0.0641
  196MPD1    C4 2982   4.278   2.966   1.252 -0.0063  0.0697  0.1689
  196MPD1    C5 2983   4.338   3.029   1.138  0.7253 -0.4250 -0.2492
  196MPD1     H 2984   4.462   2.686   1.261 -0.2245 -1.3000 -2.7795
  196MPD1    H1 2985   4.200   3.028   1.295 -1.9516 -1.2391 -1.4771
  196MPD1    H2 2986   4.467   2.997   0.973  0.7274  0.2559  1.0945
  196MPD1    H3 2987   4.309   3.128   1.108  0.8735  0.1621  1.5508
  196MPD1     N 2988   4.245   2.782   1.403 -0.5063  0.0487 -0.6068
  196MPD1    H5 2989   4.163   2.832   1.436 -0.2309 -0.5177  0.9199
  196MPD1    N1 2990   4.597   2.786   1.059 -0.3841 -0.2601 -0.0150
  196MPD1    H6 2991   4.659   2.852   1.012 -1.6822  0.2812 -0.9510
  196MPD1    H7 2992   4.632   2.702   1.104  2.1877  0.3065 -0.9616
  197MPD1     C 2993   2.549   0.229  17.628  0.1122 -0.1418  0.4876
  197MPD1    C1 2994   2.564   0.105  17.577 -0.0585  0.2771  0.0170
  197MPD1    C2 2995   2.507   0.086  17.456  0.5962  0.0998 -0.2792
  197MPD1    C3 2996   2.478   0.190  17.372  0.0265 -0.0945  0.4645
  197MPD1    C4 2997   2.456   0.312  17.434 -0.1376 -0.1926 -0.7576
  197MPD1    C5 2998   2.492   0.333  17.563  0.0614  0.1187  0.4663
  197MPD1     H 2999   2.491   4.710  17.412  3.0741 -0.7241  0.6562
  197MPD1    H1 3000   2.427   0.398  17.375  2.8577 -0.2768 -2.3506
  197MPD1    H2 3001   2.587   0.249   0.036  0.5773 -2.4902  0.7671
  197MPD1    H3 3002   2.490   0.431  17.607 -1.1377 -0.4583  1.7136
  197MPD1     N 3003   2.438   0.174  17.238  0.2011 -0.0042 -0.3628
  197MPD1    H5 3004   2.399   0.249  17.183 -1.8776 -0.7664  0.0509
  197MPD1    N1 3005   2.613   4.722  17.655  0.0129  0.0763 -0.4829
  197MPD1    H6 3006   2.650   4.642  17.604 -0.5448 -0.4884 -0.0128
  197MPD1    H7 3007   2.681   0.033   0.031 -1.6478  0.8401  0.7872
  198MPD1     C 3008   0.218   2.895  17.059  0.1339 -0.1694  0.0931
  198MPD1    C1 3009   0.094   2.942  17.018  0.0304 -0.6579  0.4846
  198MPD1    C2 3010   0.061   2.911  16.885  0.6290  0.4198  0.2414
  198MPD1    C3 3011   0.157   2.863  16.794  0.5243 -0.5738  0.4980
  198MPD1    C4 3012   0.283   2.828  16.835 -0.4100  0.5048  0.8009
  198MPD1    C5 3013   0.311   2.838  16.970 -0.3011  0.2916 -0.2223
  198MPD1     H 3014   4.683   2.931  16.848  1.7995  1.8102 -2.1925
  198MPD1    H1 3015   0.364   2.792  16.771 -1.1857 -1.9420  1.1846
  198MPD1    H2 3016   0.251   2.894  17.163  1.3680  1.8782 -0.2924
  198MPD1    H3 3017   0.395   2.791  17.019  0.1857  0.9793 -0.4042
  198MPD1     N 3018   0.111   2.846  16.662 -0.0561 -0.7351 -0.3833
  198MPD1    H5 3019   0.019   2.881  16.636 -0.7981 -1.4785  1.2681
  198MPD1    N1 3020   4.718   2.981  17.111 -0.3315  0.1856  0.5616
  198MPD1    H6 3021   0.039   3.035  17.186 -0.2998 -0.2586  0.8620
  198MPD1    H7 3022   4.647   3.042  17.069  0.0063 -1.7984 -2.8698
  199MPD1     C 3023   0.527   3.974   9.150 -0.1107 -0.2040  0.2433
  199MPD1    C1 3024   0.581   4.099   9.146  0.7084  0.2901 -0.1177
  199MPD1    C2 3025   0.702   4.119   9.220 -0.1824  0.1940  0.7706
  199MPD1    C3 3026   0.772   4.016   9.281 -0.3353 -0.2416  0.5447
  199MPD1    C4 3027   0.706   3.892   9.275  0.2856 -0.7319 -0.4405
  199MPD1    C5 3028   0.589   3.875   9.213  0.1178  0.1726  0.1007
  199MPD1     H 3029   0.748   4.217   9.213 -1.1970  0.7953  2.5781
  199MPD1    H1 3030   0.742   3.801   9.320 -0.4885 -0.9359 -0.2216
  199MPD1    H2 3031   0.438   3.938   9.099  1.0653 -1.8607 -0.6076
  199MPD1    H3 3032   0.537   3.780   9.213  0.6322 -0.1121  0.6364
  199MPD1     N 3033   0.895   4.024   9.350 -0.2458  0.3298  0.6711
  199MPD1    H5 3034   0.932   3.947   9.405 -0.2626  0.4847  0.9028
  199MPD1    N1 3035   0.532   4.189   9.042 -0.7941 -0.0646 -0.0360
  199MPD1    H6 3036   0.432   4.181   9.021 -1.0442 -0.5241  1.3031
  199MPD1    H7 3037   0.555   4.283   9.075 -2.3133  0.3071  0.0032
  200MPD1     C 3038   0.615   3.861  15.258  0.3182 -0.9917  0.5634
  200MPD1    C1 3039   0.583   3.825  15.129  0.0041 -0.1553 -0.3250
  200MPD1    C2 3040   0.685   3.839  15.038 -0.4645  1.1370 -0.9224
  200MPD1    C3 3041   0.813   3.887  15.069  0.0565  0.2172  0.3095
  200MPD1    C4 3042   0.843   3.920  15.199 -0.5867 -0.0429  0.2216
  200MPD1    C5 3043   0.739   3.912  15.290  0.2275 -1.2965 -0.4160
  200MPD1     H 3044   0.679   3.829  14.930 -1.5817 -1.1660 -0.6329
  200MPD1    H1 3045   0.943   3.949  15.227  0.1720 -0.7661 -1.6923
  200MPD1    H2 3046   0.538   3.866  15.334 -1.1429 -0.1839 -0.9401
  200MPD1    H3 3047   0.751   3.949  15.391  0.9368 -3.0506  0.1518
  200MPD1     N 3048   0.912   3.886  14.961  0.7739 -0.2826 -0.0902
  200MPD1    H5 3049   0.869   3.856  14.874 -2.3843  1.3470  0.8959
  200MPD1    N1 3050   0.453   3.801  15.082  0.1296  0.1599 -0.1863
  200MPD1    H6 3051   0.390   3.782  15.159 -1.1494 -0.6157 -1.4106
  200MPD1    H7 3052   0.412   3.880  15.031  1.0094  1.3654  0.9665
  201MPD1     C 3053   3.027   3.184  12.437  0.7352 -0.7244 -0.5892
  201MPD1    C1 3054   3.111   3.079  12.400 -0.3800  0.4192  0.2572
  201MPD1    C2 3055   3.157   3.004  12.506  0.2569 -0.3808  0.5888
  201MPD1    C3 3056   3.129   3.031  12.640  0.1192 -0.1829 -0.5181
  201MPD1    C4 3057   3.071   3.149  12.670 -0.4769 -0.1764 -0.4303
  201MPD1    C5 3058   3.018   3.223  12.568 -0.0236  0.1466  0.1527
  201MPD1     H 3059   3.224   2.923  12.479 -1.3961 -1.0953 -1.4279
  201MPD1    H1 3060   3.045   3.184  12.770 -2.2400 -0.1352 -0.9061
  201MPD1    H2 3061   2.977   3.241  12.360  1.2308  2.1338  1.1979
  201MPD1    H3 3062   2.971   3.315  12.600  0.4653  0.1726  0.7974
  201MPD1     N 3063   3.180   2.941  12.737 -0.2878  0.6547 -0.4207
  201MPD1    H5 3064   3.218   2.855  12.699 -2.1381  0.4433 -1.7478
  201MPD1    N1 3065   3.113   3.029  12.264 -0.2188 -0.3420 -0.2544
  201MPD1    H6 3066   3.116   3.109  12.201  0.7338 -0.4243 -0.3170
  201MPD1    H7 3067   3.192   2.970  12.243  0.2235  0.2848 -0.3660
  202MPD1     C 3068   3.417   1.926   8.694 -0.1943 -0.0419  0.1111
  202MPD1    C1 3069   3.331   2.026   8.743  0.3341 -0.4458  0.5547
  202MPD1    C2 3070   3.310   2.029   8.891  0.0162  0.6056  0.2352
  202MPD1    C3 3071   3.337   1.915   8.969 -0.0744  0.4055 -0.5757
  202MPD1    C4 3072   3.389   1.804   8.901 -0.1751 -0.1213  0.2856
  202MPD1    C5 3073   3.446   1.825   8.777  0.0981 -1.0716  0.0086
  202MPD1     H 3074   3.243   2.108   8.925 -0.0895  0.2695  0.7987
  202MPD1    H1 3075   3.412   1.712   8.954 -0.4717  0.1823  0.9461
  202MPD1    H2 3076   3.443   1.926   8.589  0.2717  1.9827  0.2241
  202MPD1    H3 3077   3.507   1.747   8.732 -1.2245 -1.1109 -1.6807
  202MPD1     N 3078   3.305   1.911   9.114  0.1751 -0.2015 -0.3390
  202MPD1    H5 3079   3.327   1.818   9.146 -0.9698  0.1540  1.4899
  202MPD1    N1 3080   3.321   2.142   8.671  0.2450 -0.4193 -0.2520
  202MPD1    H6 3081   3.241   2.203   8.683 -1.0306 -2.0669 -0.3870
  202MPD1    H7 3082   3.315   2.112   8.574 -0.8070  3.9594 -1.5623
  203MPD1     C 3083   2.154   3.922  12.412  0.8829 -0.1892  0.3153
  203MPD1    C1 3084   2.138   3.830  12.313 -0.1335 -0.3120 -0.0956
  203MPD1    C2 3085   2.150   3.695  12.336 -0.2269 -0.4152 -0.1060
  203MPD1    C3 3086   2.184   3.647  12.462 -0.2901  0.1021  0.6139
  203MPD1    C4 3087   2.191   3.746  12.566  0.7062 -0.4437  1.0057
  203MPD1    C5 3088   2.186   3.881  12.536 -0.5513 -0.2728 -0.4489
  203MPD1     H 3089   2.141   3.621  12.257  0.7117  1.0120 -1.5642
  203MPD1    H1 3090   2.186   3.719  12.671  1.6115 -0.8691  0.9376
  203MPD1    H2 3091   2.144   4.027  12.387 -0.0074 -0.7959 -1.8351
  203MPD1    H3 3092   2.188   3.954  12.617 -0.3074 -2.3539  1.4318
  203MPD1     N 3093   2.193   3.505  12.482 -0.4194  0.1726 -0.1898
  203MPD1    H5 3094   2.162   3.438  12.413  2.2193  0.1308 -1.3352
  203MPD1    N1 3095   2.084   3.875  12.190  0.2759 -0.3102 -0.0530
  203MPD1    H6 3096   2.128   3.830  12.110  0.1577  0.8727 -0.7795
  203MPD1    H7 3097   2.088   3.976  12.178  0.7990 -0.5644 -1.9112
  204MPD1     C 3098   0.751   4.637  17.623 -0.3382  0.0738 -0.4052
  204MPD1    C1 3099   0.772   4.631  17.487  0.3262 -0.2771  0.1377
  204MPD1    C2 3100   0.856   4.527  17.442  0.5584  0.3542  0.3231
  204MPD1    C3 3101   0.895   4.424  17.517  0.3021  0.4983  0.4247
  204MPD1    C4 3102   0.856   4.429  17.647  0.5188  0.4546  0.2281
  204MPD1    C5 3103   0.789   4.534   0.012 -0.5267 -0.1820  0.3991
  204MPD1     H 3104   0.885   4.527  17.337 -2.2364 -1.3489 -0.4230
  204MPD1    H1 3105   0.870   4.349   0.026 -0.1333 -0.7428 -0.9937
  204MPD1    H2 3106   0.693   4.717  17.668 -0.8860  1.0587 -2.8576
  204MPD1    H3 3107   0.753   4.532   0.115  3.3872  3.6363  1.8507
  204MPD1     N 3108   0.961   4.315  17.455 -0.2245 -0.1771 -0.3161
  204MPD1    H5 3109   0.988   4.332  17.359 -0.1634 -0.2708 -0.3166
  204MPD1    N1 3110   0.745   0.021  17.406  0.0488 -0.8659  0.0406
  204MPD1    H6 3111   0.740   0.002  17.306  2.5472 -1.9062  0.1138
  204MPD1    H7 3112   0.657   0.068  17.429  1.5499  1.1885  1.6331
  205MPD1     C 3113   0.225   2.691  17.378  0.6256  0.3742  0.2949
  205MPD1    C1 3114   0.259   2.795  17.460 -0.0352 -0.0862  0.1632
  205MPD1    C2 3115   0.373   2.867  17.424 -0.4416 -0.2809 -0.4422
  205MPD1    C3 3116   0.463   2.812  17.329 -0.5716  0.4691 -0.1798
  205MPD1    C4 3117   0.435   2.699  17.259 -0.2895 -0.3122  0.3484
  205MPD1    C5 3118   0.317   2.639  17.288  0.5007  0.8762 -0.1047
  205MPD1     H 3119   0.388   2.960  17.478  0.5347 -1.6440  1.6286
  205MPD1    H1 3120   0.504   2.652  17.189 -1.6582 -1.7022 -0.0712
  205MPD1    H2 3121   0.126   2.651  17.395  0.2554  2.0279  2.1196
  205MPD1    H3 3122   0.287   2.558  17.223  0.4374 -0.4873  1.6442
  205MPD1     N 3123   0.594   2.865  17.313  0.7504  0.5053  0.0428
  205MPD1    H5 3124   0.657   2.811  17.255 -0.7255  0.2971 -1.3613
  205MPD1    N1 3125   0.161   2.847  17.544 -0.0502 -0.2597 -0.7418
  205MPD1    H6 3126   0.209   2.892  17.623 -1.1367  0.3027 -0.4003
  205MPD1    H7 3127   0.106   2.773  17.587  3.1967 -1.2917  1.6261
  206MPD1     C 3128   1.547   1.126  16.520 -0.4481  0.4919 -0.0480
  206MPD1    C1 3129   1.463   1.229  16.476 -0.1184  0.5733 -0.8509
  206MPD1    C2 3130   1.440   1.245  16.341 -0.3656  0.1943 -0.1761
  206MPD1    C3 3131   1.500   1.150  16.259 -0.1500 -0.4661  0.0129
  206MPD1    C4 3132   1.578   1.044  16.300  0.2899 -0.1261 -0.2751
  206MPD1    C5 3133   1.606   1.040  16.437  0.9042  0.6767  0.3127
  206MPD1     H 3134   1.379   1.328  16.307 -1.9845 -0.8284  0.2211
  206MPD1    H1 3135   1.613   0.960  16.242  0.2219  0.8885 -1.7746
  206MPD1    H2 3136   1.559   1.109  16.627  0.7305  1.0922 -0.0818
  206MPD1    H3 3137   1.669   0.961  16.477 -0.6378 -0.4660  0.4791
  206MPD1     N 3138   1.493   1.157  16.123  0.0847 -0.0983  0.4312
  206MPD1    H5 3139   1.557   1.085  16.090 -1.4229 -1.9296  1.4770
  206MPD1    N1 3140   1.404   1.311  16.564  0.1792 -0.1669 -0.1564
  206MPD1    H6 3141   1.379   1.406  16.536  0.1490  0.8082  3.1669
  206MPD1    H7 3142   1.450   1.302  16.655  2.7688  0.2421 -1.4184
  207MPD1     C 3143   0.813   2.542  10.112  0.9085  0.7623 -1.1612
  207MPD1    C1 3144   0.913   2.634  10.134  0.4266  0.1086  0.1523
  207MPD1    C2 3145   0.885   2.747  10.205 -0.1212  0.3367  0.1010
  207MPD1    C3 3146   0.762   2.769  10.262  0.8952  0.2214 -0.7415
  207MPD1    C4 3147   0.666   2.678  10.227  0.4077  0.4479  0.1683
  207MPD1    C5 3148   0.684   2.571  10.150 -0.4746 -0.3608 -0.1026
  207MPD1     H 3149   0.951   2.827  10.237  3.0674 -1.6595 -1.4911
  207MPD1    H1 3150   0.562   2.700  10.249 -0.0740 -1.2269 -0.4344
  207MPD1    H2 3151   0.823   2.452  10.053 -1.9808  0.3829 -1.0771
  207MPD1    H3 3152   0.598   2.508  10.131 -1.0154  0.2367  0.3924
  207MPD1     N 3153   0.731   2.885  10.343 -0.0404  0.1038  0.4722
  207MPD1    H5 3154   0.645   2.875  10.395  0.0796  1.0399  0.8504
  207MPD1    N1 3155   1.042   2.618  10.080 -0.3166  0.2205  0.0999
  207MPD1    H6 3156   1.075   2.522  10.088  1.9123  1.1340  1.5232
  207MPD1    H7 3157   1.116   2.676  10.119  0.2121  0.1916 -0.8785
  208MPD1     C 3158   2.427   2.994  16.786  0.6820 -0.1392  0.5084
  208MPD1    C1 3159   2.344   2.898  16.739  0.6036  0.3893 -0.0812
  208MPD1    C2 3160   2.261   2.845  16.837 -0.5111  0.4153  0.6186
  208MPD1    C3 3161   2.273   2.880  16.970 -0.2747 -0.3083  0.2630
  208MPD1    C4 3162   2.366   2.979  17.011 -0.6737  0.2540 -0.0752
  208MPD1    C5 3163   2.431   3.045  16.917 -0.5069 -0.3875 -0.2528
  208MPD1     H 3164   2.190   2.768  16.810 -1.8404  2.0611 -0.5901
  208MPD1    H1 3165   2.370   3.023  17.110  0.3152  1.0805 -0.4883
  208MPD1    H2 3166   2.499   3.040  16.720  0.8646 -0.6918  0.3214
  208MPD1    H3 3167   2.492   3.131  16.939  0.0894 -0.9770  0.3942
  208MPD1     N 3168   2.185   2.821  17.061  0.4290  0.2006  0.5678
  208MPD1    H5 3169   2.143   2.735  17.026  1.9078  0.3041 -1.4832
  208MPD1    N1 3170   2.331   2.870  16.604 -0.0681 -0.4526  0.1843
  208MPD1    H6 3171   2.419   2.885  16.556 -0.4993 -0.4020 -0.5820
  208MPD1    H7 3172   2.303   2.773  16.593 -0.9130 -0.1704 -0.1416
  209MPD1     C 3173   4.279   3.548  11.716 -0.8296  0.0879 -0.3324
  209MPD1    C1 3174   4.310   3.437  11.798  0.0083 -0.1346  0.4007
  209MPD1    C2 3175   4.415   3.355  11.749 -0.2927 -1.3313  0.2487
  209MPD1    C3 3176   4.482   3.380  11.631  0.1535 -0.0827  0.4204
  209MPD1    C4 3177   4.444   3.495  11.563 -0.3156  0.4350  0.2578
  209MPD1    C5 3178   4.341   3.575  11.601 -0.0472  0.9836 -0.4352
  209MPD1     H 3179   4.443   3.268  11.807  3.3991 -0.5011 -0.3376
  209MPD1    H1 3180   4.486   3.519  11.466  1.5602 -2.5986  0.2948
  209MPD1    H2 3181   4.214   3.628  11.751 -0.8294 -0.6466  1.3219
  209MPD1    H3 3182   4.319   3.662  11.541  0.3718  2.0529  0.9657
  209MPD1     N 3183   4.582   3.287  11.588  0.6638 -0.0340 -0.1113
  209MPD1    H5 3184   4.593   3.203  11.645 -0.7961 -1.4760 -1.9720
  209MPD1    N1 3185   4.238   3.395  11.911  0.2093  0.6798  0.7685
  209MPD1    H6 3186   4.296   3.338  11.972 -0.0844  0.3304  0.7253
  209MPD1    H7 3187   4.169   3.461  11.946  1.3235  1.0437  2.2788
  210MPD1     C 3188   4.599   2.515  11.899 -0.2024 -0.1211  0.0459
  210MPD1    C1 3189   4.702   2.497  11.807  0.4118 -0.1072  0.1556
  210MPD1    C2 3190   0.007   2.602  11.727  0.3492  0.5785 -0.2531
  210MPD1    C3 3191   4.658   2.719  11.728 -0.2308 -0.4259  0.1756
  210MPD1    C4 3192   4.551   2.728  11.805 -0.2478 -0.1614  0.3767
  210MPD1    C5 3193   4.526   2.629  11.895  0.4730  0.1056  0.0323
  210MPD1     H 3194   0.098   2.592  11.667  0.7503  2.3403  0.0551
  210MPD1    H1 3195   4.487   2.815  11.801 -0.8001 -0.5559  0.4988
  210MPD1    H2 3196   4.559   2.437  11.963  1.0305  0.5661  1.6605
  210MPD1    H3 3197   4.439   2.628  11.960  1.3234 -1.7729  1.1260
  210MPD1     N 3198   4.678   2.835  11.644 -0.8634 -0.4448 -0.1688
  210MPD1    H5 3199   4.616   2.915  11.654 -0.7161 -0.5325  1.3867
  210MPD1    N1 3200   0.055   2.381  11.805  0.4560  0.3882  0.3159
  210MPD1    H6 3201   0.090   2.369  11.711  0.6525 -1.4844  0.6391
  210MPD1    H7 3202   0.013   2.293  11.834  2.8930 -0.5824  0.8550
  211MPD1     C 3203   1.710   2.463  15.952  0.2180 -0.5888 -0.1729
  211MPD1    C1 3204   1.572   2.476  15.971 -0.2399  0.5428  0.0580
  211MPD1    C2 3205   1.527   2.598  16.027 -0.3745  0.4148  0.3304
  211MPD1    C3 3206   1.616   2.694  16.072 -0.0914  0.6828 -0.2665
  211MPD1    C4 3207   1.750   2.677  16.044  0.3511 -0.0894 -0.3577
  211MPD1    C5 3208   1.795   2.562  15.980  0.3375 -0.4274 -0.0716
  211MPD1     H 3209   1.420   2.601  16.042 -0.0154 -1.5691  3.1883
  211MPD1    H1 3210   1.821   2.756  16.066  1.5848 -2.0162  2.6194
  211MPD1    H2 3211   1.760   2.368  15.937  0.2145 -0.5174 -0.6581
  211MPD1    H3 3212   1.898   2.528  15.982  0.5761  0.2988  0.2550
  211MPD1     N 3213   1.564   2.809  16.140  0.4703  0.5450 -0.7437
  211MPD1    H5 3214   1.464   2.813  16.155  0.7221 -1.2089  1.4387
  211MPD1    N1 3215   1.488   2.364  15.940 -0.2632  0.3600 -0.2876
  211MPD1    H6 3216   1.529   2.294  15.879  1.1512 -1.2705  2.5274
  211MPD1    H7 3217   1.397   2.387  15.901 -0.6227 -0.5901 -0.0188
  212MPD1     C 3218   1.169   1.465  16.329 -0.0063  0.2551  0.3385
  212MPD1    C1 3219   1.164   1.541  16.438  0.3889 -0.3739  0.2806
  212MPD1    C2 3220   1.076   1.515  16.539  0.4353  0.3467 -0.2409
  212MPD1    C3 3221   0.996   1.403  16.537 -0.2634 -0.1518 -0.3479
  212MPD1    C4 3222   1.009   1.320  16.430  0.0885  0.6454  0.4636
  212MPD1    C5 3223   1.095   1.348  16.325  0.6508  0.1330 -0.4190
  212MPD1     H 3224   1.066   1.585  16.621  1.7420  2.3752 -1.8214
  212MPD1    H1 3225   0.938   1.238  16.428  0.6071  0.1948  0.4973
  212MPD1    H2 3226   1.240   1.485  16.249  1.1181  1.0186  1.5275
  212MPD1    H3 3227   1.101   1.289  16.235  0.1961  2.0199 -1.6787
  212MPD1     N 3228   0.910   1.360  16.637  0.0187  0.1438 -0.1948
  212MPD1    H5 3229   0.866   1.270  16.622  0.5855 -0.0299 -0.8152
  212MPD1    N1 3230   1.243   1.656  16.436 -0.4758  0.0957  0.0002
  212MPD1    H6 3231   1.284   1.677  16.527  0.7741 -1.9873 -0.0956
  212MPD1    H7 3232   1.324   1.643  16.376 -0.5071 -1.1130  0.2326
  213MPD1     C 3233   0.106   2.583  15.000  0.6981  0.9204  0.1705
  213MPD1    C1 3234   4.696   2.627  15.003 -0.6753 -0.2402 -0.0840
  213MPD1    C2 3235   4.619   2.550  15.090  0.4521  0.7089  0.0579
  213MPD1    C3 3236   4.658   2.429  15.143 -0.5860 -0.0491 -0.1408
  213MPD1    C4 3237   0.065   2.385  15.129  0.1912  0.3000 -0.0581
  213MPD1    C5 3238   0.149   2.475  15.066  0.3219  0.6901  0.0480
  213MPD1     H 3239   4.514   2.577  15.099  0.1522 -0.5352  0.2657
  213MPD1    H1 3240   0.106   2.298  15.179  0.4779 -0.7879 -2.1596
  213MPD1    H2 3241   0.174   2.653  14.953  0.6695  0.3688 -0.6909
  213MPD1    H3 3242   0.257   2.461  15.064  0.5047  2.0491  0.3803
  213MPD1     N 3243   4.560   2.369  15.221  0.0698 -0.0048 -0.5218
  213MPD1    H5 3244   4.475   2.420  15.243  1.1662  0.9867  1.4608
  213MPD1    N1 3245   4.667   2.765  14.970 -0.8452  0.3420 -0.0963
  213MPD1    H6 3246   4.571   2.795  14.979 -1.1057 -0.4454 -0.2130
  213MPD1    H7 3247   4.717   2.804  14.890  0.8955  0.1362  0.8740
  214MPD1     C 3248   4.533   1.511  15.804  0.0948 -0.0822  0.3965
  214MPD1    C1 3249   4.474   1.615  15.871  0.1446 -0.7125 -0.3699
  214MPD1    C2 3250   4.447   1.736  15.801 -0.0498 -0.2748 -0.4465
  214MPD1    C3 3251   4.479   1.743  15.667 -0.2123 -0.2449 -0.5604
  214MPD1    C4 3252   4.552   1.640  15.610  0.2052  0.4245 -0.1683
  214MPD1    C5 3253   4.573   1.526  15.678 -0.5022 -0.4204 -0.4482
  214MPD1     H 3254   4.394   1.813  15.857 -1.2560 -0.4907 -1.2855
  214MPD1    H1 3255   4.605   1.647  15.516 -1.2284 -1.0806 -1.0782
  214MPD1    H2 3256   4.558   1.415  15.848  1.7226  1.0870  2.0512
  214MPD1    H3 3257   4.617   1.444  15.622  1.4030 -0.4649  1.1274
  214MPD1     N 3258   4.449   1.853  15.577  0.3990  0.3144 -0.8774
  214MPD1    H5 3259   4.484   1.844  15.482  1.2910 -1.3511 -0.3877
  214MPD1    N1 3260   4.419   1.604  16.004 -0.4418  0.0050 -0.1427
  214MPD1    H6 3261   4.476   1.542  16.061 -0.8060 -0.9274 -0.7851
  214MPD1    H7 3262   4.401   1.693  16.051  1.8125 -0.1093  0.9349
  215MPD1     C 3263   0.410   3.125  10.197 -0.0315  0.6142 -0.2928
  215MPD1    C1 3264   0.356   3.043  10.294  0.1330  0.5418  0.4681
  215MPD1    C2 3265   0.291   3.101  10.404  0.4284  0.4536  0.0107
  215MPD1    C3 3266   0.262   3.232  10.411  0.3349  0.4154 -0.2081
  215MPD1    C4 3267   0.322   3.314  10.315  0.6516  0.7235 -0.8414
  215MPD1    C5 3268   0.378   3.257  10.201 -0.3592 -0.1129  0.3816
  215MPD1     H 3269   0.255   3.038  10.485  0.9468 -0.7429 -0.6786
  215MPD1    H1 3270   0.330   3.422  10.315 -2.1840  0.9209  0.4061
  215MPD1    H2 3271   0.465   3.093  10.109  2.1863  0.0658  1.2809
  215MPD1    H3 3272   0.427   3.317  10.125 -2.2063  0.4519 -0.3453
  215MPD1     N 3273   0.185   3.279  10.518 -0.7957  0.1707  0.4766
  215MPD1    H5 3274   0.141   3.207  10.575  1.0684 -1.9644 -0.7823
  215MPD1    N1 3275   0.396   2.908  10.297 -0.1833  0.1277  0.4455
  215MPD1    H6 3276   0.316   2.854  10.330  1.4868 -2.3566  0.3748
  215MPD1    H7 3277   0.424   2.872  10.206 -0.0320 -0.9623  0.9232
  216MPD1     C 3278   0.461   0.584   1.311  1.1717 -0.0073  0.5372
  216MPD1    C1 3279   0.586   0.598   1.262 -0.4154 -0.4832 -0.3117
  216MPD1    C2 3280   0.610   0.546   1.136  0.2732  1.0184 -0.2340
  216MPD1    C3 3281   0.521   0.459   1.066  0.0508  0.6337  0.0007
  216MPD1    C4 3282   0.403   0.431   1.129  0.2684  0.0525  0.4173
  216MPD1    C5 3283   0.379   0.492   1.252 -0.3741  0.2270 -0.7139
  216MPD1     H 3284   0.707   0.569   1.095 -0.0504  1.1675 -0.9246
  216MPD1    H1 3285   0.337   0.352   1.097  0.4679  0.1971 -0.3547
  216MPD1    H2 3286   0.431   0.630   1.404  0.0514  1.7250 -0.6762
  216MPD1    H3 3287   0.290   0.452   1.299  2.4747 -1.2564  3.4036
  216MPD1     N 3288   0.561   0.403   0.944 -0.3265 -0.1953 -0.2219
  216MPD1    H5 3289   0.650   0.432   0.906  0.0115 -1.1665 -0.1732
  216MPD1    N1 3290   0.673   0.694   1.312  0.4081 -0.9905 -0.6191
  216MPD1    H6 3291   0.770   0.670   1.295  0.6087 -0.3451 -0.3894
  216MPD1    H7 3292   0.664   0.691   1.413  1.6376 -1.8423 -0.5358
  217MPD1     C 3293   2.380   1.035   7.883 -0.0967  0.3971  0.0118
  217MPD1    C1 3294   2.422   0.941   7.980 -0.4161  0.1658 -0.2927
  217MPD1    C2 3295   2.468   0.999   8.097  0.6177  0.0407 -0.1987
  217MPD1    C3 3296   2.467   1.133   8.118 -0.8531 -0.0752  0.1740
  217MPD1    C4 3297   2.419   1.213   8.026 -0.0816 -0.0886  0.5663
  217MPD1    C5 3298   2.364   1.167   7.908 -0.8947 -1.1757  0.0121
  217MPD1     H 3299   2.510   0.935   8.173 -0.0596 -0.0319  0.1107
  217MPD1    H1 3300   2.411   1.320   8.040 -1.9599 -0.0915 -0.5171
  217MPD1    H2 3301   2.342   0.994   7.790  1.9476  0.4437 -0.8443
  217MPD1    H3 3302   2.321   1.240   7.840 -0.3868 -0.8230  0.0711
  217MPD1     N 3303   2.508   1.195   8.233  0.1757 -0.0778 -0.3072
  217MPD1    H5 3304   2.502   1.296   8.240 -3.8253 -0.4200  0.7694
  217MPD1    N1 3305   2.448   0.812   7.944  0.0113 -0.5570 -0.1185
  217MPD1    H6 3306   2.387   0.778   7.871 -2.3390 -0.3900  1.7543
  217MPD1    H7 3307   2.440   0.743   8.019 -0.6359 -0.2563  0.0955
  218MPD1     C 3308   3.038   3.570  12.701  0.1443 -0.4082 -0.1362
  218MPD1    C1 3309   3.086   3.488  12.801 -0.6836 -0.2451  0.3447
  218MPD1    C2 3310   3.213   3.435  12.778  0.7360  0.5393 -0.0302
  218MPD1    C3 3311   3.288   3.444  12.660  0.4350 -0.6685  0.2060
  218MPD1    C4 3312   3.225   3.510  12.556  0.0352 -0.5790  0.3263
  218MPD1    C5 3313   3.105   3.578  12.584  0.3300 -0.7446 -0.1436
  218MPD1     H 3314   3.253   3.376  12.860  2.7581 -1.2290 -2.2897
  218MPD1    H1 3315   3.283   3.534  12.468 -1.3965  0.8650 -0.2291
  218MPD1    H2 3316   2.939   3.613  12.707  0.2073 -0.1715 -0.8105
  218MPD1    H3 3317   3.067   3.650  12.512 -0.2412  0.0277  0.9290
  218MPD1     N 3318   3.409   3.375  12.651  0.2593 -0.9282 -0.2817
  218MPD1    H5 3319   3.439   3.307  12.721  1.9710  1.0699  0.9388
  218MPD1    N1 3320   3.035   3.488  12.934 -0.9206  0.3743  0.6017
  218MPD1    H6 3321   3.046   3.402  12.987  0.0023 -1.8065 -3.1050
  218MPD1    H7 3322   2.934   3.500  12.939 -1.0526 -0.8052  0.8686
  219MPD1     C 3323   4.391   3.255  12.211 -0.3664 -0.1763 -0.2434
  219MPD1    C1 3324   4.314   3.365  12.248  0.8831 -0.5209 -0.2506
  219MPD1    C2 3325   4.185   3.344  12.300  0.2462 -0.2837 -0.5888
  219MPD1    C3 3326   4.144   3.212  12.326 -0.3104 -0.1349  0.4266
  219MPD1    C4 3327   4.224   3.108  12.298  0.5249  0.2445 -0.2149
  219MPD1    C5 3328   4.346   3.131  12.242  0.0768  0.2120 -0.5536
  219MPD1     H 3329   4.129   3.434  12.321  1.2182 -0.2686  1.9146
  219MPD1    H1 3330   4.199   3.003  12.312 -0.1596  0.3412 -0.7035
  219MPD1    H2 3331   4.487   3.259  12.161 -0.0350  0.8099  0.4704
  219MPD1    H3 3332   4.399   3.041  12.214 -3.3600 -1.6070 -1.1863
  219MPD1     N 3333   4.020   3.178  12.393  0.2109 -0.0812  0.8831
  219MPD1    H5 3334   4.011   3.082  12.426 -0.9194 -0.5932 -0.8605
  219MPD1    N1 3335   4.358   3.496  12.239  0.2602 -0.8869  0.4792
  219MPD1    H6 3336   4.284   3.564  12.223  0.0268 -1.3847 -0.5239
  219MPD1    H7 3337   4.418   3.512  12.158  0.5599  1.0558  1.0804
  220MPD1     C 3338   4.011   2.647  10.975 -0.5397  0.0219 -0.3623
  220MPD1    C1 3339   4.076   2.714  10.873  0.0682  0.0294 -0.1796
  220MPD1    C2 3340   3.998   2.792  10.794 -0.2034  0.5246 -0.1280
  220MPD1    C3 3341   3.865   2.817  10.817 -0.2575  0.4605  0.3876
  220MPD1    C4 3342   3.811   2.744  10.916 -0.0892  0.7804 -0.1491
  220MPD1    C5 3343   3.878   2.658  10.992  0.1265  0.2684  0.8609
  220MPD1     H 3344   4.046   2.849  10.715 -0.1099  0.5798 -0.0321
  220MPD1    H1 3345   3.705   2.754  10.938 -0.6006 -1.8040 -1.5957
  220MPD1    H2 3346   4.066   2.564  11.018  0.6310  0.7173 -0.5335
  220MPD1    H3 3347   3.819   2.612  11.070 -3.1019 -0.2358 -1.9298
  220MPD1     N 3348   3.796   2.917  10.747  0.0609 -0.2285  0.3745
  220MPD1    H5 3349   3.848   2.979  10.685 -1.0730  0.3995  0.0510
  220MPD1    N1 3350   4.210   2.687  10.846  1.1491  0.4791  0.2059
  220MPD1    H6 3351   4.256   2.665  10.934 -0.1519 -2.2749  0.1974
  220MPD1    H7 3352   4.252   2.773  10.810  1.7963 -0.1860 -0.6329
  221MPD1     C 3353   0.568   2.453  16.684  0.2578  0.5742 -0.0368
  221MPD1    C1 3354   0.569   2.343  16.598 -0.2666 -0.3554  0.4824
  221MPD1    C2 3355   0.691   2.291  16.552 -0.9251 -0.5002 -0.3181
  221MPD1    C3 3356   0.808   2.338  16.599 -0.7558  0.2275 -0.6415
  221MPD1    C4 3357   0.810   2.443  16.690 -1.2354  0.1262  0.4451
  221MPD1    C5 3358   0.688   2.498  16.723 -0.0848  0.7237 -0.0633
  221MPD1     H 3359   0.685   2.221  16.468 -2.0826  0.3459 -0.9480
  221MPD1    H1 3360   0.903   2.484  16.729 -0.2024 -0.4734 -1.3826
  221MPD1    H2 3361   0.476   2.508  16.698 -0.8170 -0.5649 -2.6885
  221MPD1    H3 3362   0.695   2.589  16.782 -2.4870 -0.4754  2.0594
  221MPD1     N 3363   0.932   2.278  16.558  0.3967 -0.1124  0.6190
  221MPD1    H5 3364   1.019   2.314  16.597  0.4947 -0.3027  0.5734
  221MPD1    N1 3365   0.454   2.304  16.528 -0.0835 -0.2633 -0.2081
  221MPD1    H6 3366   0.462   2.209  16.493 -0.8813 -0.7892  1.0393
  221MPD1    H7 3367   0.371   2.316  16.586 -0.3234 -1.1105 -0.3824
  222MPD1     C 3368   1.735   1.911  16.435  0.2474  1.0910 -0.3076
  222MPD1    C1 3369   1.615   1.844  16.420  0.4695  0.0205 -0.7444
  222MPD1    C2 3370   1.551   1.803  16.532 -0.0603  0.4543  1.1963
  222MPD1    C3 3371   1.596   1.823  16.657 -0.0317 -0.0895  0.5391
  222MPD1    C4 3372   1.716   1.886  16.669 -0.1351  0.0361  0.4925
  222MPD1    C5 3373   1.785   1.914  16.558  0.1093  0.5997  0.2158
  222MPD1     H 3374   1.454   1.759  16.511 -1.2417  2.2807  2.7962
  222MPD1    H1 3375   1.760   1.911  16.765 -1.0693  1.5326  0.5298
  222MPD1    H2 3376   1.784   1.965  16.355  0.3417  1.0324 -0.2892
  222MPD1    H3 3377   1.880   1.964  16.572 -1.7656  3.4073  2.7383
  222MPD1     N 3378   1.540   1.770  16.772  0.5565  0.3719 -0.3806
  222MPD1    H5 3379   1.581   1.800  16.860  3.1617  3.5270 -2.6519
  222MPD1    N1 3380   1.550   1.862  16.294 -0.0846  0.4818 -0.0963
  222MPD1    H6 3381   1.608   1.880  16.212 -0.5823  0.4011 -0.4673
  222MPD1    H7 3382   1.492   1.782  16.270  0.2746  0.2028 -0.0442
  223MPD1     C 3383   0.767   1.220  17.336 -0.0724 -0.1484  0.0257
  223MPD1    C1 3384   0.745   1.355  17.344 -0.3431 -0.1447  0.4360
  223MPD1    C2 3385   0.837   1.438  17.282 -0.5741  0.4224 -1.1103
  223MPD1    C3 3386   0.933   1.385  17.193  0.6548  0.1133  0.0936
  223MPD1    C4 3387   0.943   1.247  17.182 -0.1101 -0.6239 -0.5714
  223MPD1    C5 3388   0.871   1.170  17.264  0.6807 -0.0999  0.6149
  223MPD1     H 3389   0.836   1.543  17.307 -0.5166  0.3400 -0.7532
  223MPD1    H1 3390   1.020   1.198  17.124  0.1089 -1.0426  0.0725
  223MPD1    H2 3391   0.708   1.143  17.384  1.7461 -1.7532 -0.2775
  223MPD1    H3 3392   0.881   1.063  17.251 -1.3315 -0.4060  1.5380
  223MPD1     N 3393   1.014   1.473  17.126 -0.0362  0.5251  0.2899
  223MPD1    H5 3394   0.998   1.571  17.147 -1.8096  0.1455  0.7248
  223MPD1    N1 3395   0.660   1.394  17.450 -0.0673  0.2103  0.5482
  223MPD1    H6 3396   0.630   1.490  17.440  0.1703  0.2048 -0.2068
  223MPD1    H7 3397   0.580   1.332  17.466 -1.0745  0.7776 -2.2416
  224MPD1     C 3398   3.124   1.956   8.451  0.2350 -0.3118  0.1920
  224MPD1    C1 3399   3.059   2.076   8.481 -0.1050  0.0953  0.1779
  224MPD1    C2 3400   2.996   2.084   8.603 -0.3342  0.1225  0.3313
  224MPD1    C3 3401   2.998   1.984   8.701  0.3691 -0.9733 -0.1927
  224MPD1    C4 3402   3.065   1.866   8.662 -0.5591  0.0011  0.3257
  224MPD1    C5 3403   3.125   1.852   8.542 -0.0308  0.0454  0.9658
  224MPD1     H 3404   2.944   2.177   8.622  2.1348  1.6282 -0.3532
  224MPD1    H1 3405   3.086   1.781   8.725  0.7176 -0.1810 -0.3719
  224MPD1    H2 3406   3.177   1.938   8.358 -2.0152 -0.3147 -1.0933
  224MPD1    H3 3407   3.169   1.757   8.516 -0.6065 -0.0580  0.3828
  224MPD1     N 3408   2.942   1.988   8.833 -0.2771  0.5541  0.4923
  224MPD1    H5 3409   2.966   1.910   8.893  0.4844  0.0905 -0.4114
  224MPD1    N1 3410   3.066   2.185   8.390 -0.3317  0.2326 -0.2181
  224MPD1    H6 3411   2.987   2.248   8.402 -1.4669 -0.8319 -2.1788
  224MPD1    H7 3412   3.063   2.150   8.294 -1.5506  2.5514 -1.0267
  225MPD1     C 3413   3.496   4.106  12.667  0.2450 -0.6337 -0.8497
  225MPD1    C1 3414   3.623   4.098  12.617 -0.3192 -0.4562 -0.5702
  225MPD1    C2 3415   3.641   4.133  12.484  0.2526  0.3936  0.0032
  225MPD1    C3 3416   3.536   4.158  12.399 -0.1385  0.2937  0.2962
  225MPD1    C4 3417   3.410   4.162  12.456 -0.0703 -0.3615 -0.2035
  225MPD1    C5 3418   3.387   4.128  12.584 -0.4784 -0.0761 -0.5056
  225MPD1     H 3419   3.738   4.151  12.440  0.1450  1.4702  0.2214
  225MPD1    H1 3420   3.325   4.196  12.398  0.0163 -0.2847 -0.2876
  225MPD1    H2 3421   3.480   4.096  12.774  1.4422  0.3122 -0.5843
  225MPD1    H3 3422   3.284   4.118  12.614 -0.8426  1.6971 -1.1848
  225MPD1     N 3423   3.541   4.179  12.258 -0.1946 -0.3072  0.6887
  225MPD1    H5 3424   3.451   4.210  12.224 -0.6678 -1.1232  1.1938
  225MPD1    N1 3425   3.730   4.082  12.708  0.1992 -0.1021 -0.7893
  225MPD1    H6 3426   3.718   4.005  12.773 -1.3605  0.2390 -0.6754
  225MPD1    H7 3427   3.819   4.078  12.659  0.3263  0.2406 -0.5950
  226MPD1     C 3428   2.671   1.496   9.221  0.1257 -0.1208  0.2237
  226MPD1    C1 3429   2.738   1.433   9.116 -0.1570 -0.1342 -0.0914
  226MPD1    C2 3430   2.758   1.514   9.008  0.3545 -0.4014 -0.1764
  226MPD1    C3 3431   2.702   1.643   8.996 -0.2124 -0.5912  0.2308
  226MPD1    C4 3432   2.616   1.691   9.097  0.4097 -0.6798 -0.2340
  226MPD1    C5 3433   2.610   1.619   9.213 -0.0190  0.2904  0.0014
  226MPD1     H 3434   2.841   1.491   8.942  1.4021  0.1035  0.9649
  226MPD1    H1 3435   2.584   1.795   9.094  1.5265 -0.3174  0.4523
  226MPD1    H2 3436   2.662   1.444   9.316  3.0543  0.5934  0.8949
  226MPD1    H3 3437   2.560   1.653   9.302  0.0717 -1.1303  0.6001
  226MPD1     N 3438   2.704   1.699   8.869 -0.0410  1.1192  0.3180
  226MPD1    H5 3439   2.759   1.648   8.800 -1.3962 -1.0557  0.8499
  226MPD1    N1 3440   2.803   1.317   9.126  0.1822 -0.5957 -0.3284
  226MPD1    H6 3441   2.811   1.269   9.037  1.7374  1.5166 -1.3066
  226MPD1    H7 3442   2.769   1.254   9.198 -0.8887  0.4103  0.0533
  227MPD1     C 3443   2.938   1.208   8.309  0.9783  0.7055 -0.3700
  227MPD1    C1 3444   2.969   1.235   8.450  0.3839  0.3479  0.3073
  227MPD1    C2 3445   2.934   1.357   8.495 -0.6761  0.3161 -0.3602
  227MPD1    C3 3446   2.877   1.458   8.412 -0.4933 -0.2970  0.6447
  227MPD1    C4 3447   2.840   1.428   8.286 -0.0332 -0.2944 -0.2995
  227MPD1    C5 3448   2.870   1.302   8.232 -0.2981 -0.3674  0.4848
  227MPD1     H 3449   2.960   1.387   8.596  1.2634 -0.0344 -0.7635
  227MPD1    H1 3450   2.817   1.502   8.210  0.1919 -0.5752 -0.6408
  227MPD1    H2 3451   2.962   1.121   8.248 -0.6477  0.6009 -0.8678
  227MPD1    H3 3452   2.856   1.283   8.127 -0.9228 -0.1352  0.5277
  227MPD1     N 3453   2.865   1.590   8.468  0.7236  0.6700 -0.8705
  227MPD1    H5 3454   2.892   1.598   8.566  1.5127  1.3140 -1.1469
  227MPD1    N1 3455   3.053   1.141   8.517  0.5097  0.3615 -0.2674
  227MPD1    H6 3456   3.048   1.150   8.618 -4.6425 -0.2057 -0.4391
  227MPD1    H7 3457   3.032   1.046   8.485 -1.6394  1.2465 -1.4787
  228MPD1     C 3458   0.174   2.036  12.413 -0.0578 -0.0646 -0.4528
  228MPD1    C1 3459   0.057   2.099  12.453  0.3215  0.6781 -0.0408
  228MPD1    C2 3460   4.687   2.017  12.506  0.5839 -0.8544  0.5882
  228MPD1    C3 3461   4.709   1.888  12.552  0.0176 -0.2900 -0.2629
  228MPD1    C4 3462   0.115   1.833  12.532  0.4418 -0.3062 -0.2989
  228MPD1    C5 3463   0.200   1.911  12.459  0.5282 -1.0926  0.1806
  228MPD1     H 3464   4.592   2.067  12.515  0.3091 -1.2344 -0.2090
  228MPD1    H1 3465   0.143   1.730  12.551 -0.3746 -0.2892  0.9942
  228MPD1    H2 3466   0.247   2.087  12.351  0.2082 -1.5919 -1.3929
  228MPD1    H3 3467   0.299   1.869  12.445  0.6222 -0.2982 -1.4535
  228MPD1     N 3468   4.601   1.814  12.606  0.0303  0.1417 -0.1595
  228MPD1    H5 3469   4.509   1.857  12.604  0.1362  0.4151  0.9677
  228MPD1    N1 3470   0.010   2.223  12.395 -0.1950  0.3982 -0.4956
  228MPD1    H6 3471   0.082   2.290  12.369 -2.0828  2.7162  0.3250
  228MPD1    H7 3472   4.665   2.276  12.449  1.8230  1.4313  1.0012
  229MPD1     C 3473   4.446   0.700  14.339 -0.6408  0.1478  0.2251
  229MPD1    C1 3474   4.436   0.567  14.328 -0.4102 -0.4608 -0.3966
  229MPD1    C2 3475   4.505   0.484  14.421 -0.1288  0.5235  0.6009
  229MPD1    C3 3476   4.571   0.539  14.531  0.3931  0.4790  0.0539
  229MPD1    C4 3477   4.565   0.677  14.548  0.6866  0.2530 -0.2735
  229MPD1    C5 3478   4.499   0.750  14.456 -0.1396 -0.4210 -0.1337
  229MPD1     H 3479   4.507   0.377  14.410 -0.4808  0.8502 -2.8986
  229MPD1    H1 3480   4.611   0.727  14.633 -1.8060 -0.6181  1.5877
  229MPD1    H2 3481   4.399   0.760  14.263 -0.5455 -1.2944 -0.9845
  229MPD1    H3 3482   4.493   0.857  14.471  0.0202 -0.4880  0.3953
  229MPD1     N 3483   4.643   0.466  14.628  0.2434 -0.3996 -0.4365
  229MPD1    H5 3484   4.658   0.504  14.721  2.6722 -0.5042 -0.7817
  229MPD1    N1 3485   4.389   0.505  14.206 -0.1960 -0.0624 -0.2860
  229MPD1    H6 3486   4.316   0.561  14.163 -0.5941  0.5693  1.1943
  229MPD1    H7 3487   4.350   0.414  14.227  0.0018  0.0805  0.7241
  230MPD1     C 3488   0.303   0.410  15.564 -0.1992  0.2377  0.3567
  230MPD1    C1 3489   0.307   0.279  15.526  0.2886  0.0750 -0.5602
  230MPD1    C2 3490   0.286   0.242  15.394 -0.7209  0.1483  0.6276
  230MPD1    C3 3491   0.244   0.332  15.295  0.3957 -0.4157  0.8429
  230MPD1    C4 3492   0.229   0.457  15.337 -0.6109  0.1581  0.1088
  230MPD1    C5 3493   0.255   0.497  15.468  0.3936  0.7953 -0.6319
  230MPD1     H 3494   0.298   0.140  15.360  2.1556  0.0224  1.9502
  230MPD1    H1 3495   0.195   0.536  15.271 -0.3646  0.1887  0.0194
  230MPD1    H2 3496   0.346   0.447  15.656  1.8637 -2.6331  0.5394
  230MPD1    H3 3497   0.248   0.604  15.488 -1.9663  0.4582  0.3119
  230MPD1     N 3498   0.211   0.287  15.164  0.5440  0.1878  0.3052
  230MPD1    H5 3499   0.222   0.187  15.149 -4.3231 -0.3765  0.5536
  230MPD1    N1 3500   0.371   0.188  15.616  0.1149  0.8523  0.3187
  230MPD1    H6 3501   0.351   0.088  15.609  0.4907  0.8750 -1.1812
  230MPD1    H7 3502   0.364   0.221  15.711 -0.6413  0.6277  0.3443
  231MPD1     C 3503   2.887   2.124  15.473 -0.1037 -0.2301  0.0374
  231MPD1    C1 3504   2.964   2.039  15.389 -0.2604 -0.7672 -0.0534
  231MPD1    C2 3505   3.066   2.100  15.320 -0.4667 -0.0528  0.0279
  231MPD1    C3 3506   3.107   2.232  15.338 -0.2363 -0.4140 -0.7723
  231MPD1    C4 3507   3.034   2.307  15.426  0.6983 -0.1523  0.4354
  231MPD1    C5 3508   2.921   2.260  15.480  0.3563 -0.6107 -0.5250
  231MPD1     H 3509   3.116   2.032  15.252  0.0687  1.7481 -1.3774
  231MPD1    H1 3510   3.052   2.411  15.448 -1.0227  0.1415  0.4270
  231MPD1    H2 3511   2.803   2.084  15.528  0.1316 -0.0442  0.5329
  231MPD1    H3 3512   2.857   2.333  15.529  1.6786  1.0031 -1.2138
  231MPD1     N 3513   3.200   2.291  15.246 -0.0250  0.2522  0.0687
  231MPD1    H5 3514   3.237   2.232  15.172  1.0153  2.9097 -1.5172
  231MPD1    N1 3515   2.907   1.915  15.347  0.4255  0.0449 -0.1511
  231MPD1    H6 3516   2.981   1.846  15.329  2.1744  1.4399  1.6209
  231MPD1    H7 3517   2.845   1.883  15.421 -2.4443  3.8201 -0.9412
  232MPD1     C 3518   4.637   0.315   0.040 -1.7346 -0.3071  0.0112
  232MPD1    C1 3519   4.548   0.417   0.060  0.4636  0.8992 -0.7857
  232MPD1    C2 3520   4.498   0.446   0.184 -0.3295 -0.6825 -0.1888
  232MPD1    C3 3521   4.544   0.383   0.295 -0.5602  0.5671 -0.0973
  232MPD1    C4 3522   4.635   0.283   0.281  0.8776  0.3601 -0.6441
  232MPD1    C5 3523   4.674   0.251   0.152 -0.4984 -0.1312  0.4663
  232MPD1     H 3524   4.414   0.513   0.193  0.3193 -0.0865  1.4903
  232MPD1    H1 3525   4.681   0.228   0.362  0.1634  2.0798  0.9497
  232MPD1    H2 3526   4.668   0.275  17.636 -0.5243 -1.8918  1.0711
  232MPD1    H3 3527   0.017   0.166   0.136 -0.0305 -0.0449  1.9521
  232MPD1     N 3528   4.497   0.418   0.422  0.4718  0.0805  0.1455
  232MPD1    H5 3529   4.428   0.491   0.435 -1.9496 -2.0786 -0.6002
  232MPD1    N1 3530   4.470   0.466  17.646  0.4346  0.4466 -0.4711
  232MPD1    H6 3531   4.521   0.495  17.563  0.6582 -1.2319 -0.9113
  232MPD1    H7 3532   4.420   0.549  17.676  0.0397  0.7379 -1.9566
  233MPD1     C 3533   1.294   3.404   1.797 -0.2651 -0.0093  0.1694
  233MPD1    C1 3534   1.372   3.468   1.703 -0.1185  0.7728  0.2438
  233MPD1    C2 3535   1.486   3.402   1.654 -0.3076 -0.0152 -0.8987
  233MPD1    C3 3536   1.519   3.276   1.700 -0.2524  0.2159  0.1769
  233MPD1    C4 3537   1.430   3.209   1.781  0.0983  0.3506 -0.2440
  233MPD1    C5 3538   1.320   3.276   1.825 -0.6048  0.0362  0.1771
  233MPD1     H 3539   1.545   3.448   1.575 -1.7854  0.4624 -1.7205
  233MPD1    H1 3540   1.450   3.106   1.808 -1.2457  0.7446  2.2466
  233MPD1    H2 3541   1.211   3.454   1.845  1.1926  2.3685  0.2248
  233MPD1    H3 3542   1.264   3.230   1.906  1.8500 -0.6832  1.4679
  233MPD1     N 3543   1.625   3.194   1.665  0.9980  0.1616  0.3654
  233MPD1    H5 3544   1.630   3.102   1.708  1.5534 -0.7366 -1.6295
  233MPD1    N1 3545   1.343   3.603   1.677 -0.2047 -0.3033  0.0376
  233MPD1    H6 3546   1.241   3.610   1.676 -0.1980 -0.6171 -1.6316
  233MPD1    H7 3547   1.379   3.633   1.587 -0.7327 -0.1783 -0.1329
  234MPD1     C 3548   3.192   0.558  10.068 -0.6251  0.0593  0.1400
  234MPD1    C1 3549   3.183   0.691  10.095 -0.7995  0.3724  0.5374
  234MPD1    C2 3550   3.174   0.782   9.988  0.3203 -0.1774 -0.1392
  234MPD1    C3 3551   3.192   0.744   9.860  1.1356  0.1665 -0.0021
  234MPD1    C4 3552   3.198   0.610   9.833  0.4463 -0.1613 -0.6508
  234MPD1    C5 3553   3.205   0.513   9.938  0.7120 -0.1264  0.3486
  234MPD1     H 3554   3.159   0.887  10.014 -0.9861  0.3337 -2.9617
  234MPD1    H1 3555   3.206   0.572   9.731  0.7154 -0.4260 -0.5303
  234MPD1    H2 3556   3.214   0.485  10.146  1.9162 -0.2862 -0.8956
  234MPD1    H3 3557   3.215   0.406   9.921 -1.5536 -0.1055 -1.0696
  234MPD1     N 3558   3.180   0.838   9.757 -0.0954  0.5885 -0.6331
  234MPD1    H5 3559   3.176   0.934   9.790 -2.2760 -0.0282  0.9452
  234MPD1    N1 3560   3.164   0.722  10.231  0.2365 -0.0503  0.3795
  234MPD1    H6 3561   3.177   0.822  10.240 -1.9219  0.3296 -0.6690
  234MPD1    H7 3562   3.227   0.671  10.293  0.7451 -0.9658 -0.8989
  235MPD1     C 3563   4.004   4.054   9.888  0.4728  0.8268  0.3297
  235MPD1    C1 3564   3.992   4.161   9.801  0.2568 -0.9197 -0.7835
  235MPD1    C2 3565   4.097   4.237   9.778 -0.0602 -0.3154  0.2041
  235MPD1    C3 3566   4.219   4.206   9.836 -0.7836 -0.0810 -0.3411
  235MPD1    C4 3567   4.227   4.114   9.937 -0.6800 -0.3926 -0.3689
  235MPD1    C5 3568   4.118   4.038   9.962  0.1982 -0.0484  0.4682
  235MPD1     H 3569   4.088   4.311   9.699 -1.8162  0.6217  1.2780
  235MPD1    H1 3570   4.319   4.095   9.991 -1.0325  0.6353  0.6001
  235MPD1    H2 3571   3.917   3.991   9.905 -0.3768  1.5366 -1.3903
  235MPD1    H3 3572   4.119   3.947  10.020 -0.1653 -0.7415 -0.6080
  235MPD1     N 3573   4.337   4.273   9.789 -0.2129  0.1176  0.6860
  235MPD1    H5 3574   4.324   4.345   9.719 -2.4727 -1.0466 -0.0944
  235MPD1    N1 3575   3.881   4.166   9.712 -0.4332 -0.5985  0.1681
  235MPD1    H6 3576   3.792   4.139   9.753  0.1791  1.4180  2.8196
  235MPD1    H7 3577   3.860   4.253   9.664  1.5761 -0.3225 -0.2435
  236MPD1     C 3578   4.441   0.604  10.046 -0.2766  0.3271 -0.1732
  236MPD1    C1 3579   4.508   0.529   9.958 -0.6110 -0.8846 -0.1192
  236MPD1    C2 3580   4.567   0.412  10.004 -0.3171 -0.0434  0.4101
  236MPD1    C3 3581   4.546   0.370  10.136 -0.3984 -0.0803 -1.1777
  236MPD1    C4 3582   4.450   0.432  10.221  0.3421 -0.7433  0.1348
  236MPD1    C5 3583   4.405   0.549  10.169  0.0378  0.3931 -0.1088
  236MPD1     H 3584   4.637   0.359   9.940  0.3380  0.9683  0.2765
  236MPD1    H1 3585   4.415   0.407  10.320 -1.0903 -0.1282 -0.2106
  236MPD1    H2 3586   4.410   0.702  10.013 -1.4116 -0.1618 -0.5738
  236MPD1    H3 3587   4.341   0.607  10.235  0.5724  2.0737 -1.0441
  236MPD1     N 3588   4.607   0.252  10.188  0.0110  0.5405  1.3200
  236MPD1    H5 3589   4.578   0.223  10.281  0.4078 -1.2715  0.8803
  236MPD1    N1 3590   4.539   0.586   9.833 -0.1280  0.2845 -0.5286
  236MPD1    H6 3591   4.461   0.644   9.802 -1.0293 -0.8549 -0.4183
  236MPD1    H7 3592   4.544   0.507   9.768 -0.8330 -1.7062  1.8156
  237MPD1     C 3593   3.506   4.243  15.159 -0.4099  0.1033  0.5307
  237MPD1    C1 3594   3.546   4.118  15.203 -0.2453 -0.2879 -1.3702
  237MPD1    C2 3595   3.486   4.009  15.145 -0.2560  0.2871 -0.6029
  237MPD1    C3 3596   3.392   4.019  15.048  0.1656 -0.0910  0.4348
  237MPD1    C4 3597   3.365   4.144  14.998  0.1971 -0.3953 -0.0457
  237MPD1    C5 3598   3.412   4.260  15.056 -0.2572  0.0698 -0.1635
  237MPD1     H 3599   3.500   3.913  15.194 -0.8286  0.3998 -0.2112
  237MPD1    H1 3600   3.293   4.143  14.917 -0.3309  0.9130  0.4085
  237MPD1    H2 3601   3.547   4.339  15.189 -0.8511  0.0529  1.2956
  237MPD1    H3 3602   3.382   4.359  15.024  0.7167 -0.2471 -2.0368
  237MPD1     N 3603   3.303   3.919  15.010  0.2335  0.4225 -0.0259
  237MPD1    H5 3604   3.234   3.947  14.940 -0.5580 -1.2942  0.0740
  237MPD1    N1 3605   3.618   4.112  15.322  0.2168  0.4286  0.4288
  237MPD1    H6 3606   3.692   4.043  15.315 -0.5217 -0.1580 -1.6976
  237MPD1    H7 3607   3.662   4.201  15.346  1.2063  0.1516 -0.3861
  238MPD1     C 3608   0.899   2.160  14.924 -0.2421 -0.3078  0.2170
  238MPD1    C1 3609   0.801   2.227  14.994 -0.2940 -0.1752 -0.0200
  238MPD1    C2 3610   0.672   2.229  14.949  0.5002  0.0718  0.4942
  238MPD1    C3 3611   0.645   2.179  14.825 -0.4413  0.0330 -0.2498
  238MPD1    C4 3612   0.735   2.115  14.753  0.1005 -0.6812 -0.3747
  238MPD1    C5 3613   0.865   2.104  14.801 -0.8715 -0.1423 -0.2214
  238MPD1     H 3614   0.602   2.284  15.011 -1.2875 -0.3790 -1.1267
  238MPD1    H1 3615   0.712   2.082  14.652  1.3765 -2.7464  0.0081
  238MPD1    H2 3616   0.993   2.125  14.965 -0.4903  1.0299  1.8749
  238MPD1    H3 3617   0.940   2.072  14.729 -0.4188 -1.4244  0.8181
  238MPD1     N 3618   0.509   2.170  14.771 -0.0006  0.2716  0.1472
  238MPD1    H5 3619   0.503   2.125  14.680 -0.2787  0.5269  0.0377
  238MPD1    N1 3620   0.829   2.269  15.127  0.1489 -0.3760 -0.1778
  238MPD1    H6 3621   0.771   2.350  15.148 -0.0013 -0.5457  0.0678
  238MPD1    H7 3622   0.925   2.299  15.135  0.3706 -1.6331  1.9354
  239MPD1     C 3623   0.455   3.092  15.045  0.3110  0.6738 -0.1328
  239MPD1    C1 3624   0.348   3.023  14.983  0.1936 -0.0695 -0.1234
  239MPD1    C2 3625   0.286   3.084  14.869  0.5888 -0.0495  0.0554
  239MPD1    C3 3626   0.332   3.210  14.823  0.1467  0.3398 -0.5402
  239MPD1    C4 3627   0.436   3.274  14.891 -0.1178  0.6339  0.3193
  239MPD1    C5 3628   0.502   3.215  14.988  0.3711  0.0450  0.7823
  239MPD1     H 3629   0.213   3.031  14.809  0.5468 -1.7231  1.5714
  239MPD1    H1 3630   0.486   3.365  14.859 -0.0587  0.9572  1.3273
  239MPD1    H2 3631   0.506   3.048  15.131  1.8714  1.7310 -0.5105
  239MPD1    H3 3632   0.594   3.259  15.027  0.7581 -1.2504  1.3403
  239MPD1     N 3633   0.300   3.269  14.708  0.6877 -0.2055 -0.1966
  239MPD1    H5 3634   0.356   3.348  14.678 -1.7277  0.9521 -1.6795
  239MPD1    N1 3635   0.310   2.896  15.031 -0.7150 -0.1687  0.6314
  239MPD1    H6 3636   0.384   2.856  15.088 -0.4733 -2.0666 -1.0272
  239MPD1    H7 3637   0.280   2.834  14.956  1.2410  0.1878 -0.4545
  240MPD1     C 3638   0.145   2.991  13.431  0.0996  0.0811  0.0589
  240MPD1    C1 3639   0.034   2.911  13.457 -0.0177 -0.1404 -0.4510
  240MPD1    C2 3640   0.040   2.847  13.576 -0.6373 -0.0638  0.4940
  240MPD1    C3 3641   0.147   2.860  13.663  0.0870 -0.5066  0.1964
  240MPD1    C4 3642   0.254   2.940  13.629 -0.7634  0.2860 -0.0588
  240MPD1    C5 3643   0.241   3.017  13.524  0.1492  0.3461 -0.9284
  240MPD1     H 3644   4.674   2.788  13.599 -1.6861  0.5812 -1.8592
  240MPD1    H1 3645   0.346   2.951  13.684 -0.9689  2.3902 -0.1569
  240MPD1    H2 3646   0.160   3.046  13.339 -1.0936  1.0154  0.4208
  240MPD1    H3 3647   0.328   3.072  13.492  0.1368  2.4084  2.6346
  240MPD1     N 3648   0.153   2.784  13.780  0.4266  0.5031  0.2203
  240MPD1    H5 3649   0.074   2.724  13.800  2.1082 -1.2454  1.5687
  240MPD1    N1 3650   4.655   2.880  13.363 -0.3473 -0.0308 -0.8107
  240MPD1    H6 3651   4.565   2.848  13.398 -1.0556  2.8088 -0.0696
  240MPD1    H7 3652   4.648   2.966  13.309 -1.8241  0.9404  0.9315
  241MPD1     C 3653   0.693   2.527  14.690 -0.1777  0.1707 -0.0484
  241MPD1    C1 3654   0.730   2.504  14.558 -0.2298  0.2668 -0.1603
  241MPD1    C2 3655   0.632   2.505  14.458 -0.6393  0.3230 -0.2075
  241MPD1    C3 3656   0.494   2.520  14.490 -0.0640 -0.3317  1.0398
  241MPD1    C4 3657   0.460   2.529  14.625  0.0558  0.5057  0.1008
  241MPD1    C5 3658   0.562   2.526  14.719  0.2554  0.3530  0.2328
  241MPD1     H 3659   0.665   2.506  14.354  1.9345 -0.3346  0.6075
  241MPD1    H1 3660   0.357   2.546  14.656 -0.2905  0.2647 -0.9328
  241MPD1    H2 3661   0.768   2.546  14.766 -0.8516 -3.2453  1.4492
  241MPD1    H3 3662   0.544   2.554  14.822 -1.7006 -1.9777  0.5330
  241MPD1     N 3663   0.398   2.546  14.387  0.3410 -0.0720  0.0332
  241MPD1    H5 3664   0.300   2.536  14.413  0.5716 -2.0617  0.1524
  241MPD1    N1 3665   0.868   2.515  14.525  0.0811 -0.4947  0.1620
  241MPD1    H6 3666   0.888   2.456  14.445 -0.4860  1.4699 -1.4330
  241MPD1    H7 3667   0.926   2.484  14.603  2.1542 -1.3144 -1.6972
  242MPD1     C 3668   4.290   0.970  15.702 -0.1221  0.7768  0.0460
  242MPD1    C1 3669   4.188   1.055  15.658 -0.6454 -0.5061  0.2316
  242MPD1    C2 3670   4.214   1.104  15.525 -0.2031  0.1406  0.5337
  242MPD1    C3 3671   4.297   1.041  15.437  0.3920  0.5753 -0.7134
  242MPD1    C4 3672   4.360   0.930  15.481 -0.1805  0.4459  0.1274
  242MPD1    C5 3673   4.360   0.892  15.612  0.0937  0.0286  0.4747
  242MPD1     H 3674   4.150   1.182  15.486  0.4071  0.1490 -0.4417
  242MPD1    H1 3675   4.424   0.863  15.424 -2.5822 -2.5540  0.9724
  242MPD1    H2 3676   4.312   0.947  15.806  0.9360 -1.1318 -0.6038
  242MPD1    H3 3677   4.426   0.811  15.639  1.4809  0.2955 -2.1189
  242MPD1     N 3678   4.316   1.075  15.301  0.8613 -0.1914  0.3839
  242MPD1    H5 3679   4.387   1.026  15.248  0.4668 -0.9981  0.5877
  242MPD1    N1 3680   4.117   1.136  15.748  0.4354 -0.0797 -0.2406
  242MPD1    H6 3681   4.032   1.184  15.717 -0.6618 -0.8886  1.5096
  242MPD1    H7 3682   4.095   1.077  15.828 -1.6626  0.1798 -0.6217
  243MPD1     C 3683   2.079   4.402   0.306  0.0962  0.2033  0.4839
  243MPD1    C1 3684   2.091   4.536   0.293 -0.5136  0.2172  0.3430
  243MPD1    C2 3685   2.042   4.592   0.173  0.0150 -0.6484 -0.6055
  243MPD1    C3 3686   1.993   4.516   0.071  0.0572  0.1130  0.3051
  243MPD1    C4 3687   1.996   4.376   0.079  0.0488  0.1051  0.2199
  243MPD1    C5 3688   2.037   4.324   0.197 -0.0362  0.1644 -0.2506
  243MPD1     H 3689   2.053   4.699   0.162  0.2831 -0.5232  0.9014
  243MPD1    H1 3690   1.954   4.310   0.005 -1.9974  2.6060 -0.8537
  243MPD1    H2 3691   2.113   4.348   0.394  2.0370  1.3736  0.4447
  243MPD1    H3 3692   2.036   4.217   0.215  2.5663 -0.0758 -1.5538
  243MPD1     N 3693   1.941   4.588  17.648 -0.0721  0.8827  0.7073
  243MPD1    H5 3694   1.939   4.689  17.655 -0.7984  0.8726  0.6204
  243MPD1    N1 3695   2.125   4.627   0.395 -0.1331 -0.1484  0.1560
  243MPD1    H6 3696   2.178   4.573   0.463 -2.0743 -0.1731  1.6600
  243MPD1    H7 3697   2.169   4.715   0.370 -2.2048  1.1191  0.9677
  244MPD1     C 3698   1.140   0.418  17.542 -0.6479  0.2713 -0.1456
  244MPD1    C1 3699   1.171   0.423  17.409 -0.0993 -0.2253 -1.3874
  244MPD1    C2 3700   1.261   0.333  17.359 -0.0717  0.2637 -0.4021
  244MPD1    C3 3701   1.328   0.243  17.438 -0.9411  0.0341 -0.1756
  244MPD1    C4 3702   1.298   0.242  17.573  0.5896 -0.3129  0.1874
  244MPD1    C5 3703   1.199   0.325  17.620  0.1271  0.0685 -0.3657
  244MPD1     H 3704   1.291   0.323  17.255  0.1158 -1.6164 -0.1720
  244MPD1    H1 3705   1.339   0.180  17.651  0.6569 -1.4146 -0.7232
  244MPD1    H2 3706   1.057   0.477  17.580 -1.1785 -0.7401  0.2789
  244MPD1    H3 3707   1.186   0.323   0.035  1.2002 -2.1071 -0.2809
  244MPD1     N 3708   1.433   0.163  17.391  0.3910 -0.3493  0.7361
  244MPD1    H5 3709   1.438   0.163  17.290 -0.8444 -1.2961  0.6740
  244MPD1    N1 3710   1.084   0.491  17.317  0.2930 -0.1659  0.1646
  244MPD1    H6 3711   1.124   0.535  17.235 -1.7747  1.0429 -0.1715
  244MPD1    H7 3712   1.049   0.563  17.380  0.7411  0.1307  0.0701
  245MPD1     C 3713   2.758   1.039  12.528 -0.7546 -0.2527  0.0909
  245MPD1    C1 3714   2.882   1.091  12.520 -0.0896  0.3188 -0.0355
  245MPD1    C2 3715   2.967   1.090  12.634 -0.2065  0.8312 -0.0666
  245MPD1    C3 3716   2.928   1.028  12.752 -0.8438 -0.2004 -0.6286
  245MPD1    C4 3717   2.812   0.954  12.750 -0.2794  0.9212  0.8504
  245MPD1    C5 3718   2.726   0.965  12.640 -0.0792  0.3384 -0.2382
  245MPD1     H 3719   3.058   1.147  12.646  1.6516 -2.0612 -0.4525
  245MPD1    H1 3720   2.771   0.891  12.828 -0.7328  1.0544  0.7200
  245MPD1    H2 3721   2.687   1.040  12.446  1.6517 -0.3221 -1.9957
  245MPD1    H3 3722   2.626   0.922  12.642  0.9576 -1.9547  1.3454
  245MPD1     N 3723   3.022   1.029  12.864  0.2099 -0.1327 -0.3244
  245MPD1    H5 3724   3.098   1.096  12.863 -0.8045  1.0155 -1.5757
  245MPD1    N1 3725   2.927   1.159  12.405  0.3691 -0.1533  0.2110
  245MPD1    H6 3726   3.026   1.136  12.403  0.3307 -0.3885  0.9569
  245MPD1    H7 3727   2.888   1.121  12.319 -1.0167  0.2567  0.6564
  246MPD1     C 3728   3.093   4.542   9.046 -0.2294 -1.1492  0.0512
  246MPD1    C1 3729   3.183   4.646   9.035  0.0291 -0.4656  0.1579
  246MPD1    C2 3730   3.319   4.615   9.050 -0.6671 -0.5701 -0.0287
  246MPD1    C3 3731   3.355   4.482   9.062  0.1479  0.7592  0.3628
  246MPD1    C4 3732   3.257   4.381   9.055  0.1318 -0.0261 -0.2379
  246MPD1    C5 3733   3.130   4.413   9.043 -0.7797 -0.2574 -0.4516
  246MPD1     H 3734   3.395   4.692   9.052  0.2174 -1.5194  2.8455
  246MPD1    H1 3735   3.288   4.278   9.047  0.9651  0.2802 -0.8975
  246MPD1    H2 3736   2.986   4.559   9.039 -0.4987 -3.2211 -0.7521
  246MPD1    H3 3737   3.055   4.335   9.046 -0.5509 -0.4551  0.1933
  246MPD1     N 3738   3.491   4.439   9.058 -0.3433  0.5078  0.2510
  246MPD1    H5 3739   3.513   4.343   9.037 -0.9920  0.8324 -1.8975
  246MPD1    N1 3740   3.146   0.054   9.056  0.1385 -0.2969 -0.1704
  246MPD1    H6 3741   3.213   0.110   9.003  1.6283 -1.2917  0.6616
  246MPD1    H7 3742   3.056   0.079   9.017  0.0500  2.1500  1.6214
  247MPD1     C 3743   1.975   0.165  15.289  0.2283 -0.5869 -0.7238
  247MPD1    C1 3744   1.993   0.181  15.425 -0.1881 -0.0008 -0.5147
  247MPD1    C2 3745   2.100   0.116  15.483  0.2142 -0.2516  0.0652
  247MPD1    C3 3746   2.194   0.051  15.410 -1.0949  0.3183  0.1947
  247MPD1    C4 3747   2.184   0.056  15.270  0.5247  0.1137 -1.0490
  247MPD1    C5 3748   2.076   0.105  15.212  0.4319 -0.1378 -0.0200
  247MPD1     H 3749   2.096   0.129  15.590  2.0805  0.4694  0.0482
  247MPD1    H1 3750   2.263   0.016  15.208  2.0369  1.0864  0.2714
  247MPD1    H2 3751   1.884   0.202  15.244  0.4249  1.4470  0.5640
  247MPD1    H3 3752   2.073   0.105  15.104 -2.5941  2.2851  0.0580
  247MPD1     N 3753   2.305   4.709  15.475  0.5989 -0.1467 -0.3993
  247MPD1    H5 3754   2.379   4.671  15.418  2.6740  1.1942  1.3790
  247MPD1    N1 3755   1.888   0.232  15.502  0.6191  0.4599  0.5546
  247MPD1    H6 3756   1.833   0.304  15.456 -0.0216  0.5252  1.4160
  247MPD1    H7 3757   1.928   0.277  15.584 -0.6899  0.4996  1.1897
  248MPD1     C 3758   4.232   4.021   0.953 -0.7162  0.9648  0.1695
  248MPD1    C1 3759   4.224   4.053   1.087  0.4187 -0.5120  0.5804
  248MPD1    C2 3760   4.130   4.147   1.126 -0.0688  0.6320  0.0275
  248MPD1    C3 3761   4.062   4.214   1.024  0.2743  0.0483 -0.0960
  248MPD1    C4 3762   4.091   4.193   0.893  0.9131  0.4152  0.7877
  248MPD1    C5 3763   4.164   4.084   0.864  0.5487  0.1499 -0.6266
  248MPD1     H 3764   4.126   4.173   1.231  4.0495 -0.9948  0.6140
  248MPD1    H1 3765   4.042   4.247   0.813  1.1481 -1.4972 -0.6622
  248MPD1    H2 3766   4.302   3.948   0.915  0.1468  1.8840 -0.0179
  248MPD1    H3 3767   4.186   4.063   0.760 -0.8318  0.0235 -0.8997
  248MPD1     N 3768   3.976   4.311   1.071  0.3846  0.1127 -0.2261
  248MPD1    H5 3769   3.959   4.309   1.171 -0.7274  0.0274 -0.4141
  248MPD1    N1 3770   4.294   3.972   1.178 -0.1764 -0.1170 -0.1587
  248MPD1    H6 3771   4.384   3.944   1.139  0.0405  1.3645 -0.7016
  248MPD1    H7 3772   4.301   4.004   1.275 -1.8850  0.2329 -0.1494
  249MPD1     C 3773   0.410   3.379  11.604  0.0851 -0.3533 -0.8787
  249MPD1    C1 3774   0.465   3.423  11.484 -0.3765 -0.1902  0.0553
  249MPD1    C2 3775   0.492   3.332  11.375  0.3546  0.0792  0.2148
  249MPD1    C3 3776   0.470   3.199  11.389  0.3643 -0.2689  0.0415
  249MPD1    C4 3777   0.422   3.160  11.514  0.0832 -0.0847 -0.2728
  249MPD1    C5 3778   0.394   3.241  11.619 -0.1907 -0.0505  0.5609
  249MPD1     H 3779   0.530   3.368  11.280 -1.9377 -1.2102 -1.1885
  249MPD1    H1 3780   0.401   3.053  11.520  1.6524 -0.5011 -2.0691
  249MPD1    H2 3781   0.389   3.452  11.681 -2.2230  0.5835 -2.3934
  249MPD1    H3 3782   0.355   3.192  11.707 -0.1583 -0.4107  0.3733
  249MPD1     N 3783   0.492   3.113  11.279  0.2167 -0.4260 -0.1166
  249MPD1    H5 3784   0.512   3.151  11.187 -0.4275 -0.4144 -0.2547
  249MPD1    N1 3785   0.474   3.561  11.460  0.6024 -0.5281 -0.3910
  249MPD1    H6 3786   0.559   3.578  11.406  0.4789  0.8499 -0.1442
  249MPD1    H7 3787   0.492   3.622  11.539  0.1387 -2.1254  0.9503
  250MPD2     C 3788   0.985   3.527  13.122 -0.4259 -0.3904 -0.9678
  250MPD2    C1 3789   1.004   3.609  13.015 -0.6742 -0.6750  0.2675
  250MPD2    C2 3790   0.951   3.576  12.895 -0.2437 -0.4447 -0.0792
  250MPD2    C3 3791   0.873   3.460  12.880  0.1466 -0.8188 -0.2154
  250MPD2    C4 3792   0.848   3.383  12.990  0.1567 -0.4778 -0.2078
  250MPD2    C5 3793   0.908   3.411  13.107 -0.5705 -0.0199  0.2389
  250MPD2     H 3794   0.977   3.638  12.810  1.9954 -0.6050  0.4885
  250MPD2    H1 3795   0.787   3.294  12.979 -1.6509  0.9169 -1.7283
  250MPD2    H2 3796   1.032   3.540  13.219 -1.4324  0.9208 -0.6558
  250MPD2    H3 3797   0.896   3.344  13.191 -0.3300 -1.1212 -0.6116
  250MPD2     N 3798   0.816   3.415  12.757  0.2369  0.1231  0.2143
  250MPD2    H5 3799   0.766   3.327  12.761  1.0195 -0.3170  0.3605
  250MPD2    N1 3800   1.091   3.717  13.035  0.7511 -0.2254  0.0737
  250MPD2    H7 3801   1.106   3.745  13.132  0.0844  0.5551 -0.0506
  251TMC3    C1 3802   1.289   3.845  13.007  0.2848 -0.8587  0.4321
  251TMC3    C2 3803   1.266   3.936  13.106  0.0066  0.1180 -0.1565
  251TMC3    C3 3804   1.376   4.010  13.141  0.2322 -0.4770 -0.2902
  251TMC3    C4 3805   1.406   3.822  12.947 -0.1706 -0.3782 -0.1393
  251TMC3    C5 3806   1.514   3.900  12.988 -0.7937 -0.2609  0.7030
  251TMC3    C6 3807   1.501   3.999  13.086  0.3149 -0.0799  0.3760
  251TMC3     C 3808   1.179   3.769  12.948  0.1011 -0.2094 -0.6420
  251TMC3     O 3809   1.181   3.754  12.830  0.0383 -0.0639  0.0755
  251TMC3     H 3810   1.170   3.966  13.148 -0.4482  0.2643 -1.2996
  251TMC3    H1 3811   1.430   3.746  12.873  1.1312 -0.6372  0.5377
  251TMC3    H2 3812   1.587   4.039  13.137 -0.0104 -0.6905  1.4082
  251TMC3    C7 3813   1.644   3.853  12.949 -0.2297 -0.4671  0.5223
  251TMC3    C8 3814   1.354   4.128  13.217 -0.0411  0.0011  0.2051
  251TMC3    O1 3815   1.651   3.737  12.906 -0.0633 -0.2597 -0.5604
  251TMC3    O2 3816   1.273   4.129  13.305 -0.3236 -0.1014  0.5751
  252TMC3    C1 3817   2.213   4.352   9.206  1.3470 -0.0638 -0.2386
  252TMC3    C2 3818   2.322   4.433   9.198 -0.6821 -0.4523  0.1080
  252TMC3    C3 3819   2.301   4.570   9.188 -0.3414  0.2973 -0.1619
  252TMC3    C4 3820   2.083   4.399   9.214 -0.4705 -0.0190  0.5019
  252TMC3    C5 3821   2.076   4.539   9.206  0.6457 -0.1752 -0.2430
  252TMC3    C6 3822   2.175   4.623   9.191  0.3550 -0.1455  0.2916
  252TMC3     C 3823   2.215   4.209   9.166 -0.0867  0.6464  0.3923
  252TMC3     O 3824   2.117   4.157   9.119 -0.2089  0.7915  1.2822
  252TMC3     H 3825   2.417   4.385   9.181  0.6896  1.8150  1.4883
  252TMC3    H1 3826   1.996   4.334   9.208 -1.0494  0.8430 -0.4686
  252TMC3    H2 3827   2.146   0.004   9.195 -1.2036 -0.6584  2.1519
  252TMC3    C7 3828   1.948   4.605   9.221 -0.1616 -0.1883  0.3115
  252TMC3    C8 3829   2.404   4.662   9.231  0.2147  0.1943  1.4227
  252TMC3    O1 3830   1.935   0.004   9.218  0.7779 -0.1254 -0.2320
  252TMC3    O2 3831   2.386   0.058   9.208 -0.2117 -0.3231 -0.5753
  253MPD2     C 3832   2.915   3.894  15.254  0.1474  0.4487  0.1577
  253MPD2    C1 3833   2.778   3.881  15.246  0.1349 -0.9101 -0.0575
  253MPD2    C2 3834   2.705   3.861  15.367  0.2324 -0.5583 -0.0575
  253MPD2    C3 3835   2.776   3.852  15.487 -0.0644 -0.5249  0.3131
  253MPD2    C4 3836   2.911   3.854  15.488 -0.4416 -1.3794 -0.3538
  253MPD2    C5 3837   2.979   3.880  15.372  0.4611  0.2842  0.0155
  253MPD2     H 3838   2.597   3.850  15.362  0.0198  1.1933  0.6434
  253MPD2    H1 3839   2.969   3.845  15.579  0.0429  1.6788 -0.3543
  253MPD2    H2 3840   2.979   3.916  15.170  2.7067  2.2642  2.5990
  253MPD2    H3 3841   3.087   3.889  15.375  0.6376 -1.6956 -0.1539
  253MPD2     N 3842   2.710   3.829  15.610  0.1763 -0.2457 -0.2178
  253MPD2    H5 3843   2.771   3.815  15.690 -0.4916  0.9509  0.4991
  253MPD2    N1 3844   2.703   3.893  15.127 -0.4666 -0.0979 -0.6284
  253MPD2    H7 3845   2.611   3.850  15.124 -0.9210  0.8271  0.1803
  254TMC3    C1 3846   2.534   3.817  15.764  0.2376 -0.8539 -0.7805
  254TMC3    C2 3847   2.402   3.826  15.796 -0.1870 -0.6396  0.0727
  254TMC3    C3 3848   2.371   3.809  15.931  0.0385 -0.0848  0.9824
  254TMC3    C4 3849   2.635   3.801  15.863 -0.0552 -0.5097  0.6604
  254TMC3    C5 3850   2.593   3.775  15.990  0.0395 -0.0433 -0.0332
  254TMC3    C6 3851   2.464   3.770  16.033  0.1936 -0.3730 -0.0829
  254TMC3     C 3852   2.573   3.821  15.626 -0.3204 -0.9378 -0.5263
  254TMC3     O 3853   2.478   3.815  15.552 -0.3426 -0.3177  0.2009
  254TMC3     H 3854   2.323   3.859  15.729 -0.6368  1.6302  1.7175
  254TMC3    H1 3855   2.741   3.817  15.847 -0.6703  3.0941  0.2514
  254TMC3    H2 3856   2.437   3.765  16.138  2.9199 -0.3781  0.6227
  254TMC3    C7 3857   2.693   3.790  16.094  0.3913  0.2480  0.8686
  254TMC3    C8 3858   2.243   3.849  15.983 -0.7317  0.1551  0.5618
  254TMC3    O1 3859   2.654   3.836  16.202 -0.0875 -0.1528  0.1974
  254TMC3    O2 3860   2.221   3.810  16.098 -0.4171 -0.3542  0.4128
  255MPD2     C 3861   1.570   1.208   9.857  0.1997  0.8017 -0.1602
  255MPD2    C1 3862   1.646   1.319   9.825 -0.9541  0.3367 -0.0670
  255MPD2    C2 3863   1.762   1.315   9.752 -0.0918 -0.1038 -0.2552
  255MPD2    C3 3864   1.793   1.191   9.701 -0.3296 -0.7888  0.0114
  255MPD2    C4 3865   1.719   1.079   9.730  0.9279  0.2075 -0.7553
  255MPD2    C5 3866   1.608   1.083   9.809 -0.7619  0.3383 -0.3994
  255MPD2     H 3867   1.824   1.398   9.720 -1.6069  1.7937  1.7554
  255MPD2    H1 3868   1.742   0.980   9.693 -0.3103  0.5823 -2.5547
  255MPD2    H2 3869   1.479   1.215   9.915  1.4702 -3.5978  2.3228
  255MPD2    H3 3870   1.556   0.993   9.841  1.0103 -1.2350 -1.9560
  255MPD2     N 3871   1.904   1.194   9.609 -0.9644  0.5988  0.0879
  255MPD2    H5 3872   1.966   1.274   9.620  1.1087 -1.3420  2.3894
  255MPD2    N1 3873   1.591   1.441   9.862  0.2559 -0.1297  0.2808
  255MPD2    H7 3874   1.502   1.431   9.910  0.8300  1.0073  1.5695
  256TMC3    C1 3875   1.567   1.674   9.849  0.4686  0.3198 -0.4321
  256TMC3    C2 3876   1.647   1.786   9.833  0.6926  0.0105 -0.5597
  256TMC3    C3 3877   1.621   1.879   9.735 -0.4934  0.0418 -0.0300
  256TMC3    C4 3878   1.461   1.655   9.758  1.2302  0.6269 -1.1293
  256TMC3    C5 3879   1.435   1.759   9.664 -0.6983  0.6820  0.5122
  256TMC3    C6 3880   1.515   1.866   9.653  0.1770  0.5982 -0.1235
  256TMC3     C 3881   1.657   1.562   9.864  0.1723  0.0969 -0.9363
  256TMC3     O 3882   1.777   1.575   9.853  0.4011  0.1462 -0.3662
  256TMC3     H 3883   1.725   1.811   9.904  0.3728 -0.0198 -0.2028
  256TMC3    H1 3884   1.406   1.562   9.752  0.7222  1.0702 -3.1613
  256TMC3    H2 3885   1.491   1.941   9.578  1.1467  1.4453  0.4249
  256TMC3    C7 3886   1.306   1.771   9.609 -0.4638  0.3252  0.0507
  256TMC3    C8 3887   1.740   1.946   9.689 -0.4668  0.7605  0.1871
  256TMC3    O1 3888   1.295   1.820   9.499 -0.0254  0.3486 -0.1448
  256TMC3    O2 3889   1.839   1.938   9.761  0.2161 -0.7304  0.3822
  257MPD2     C 3890   0.291   3.823  13.376 -0.1271 -0.0625 -0.2100
  257MPD2    C1 3891   0.254   3.737  13.277 -1.1799 -0.3761 -0.9347
  257MPD2    C2 3892   0.214   3.605  13.311  0.7303  0.6640  0.0458
  257MPD2    C3 3893   0.210   3.566  13.448 -0.2116 -0.7003 -0.3275
  257MPD2    C4 3894   0.233   3.667  13.546 -0.0346 -0.2493  0.3904
  257MPD2    C5 3895   0.277   3.794  13.505  0.9342  0.1343  0.1037
  257MPD2     H 3896   0.184   3.527  13.242  2.5193  0.1202 -0.1300
  257MPD2    H1 3897   0.213   3.643  13.650  0.6287  0.4553  0.6825
  257MPD2    H2 3898   0.311   3.928  13.356  2.6638 -0.4520  0.6457
  257MPD2    H3 3899   0.291   3.877  13.573 -1.9305  1.7420 -1.2870
  257MPD2     N 3900   0.163   3.438  13.483 -0.3158 -0.2265  0.2244
  257MPD2    H5 3901   0.154   3.373  13.405 -1.9411 -1.3761  1.3628
  257MPD2    N1 3902   0.243   3.784  13.146  0.6379 -0.0064  0.3375
  257MPD2    H7 3903   0.253   3.883  13.124 -0.4771 -0.3339 -1.6891
  258TMC3    C1 3904   0.060   3.277  13.608 -0.0220 -0.5716  0.1991
  258TMC3    C2 3905   4.682   3.283  13.519  0.0944 -0.1610  0.4372
  258TMC3    C3 3906   4.568   3.220  13.560 -0.3386 -0.3670  0.3470
  258TMC3    C4 3907   0.058   3.212  13.733  0.0061 -0.0666  0.5604
  258TMC3    C5 3908   4.670   3.148  13.763 -1.0675 -0.0863  0.1376
  258TMC3    C6 3909   4.563   3.152  13.676 -0.4896 -0.1481 -0.6662
  258TMC3     C 3910   0.156   3.386  13.611  1.0148 -0.3704 -0.5393
  258TMC3     O 3911   0.184   3.424  13.723 -0.6717 -0.8661 -0.5595
  258TMC3     H 3912   4.686   3.346  13.432 -0.9194 -0.6615  0.0290
  258TMC3    H1 3913   0.147   3.213  13.795  2.7438 -1.2299 -3.3556
  258TMC3    H2 3914   4.470   3.098  13.690 -0.3307 -0.6041 -1.3440
  258TMC3    C7 3915   4.651   3.089  13.889  0.7719 -0.0274  0.7673
  258TMC3    C8 3916   4.451   3.214  13.466  0.1227  0.8888 -0.0701
  258TMC3    O1 3917   4.549   3.024  13.897  0.0745 -0.3120  0.2713
  258TMC3    O2 3918   4.469   3.212  13.345 -0.4281  0.5306  0.2488
  259MPD2     C 3919   3.394   0.691   1.130  0.6024 -0.7026  0.4140
  259MPD2    C1 3920   3.516   0.640   1.111 -0.5170  0.5937 -0.1640
  259MPD2    C2 3921   3.575   0.633   0.989  0.5788  0.0737  0.0701
  259MPD2    C3 3922   3.507   0.687   0.880 -0.0961  0.5271 -0.2222
  259MPD2    C4 3923   3.377   0.733   0.901 -0.5485  1.1904  0.6479
  259MPD2    C5 3924   3.320   0.727   1.023  0.2469 -0.4537 -0.5244
  259MPD2     H 3925   3.677   0.598   0.981  0.2998 -0.4456 -1.2668
  259MPD2    H1 3926   3.326   0.775   0.814 -0.0064 -0.8908 -0.6572
  259MPD2    H2 3927   3.346   0.692   1.226  0.6871 -2.0164  0.4628
  259MPD2    H3 3928   3.216   0.751   1.042  0.5505 -0.5347  1.2823
  259MPD2     N 3929   3.570   0.693   0.757  0.3833  0.2270 -0.3575
  259MPD2    H5 3930   3.665   0.656   0.758  0.8681  1.5274  2.0530
  259MPD2    N1 3931   3.581   0.606   1.228  0.0215  1.0332 -0.2000
  259MPD2    H7 3932   3.528   0.616   1.313 -1.4693 -0.6895 -0.9106
  260TMC3    C1 3933   3.626   0.772   0.535  0.6134  1.1407  0.3604
  260TMC3    C2 3934   3.640   0.884   0.454  0.0679  0.0599  0.4160
  260TMC3    C3 3935   3.715   0.878   0.339 -0.0030 -0.1555 -0.5804
  260TMC3    C4 3936   3.704   0.655   0.522  0.1230  0.8038  0.3227
  260TMC3    C5 3937   3.780   0.654   0.410  0.3745  0.3370  0.0807
  260TMC3    C6 3938   3.777   0.759   0.315 -0.0382  0.1595  0.2587
  260TMC3     C 3939   3.531   0.774   0.647 -0.9340 -0.3703 -0.7887
  260TMC3     O 3940   3.432   0.841   0.632 -0.0853 -0.2980  0.0710
  260TMC3     H 3941   3.580   0.972   0.473  1.1105  0.8206  0.1723
  260TMC3    H1 3942   3.695   0.566   0.583 -1.6992 -0.9934 -2.6073
  260TMC3    H2 3943   3.858   0.758   0.242  0.6246  2.9971  0.9926
  260TMC3    C7 3944   3.879   0.549   0.393  0.1208  0.3162  0.2621
  260TMC3    C8 3945   3.817   0.977   0.327 -0.6233 -0.4608 -0.6327
  260TMC3    O1 3946   3.938   0.543   0.288 -0.1857  0.2598  0.2910
  260TMC3    O2 3947   3.845   1.019   0.214  0.0592 -0.2175 -0.0557
  261MPD2     C 3948   1.029   3.221  11.953  0.4740  0.5334  0.1141
  261MPD2    C1 3949   1.004   3.345  12.014  0.1102  0.4753  0.3443
  261MPD2    C2 3950   1.041   3.456  11.945 -0.4517  0.1768  0.0455
  261MPD2    C3 3951   1.118   3.459  11.829  0.1384  0.2457 -0.6947
  261MPD2    C4 3952   1.145   3.333  11.776 -0.0275 -0.7750  0.1085
  261MPD2    C5 3953   1.093   3.218  11.830  0.4498 -0.2251  0.6863
  261MPD2     H 3954   1.022   3.556  11.983  3.0637  1.4062 -1.4382
  261MPD2    H1 3955   1.214   3.323  11.693  0.5005 -1.9674  0.6864
  261MPD2    H2 3956   0.995   3.124  11.986 -0.5585  0.8292 -0.0833
  261MPD2    H3 3957   1.122   3.123  11.786  0.0580  1.0020 -2.2066
  261MPD2     N 3958   1.158   3.583  11.776  0.5858 -0.6228  0.2883
  261MPD2    H5 3959   1.140   3.662  11.837  0.8866 -1.5495  1.5880
  261MPD2    N1 3960   0.929   3.358  12.138 -0.1911 -0.1808  0.0866
  261MPD2    H7 3961   0.902   3.452  12.168 -3.1284 -0.2957 -2.2256
  262TMC3    C1 3962   1.258   3.721  11.630  0.3551 -0.6957 -0.0872
  262TMC3    C2 3963   1.175   3.828  11.662 -0.9772 -0.7303 -0.0029
  262TMC3    C3 3964   1.212   3.959  11.629  1.2573  0.5587  0.1072
  262TMC3    C4 3965   1.362   3.742  11.557  0.3945 -0.3650  0.2989
  262TMC3    C5 3966   1.394   3.865  11.527  0.5904 -0.0421  0.1102
  262TMC3    C6 3967   1.328   3.979  11.560  0.1057  0.1232  0.1948
  262TMC3     C 3968   1.216   3.591  11.657 -0.5825  0.7080 -0.4567
  262TMC3     O 3969   1.242   3.509  11.573 -0.2138 -0.3117  0.3444
  262TMC3     H 3970   1.078   3.808  11.705 -0.4493  0.0549  1.5612
  262TMC3    H1 3971   1.421   3.653  11.537 -0.9890 -1.0621 -0.7337
  262TMC3    H2 3972   1.369   4.077  11.541  2.0197 -0.7399 -0.1062
  262TMC3    C7 3973   1.526   3.879  11.462  0.6959 -0.5181  0.2620
  262TMC3    C8 3974   1.146   4.076  11.682  0.1243  0.4106 -0.4788
  262TMC3    O1 3975   1.576   3.771  11.435 -0.2850  0.1679 -0.3876
  262TMC3    O2 3976   1.189   4.183  11.643 -0.5007 -0.6691  1.1266
  263MPD2     C 3977   1.871   3.142  11.497  0.3487  0.4823  0.2881
  263MPD2    C1 3978   1.981   3.092  11.427 -0.1834 -0.7928  0.5179
  263MPD2    C2 3979   2.008   3.148  11.300 -0.5117  0.1825 -0.4928
  263MPD2    C3 3980   1.942   3.255  11.247  0.3546 -1.1826  0.0798
  263MPD2    C4 3981   1.832   3.306  11.317 -0.1214  0.0389 -0.3143
  263MPD2    C5 3982   1.806   3.254  11.442  0.0133  0.2221  0.5490
  263MPD2     H 3983   2.087   3.112  11.234  0.7744 -1.4053  1.9394
  263MPD2    H1 3984   1.759   3.380  11.287  0.9124  1.7235  1.3329
  263MPD2    H2 3985   1.850   3.104  11.596 -1.6832  0.5449 -0.1324
  263MPD2    H3 3986   1.720   3.302  11.486 -0.6879 -0.2815 -0.2683
  263MPD2     N 3987   1.996   3.304  11.128 -0.0412  0.0807  0.6739
  263MPD2    H5 3988   2.074   3.256  11.085 -0.0530 -0.6095  1.4151
  263MPD2    N1 3989   2.051   2.986  11.489  0.3485  0.3317  0.1929
  263MPD2    H7 3990   2.004   2.948  11.571 -0.3840  1.6668  0.3896
  264TMC3    C1 3991   2.025   3.445  10.943  0.8084  0.0694  0.1192
  264TMC3    C2 3992   2.030   3.576  10.907  0.1815 -0.3876  0.3983
  264TMC3    C3 3993   2.071   3.609  10.781  0.9658  0.2762  0.8343
  264TMC3    C4 3994   2.046   3.338  10.857  0.2563  0.6841 -0.3356
  264TMC3    C5 3995   2.090   3.374  10.729 -0.1097  0.4354  0.0200
  264TMC3    C6 3996   2.112   3.504  10.699 -0.7530  0.3200  0.1971
  264TMC3     C 3997   1.955   3.419  11.064  0.7905 -0.2248 -0.1992
  264TMC3     O 3998   1.873   3.503  11.107  0.3245  0.4764 -0.1569
  264TMC3     H 3999   2.030   3.647  10.989 -1.2468  1.2707 -1.0206
  264TMC3    H1 4000   2.001   3.240  10.871  3.0577 -0.3668  1.1648
  264TMC3    H2 4001   2.153   3.531  10.602  0.4872  0.6115  0.7993
  264TMC3    C7 4002   2.176   3.276  10.657  0.5854 -0.2682 -1.0135
  264TMC3    C8 4003   2.116   3.743  10.748 -0.9644  0.1186  0.1584
  264TMC3    O1 4004   2.261   3.325  10.580 -0.0586  0.2846  0.7094
  264TMC3    O2 4005   2.192   3.747  10.658 -0.3254  0.2701 -0.6537
  265MPD2     C 4006   4.060   3.349  15.634 -0.5930  0.4917  0.0028
  265MPD2    C1 4007   4.035   3.440  15.526  0.1168  0.0276 -0.3576
  265MPD2    C2 4008   4.033   3.390  15.403 -0.8319 -0.0546 -0.8745
  265MPD2    C3 4009   4.062   3.255  15.380 -0.1927  0.0318  0.9017
  265MPD2    C4 4010   4.091   3.170  15.482  0.1796 -0.4619 -0.0262
  265MPD2    C5 4011   4.083   3.220  15.611 -0.1806  0.2443  0.4099
  265MPD2     H 4012   4.008   3.455  15.320 -0.9038  1.6475  0.4820
  265MPD2    H1 4013   4.130   3.069  15.476  0.5417 -0.3374  0.1919
  265MPD2    H2 4014   4.064   3.372  15.740  0.3342 -2.0242  0.5165
  265MPD2    H3 4015   4.092   3.152  15.696 -1.3347 -1.1290 -0.5814
  265MPD2     N 4016   4.057   3.197  15.249 -0.1451  0.1107 -0.2141
  265MPD2    H5 4017   4.090   3.102  15.238 -1.6545 -0.5149  0.5969
  265MPD2    N1 4018   3.999   3.574  15.547  0.1319 -0.1052  0.1875
  265MPD2    H7 4019   4.009   3.637  15.468  2.4654 -0.1680  0.4191
  266TMC3    C1 4020   4.004   3.758  15.698  0.9604  0.1394  0.7209
  266TMC3    C2 4021   4.055   3.791  15.816  0.3362 -0.5779 -0.5407
  266TMC3    C3 4022   4.094   3.925  15.846  0.1361 -0.2076 -0.3701
  266TMC3    C4 4023   3.999   3.849  15.597  0.3861 -0.3800  1.0758
  266TMC3    C5 4024   4.036   3.974  15.624 -0.4519 -0.3111  0.8635
  266TMC3    C6 4025   4.087   4.015  15.745 -0.5006 -0.0122  1.3284
  266TMC3     C 4026   3.979   3.621  15.675  0.7180 -0.5007  0.6110
  266TMC3     O 4027   3.938   3.562  15.774  0.6551  0.5481 -0.2763
  266TMC3     H 4028   4.047   3.725  15.902 -0.6713 -0.3558 -0.4653
  266TMC3    H1 4029   3.960   3.815  15.502  1.0121 -0.3867  0.8209
  266TMC3    H2 4030   4.137   4.110  15.762 -0.4272  0.3151 -0.7744
  266TMC3    C7 4031   4.023   4.071  15.514 -0.2868  0.6182 -0.6013
  266TMC3    C8 4032   4.163   3.938  15.974  0.1985 -0.9145 -0.1553
  266TMC3    O1 4033   3.962   4.042  15.418 -0.0840  0.2161  0.0519
  266TMC3    O2 4034   4.211   3.835  16.020 -0.2846  0.0985 -0.3516
  267MPD2     C 4035   1.083   0.606   0.140 -0.0893 -0.5432 -0.5719
  267MPD2    C1 4036   1.131   0.523   0.241 -0.1446  0.8270 -0.1221
  267MPD2    C2 4037   1.044   0.471   0.332 -0.3210  0.1631  0.2009
  267MPD2    C3 4038   0.906   0.468   0.311 -1.0983 -0.0883  0.7450
  267MPD2    C4 4039   0.858   0.523   0.197 -0.0181  0.3517 -0.0865
  267MPD2    C5 4040   0.943   0.602   0.121 -0.4138 -0.1811 -0.6613
  267MPD2     H 4041   1.073   0.407   0.414  2.1488 -0.3104 -1.0403
  267MPD2    H1 4042   0.755   0.531   0.165  0.2187  2.3952 -0.3761
  267MPD2    H2 4043   1.146   0.649   0.063  1.7403  1.3698  1.9983
  267MPD2    H3 4044   0.905   0.656   0.035 -0.6471  1.2460  0.3317
  267MPD2     N 4045   0.810   0.404   0.400  0.2821 -0.6856  0.0590
  267MPD2    H5 4046   0.718   0.390   0.360  0.5848 -0.7110 -0.6253
  267MPD2    N1 4047   1.270   0.499   0.247  0.2567  0.6587 -0.6403
  267MPD2    H7 4048   1.330   0.550   0.183  0.1311  0.0246 -1.2536
  268TMC3    C1 4049   1.468   0.364   0.282 -0.1234 -0.4953  0.9442
  268TMC3    C2 4050   1.537   0.431   0.182 -0.7415 -0.8585 -0.5770
  268TMC3    C3 4051   1.649   0.361   0.123  0.4816 -0.3685  0.0437
  268TMC3    C4 4052   1.517   0.247   0.336  0.3028  0.1198  0.3702
  268TMC3    C5 4053   1.634   0.196   0.293  0.2752  0.0014  0.1198
  268TMC3    C6 4054   1.690   0.244   0.177  0.2129 -0.1321  0.6902
  268TMC3     C 4055   1.334   0.403   0.323 -0.1993 -0.2618  0.8362
  268TMC3     O 4056   1.300   0.359   0.430  0.5285  0.4141 -0.3069
  268TMC3     H 4057   1.497   0.522   0.139  0.5090  0.3090  0.7679
  268TMC3    H1 4058   1.478   0.207   0.429 -4.1257  2.4569 -0.5324
  268TMC3    H2 4059   1.761   0.183   0.122  0.6851  0.4169  0.6929
  268TMC3    C7 4060   1.638   0.054   0.315 -0.2687 -0.3465  0.0545
  268TMC3    C8 4061   1.670   0.393  17.679 -0.1924  0.0371 -0.7445
  268TMC3    O1 4062   1.622   0.019   0.435 -0.0055 -0.0477  0.0676
  268TMC3    O2 4063   1.774   0.348  17.630 -0.4043  0.2061 -0.5914
  269MPD2     C 4064   1.728   3.850  15.506  0.2435  0.6788  0.0479
  269MPD2    C1 4065   1.612   3.881  15.578 -0.2053  0.2616  0.1232
  269MPD2    C2 4066   1.567   4.008  15.578 -0.0174  0.6420 -0.5358
  269MPD2    C3 4067   1.631   4.115  15.512  0.5586  0.2495  0.0756
  269MPD2    C4 4068   1.742   4.085  15.441  0.3409 -0.2839 -0.0200
  269MPD2    C5 4069   1.789   3.954  15.443 -0.2705  0.8143  0.0622
  269MPD2     H 4070   1.476   4.029  15.633 -0.1565  0.6360 -0.7642
  269MPD2    H1 4071   1.803   4.159  15.389  0.0742 -0.2344 -0.2580
  269MPD2    H2 4072   1.775   3.753  15.510 -1.2850 -0.1232 -1.7150
  269MPD2    H3 4073   1.882   3.935  15.391 -1.5587 -1.6771 -1.3205
  269MPD2     N 4074   1.572   4.248  15.508  0.2634 -0.0105 -0.6645
  269MPD2    H5 4075   1.484   4.268  15.554  0.3719  0.5033 -0.6760
  269MPD2    N1 4076   1.560   3.780  15.656 -0.7324  0.2105  0.2181
  269MPD2    H7 4077   1.606   3.690  15.649 -2.1810 -0.7224  2.7110
  270TMC3    C1 4078   1.418   3.648  15.790  0.0712  0.6570  0.0851
  270TMC3    C2 4079   1.289   3.604  15.769 -0.0731 -0.0037 -0.5240
  270TMC3    C3 4080   1.265   3.474  15.748  0.0866  0.0721 -0.3864
  270TMC3    C4 4081   1.525   3.556  15.809  0.2010 -0.1260  0.1023
  270TMC3    C5 4082   1.486   3.423  15.798 -0.9787  0.2417  0.2565
  270TMC3    C6 4083   1.361   3.378  15.765  0.1286  0.0269  0.3910
  270TMC3     C 4084   1.453   3.782  15.741 -0.9861 -0.0105  0.4850
  270TMC3     O 4085   1.374   3.873  15.766  0.2283 -0.0305 -0.2332
  270TMC3     H 4086   1.217   3.684  15.757  0.1413  0.2797  0.0948
  270TMC3    H1 4087   1.627   3.591  15.822 -0.3159  1.0902  0.8489
  270TMC3    H2 4088   1.343   3.273  15.747  0.2592  0.1446 -0.3926
  270TMC3    C7 4089   1.592   3.326  15.818 -0.4001  0.0300 -0.7387
  270TMC3    C8 4090   1.152   3.446  15.668 -0.4917 -0.6077  0.6012
  270TMC3    O1 4091   1.707   3.365  15.818 -0.3259 -0.4841  0.7603
  270TMC3    O2 4092   1.049   3.512  15.686  0.9371 -0.4927  0.1002
  271MPD2     C 4093   0.825   3.768  13.952  0.6232 -0.4103  0.4233
  271MPD2    C1 4094   0.745   3.695  14.033  0.4012  0.3965 -0.6103
  271MPD2    C2 4095   0.604   3.707  14.024 -0.1129  0.2960  0.4194
  271MPD2    C3 4096   0.553   3.792  13.933  0.6390 -0.3222 -0.6355
  271MPD2    C4 4097   0.631   3.867  13.858 -0.2663  0.1973  0.2719
  271MPD2    C5 4098   0.770   3.856  13.865 -0.1311  0.1172 -0.0962
  271MPD2     H 4099   0.538   3.650  14.088 -2.9053  1.7533 -1.1425
  271MPD2    H1 4100   0.591   3.941  13.790 -2.2322 -2.7993 -1.7920
  271MPD2    H2 4101   0.931   3.746  13.943  0.9155  1.0519  0.3975
  271MPD2    H3 4102   0.832   3.907  13.793 -1.3312  1.4800 -0.1746
  271MPD2     N 4103   0.415   3.818  13.913 -0.4616 -0.2499  0.4801
  271MPD2    H5 4104   0.383   3.899  13.862  1.1310 -1.9116 -3.1342
  271MPD2    N1 4105   0.800   3.611  14.133  0.2697 -0.5194 -0.0940
  271MPD2    H7 4106   0.738   3.557  14.193 -0.6655 -0.2677 -0.8198
  272TMC3    C1 4107   0.957   3.503  14.258  0.2783  0.2253  0.2490
  272TMC3    C2 4108   1.077   3.438  14.254 -0.0642  0.1407  0.2309
  272TMC3    C3 4109   1.112   3.351  14.354  0.2215 -0.5180 -0.1705
  272TMC3    C4 4110   0.870   3.488  14.360 -0.0175  0.8625 -0.0932
  272TMC3    C5 4111   0.919   3.420  14.468 -0.3562  0.1658 -0.0096
  272TMC3    C6 4112   1.034   3.338  14.468 -0.4130  0.2679 -0.2065
  272TMC3     C 4113   0.934   3.585  14.147 -0.3011  0.0933  0.1004
  272TMC3     O 4114   1.032   3.611  14.077  0.3540 -0.0354  0.5816
  272TMC3     H 4115   1.133   3.438  14.161 -0.9293 -0.7616 -0.2843
  272TMC3    H1 4116   0.787   3.556  14.375  0.6654  1.1685  2.2898
  272TMC3    H2 4117   1.051   3.271  14.551 -1.8950  1.3987  1.0047
  272TMC3    C7 4118   0.851   3.452  14.592  0.2278 -0.0498 -0.2704
  272TMC3    C8 4119   1.215   3.240  14.323  0.7250  0.5427  0.4564
  272TMC3    O1 4120   0.733   3.480  14.588 -0.4193 -0.0006  0.3198
  272TMC3    O2 4121   1.259   3.228  14.210 -0.0483  0.6640 -0.6522
  273MPD2     C 4122   2.893   2.057  11.940  0.4868 -0.0807 -0.1840
  273MPD2    C1 4123   2.907   1.952  11.854 -0.1737  0.1524  0.5233
  273MPD2    C2 4124   2.963   1.968  11.728 -1.0597 -0.9841  0.1378
  273MPD2    C3 4125   2.996   2.097  11.681  0.2286 -0.7927 -0.0052
  273MPD2    C4 4126   2.984   2.201  11.766  0.6885  0.0900  0.2768
  273MPD2    C5 4127   2.938   2.178  11.890  0.0383  0.1104  0.2122
  273MPD2     H 4128   2.972   1.886  11.657 -1.1367 -0.3019 -0.6660
  273MPD2    H1 4129   3.017   2.302  11.744  2.0031 -1.0302 -2.8399
  273MPD2    H2 4130   2.873   2.048  12.046 -2.0512 -2.4215 -0.8479
  273MPD2    H3 4131   2.947   2.259  11.961  0.6232  0.5519 -0.3592
  273MPD2     N 4132   3.047   2.123  11.555 -0.6718 -0.1340  0.0490
  273MPD2    H5 4133   3.088   2.214  11.539 -0.5060 -0.5242 -1.6772
  273MPD2    N1 4134   2.862   1.821  11.897  0.4477 -1.0123  0.0693
  273MPD2    H7 4135   2.846   1.807  11.996  1.4344 -3.6492 -0.1648
  274TMC3    C1 4136   3.087   2.092  11.329 -1.0438  0.3300  0.5237
  274TMC3    C2 4137   3.063   2.008  11.225  0.0871 -0.0942  0.3391
  274TMC3    C3 4138   3.039   2.056  11.111 -0.6400  0.7688  0.5477
  274TMC3    C4 4139   3.095   2.233  11.315 -0.4039 -0.8027  0.0153
  274TMC3    C5 4140   3.076   2.277  11.184 -0.2389  0.5960 -0.1655
  274TMC3    C6 4141   3.059   2.190  11.081 -0.2604 -0.5288 -0.2449
  274TMC3     C 4142   3.040   2.033  11.451 -0.1579  0.1472  0.2509
  274TMC3     O 4143   2.985   1.922  11.439  0.2700 -0.2137  0.2796
  274TMC3     H 4144   3.057   1.900  11.240 -3.2384  0.0314 -0.2117
  274TMC3    H1 4145   3.104   2.309  11.393  1.9328 -2.0898  1.0030
  274TMC3    H2 4146   3.023   2.234  10.989 -1.1760 -1.2227 -0.2113
  274TMC3    C7 4147   3.037   2.413  11.158  0.1210  0.4460  0.3069
  274TMC3    C8 4148   2.958   1.973  11.019 -0.6247 -0.2703 -0.3571
  274TMC3    O1 4149   3.081   2.457  11.052  0.1423  0.5258  0.0236
  274TMC3    O2 4150   2.885   1.893  11.071 -0.0217  0.1291 -0.3612
  275MPD2     C 4151   2.613   4.298  14.526  0.5448  0.2058 -0.6556
  275MPD2    C1 4152   2.509   4.377  14.497 -0.4616 -0.7735 -1.0003
  275MPD2    C2 4153   2.386   4.330  14.520 -0.0859  0.4817  0.5183
  275MPD2    C3 4154   2.365   4.197  14.556 -0.0784  0.1363  0.3738
  275MPD2    C4 4155   2.467   4.117  14.574  0.4977 -0.1087  0.2662
  275MPD2    C5 4156   2.590   4.170  14.563  0.2673 -0.2076 -1.2866
  275MPD2     H 4157   2.303   4.399  14.510 -1.1833 -0.8809  0.2786
  275MPD2    H1 4158   2.461   4.010  14.593  0.1625  0.4545  3.2940
  275MPD2    H2 4159   2.717   4.326  14.516  0.6311 -0.2710 -1.1296
  275MPD2    H3 4160   2.680   4.112  14.579 -1.2535 -1.7427  1.6435
  275MPD2     N 4161   2.235   4.140  14.564 -0.0786  0.3977  0.5462
  275MPD2    H5 4162   2.228   4.045  14.597  1.0905 -0.4451 -1.7268
  275MPD2    N1 4163   2.522   4.513  14.455 -0.0252 -0.3118 -0.2029
  275MPD2    H7 4164   2.440   4.560  14.421  0.2675 -0.3845 -1.0113
  276TMC3    C1 4165   2.600   0.007  14.444  0.4863 -0.3431  0.3138
  276TMC3    C2 4166   2.482   0.047  14.498  0.2672  0.4141  0.2453
  276TMC3    C3 4167   2.469   0.163  14.567  0.2720 -0.4193  0.3938
  276TMC3    C4 4168   2.705   0.094  14.451  0.4470 -0.3054 -0.0655
  276TMC3    C5 4169   2.696   0.210  14.514  0.0296 -0.1908 -0.0392
  276TMC3    C6 4170   2.576   0.247  14.569 -0.3486 -0.7297 -0.4106
  276TMC3     C 4171   2.636   4.591  14.443  1.0570 -0.4440  0.0245
  276TMC3     O 4172   2.751   4.569  14.479  0.2295 -0.1639 -0.6981
  276TMC3     H 4173   2.398   4.702  14.492  0.2647  0.3142  1.3894
  276TMC3    H1 4174   2.803   0.065  14.417  0.6423  1.5327 -1.0524
  276TMC3    H2 4175   2.581   0.331  14.637  1.1978 -0.8269 -0.4070
  276TMC3    C7 4176   2.817   0.251  14.574 -0.4607  0.2870 -0.0524
  276TMC3    C8 4177   2.390   0.149  14.680  0.5697  0.2805 -0.1877
  276TMC3    O1 4178   2.885   0.165  14.630 -0.4954 -0.2349  0.4645
  276TMC3    O2 4179   2.274   0.189  14.667 -0.5421 -0.5212  0.2591
  277MPD2     C 4180   3.893   3.526  13.603 -0.3693  0.0959 -0.4655
  277MPD2    C1 4181   3.762   3.534  13.556  0.3983 -0.3231 -0.4481
  277MPD2    C2 4182   3.657   3.496  13.643 -0.5421  0.4273 -0.7300
  277MPD2    C3 4183   3.682   3.465  13.769 -0.8406  0.5016 -0.4830
  277MPD2    C4 4184   3.809   3.474  13.818  0.2933 -0.9171  0.7237
  277MPD2    C5 4185   3.916   3.510  13.744  0.1682  0.3412 -0.1008
  277MPD2     H 4186   3.553   3.507  13.616 -0.5400  1.4767 -0.2740
  277MPD2    H1 4187   3.841   3.437  13.915  0.7879  0.0418  0.9258
  277MPD2    H2 4188   3.979   3.558  13.546 -1.7142  1.7943 -1.5364
  277MPD2    H3 4189   4.016   3.524  13.783  0.6690  3.2076 -2.4627
  277MPD2     N 4190   3.574   3.423  13.844 -1.3780 -0.2049  0.4715
  277MPD2    H5 4191   3.489   3.407  13.792 -0.4716 -0.4959 -0.9214
  277MPD2    N1 4192   3.745   3.577  13.424 -0.0315  0.0792  0.9254
  277MPD2    H7 4193   3.825   3.619  13.378 -0.4278 -0.3337 -0.1260
  278TMC3    C1 4194   3.444   3.334  14.019  0.4530 -0.2403  0.6759
  278TMC3    C2 4195   3.389   3.227  13.945 -0.3149  0.9471  0.1545
  278TMC3    C3 4196   3.289   3.165  14.008  0.2795  0.2788 -0.2049
  278TMC3    C4 4197   3.399   3.370  14.148  0.0944  0.1438  0.6705
  278TMC3    C5 4198   3.286   3.302  14.191 -0.4743 -0.2465  0.0664
  278TMC3    C6 4199   3.228   3.202  14.123 -0.2462  0.5298 -0.3933
  278TMC3     C 4200   3.572   3.399  13.976 -0.5730 -0.0343  0.7025
  278TMC3     O 4201   3.648   3.447  14.056  0.3474  0.3358  0.1407
  278TMC3     H 4202   3.446   3.190  13.861  1.6184 -0.4804  2.1234
  278TMC3    H1 4203   3.452   3.445  14.206 -2.2492  2.0271  0.4040
  278TMC3    H2 4204   3.155   3.136  14.169 -0.9946  0.0463 -2.2577
  278TMC3    C7 4205   3.235   3.346  14.320 -0.2001  0.3667  0.1073
  278TMC3    C8 4206   3.219   3.060  13.947  0.5681 -0.0421  0.0251
  278TMC3    O1 4207   3.305   3.384  14.409 -0.5519  0.4828  0.2272
  278TMC3    O2 4208   3.126   3.006  14.009  0.4677  0.6762  0.4661
  279MPD2     C 4209   3.731   4.344   0.440  0.0889  0.0056 -0.1386
  279MPD2    C1 4210   3.617   4.302   0.377  0.0591  0.3545 -0.0492
  279MPD2    C2 4211   3.624   4.236   0.251 -0.4378 -0.2157  0.4848
  279MPD2    C3 4212   3.749   4.226   0.190  0.0305  0.7148 -0.0329
  279MPD2    C4 4213   3.861   4.260   0.261  0.1601 -0.1365 -0.4033
  279MPD2    C5 4214   3.853   4.317   0.381  0.3859  0.1036  0.9970
  279MPD2     H 4215   3.532   4.201   0.206 -1.2023  0.8599  1.2037
  279MPD2    H1 4216   3.962   4.243   0.227  0.2508 -1.1247  0.3342
  279MPD2    H2 4217   3.725   4.389   0.538 -1.2916  0.2783 -0.3404
  279MPD2    H3 4218   3.942   4.338   0.440  1.2412 -2.4331  0.5720
  279MPD2     N 4219   3.771   4.189   0.054  0.3984  0.6133  0.4633
  279MPD2    H5 4220   3.871   4.189   0.033  0.1202  0.3588 -0.8673
  279MPD2    N1 4221   3.486   4.317   0.428 -0.3496 -0.3475 -0.3124
  279MPD2    H7 4222   3.405   4.294   0.371  0.9511 -0.6570 -2.0444
  280TMC3    C1 4223   3.302   4.372   0.558  0.7824  0.4172 -0.1966
  280TMC3    C2 4224   3.233   4.326   0.663 -0.8302  0.6160  0.2759
  280TMC3    C3 4225   3.108   4.285   0.632  0.3357 -0.0254 -0.6069
  280TMC3    C4 4226   3.250   4.392   0.435 -0.2964  0.1983  0.1051
  280TMC3    C5 4227   3.122   4.345   0.410  1.5113  0.4739  0.6533
  280TMC3    C6 4228   3.052   4.284   0.506  0.2288 -0.6853  0.3539
  280TMC3     C 4229   3.447   4.350   0.556  0.0446  0.5022 -0.8657
  280TMC3     O 4230   3.513   4.339   0.659  0.0702  0.2262  0.5339
  280TMC3     H 4231   3.274   4.306   0.762 -1.6530 -1.7126  0.1460
  280TMC3    H1 4232   3.296   4.457   0.361  0.0516  0.5984  0.6778
  280TMC3    H2 4233   2.953   4.243   0.487 -0.0162 -0.3813  0.9524
  280TMC3    C7 4234   3.124   4.291   0.275 -0.5409 -0.3018 -0.8397
  280TMC3    C8 4235   3.045   4.200   0.730 -0.0702  0.1418 -0.5398
  280TMC3    O1 4236   3.231   4.289   0.213 -0.1253 -0.0200 -0.6713
  280TMC3    O2 4237   2.978   4.108   0.686  0.2948 -0.4499  0.1984
  281TMC3    C1 4238   2.000   3.456  13.248  0.2888  0.0146  0.2329
  281TMC3    C2 4239   2.085   3.487  13.145  0.7036 -0.7772  0.7264
  281TMC3    C3 4240   2.084   3.423  13.023 -0.8278  0.6877  0.7243
  281TMC3    C4 4241   1.910   3.351  13.241 -0.3057  0.5126  0.4640
  281TMC3    C5 4242   1.916   3.278  13.125 -0.2078 -0.5989 -0.5154
  281TMC3    C6 4243   1.990   3.319  13.018  0.0903  0.2922  0.1978
  281TMC3     C 4244   1.941   3.565  13.332 -0.2508  0.4598 -0.0746
  281TMC3     O 4245   1.854   3.543  13.418  0.1119 -0.0551  0.1621
  281TMC3     H 4246   2.161   3.560  13.169  1.0299 -1.5515  2.0224
  281TMC3    H1 4247   1.850   3.329  13.329 -0.4577  0.6623  0.3966
  281TMC3    H2 4248   1.975   3.273  12.921 -0.2724 -0.8190  0.7817
  281TMC3    C7 4249   1.816   3.173  13.099 -0.8630  0.6677 -0.3887
  281TMC3    C8 4250   2.045   3.517  12.930 -0.0464  0.9132 -0.7718
  281TMC3    O1 4251   1.797   3.140  12.980 -0.3001  0.3835 -0.6307
  281TMC3    O2 4252   1.936   3.488  12.879 -0.4008 -0.0727  0.2629
  282MPD2     C 4253   4.029   0.475  15.067 -0.9034 -0.2616  0.5201
  282MPD2    C1 4254   3.911   0.546  15.105  0.5989  0.1401  0.1248
  282MPD2    C2 4255   3.817   0.578  15.013 -0.4634 -0.2407 -0.4332
  282MPD2    C3 4256   3.827   0.551  14.881  0.0260 -0.5057 -0.1540
  282MPD2    C4 4257   3.945   0.490  14.844 -0.5597  0.2694 -1.2325
  282MPD2    C5 4258   4.039   0.450  14.935 -0.7072 -0.2729  0.6600
  282MPD2     H 4259   3.729   0.637  15.036 -0.8558 -0.2547 -1.9304
  282MPD2    H1 4260   3.951   0.468  14.738 -1.4584 -3.4142 -0.5374
  282MPD2    H2 4261   4.103   0.435  15.136 -0.2289 -0.8149 -0.5233
  282MPD2    H3 4262   4.122   0.389  14.900  0.5770  1.6891  0.2909
  282MPD2     N 4263   3.720   0.589  14.793 -0.3729  0.0335  0.2234
  282MPD2    H5 4264   3.647   0.648  14.830  0.9252  1.5780  0.3251
  282MPD2    N1 4265   3.882   0.568  15.240  0.0700  0.2409 -0.0677
  282MPD2    H7 4266   3.784   0.581  15.262 -0.1953 -0.4890 -0.8139
  283TMC3    C1 4267   3.901   0.560  15.475 -0.0441  0.7748 -0.4941
  283TMC3    C2 4268   3.897   0.694  15.510  1.0553 -0.8541  1.0612
  283TMC3    C3 4269   3.814   0.734  15.611 -0.0165 -0.9490 -0.3554
  283TMC3    C4 4270   3.799   0.471  15.509 -0.3296  0.4363  0.2176
  283TMC3    C5 4271   3.725   0.507  15.615 -1.1093  0.3942  0.2498
  283TMC3    C6 4272   3.729   0.635  15.662  0.3828  0.0723 -0.5039
  283TMC3     C 4273   3.961   0.523  15.347  0.3377  0.1740 -0.4716
  283TMC3     O 4274   4.078   0.501  15.356 -0.4078 -0.6339 -0.0803
  283TMC3     H 4275   3.980   0.758  15.480 -0.0645 -0.5120 -1.2827
  283TMC3    H1 4276   3.784   0.381  15.450 -1.7298  1.1180 -0.4697
  283TMC3    H2 4277   3.664   0.660  15.746  1.1072  0.1499  0.0403
  283TMC3    C7 4278   3.619   0.421  15.662 -0.2425 -0.0276 -0.0802
  283TMC3    C8 4279   3.811   0.869  15.668 -0.0990  0.1456 -0.2881
  283TMC3    O1 4280   3.541   0.464  15.745  0.3731  0.1580 -0.2944
  283TMC3    O2 4281   3.741   0.879  15.769  0.3658 -0.3345 -0.2183
  284MPD2     C 4282   2.626   4.202  11.980 -0.0016  0.4164 -0.1462
  284MPD2    C1 4283   2.624   4.233  11.846  0.1243  0.2216  0.0159
  284MPD2    C2 4284   2.509   4.212  11.770  0.3924 -0.6642 -0.6676
  284MPD2    C3 4285   2.403   4.146  11.826  0.6136 -0.2654 -0.5719
  284MPD2    C4 4286   2.404   4.108  11.958 -0.4715 -0.1854 -0.3173
  284MPD2    C5 4287   2.519   4.134  12.033 -0.4653 -0.8226  0.4461
  284MPD2     H 4288   2.509   4.249  11.668 -1.5778 -1.2667 -0.8920
  284MPD2    H1 4289   2.321   4.054  12.000 -1.6661  2.4830  0.7612
  284MPD2    H2 4290   2.716   4.209  12.040  0.2034 -0.4323 -0.3550
  284MPD2    H3 4291   2.517   4.110  12.139  2.6356 -0.7555  0.4962
  284MPD2     N 4292   2.286   4.116  11.749  0.0442 -0.2729 -0.0672
  284MPD2    H5 4293   2.231   4.036  11.778  1.9262 -1.4994  0.1276
  284MPD2    N1 4294   2.734   4.296  11.779  0.0283 -1.0393 -0.6290
  284MPD2    H7 4295   2.727   4.310  11.679 -3.9480 -2.6564 -0.5909
  285TMC3    C1 4296   2.907   4.463  11.755  0.6069 -0.3090 -0.3396
  285TMC3    C2 4297   2.939   4.421  11.627 -0.0032 -0.0694  0.1296
  285TMC3    C3 4298   2.974   4.513  11.537 -0.0729  0.9212 -0.4854
  285TMC3    C4 4299   2.890   4.593  11.779 -0.3249  0.3282  0.4080
  285TMC3    C5 4300   2.917   4.679  11.685  0.2305  0.1457  0.1070
  285TMC3    C6 4301   2.964   4.644  11.560 -0.1234  0.3857 -0.1910
  285TMC3     C 4302   2.830   4.371  11.843 -0.6171 -0.6397  0.4557
  285TMC3     O 4303   2.838   4.393  11.958 -0.5125  0.5338  0.3400
  285TMC3     H 4304   2.964   4.318  11.603 -0.3873  0.1271 -1.0876
  285TMC3    H1 4305   2.841   4.622  11.871  0.1982  0.3095  0.6888
  285TMC3    H2 4306   2.982   4.708  11.475  1.4808 -0.3056 -0.3742
  285TMC3    C7 4307   2.874   0.094  11.702  0.1315 -0.5518  0.5518
  285TMC3    C8 4308   2.991   4.459  11.403 -0.3722  0.4611 -0.1312
  285TMC3    O1 4309   2.802   0.111  11.801  0.6457 -0.1563 -0.6831
  285TMC3    O2 4310   2.923   4.370  11.364  0.3903 -0.3358  0.0447
  286MPD2     C 4311   1.945   3.349   1.954 -0.1367 -0.2277  0.0189
  286MPD2    C1 4312   1.940   3.376   1.818  0.1855 -0.3286 -0.5760
  286MPD2    C2 4313   2.043   3.318   1.746  1.0380  0.0417  0.1766
  286MPD2    C3 4314   2.140   3.236   1.811  0.7203  0.6806  0.3147
  286MPD2    C4 4315   2.144   3.228   1.949  0.3725  0.0114 -0.2176
  286MPD2    C5 4316   2.040   3.282   2.021  0.4492 -0.5209  0.3890
  286MPD2     H 4317   2.042   3.333   1.639 -1.4420 -1.4062 -0.0062
  286MPD2    H1 4318   2.219   3.169   2.000 -1.0087  0.1024  1.9243
  286MPD2    H2 4319   1.863   3.388   2.013  0.3974  2.2482 -0.8632
  286MPD2    H3 4320   2.026   3.252   2.124 -0.1743 -0.2584  0.3795
  286MPD2     N 4321   2.243   3.176   1.738 -0.4204  0.0943  0.9447
  286MPD2    H5 4322   2.300   3.117   1.798  0.6730  0.4813  0.2729
  286MPD2    N1 4323   1.853   3.470   1.753  0.5707 -0.8395  0.6694
  286MPD2    H7 4324   1.863   3.465   1.652 -2.0034 -1.2171  0.4302
  287TMC3    C1 4325   2.364   3.085   1.555  0.3858 -0.3094 -0.0166
  287TMC3    C2 4326   2.385   3.071   1.424 -0.7058 -0.0263  0.6426
  287TMC3    C3 4327   2.501   3.010   1.380  0.2600  0.3369  0.7235
  287TMC3    C4 4328   2.439   3.016   1.653  0.0264 -0.3847 -0.2192
  287TMC3    C5 4329   2.554   2.966   1.601 -0.2512 -0.4379  0.6050
  287TMC3    C6 4330   2.594   2.972   1.471  0.7041 -0.3215  0.3197
  287TMC3     C 4331   2.251   3.166   1.603  0.2061 -0.2650 -0.4146
  287TMC3     O 4332   2.198   3.230   1.512 -0.3814  0.3077  0.6255
  287TMC3     H 4333   2.305   3.087   1.353  0.6781 -1.6083 -1.2788
  287TMC3    H1 4334   2.420   3.024   1.759 -2.8057 -2.0126 -0.5980
  287TMC3    H2 4335   2.686   2.938   1.426  1.6924  0.5554  1.6834
  287TMC3    C7 4336   2.655   2.937   1.701 -0.4056 -0.1677 -0.8587
  287TMC3    C8 4337   2.537   3.039   1.243  0.3562  1.1645 -0.4443
  287TMC3    O1 4338   2.636   2.972   1.818  0.1325 -0.0966  0.6429
  287TMC3    O2 4339   2.651   3.008   1.208 -0.6576 -0.4013  0.5360
  288TMC3    C1 4340   3.882   3.373  14.421  0.1534 -0.1642  0.2217
  288TMC3    C2 4341   3.822   3.297  14.527 -0.1280  0.0614  0.3014
  288TMC3    C3 4342   3.728   3.357  14.600 -0.1582  0.4810  0.2242
  288TMC3    C4 4343   3.822   3.489  14.379  0.0517  0.5083  0.0749
  288TMC3    C5 4344   3.710   3.526  14.444  0.6908  0.6335 -0.5490
  288TMC3    C6 4345   3.665   3.468  14.558 -0.5043  0.0821 -0.5345
  288TMC3     C 4346   4.012   3.339  14.363 -0.0929 -0.5947 -0.3554
  288TMC3     O 4347   4.063   3.420  14.283 -0.1355  0.0890  0.0433
  288TMC3     H 4348   3.884   3.222  14.575 -1.4787  1.4379  4.2100
  288TMC3    H1 4349   3.869   3.552  14.305  0.7403 -0.2223 -0.1146
  288TMC3    H2 4350   3.589   3.512  14.621  0.1486 -0.0758  0.3598
  288TMC3    C7 4351   3.647   3.644  14.395  0.0332 -0.7357 -0.3166
  288TMC3    C8 4352   3.711   3.319  14.742  0.3313 -0.5553 -0.1285
  288TMC3    O1 4353   3.716   3.730  14.347  0.0015 -0.2443  0.7085
  288TMC3    O2 4354   3.680   3.408  14.815 -0.2478 -0.3503  0.4300
  289MPD2     C 4355   4.601   2.270  14.434  0.8358  0.2211 -0.4686
  289MPD2    C1 4356   4.563   2.368  14.349  0.3479 -0.4250  0.0649
  289MPD2    C2 4357   4.429   2.389  14.334  0.2447  0.3260 -0.1684
  289MPD2    C3 4358   4.333   2.314  14.393 -0.0055 -0.0697  0.6347
  289MPD2    C4 4359   4.374   2.214  14.476  0.3973  0.4877  0.6672
  289MPD2    C5 4360   4.507   2.190  14.496 -0.5193  0.1271  0.4962
  289MPD2     H 4361   4.399   2.461  14.259  0.7738  0.2020 -0.5048
  289MPD2    H1 4362   4.306   2.151  14.533 -0.0809  0.2367 -0.1794
  289MPD2    H2 4363   4.708   2.252  14.441  1.0107  1.3867 -0.2497
  289MPD2    H3 4364   4.537   2.105  14.555  1.0839 -1.2810 -2.3649
  289MPD2     N 4365   4.195   2.342  14.397 -0.2310 -0.2913 -0.2263
  289MPD2    H5 4366   4.130   2.289  14.454 -1.3651  0.7736 -0.5202
  289MPD2    N1 4367   4.674   2.442  14.285 -0.0306  0.1103 -0.3781
  289MPD2    H7 4368   0.036   2.443  14.342 -0.1722 -0.9066 -0.1552
  290TMC3    C1 4369   3.988   2.452  14.335  0.8007  0.0561 -0.3605
  290TMC3    C2 4370   3.927   2.575  14.318 -0.0844  0.5835 -0.5071
  290TMC3    C3 4371   3.788   2.578  14.318  0.2925  0.2654  0.1868
  290TMC3    C4 4372   3.920   2.333  14.351 -0.6143  0.5116  0.1400
  290TMC3    C5 4373   3.782   2.339  14.343  0.1176  0.4891 -0.7130
  290TMC3    C6 4374   3.720   2.460  14.325 -1.2154  0.8251  0.5296
  290TMC3     C 4375   4.137   2.457  14.336  0.7784  0.2280  0.4404
  290TMC3     O 4376   4.189   2.558  14.299  0.1810  0.5066  0.2604
  290TMC3     H 4377   3.992   2.662  14.322  1.5204 -0.5108 -2.5961
  290TMC3    H1 4378   3.966   2.235  14.365 -1.6365  0.6807  4.4084
  290TMC3    H2 4379   3.613   2.467  14.310 -0.7746  2.2073 -1.9158
  290TMC3    C7 4380   3.738   2.245  14.243 -0.0446  0.0315 -0.0970
  290TMC3    C8 4381   3.737   2.699  14.265 -0.1582  0.2215  0.2266
  290TMC3    O1 4382   3.682   2.291  14.146  0.1738 -0.3157  0.0821
  290TMC3    O2 4383   3.797   2.758  14.180 -0.1876  0.3317 -0.2854
  291MPD2     C 4384   3.087   2.266  17.455  0.5097 -0.4475  0.1820
  291MPD2    C1 4385   3.030   2.188  17.352 -0.0731  0.2190 -0.0397
  291MPD2    C2 4386   3.094   2.183  17.232  0.1722  0.1044  0.6901
  291MPD2    C3 4387   3.209   2.248  17.208  0.5961 -0.0445  0.3193
  291MPD2    C4 4388   3.266   2.311  17.317  0.1310  0.6065 -0.8799
  291MPD2    C5 4389   3.216   2.318  17.439  0.5756  0.1876  0.8945
  291MPD2     H 4390   3.049   2.118  17.157  1.7085 -2.1445  1.6980
  291MPD2    H1 4391   3.359   2.364  17.303  1.6814 -2.2132 -1.2299
  291MPD2    H2 4392   3.034   2.274  17.550 -2.0102  0.3405 -1.2924
  291MPD2    H3 4393   3.270   2.368  17.519  0.2327  2.1684 -0.1065
  291MPD2     N 4394   3.284   2.248  17.085 -0.0716 -0.0045  0.3335
  291MPD2    H5 4395   3.374   2.293  17.100 -0.3469  1.0567 -1.1469
  291MPD2    N1 4396   2.899   2.130  17.363  0.1067 -0.4546  0.0403
  291MPD2    H7 4397   2.859   2.080  17.284  1.1777  0.0673 -0.8393
  292TMC3    C1 4398   2.711   2.019  17.459  0.7401  0.2203 -0.6812
  292TMC3    C2 4399   2.608   2.048  17.545  1.3008  0.0614 -0.0700
  292TMC3    C3 4400   2.495   1.978  17.536 -0.9285 -0.8311  0.0229
  292TMC3    C4 4401   2.700   1.931  17.354  1.0927 -0.3093  0.1979
  292TMC3    C5 4402   2.578   1.864  17.341 -0.6479 -1.0129  0.2739
  292TMC3    C6 4403   2.479   1.882  17.436  0.4746  0.2973 -0.2891
  292TMC3     C 4404   2.828   2.110  17.474 -0.2887  0.7855 -0.2553
  292TMC3     O 4405   2.837   2.170  17.581 -0.0400  1.0769 -0.3622
  292TMC3     H 4406   2.628   2.118  17.625 -1.3787  0.5798  0.1186
  292TMC3    H1 4407   2.776   1.905  17.280  0.7662 -0.2984 -0.1417
  292TMC3    H2 4408   2.380   1.840  17.424  0.4292  1.0018 -2.4404
  292TMC3    C7 4409   2.588   1.752  17.252 -0.7693  0.0451 -0.2728
  292TMC3    C8 4410   2.408   1.985  17.655  0.2576  0.2274 -0.4341
  292TMC3    O1 4411   2.698   1.695  17.247 -0.2641 -0.3204 -0.1171
  292TMC3    O2 4412   2.392   2.096   0.009 -0.1398 -0.1531  0.3477
  293MPD2     C 4413   0.368   3.504  12.566 -0.0113 -0.1427  0.4707
  293MPD2    C1 4414   0.306   3.415  12.644  0.2787  0.6104  0.3905
  293MPD2    C2 4415   0.331   3.411  12.782 -0.3858 -0.1783  0.1437
  293MPD2    C3 4416   0.429   3.497  12.831 -0.0078  0.5236  0.0575
  293MPD2    C4 4417   0.493   3.587  12.749 -0.2979 -0.2727  0.6189
  293MPD2    C5 4418   0.462   3.588  12.617  0.2978 -0.3753  0.1161
  293MPD2     H 4419   0.280   3.340  12.846 -1.0550 -0.5799 -0.8263
  293MPD2    H1 4420   0.574   3.655  12.773 -0.5307 -0.3957  1.7293
  293MPD2    H2 4421   0.349   3.500  12.459  0.7272 -0.0628  0.3353
  293MPD2    H3 4422   0.508   3.655  12.545 -1.6584  0.1078 -0.6802
  293MPD2     N 4423   0.459   3.501  12.974 -0.2603  0.2585  0.1543
  293MPD2    H5 4424   0.424   3.428  13.036  0.3002  0.4298  0.6737
  293MPD2    N1 4425   0.206   3.342  12.577  0.2286  0.4832  0.4227
  293MPD2    H7 4426   0.210   3.349  12.476 -1.1143 -2.0030  0.2153
  294TMC3    C1 4427   0.093   3.141  12.538 -0.5711  0.2245  0.1810
  294TMC3    C2 4428   4.693   3.100  12.520  0.8690 -0.2506 -0.5490
  294TMC3    C3 4429   4.660   3.031  12.405 -0.4448  0.5809  0.2674
  294TMC3    C4 4430   0.195   3.118  12.453 -0.4308  0.8307 -0.1618
  294TMC3    C5 4431   0.169   3.039  12.348  0.1360  0.8941 -0.3334
  294TMC3    C6 4432   0.043   2.991  12.325  0.0475  0.1031 -0.2855
  294TMC3     C 4433   0.118   3.250  12.633 -0.3454  0.1590  0.3406
  294TMC3     O 4434   0.075   3.238  12.751  0.4150 -0.1075 -0.2337
  294TMC3     H 4435   4.627   3.135  12.598  2.3726 -0.1895  0.7019
  294TMC3    H1 4436   0.297   3.140  12.480 -0.2986  0.7756 -0.6333
  294TMC3    H2 4437   0.029   2.922  12.243  3.9315 -1.3201  0.2223
  294TMC3    C7 4438   0.279   3.034  12.253 -0.0046  0.0321  0.3974
  294TMC3    C8 4439   4.566   2.927  12.413  0.9508 -0.6174  0.2122
  294TMC3    O1 4440   0.358   3.126  12.262 -0.9581 -0.1441 -0.4588
  294TMC3    O2 4441   4.586   2.819  12.362 -0.0342 -0.1281  0.2633
  295MPD2     C 4442   0.563   2.219   0.141 -0.1668  0.2258  0.3812
  295MPD2    C1 4443   0.635   2.324   0.199  0.4834  0.1401 -0.1241
  295MPD2    C2 4444   0.575   2.406   0.290 -0.1128 -0.7818 -0.4031
  295MPD2    C3 4445   0.443   2.386   0.332 -0.1217  0.5378  0.3376
  295MPD2    C4 4446   0.375   2.286   0.278  0.5120  0.8363  0.2758
  295MPD2    C5 4447   0.434   2.206   0.186  0.8124  0.1930 -0.6635
  295MPD2     H 4448   0.637   2.480   0.340 -1.3635 -0.6958  1.0042
  295MPD2    H1 4449   0.271   2.265   0.298 -0.4823  1.7728 -3.8514
  295MPD2    H2 4450   0.594   2.147   0.067 -0.7528  1.7807 -1.3776
  295MPD2    H3 4451   0.368   2.132   0.142  1.5745 -0.0421 -1.4120
  295MPD2     N 4452   0.381   2.470   0.434 -0.0435 -0.5272  0.5366
  295MPD2    H5 4453   0.287   2.439   0.457 -0.3567 -0.2802 -0.4174
  295MPD2    N1 4454   0.773   2.335   0.166  0.0937  0.2334  0.6272
  295MPD2    H7 4455   0.826   2.409   0.212 -0.1741  1.6514 -1.3610
  296TMC3    C1 4456   0.361   2.630   0.613  0.5809 -0.5414 -0.4586
  296TMC3    C2 4457   0.420   2.742   0.660  0.6890  0.6565  0.2206
  296TMC3    C3 4458   0.371   2.788   0.778 -0.4409  0.4719 -0.3486
  296TMC3    C4 4459   0.248   2.571   0.668 -0.2604 -0.0324  0.2280
  296TMC3    C5 4460   0.199   2.632   0.780  0.0750 -0.1718  0.2691
  296TMC3    C6 4461   0.257   2.736   0.838 -0.3276 -0.2082 -0.3026
  296TMC3     C 4462   0.438   2.567   0.508 -0.2927  0.1314  0.3742
  296TMC3     O 4463   0.559   2.599   0.499 -0.1202  0.6042  0.0036
  296TMC3     H 4464   0.495   2.797   0.605  2.2971 -2.3282 -0.5809
  296TMC3    H1 4465   0.208   2.481   0.621 -0.2904  0.2632 -0.3119
  296TMC3    H2 4466   0.209   2.776   0.927  0.5529  0.7315 -0.2438
  296TMC3    C7 4467   0.075   2.589   0.843 -0.0971  0.3426 -0.0926
  296TMC3    C8 4468   0.468   2.883   0.847  0.3137 -1.5351 -0.2324
  296TMC3    O1 4469   4.698   2.555   0.779 -0.2151 -0.5780  0.0386
  296TMC3    O2 4470   0.549   2.941   0.774  0.3339 -0.2314 -0.1488
  297MPD2     C 4471   2.886   4.105  16.282 -0.0540  0.0008 -0.2552
  297MPD2    C1 4472   2.839   4.199  16.189 -0.8758  0.0950  0.4380
  297MPD2    C2 4473   2.925   4.295  16.138 -0.5231  0.3857 -0.4003
  297MPD2    C3 4474   3.061   4.301  16.177  0.3173  0.2638  0.5476
  297MPD2    C4 4475   3.105   4.214  16.281 -0.3191  0.4644 -0.9347
  297MPD2    C5 4476   3.016   4.123  16.325  0.5337  0.0416 -0.0239
  297MPD2     H 4477   2.890   4.361  16.059 -1.7234 -0.8600 -0.9015
  297MPD2    H1 4478   3.206   4.223  16.320  0.5774  2.3050 -3.6346
  297MPD2    H2 4479   2.821   4.035  16.332  0.2621 -0.0555  0.0770
  297MPD2    H3 4480   3.039   4.055  16.405 -1.9988  0.0174  0.6785
  297MPD2     N 4481   3.136   4.411  16.126 -0.1905 -0.6530 -0.2600
  297MPD2    H5 4482   3.091   4.472  16.059 -0.5903 -0.9311 -0.2438
  297MPD2    N1 4483   2.704   4.213  16.148 -0.1269  0.5109 -0.2718
  297MPD2    H7 4484   2.683   4.270  16.068  0.8802 -0.4920 -1.2484
  298TMC3    C1 4485   2.476   4.187  16.161  0.5916 -0.5908 -0.1424
  298TMC3    C2 4486   2.476   4.175  16.027 -0.5772 -0.3271  0.4520
  298TMC3    C3 4487   2.362   4.210  15.960 -0.6462 -0.0729  0.0108
  298TMC3    C4 4488   2.367   4.221  16.231  0.7274 -0.0549 -0.4909
  298TMC3    C5 4489   2.259   4.273  16.164 -0.0179  0.0155 -0.1163
  298TMC3    C6 4490   2.256   4.262  16.029 -0.0700  0.0023  0.4027
  298TMC3     C 4491   2.601   4.159  16.222 -0.7182  0.3176  0.6536
  298TMC3     O 4492   2.605   4.123  16.338  0.4127 -0.2262  0.1264
  298TMC3     H 4493   2.549   4.112  15.978 -1.8380 -0.7275 -0.9116
  298TMC3    H1 4494   2.374   4.230  16.339  1.5171 -2.1873 -0.3502
  298TMC3    H2 4495   2.165   4.293  15.979 -0.0986 -0.5755  0.0979
  298TMC3    C7 4496   2.157   4.348  16.228  0.6512 -0.0213 -0.1486
  298TMC3    C8 4497   2.363   4.226  15.815  0.3116  0.1541 -0.4660
  298TMC3    O1 4498   2.182   4.388  16.341 -0.3210  0.3685 -0.1738
  298TMC3    O2 4499   2.263   4.273  15.766 -0.2572  0.2044  0.5793
  299MPD2     C 4500   3.976   4.568   9.994  0.0684 -0.5254  0.5207
  299MPD2    C1 4501   3.935   4.450  10.043  0.3634  0.8570  0.1605
  299MPD2    C2 4502   3.811   4.405   9.991  0.3781 -0.6610  0.0686
  299MPD2    C3 4503   3.737   4.467   9.889 -0.0062  1.0606 -0.0395
  299MPD2    C4 4504   3.782   4.594   9.851 -0.7938 -0.8534  0.2874
  299MPD2    C5 4505   3.897   4.636   9.903 -0.0789  0.1901  0.2295
  299MPD2     H 4506   3.771   4.311  10.028 -0.9705  0.5385  1.6336
  299MPD2    H1 4507   3.721   4.660   9.790 -1.3728 -2.8334 -1.2773
  299MPD2    H2 4508   4.066   4.619  10.025 -0.3151  1.7562 -2.0651
  299MPD2    H3 4509   3.926   0.016   9.882  1.5193  0.0645  1.8802
  299MPD2     N 4510   3.628   4.412   9.820  0.0355 -0.4327 -0.5117
  299MPD2    H5 4511   3.589   4.468   9.745  0.3165  0.0175 -0.3224
  299MPD2    N1 4512   4.006   4.381  10.147  0.6372  0.2169 -0.9132
  299MPD2    H7 4513   4.102   4.413  10.154  0.5365  0.3270 -0.0439
  300TMC3    C1 4514   3.457   4.252   9.787  0.1448 -0.3250 -0.1232
  300TMC3    C2 4515   3.376   4.365   9.782  0.0419 -0.0492  0.2003
  300TMC3    C3 4516   3.258   4.356   9.846  0.7024  0.3089  0.2278
  300TMC3    C4 4517   3.410   4.136   9.846 -0.3710 -0.0286  0.4902
  300TMC3    C5 4518   3.282   4.127   9.897 -0.2189 -0.9694  0.4424
  300TMC3    C6 4519   3.207   4.240   9.901 -0.3001  0.5493 -0.1623
  300TMC3     C 4520   3.589   4.282   9.837 -0.3102  0.4405 -0.1335
  300TMC3     O 4521   3.658   4.185   9.874  0.2401 -0.1115  0.8472
  300TMC3     H 4522   3.409   4.452   9.727 -1.2300 -1.2641 -2.4798
  300TMC3    H1 4523   3.472   4.047   9.842 -1.0097 -0.5568  2.4230
  300TMC3    H2 4524   3.107   4.235   9.942  0.5916  1.6968  2.1826
  300TMC3    C7 4525   3.242   4.013   9.974  0.0009  0.6607  0.4669
  300TMC3    C8 4526   3.153   4.446   9.800  0.0284  0.2810  0.2592
  300TMC3    O1 4527   3.313   3.914   9.955 -0.4959 -0.3290  0.4713
  300TMC3    O2 4528   3.061   4.394   9.744  0.2556  0.5582  0.3349
  301MPD2     C 4529   0.710   0.876   1.634  0.3396 -0.2539 -0.1232
  301MPD2    C1 4530   0.576   0.837   1.620 -0.8086  0.6475 -0.1396
  301MPD2    C2 4531   0.547   0.702   1.626 -0.4312  1.0153 -0.3940
  301MPD2    C3 4532   0.655   0.613   1.628 -0.7684  0.5244  0.0690
  301MPD2    C4 4533   0.788   0.657   1.636  0.0334 -0.2683 -0.6007
  301MPD2    C5 4534   0.814   0.789   1.638 -0.3059 -0.2811 -0.0871
  301MPD2     H 4535   0.444   0.670   1.619 -0.1095 -0.3912  1.2979
  301MPD2    H1 4536   0.870   0.588   1.652  0.5731  0.4586 -0.1908
  301MPD2    H2 4537   0.748   0.977   1.644  1.7624 -1.0666  2.4333
  301MPD2    H3 4538   0.912   0.834   1.655 -1.2486  0.7479  2.6501
  301MPD2     N 4539   0.644   0.473   1.616  0.2843 -0.0161 -0.0595
  301MPD2    H5 4540   0.730   0.423   1.596 -0.3852 -0.7008 -1.2134
  301MPD2    N1 4541   0.465   0.925   1.623 -0.9371 -0.2990 -0.5205
  301MPD2    H7 4542   0.369   0.892   1.618 -0.4661 -2.0261  1.6419
  302TMC3    C1 4543   0.543   0.266   1.575  0.6697  0.3920 -0.3380
  302TMC3    C2 4544   0.664   0.199   1.585 -0.0068 -0.3348 -0.1352
  302TMC3    C3 4545   0.692   0.101   1.494 -0.1579 -0.0059 -0.0164
  302TMC3    C4 4546   0.442   0.217   1.495  0.4443  0.0462 -0.6908
  302TMC3    C5 4547   0.476   0.121   1.403  0.2631 -0.5440  0.1634
  302TMC3    C6 4548   0.597   0.067   1.401  0.0006  0.2868 -0.3994
  302TMC3     C 4549   0.523   0.402   1.621 -0.0435 -0.2318  0.6524
  302TMC3     O 4550   0.406   0.435   1.652  0.0202 -0.7729  0.0904
  302TMC3     H 4551   0.737   0.233   1.657  0.7398 -1.4136 -0.3939
  302TMC3    H1 4552   0.351   0.273   1.479 -0.6211 -1.2695  0.7489
  302TMC3    H2 4553   0.620   4.722   1.320  2.1887  0.8676 -0.2668
  302TMC3    C7 4554   0.388   0.102   1.288  0.6026 -1.2562 -0.0302
  302TMC3    C8 4555   0.800   0.012   1.508 -0.3798 -0.1140  0.2072
  302TMC3    O1 4556   0.437   0.066   1.186 -0.2126 -0.3845 -0.2667
  302TMC3    O2 4557   0.779   4.621   1.463  0.4262 -0.6650 -0.3573
  303MPD2     C 4558   1.116   2.688  10.610  0.8597 -1.0897 -0.8255
  303MPD2    C1 4559   1.188   2.639  10.503  0.5099  0.0905 -0.3084
  303MPD2    C2 4560   1.209   2.720  10.393  0.0403  0.0779 -0.0333
  303MPD2    C3 4561   1.184   2.855  10.399 -0.0567 -0.5950  0.2728
  303MPD2    C4 4562   1.117   2.904  10.510  0.3569 -0.8578 -0.0861
  303MPD2    C5 4563   1.073   2.815  10.608  0.4563  0.3815  0.6199
  303MPD2     H 4564   1.258   2.673  10.308  0.2591  2.6265 -1.3163
  303MPD2    H1 4565   1.085   3.007  10.515  1.2912 -0.6705  1.8617
  303MPD2    H2 4566   1.076   2.620  10.685 -0.0705 -0.4241 -0.7227
  303MPD2    H3 4567   1.026   2.841  10.702 -1.9163 -0.6082 -0.3098
  303MPD2     N 4568   1.198   2.934  10.286 -0.9159  0.2867  0.7614
  303MPD2    H5 4569   1.159   3.027  10.298  1.1341  1.1564  0.7487
  303MPD2    N1 4570   1.220   2.500  10.494  0.4097 -0.1747  0.5172
  303MPD2    H7 4571   1.197   2.444  10.576  0.1473 -0.9141 -0.0552
  304TMC3    C1 4572   1.291   2.287  10.415 -0.0024 -0.4427  0.0539
  304TMC3    C2 4573   1.163   2.226  10.428  0.1495  0.2878  0.5573
  304TMC3    C3 4574   1.152   2.097  10.386 -0.3105 -0.1306  0.6812
  304TMC3    C4 4575   1.387   2.219  10.342  0.3333 -0.1435  0.0935
  304TMC3    C5 4576   1.373   2.092  10.303  0.0662 -0.5324 -0.0832
  304TMC3    C6 4577   1.254   2.025  10.330 -0.2995 -0.4372 -0.0848
  304TMC3     C 4578   1.290   2.430  10.401  0.2223  0.3672 -0.0060
  304TMC3     O 4579   1.364   2.471  10.313  0.2446 -0.2847  0.6432
  304TMC3     H 4580   1.077   2.288  10.449 -0.7283 -0.7019 -0.1428
  304TMC3    H1 4581   1.477   2.280  10.338  0.9244 -0.8900  2.1855
  304TMC3    H2 4582   1.238   1.921  10.303 -0.2766 -0.9104  1.7467
  304TMC3    C7 4583   1.423   2.076  10.166 -0.3273 -0.6793  0.4748
  304TMC3    C8 4584   1.030   2.067  10.312 -0.7404 -0.4766 -0.0584
  304TMC3    O1 4585   1.531   2.121  10.141 -0.4789  0.2978  0.0035
  304TMC3    O2 4586   1.049   1.989  10.214  0.5458  0.0094 -0.0899
  305MPD2     C 4587   3.886   0.834  13.686 -0.2136 -0.2844 -0.8165
  305MPD2    C1 4588   3.849   0.707  13.715  0.4692 -0.6020 -0.4785
  305MPD2    C2 4589   3.836   0.612  13.621  0.7650  0.4278  0.6165
  305MPD2    C3 4590   3.850   0.650  13.491 -0.3396 -0.0282  0.7075
  305MPD2    C4 4591   3.888   0.780  13.463  0.2284 -0.2842  0.2936
  305MPD2    C5 4592   3.905   0.872  13.560  0.0827  0.1917 -0.0116
  305MPD2     H 4593   3.822   0.507  13.645  3.0217  0.3903  1.7751
  305MPD2    H1 4594   3.890   0.815  13.361  0.7125  0.0142  0.4053
  305MPD2    H2 4595   3.890   0.901  13.771  1.7897 -1.2368 -0.1714
  305MPD2    H3 4596   3.919   0.979  13.546  1.3078  0.0558  0.1381
  305MPD2     N 4597   3.854   0.564  13.382 -0.3779  0.5519 -0.0848
  305MPD2    H5 4598   3.890   0.597  13.293  0.9992 -0.3265  0.1316
  305MPD2    N1 4599   3.846   0.687  13.856 -0.4555 -0.1812  0.1740
  305MPD2    H7 4600   3.869   0.765  13.916  0.3813  1.2540 -2.0390
  306TMC3    C1 4601   3.815   0.573  14.060  0.7465 -0.1390 -0.0635
  306TMC3    C2 4602   3.883   0.480  14.132  0.3023 -0.1455 -0.0527
  306TMC3    C3 4603   3.928   0.519  14.253  0.1887 -0.2422 -0.1070
  306TMC3    C4 4604   3.769   0.690  14.117  0.1963 -0.0767  0.4420
  306TMC3    C5 4605   3.792   0.704  14.253 -0.5197 -0.0594  0.1464
  306TMC3    C6 4606   3.870   0.614  14.321  0.8769 -0.7501  0.8144
  306TMC3     C 4607   3.815   0.563  13.917 -0.8067  0.1014 -0.2124
  306TMC3     O 4608   3.789   0.454  13.867 -0.2334 -0.0138 -0.4084
  306TMC3     H 4609   3.942   0.407  14.078  1.1988 -0.2483  1.0746
  306TMC3    H1 4610   3.705   0.758  14.063 -0.2065  1.3274  2.6638
  306TMC3    H2 4611   3.887   0.631  14.426 -2.3771  0.0122  1.2214
  306TMC3    C7 4612   3.762   0.837  14.310  0.0999  0.2289  0.1729
  306TMC3    C8 4613   4.023   0.435  14.315 -0.4421 -0.7068  0.7374
  306TMC3    O1 4614   3.662   0.895  14.267  0.3857 -0.4716 -0.3944
  306TMC3    O2 4615   4.007   0.316  14.294 -0.9368  0.2128 -0.3405
  307MPD2     C 4616   1.737   3.527   0.146  0.3431 -0.0054  0.0773
  307MPD2    C1 4617   1.681   3.653   0.133  0.5897  0.3052 -0.3698
  307MPD2    C2 4618   1.607   3.703   0.244 -0.7483 -0.4658  0.2859
  307MPD2    C3 4619   1.602   3.629   0.357 -0.6308  0.8133 -0.7464
  307MPD2    C4 4620   1.665   3.508   0.374 -0.4337 -0.1561 -0.8186
  307MPD2    C5 4621   1.733   3.457   0.261 -0.2631  1.2814  0.3296
  307MPD2     H 4622   1.559   3.798   0.222 -1.6460 -1.5695 -2.5592
  307MPD2    H1 4623   1.667   3.455   0.469  1.1858  1.4333  0.0402
  307MPD2    H2 4624   1.806   3.493   0.069  1.4197  0.0151  1.0304
  307MPD2    H3 4625   1.779   3.359   0.268 -0.6337  1.1423  0.8033
  307MPD2     N 4626   1.526   3.685   0.468  0.1923 -0.1867  0.6078
  307MPD2    H5 4627   1.480   3.774   0.450 -0.4780 -0.7698 -0.5415
  307MPD2    N1 4628   1.685   3.730   0.011  0.0778 -0.9207 -0.2794
  307MPD2    H7 4629   1.621   3.809   0.014  0.0188 -1.0005  0.8185
  308TMC3    C1 4630   1.162   3.709   0.705  0.6180 -0.3500 -0.4444
  308TMC3    C2 4631   1.174   3.842   0.723  0.7222 -0.1519  0.4757
  308TMC3    C3 4632   1.299   3.898   0.712 -0.5002  0.4173  0.0252
  308TMC3    C4 4633   1.273   3.633   0.678  0.7205  0.0449  0.7813
  308TMC3    C5 4634   1.390   3.702   0.656 -0.4584 -0.1870  0.5355
  308TMC3    C6 4635   1.406   3.833   0.667 -0.2862 -0.6738 -0.2262
  308TMC3     C 4636   1.036   3.642   0.704 -0.0004  0.0616 -0.9831
  308TMC3     O 4637   1.040   3.528   0.747  0.1554 -0.5034 -0.3047
  308TMC3     H 4638   1.093   3.912   0.745 -0.5632 -0.9087 -1.8002
  308TMC3    H1 4639   1.264   3.527   0.658 -2.8234  0.2610  1.3906
  308TMC3    H2 4640   1.502   3.879   0.644  0.0264 -1.7924 -1.1930
  308TMC3    C7 4641   1.487   3.615   0.585 -0.7149 -0.2893 -0.3218
  308TMC3    C8 4642   1.304   4.040   0.700 -0.1730 -0.6430 -0.3945
  308TMC3    O1 4643   1.503   3.501   0.623  0.3485  0.4730 -0.4857
  308TMC3    O2 4644   1.204   4.096   0.657  0.2963 -0.4928  0.0640
  309MPD2     C 4645   0.778   3.925  17.204 -0.2871  0.7486 -0.0303
  309MPD2    C1 4646   0.737   3.998  17.098 -0.5392 -0.1634  0.5405
  309MPD2    C2 4647   0.624   4.072  17.117 -0.0631  0.2834 -1.0333
  309MPD2    C3 4648   0.542   4.061  17.228 -0.1882 -0.4066  0.1431
  309MPD2    C4 4649   0.577   3.974  17.328  0.5165 -0.0459  0.5459
  309MPD2    C5 4650   0.703   3.917  17.321 -0.0638 -0.2122 -0.1196
  309MPD2     H 4651   0.611   4.152  17.045  2.1872  0.3135 -1.4098
  309MPD2    H1 4652   0.512   3.962  17.413  1.3463  1.4657  1.3879
  309MPD2    H2 4653   0.877   3.881  17.201 -0.3139  0.5930  1.3890
  309MPD2    H3 4654   0.735   3.859  17.407 -2.8696 -1.0118  0.3839
  309MPD2     N 4655   0.422   4.135  17.248 -0.3205 -0.4641 -0.5849
  309MPD2    H5 4656   0.370   4.116  17.334 -1.9373  0.0163 -1.4452
  309MPD2    N1 4657   0.814   4.008  16.976  0.1187 -0.0531  0.5973
  309MPD2    H7 4658   0.780   4.082  16.916  0.2008 -0.2756  0.2759
  310TMC3    C1 4659   0.985   3.992  16.806  0.3971 -0.0511 -0.1565
  310TMC3    C2 4660   0.905   4.072  16.727  0.1939 -0.6710 -0.3721
  310TMC3    C3 4661   0.955   4.097  16.605 -0.0199  0.5255 -0.3286
  310TMC3    C4 4662   1.094   3.928  16.765 -0.4448  0.5973 -0.2218
  310TMC3    C5 4663   1.135   3.955  16.631  0.9125  0.4997 -0.1454
  310TMC3    C6 4664   1.063   4.039  16.550 -0.4101 -0.3661 -0.9150
  310TMC3     C 4665   0.929   3.943  16.936 -0.1994 -1.4268  0.3010
  310TMC3     O 4666   0.985   3.855  16.996 -0.1326 -0.0321 -0.1522
  310TMC3     H 4667   0.824   4.124  16.776  0.2992  0.6354 -1.6142
  310TMC3    H1 4668   1.145   3.854  16.826 -1.8911 -0.3431 -0.1697
  310TMC3    H2 4669   1.076   4.037  16.443 -1.5213 -0.4087 -1.0461
  310TMC3    C7 4670   1.212   3.850  16.571  0.0590  0.4485  0.0062
  310TMC3    C8 4671   0.885   4.192  16.528 -0.2063 -0.0066  0.0895
  310TMC3    O1 4672   1.245   3.748  16.637 -0.0170  0.4564 -0.0839
  310TMC3    O2 4673   0.770   4.224  16.555  0.1103 -0.8818  0.1229
  311MPD2     C 4674   3.087   0.254  12.732 -0.0191  0.5982 -0.2073
  311MPD2    C1 4675   3.065   0.371  12.661 -0.2224 -0.0708 -0.1809
  311MPD2    C2 4676   2.940   0.420  12.681 -0.0478  0.4623 -0.0222
  311MPD2    C3 4677   2.838   0.356  12.753 -0.2294  0.6455  0.5970
  311MPD2    C4 4678   2.859   0.236  12.813 -0.0894 -0.8377 -1.0861
  311MPD2    C5 4679   2.989   0.188  12.801 -0.3349  0.0357 -0.8573
  311MPD2     H 4680   2.925   0.518  12.639 -1.3013  0.1860 -0.2040
  311MPD2    H1 4681   2.775   0.203  12.873  1.2250 -0.2468  1.1079
  311MPD2    H2 4682   3.182   0.201  12.745 -1.2605 -0.8115  3.2184
  311MPD2    H3 4683   3.015   0.093  12.845 -0.3867  0.4449  0.0558
  311MPD2     N 4684   2.715   0.419  12.782 -0.2556 -0.6645  0.0686
  311MPD2    H5 4685   2.643   0.364  12.829 -0.2683 -0.0629  0.7641
  311MPD2    N1 4686   3.166   0.446  12.582 -0.1760  0.0947 -1.0760
  311MPD2    H7 4687   3.147   0.536  12.539  1.1998  0.5498 -0.7079
  312TMC3    C1 4688   2.557   0.602  12.813  0.6259 -0.7662  0.1352
  312TMC3    C2 4689   2.437   0.558  12.755  0.1988  0.2878 -1.0211
  312TMC3    C3 4690   2.333   0.642  12.747  0.1286  0.1139 -0.0072
  312TMC3    C4 4691   2.568   0.726  12.870  0.3598 -0.0564  0.7834
  312TMC3    C5 4692   2.448   0.801  12.878 -0.1317  0.8565  0.4131
  312TMC3    C6 4693   2.331   0.764  12.814  0.7578 -0.0493 -0.0966
  312TMC3     C 4694   2.677   0.556  12.759 -0.5766  0.2255 -0.2777
  312TMC3     O 4695   2.745   0.641  12.710  0.3332 -0.0852  0.1896
  312TMC3     H 4696   2.427   0.462  12.705  1.4884 -0.3772 -0.0092
  312TMC3    H1 4697   2.669   0.760  12.891  0.4942 -1.4959  2.5373
  312TMC3    H2 4698   2.241   0.816  12.843 -0.1885 -3.0631  2.2097
  312TMC3    C7 4699   2.467   0.940  12.912 -0.1040 -0.3746  0.0010
  312TMC3    C8 4700   2.202   0.590  12.697  0.2689  0.5469 -0.1226
  312TMC3    O1 4701   2.428   1.026  12.834  0.5284  0.0736  0.4902
  312TMC3    O2 4702   2.186   0.471  12.688 -0.6978 -0.4934 -0.1438
  313MPD2     C 4703   2.024   3.806  10.123  0.4108  0.4492 -0.5883
  313MPD2    C1 4704   2.123   3.829  10.034  1.0685  0.9287  0.1966
  313MPD2    C2 4705   2.119   3.774   9.908 -0.0538  0.8947 -0.1704
  313MPD2    C3 4706   2.002   3.711   9.867 -0.6897 -0.7285 -0.3432
  313MPD2    C4 4707   1.896   3.680   9.960  0.3839 -0.2871 -0.2262
  313MPD2    C5 4708   1.914   3.728  10.087 -0.0487 -0.6717 -0.4428
  313MPD2     H 4709   2.204   3.783   9.842 -0.5086 -0.6547 -0.9625
  313MPD2    H1 4710   1.803   3.628   9.943  0.8442 -1.6912  1.6567
  313MPD2    H2 4711   2.025   3.843  10.225 -0.8376  0.6604 -0.6545
  313MPD2    H3 4712   1.834   3.707  10.157 -0.9487  0.2517 -1.1789
  313MPD2     N 4713   2.000   3.654   9.738  0.5222  0.0765  0.4982
  313MPD2    H5 4714   2.080   3.666   9.677  0.3444 -2.4631 -0.2608
  313MPD2    N1 4715   2.240   3.893  10.068  1.0450  0.3161  0.0774
  313MPD2    H7 4716   2.315   3.904  10.001  1.7349 -1.2493  0.6025
  314TMC3    C1 4717   2.410   3.991  10.197  0.6897 -0.4326  0.1009
  314TMC3    C2 4718   2.442   4.101  10.272 -0.0087  0.4120 -0.7153
  314TMC3    C3 4719   2.562   4.150  10.249  0.0095 -0.3266 -0.3700
  314TMC3    C4 4720   2.495   3.926  10.109  0.3822  0.2525  0.7666
  314TMC3    C5 4721   2.617   3.979  10.093  0.4586  0.1274 -0.1214
  314TMC3    C6 4722   2.657   4.093  10.163 -0.6033 -0.8754  0.1228
  314TMC3     C 4723   2.275   3.952  10.189  0.5723  0.0446 -0.6118
  314TMC3     O 4724   2.200   3.988  10.279  0.0395 -0.0930  0.2084
  314TMC3     H 4725   2.374   4.145  10.344 -0.7263 -2.9765  0.6896
  314TMC3    H1 4726   2.466   3.830  10.067  1.6358  0.1373  0.1774
  314TMC3    H2 4727   2.756   4.138  10.158 -1.0504  0.1743  0.8926
  314TMC3    C7 4728   2.710   3.904  10.007  0.2179 -0.4239  0.4618
  314TMC3    C8 4729   2.616   4.266  10.323 -0.1194  0.3756 -0.3387
  314TMC3    O1 4730   2.679   3.785   9.983  0.4008  0.2328 -0.1169
  314TMC3    O2 4731   2.732   4.305  10.295 -0.2586 -0.0867  0.2856
  315MPD2     C 4732   2.025   3.799   0.201 -0.4411 -0.2088  0.6262
  315MPD2    C1 4733   2.161   3.789   0.180 -0.6073  0.1002 -0.5308
  315MPD2    C2 4734   2.228   3.856   0.082 -0.2568  0.3313 -0.4702
  315MPD2    C3 4735   2.148   3.945   0.003  0.5540  0.1799 -0.6817
  315MPD2    C4 4736   2.014   3.966   0.028 -0.4235 -0.5200  0.0379
  315MPD2    C5 4737   1.957   3.887   0.126  0.3587  0.0158  1.0436
  315MPD2     H 4738   2.335   3.846   0.071  0.1340  1.3338  2.4514
  315MPD2    H1 4739   1.952   4.037  17.668  0.6569  0.7721  0.5064
  315MPD2    H2 4740   1.984   3.745   0.286  0.6171 -2.6929 -0.4260
  315MPD2    H3 4741   1.857   3.917   0.154 -0.1887  0.1451 -1.0475
  315MPD2     N 4742   2.214   4.030  17.604 -0.7967 -0.4642 -0.1704
  315MPD2    H5 4743   2.313   4.029  17.628 -0.8001 -2.0196 -0.2133
  315MPD2    N1 4744   2.243   3.700   0.260  0.4533  0.5221  0.4470
  315MPD2    H7 4745   2.343   3.689   0.244  0.5351  2.6282 -0.4409
  316TMC3    C1 4746   2.262   4.203  17.437  0.1665 -0.0872 -0.4715
  316TMC3    C2 4747   2.398   4.182  17.450  0.0164  0.8031  0.0249
  316TMC3    C3 4748   2.477   4.284  17.425  0.5732 -0.1010  0.8878
  316TMC3    C4 4749   2.209   4.318  17.387 -0.0940 -0.1085 -0.1892
  316TMC3    C5 4750   2.300   4.422  17.362 -0.2859  0.3987 -0.0196
  316TMC3    C6 4751   2.434   4.406  17.392 -0.5064 -0.6908 -0.0960
  316TMC3     C 4752   2.161   4.113  17.502 -0.0105  0.3370 -0.5921
  316TMC3     O 4753   2.043   4.132  17.471  0.1197 -0.3261  0.1655
  316TMC3     H 4754   2.449   4.092  17.483 -0.1883  0.7744  0.2686
  316TMC3    H1 4755   2.101   4.316  17.375 -0.2595 -1.1812  1.4092
  316TMC3    H2 4756   2.507   4.486  17.387 -1.8011  0.3585 -2.1454
  316TMC3    C7 4757   2.243   4.549  17.396 -0.4563 -0.1166  0.0561
  316TMC3    C8 4758   2.621   4.260  17.423 -0.2154  0.1105  0.4539
  316TMC3    O1 4759   2.286   4.616  17.487 -0.4570  0.3833 -0.1550
  316TMC3    O2 4760   2.684   4.302  17.329  0.2903  0.1058  0.5859
  317MPD2     C 4761   3.931   2.525  13.319 -0.2463  0.0281  0.3364
  317MPD2    C1 4762   3.957   2.429  13.227  0.2000 -0.4882  0.2160
  317MPD2    C2 4763   4.043   2.327  13.276  0.1248 -0.1842 -0.4986
  317MPD2    C3 4764   4.101   2.327  13.400  0.1894 -0.0423 -0.0268
  317MPD2    C4 4765   4.088   2.444  13.468 -0.7237 -1.0813  0.3958
  317MPD2    C5 4766   3.994   2.535  13.438 -0.1521 -0.3281  0.0695
  317MPD2     H 4767   4.068   2.245  13.209 -0.0254 -0.5676 -0.0829
  317MPD2    H1 4768   4.130   2.451  13.567 -0.2112 -4.5658  0.4007
  317MPD2    H2 4769   3.861   2.604  13.294  1.2939  1.0834 -0.6134
  317MPD2    H3 4770   3.963   2.611  13.509  0.5368  2.4319 -2.5858
  317MPD2     N 4771   4.159   2.207  13.451  0.4725  0.6014 -0.1102
  317MPD2    H5 4772   4.159   2.128  13.387  0.4266 -0.0926  0.7472
  317MPD2    N1 4773   3.918   2.419  13.091 -0.5965  0.1214 -0.0260
  317MPD2    H7 4774   3.957   2.346  13.031  1.7425  1.2074  0.1680
  318TMC3    C1 4775   4.293   2.074  13.576  0.2877  0.3405 -0.3613
  318TMC3    C2 4776   4.230   1.966  13.520 -0.0383  0.6169  0.0956
  318TMC3    C3 4777   4.291   1.843  13.534 -0.0558 -0.0836  0.1517
  318TMC3    C4 4778   4.424   2.073  13.619 -0.0128  0.0152  0.9025
  318TMC3    C5 4779   4.481   1.950  13.637  0.4900  0.5022  0.3007
  318TMC3    C6 4780   4.414   1.833  13.597  0.5643  0.0105  0.1132
  318TMC3     C 4781   4.236   2.203  13.559  0.4343 -0.5314 -0.3321
  318TMC3     O 4782   4.279   2.299  13.623 -0.4447 -0.4724 -0.2394
  318TMC3     H 4783   4.122   1.961  13.512 -0.1261  1.0738  1.0127
  318TMC3    H1 4784   4.477   2.164  13.647 -0.2222  0.3167  0.3260
  318TMC3    H2 4785   4.462   1.736  13.611 -0.6379 -0.2972  2.1095
  318TMC3    C7 4786   4.619   1.957  13.673  0.2413 -1.0749  0.1617
  318TMC3    C8 4787   4.236   1.723  13.474  0.4067 -0.5744 -0.9076
  318TMC3    O1 4788   4.666   2.069  13.705  0.3364 -0.4448 -0.6162
  318TMC3    O2 4789   4.291   1.617  13.513 -0.0288 -0.4123 -0.0999
  319MPD2     C 4790   0.119   3.909  16.976  0.6200  0.2557 -0.0624
  319MPD2    C1 4791   4.714   3.849  16.971 -0.0934 -0.1642 -0.1235
  319MPD2    C2 4792   4.681   3.759  16.872 -0.3547 -0.1417  0.0587
  319MPD2    C3 4793   0.040   3.747  16.761 -0.4377  0.3942 -0.7277
  319MPD2    C4 4794   0.165   3.803  16.763  0.6354  0.2041 -0.4437
  319MPD2    C5 4795   0.204   3.879  16.871  0.2815  0.6173  0.4278
  319MPD2     H 4796   4.585   3.708  16.875 -0.8353  0.8265  1.1301
  319MPD2    H1 4797   0.235   3.782  16.683 -1.4551  0.9982 -2.5025
  319MPD2    H2 4798   0.168   3.970  17.051 -0.6622  0.8667  0.2863
  319MPD2    H3 4799   0.303   3.922  16.877  0.9004 -0.9171  1.1121
  319MPD2     N 4800   0.004   3.687  16.640  0.8743  0.2255 -0.0159
  319MPD2    H5 4801   0.077   3.683  16.570 -0.4014 -2.4928 -1.1867
  319MPD2    N1 4802   4.611   3.868  17.058  0.1109 -0.7877 -0.3834
  319MPD2    H7 4803   4.534   3.802  17.060 -0.0063 -0.6533 -0.4631
  320TMC3    C1 4804   4.598   3.591  16.472  0.0551 -0.5445  0.0226
  320TMC3    C2 4805   4.657   3.674  16.377  0.8123 -0.5231  0.5816
  320TMC3    C3 4806   4.632   3.632  16.245  0.4507  0.3713 -0.0145
  320TMC3    C4 4807   4.526   3.485  16.450 -0.6117 -0.1630 -0.4062
  320TMC3    C5 4808   4.498   3.455  16.323  0.1615  0.3623  0.2485
  320TMC3    C6 4809   4.550   3.527  16.218  0.0738 -0.8486  0.2083
  320TMC3     C 4810   4.609   3.628  16.611  0.1925  0.2505 -0.9761
  320TMC3     O 4811   4.512   3.590  16.682 -0.2552  0.0268 -0.6026
  320TMC3     H 4812   4.698   3.771  16.406  1.0985 -0.5932  0.4028
  320TMC3    H1 4813   4.499   3.411  16.525 -2.5980 -1.1104 -2.0362
  320TMC3    H2 4814   4.535   3.488  16.118 -2.2195  3.3648 -1.1115
  320TMC3    C7 4815   4.433   3.330  16.296 -0.6647  0.1764  0.0317
  320TMC3    C8 4816   4.650   3.731  16.147  0.8537  0.3171 -1.0555
  320TMC3    O1 4817   4.477   3.282  16.194  0.0222 -0.2052  0.2880
  320TMC3    O2 4818   4.694   3.837  16.194  0.6265 -0.2115 -0.3870
  321TMC3    C1 4819   4.589   3.929  17.276  0.0521  0.5078  0.2708
  321TMC3    C2 4820   4.540   3.803  17.300  0.6014 -1.2205 -0.3048
  321TMC3    C3 4821   4.578   3.753  17.422 -0.4179  0.0257  0.1452
  321TMC3    C4 4822   4.663   4.010  17.360 -0.0736 -0.0456 -0.1645
  321TMC3    C5 4823   4.693   3.952  17.481  0.2489 -0.7739 -0.8417
  321TMC3    C6 4824   4.658   3.828  17.518 -0.0249 -0.1163  0.7333
  321TMC3     C 4825   4.604   3.977  17.141 -0.7525  0.0293  0.3427
  321TMC3     O 4826   4.653   4.087  17.116 -0.7298 -0.1350  0.5796
  321TMC3     H 4827   4.479   3.750  17.228 -0.6677  1.1829 -1.0128
  321TMC3    H1 4828   4.719   4.101  17.339 -1.9055  0.7951 -1.3913
  321TMC3    H2 4829   4.678   3.780  17.613 -0.1724 -1.7618 -0.0659
  321TMC3    C7 4830   0.102   3.988  17.518 -0.5238 -0.0956 -0.7809
  321TMC3    C8 4831   4.549   3.617  17.459  0.5266 -0.7371 -0.3963
  321TMC3    O1 4832   0.133   4.104  17.536  0.0684  0.0256  0.7355
  321TMC3    O2 4833   4.436   3.576  17.451  0.2329 -0.8591  0.2242
  322MPD2     C 4834   3.736   4.660  13.467  0.2629 -1.0808  0.3243
  322MPD2    C1 4835   3.714   4.594  13.590 -0.3341 -0.0445  0.2743
  322MPD2    C2 4836   3.666   4.454  13.578  0.1809 -0.1045  0.0878
  322MPD2    C3 4837   3.659   4.391  13.461 -0.1136  0.5364 -0.9782
  322MPD2    C4 4838   3.690   4.451  13.339 -0.2808  0.2233  0.7410
  322MPD2    C5 4839   3.735   4.582  13.345 -0.2764 -0.2096  0.0947
  322MPD2     H 4840   3.678   4.396  13.669 -0.1761 -1.3290 -0.6427
  322MPD2    H1 4841   3.683   4.405  13.241  0.4016  2.9102 -0.5904
  322MPD2    H2 4842   3.774   0.038  13.459 -1.5638 -0.2400  2.4523
  322MPD2    H3 4843   3.751   4.633  13.251  1.8633 -0.6752  0.2147
  322MPD2     N 4844   3.636   4.248  13.474  0.0970 -0.3952 -0.4281
  322MPD2    H5 4845   3.637   4.217  13.571  2.7474 -1.7531 -0.8865
  322MPD2    N1 4846   3.724   4.669  13.709  0.0692 -0.4069 -0.1791
  322MPD2    H7 4847   3.750   0.043  13.695 -0.3204 -0.5021 -1.6266
  323TMC3    C1 4848   3.747   4.711  13.935  0.6375 -0.6530 -0.0015
  323TMC3    C2 4849   3.855   0.073  13.908  0.0238  0.1211  0.0301
  323TMC3    C3 4850   3.940   0.101  14.016 -0.0501  0.1522  0.6452
  323TMC3    C4 4851   3.713   4.663  14.062  0.4007  0.6993 -0.7269
  323TMC3    C5 4852   3.803   4.703  14.159 -0.2348 -0.1769  0.5981
  323TMC3    C6 4853   3.921   0.053  14.136  0.2042 -1.1051  0.7786
  323TMC3     C 4854   3.684   4.625  13.835 -0.1127 -0.1197  0.3846
  323TMC3     O 4855   3.627   4.520  13.860 -0.4104 -0.5760 -0.1198
  323TMC3     H 4856   3.872   0.108  13.806  2.6453 -0.0610  0.4044
  323TMC3    H1 4857   3.633   4.595  14.087  1.3258 -0.5905 -1.2531
  323TMC3    H2 4858   3.998   0.074  14.210  1.3745 -2.9974  0.0917
  323TMC3    C7 4859   3.786   4.655  14.290  0.1494  0.2335  0.9372
  323TMC3    C8 4860   4.065   0.155  13.985  0.4491 -0.3424  0.7496
  323TMC3    O1 4861   3.730   4.546  14.308 -0.7863 -1.1668 -0.4479
  323TMC3    O2 4862   4.160   0.105  14.043 -0.2543  0.2107  0.4843
  324MPD2     C 4863   0.878   0.753  13.481  0.0595  0.6061 -0.8502
  324MPD2    C1 4864   0.923   0.807  13.601 -0.1474  0.2700  0.2087
  324MPD2    C2 4865   0.836   0.838  13.701  0.4933  0.4797 -0.4451
  324MPD2    C3 4866   0.704   0.806  13.693  0.7744  0.0637 -0.0583
  324MPD2    C4 4867   0.658   0.765  13.573 -0.0718  0.4068 -0.0053
  324MPD2    C5 4868   0.743   0.736  13.465  1.0697  0.3048 -0.6605
  324MPD2     H 4869   0.878   0.892  13.786  2.0442 -0.1145 -0.8384
  324MPD2    H1 4870   0.557   0.726  13.560 -0.6100  0.9687  2.4019
  324MPD2    H2 4871   0.945   0.734  13.398 -2.6215  3.1615 -3.6082
  324MPD2    H3 4872   0.701   0.700  13.372  2.5390 -2.5954 -0.1768
  324MPD2     N 4873   0.607   0.823  13.793  0.8218 -0.1024 -0.2944
  324MPD2    H5 4874   0.508   0.813  13.771  0.0776 -1.1460  3.5015
  324MPD2    N1 4875   1.058   0.831  13.637 -1.0571 -0.1321 -0.4966
  324MPD2    H7 4876   1.085   0.868  13.728 -1.6749 -2.5712  0.6858
  325TMC3    C1 4877   0.520   0.890  14.007  0.5004 -0.4596  0.4582
  325TMC3    C2 4878   0.396   0.839  13.996 -0.1194 -0.4680 -0.4382
  325TMC3    C3 4879   0.294   0.917  14.042 -0.0296  0.2172 -0.0517
  325TMC3    C4 4880   0.550   1.007  14.070 -0.1609  0.0123  0.0150
  325TMC3    C5 4881   0.447   1.085  14.115  0.5873 -0.1106  0.2037
  325TMC3    C6 4882   0.321   1.041  14.102 -0.7974 -0.3560  0.0703
  325TMC3     C 4883   0.631   0.844  13.931  0.0037  0.1095  0.1874
  325TMC3     O 4884   0.741   0.849  13.981  0.9235  0.0842 -0.0049
  325TMC3     H 4885   0.382   0.748  13.939 -0.7505 -0.1093 -0.8514
  325TMC3    H1 4886   0.652   1.038  14.093  0.5327 -2.5751  0.4876
  325TMC3    H2 4887   0.237   1.110  14.104 -0.8777 -0.4366 -0.4220
  325TMC3    C7 4888   0.479   1.226  14.127  0.9213  0.0313  0.4332
  325TMC3    C8 4889   0.162   0.909  13.977  0.6373  0.3191  0.0451
  325TMC3    O1 4890   0.565   1.273  14.052 -0.5540  0.2877 -0.4905
  325TMC3    O2 4891   0.165   0.854  13.868  0.3674  0.5466 -0.1911
  326MPD2     C 4892   2.272   2.031  11.370 -0.2914  0.5583 -0.0940
  326MPD2    C1 4893   2.340   2.007  11.254 -0.3683 -0.0202 -0.0147
  326MPD2    C2 4894   2.444   2.089  11.207 -0.2749  0.1006 -0.2421
  326MPD2    C3 4895   2.454   2.216  11.266  0.1681  0.3908 -0.2514
  326MPD2    C4 4896   2.378   2.247  11.377 -0.6941  0.7537 -0.1735
  326MPD2    C5 4897   2.294   2.151  11.430 -0.0988  0.2873  0.4166
  326MPD2     H 4898   2.480   2.056  11.111 -1.4207 -2.9320  0.3689
  326MPD2    H1 4899   2.369   2.346  11.422  1.8123  0.7121  0.4297
  326MPD2    H2 4900   2.206   1.960  11.420  1.1449 -2.5704 -2.6606
  326MPD2    H3 4901   2.243   2.183  11.520 -1.6046  3.1375 -1.4592
  326MPD2     N 4902   2.514   2.321  11.196 -0.0368  0.5840 -0.8875
  326MPD2    H5 4903   2.485   2.414  11.223 -0.9295  0.0055  0.1325
  326MPD2    N1 4904   2.318   1.886  11.183 -0.1805 -0.2356 -0.2786
  326MPD2    H7 4905   2.382   1.855  11.111  0.6149 -1.1300  0.8171
  327TMC3    C1 4906   2.181   1.749  11.066 -0.4168 -0.1783 -0.1905
  327TMC3    C2 4907   2.090   1.805  10.987 -0.0651 -0.0688  0.1649
  327TMC3    C3 4908   2.112   1.833  10.856  0.1254 -0.3589 -0.0995
  327TMC3    C4 4909   2.294   1.706  11.009 -0.4368  0.5021  0.0700
  327TMC3    C5 4910   2.327   1.749  10.879  0.2523 -0.2398 -0.6289
  327TMC3    C6 4911   2.229   1.802  10.792  0.3492 -0.3632 -0.2213
  327TMC3     C 4912   2.199   1.824  11.187  0.2510  0.2039 -0.3996
  327TMC3     O 4913   2.094   1.856  11.249 -0.4108 -0.0452 -0.1271
  327TMC3     H 4914   1.987   1.797  11.021 -0.0847 -1.1052 -0.1306
  327TMC3    H1 4915   2.371   1.652  11.063 -0.8247  0.6365  0.7472
  327TMC3    H2 4916   2.243   1.844  10.693  1.0615  3.6430  1.5640
  327TMC3    C7 4917   2.462   1.807  10.883 -0.0710 -0.2270 -0.3960
  327TMC3    C8 4918   2.048   1.953  10.801  0.7358  0.9023  0.7303
  327TMC3    O1 4919   2.521   1.811  10.988 -0.3536  0.0011  0.2791
  327TMC3    O2 4920   2.062   1.984  10.681  0.0730 -0.1217 -1.0089
  328MPD2     C 4921   4.411   2.226  17.023 -0.1199 -0.2274 -0.7363
  328MPD2    C1 4922   4.350   2.158  16.919 -0.4629 -0.0811 -0.4166
  328MPD2    C2 4923   4.267   2.232  16.836 -0.0654 -0.0878 -0.1619
  328MPD2    C3 4924   4.252   2.369  16.849  0.2131 -0.9164 -0.6915
  328MPD2    C4 4925   4.334   2.436  16.938  0.1083 -0.7218 -0.4052
  328MPD2    C5 4926   4.411   2.366  17.029  0.4395  0.7729 -0.0911
  328MPD2     H 4927   4.213   2.183  16.755 -1.6787  1.5663 -0.1014
  328MPD2    H1 4928   4.337   2.543  16.955  0.3223 -1.2633  3.0626
  328MPD2    H2 4929   4.469   2.180  17.103 -1.9105  0.4724  0.9717
  328MPD2    H3 4930   4.466   2.406  17.113 -0.0389 -2.4614  1.7615
  328MPD2     N 4931   4.163   2.443  16.766 -0.2371 -0.2312 -0.5391
  328MPD2    H5 4932   4.163   2.540  16.795 -1.0391 -0.1256 -0.8868
  328MPD2    N1 4933   4.381   2.015  16.907 -0.4675  0.5973 -0.4968
  328MPD2    H7 4934   4.416   1.966  16.989  0.7300  0.4071 -1.1224
  329TMC3    C1 4935   4.351   1.806  16.805 -0.6170  0.5063 -0.2409
  329TMC3    C2 4936   4.316   1.744  16.688 -0.4432 -0.4123 -0.4591
  329TMC3    C3 4937   4.261   1.619  16.696  0.0926  0.1551  0.0627
  329TMC3    C4 4938   4.347   1.738  16.926  0.0632 -0.1983 -0.3245
  329TMC3    C5 4939   4.303   1.608  16.917 -0.5915  0.3806  0.3866
  329TMC3    C6 4940   4.250   1.550  16.810  0.6495  0.2632 -0.6897
  329TMC3     C 4941   4.362   1.950  16.786 -0.7086  0.5041 -0.2618
  329TMC3     O 4942   4.343   1.989  16.675 -0.0840  0.1676 -0.3464
  329TMC3     H 4943   4.322   1.784  16.587 -0.9493 -0.2413 -0.4223
  329TMC3    H1 4944   4.384   1.767  17.024  0.7047  0.4080 -0.7495
  329TMC3    H2 4945   4.204   1.452  16.813 -0.2400  0.6382 -2.1274
  329TMC3    C7 4946   4.254   1.565  17.049 -0.1475  0.2070 -0.4187
  329TMC3    C8 4947   4.150   1.601  16.603  0.0992  0.1312  0.2338
  329TMC3    O1 4948   4.231   1.651  17.136  0.3307  0.5266  0.1179
  329TMC3    O2 4949   4.150   1.528  16.506  0.0611  0.1352  0.0276
  330TMC3    C1 4950   2.706   0.856   9.253  0.0792 -0.0025 -0.0984
  330TMC3    C2 4951   2.658   0.748   9.190  0.0032  0.1490  0.3181
  330TMC3    C3 4952   2.629   0.635   9.261 -0.0409 -0.2792 -0.5153
  330TMC3    C4 4953   2.712   0.859   9.386 -0.6350  0.1490  0.2027
  330TMC3    C5 4954   2.687   0.739   9.452  0.1317  0.2602 -0.1032
  330TMC3    C6 4955   2.646   0.621   9.397  0.1761  0.4472 -0.3967
  330TMC3     C 4956   2.671   0.987   9.202 -0.7913 -0.4604 -0.6804
  330TMC3     O 4957   2.713   1.084   9.261  0.1069  0.2866  0.3006
  330TMC3     H 4958   2.630   0.748   9.085  0.8097 -1.9211  0.0997
  330TMC3    H1 4959   2.751   0.949   9.432 -0.7476  0.9327 -1.2497
  330TMC3    H2 4960   2.630   0.530   9.455  0.4926  0.0383 -0.9598
  330TMC3    C7 4961   2.709   0.733   9.596  0.7200  0.7549  0.0456
  330TMC3    C8 4962   2.542   0.539   9.192 -1.1117  0.2611 -0.1557
  330TMC3    O1 4963   2.723   0.622   9.644  0.0913 -0.4213 -0.1309
  330TMC3    O2 4964   2.547   0.533   9.072  0.4446  0.6022 -0.5155
  331MPD2     C 4965   4.539   0.443  12.237  0.7073  0.4058  0.8128
  331MPD2    C1 4966   4.651   0.508  12.196 -0.3768  0.2298  0.2596
  331MPD2    C2 4967   0.047   0.440  12.185 -0.4855 -0.5349 -0.0283
  331MPD2    C3 4968   0.054   0.303  12.207  0.3237 -0.1649 -0.2589
  331MPD2    C4 4969   4.665   0.237  12.245 -0.3391  0.2239  0.4318
  331MPD2    C5 4970   4.545   0.309  12.259 -0.0532  0.6217 -0.4434
  331MPD2     H 4971   0.131   0.493  12.142 -1.7672  0.4528 -1.3215
  331MPD2    H1 4972   4.658   0.130  12.255 -0.2105  0.1117 -0.7017
  331MPD2    H2 4973   4.440   0.485  12.251  0.6202  0.7769 -0.9873
  331MPD2    H3 4974   4.454   0.254  12.280 -0.0112 -0.1171 -2.1720
  331MPD2     N 4975   0.174   0.237  12.172  0.1248 -0.1645  0.0150
  331MPD2    H5 4976   0.246   0.295  12.130  1.3743 -0.8944  1.1862
  331MPD2    N1 4977   4.644   0.642  12.152 -0.7294 -0.6761  0.3590
  331MPD2    H7 4978   0.013   0.676  12.124 -1.6335  1.7459  0.3492
  332TMC3    C1 4979   0.330   0.062  12.159 -0.3529 -0.3204  0.3478
  332TMC3    C2 4980   0.402   0.153  12.080  0.1402  0.1906 -0.4985
  332TMC3    C3 4981   0.542   0.144  12.089 -0.4576 -0.0260 -0.0290
  332TMC3    C4 4982   0.395   4.703  12.248 -0.0250  0.0914  0.9485
  332TMC3    C5 4983   0.535   4.708  12.253 -0.5432  0.0892 -0.6133
  332TMC3    C6 4984   0.614   0.057  12.170  0.1603 -0.4995  0.2659
  332TMC3     C 4985   0.200   0.104  12.207  0.1583  0.2269  0.6029
  332TMC3     O 4986   0.127   0.023  12.266 -0.0027  0.1753 -0.0936
  332TMC3     H 4987   0.354   0.231  12.022  0.0703  0.6723  0.2100
  332TMC3    H1 4988   0.349   4.640  12.323 -2.0708  0.6748  0.1936
  332TMC3    H2 4989   0.723   0.055  12.171  0.2017  0.8368 -0.1633
  332TMC3    C7 4990   0.604   4.620  12.352 -0.6874 -0.2762 -0.4533
  332TMC3    C8 4991   0.628   0.218  11.998 -0.2714  0.0387  0.8327
  332TMC3    O1 4992   0.537   4.530  12.401  0.4578  0.7698 -0.6140
  332TMC3    O2 4993   0.736   0.263  12.040  0.1567 -0.0568  0.0635
  333MPD2     C 4994   0.970   0.222  11.181 -0.4242 -0.0885 -0.6493
  333MPD2    C1 4995   0.982   0.109  11.104  0.6656  0.1601 -0.7960
  333MPD2    C2 4996   0.930   4.717  11.155 -0.5703 -0.3080 -0.1589
  333MPD2    C3 4997   0.870   4.705  11.279 -0.8176 -0.2232  0.5091
  333MPD2    C4 4998   0.861   0.099  11.352 -0.2808  0.3905 -0.7224
  333MPD2    C5 4999   0.911   0.217  11.305  0.0389  0.5880 -0.3633
  333MPD2     H 5000   0.937   4.625  11.097 -1.2354 -1.1782  1.1380
  333MPD2    H1 5001   0.816   0.100  11.451 -0.7780 -0.7728 -0.9352
  333MPD2    H2 5002   0.998   0.316  11.136 -1.8551  1.4510  1.6975
  333MPD2    H3 5003   0.911   0.307  11.366  4.2650 -0.4109  1.0807
  333MPD2     N 5004   0.826   4.578  11.323  0.0438  0.2787 -0.0186
  333MPD2    H5 5005   0.849   4.492  11.274  1.5020 -0.0281  1.2022
  333MPD2    N1 5006   1.026   0.120  10.966  0.4829  0.0514 -0.0379
  333MPD2    H7 5007   1.051   0.210  10.925  0.8035  0.9170  2.0529
  334TMC3    C1 5008   1.089   0.051  10.742 -0.3367  0.2883 -0.0396
  334TMC3    C2 5009   1.180   4.681  10.697 -0.6469 -0.2456  0.3914
  334TMC3    C3 5010   1.258   0.006  10.598 -0.0593  0.6248  0.0960
  334TMC3    C4 5011   1.073   0.180  10.699  0.2017  0.3916 -0.3133
  334TMC3    C5 5012   1.156   0.222  10.601 -0.4646 -0.2893  0.4018
  334TMC3    C6 5013   1.251   0.134  10.550 -0.8095  0.3935 -0.5133
  334TMC3     C 5014   1.036   0.022  10.875  0.4843  0.1847  0.3902
  334TMC3     O 5015   1.005   4.625  10.882  0.2419  0.2648  0.4198
  334TMC3     H 5016   1.202   4.589  10.750  1.6573  0.8071  1.2655
  334TMC3    H1 5017   0.979   0.229  10.722 -0.3721 -1.3043  1.0119
  334TMC3    H2 5018   1.312   0.161  10.464 -0.8523 -2.0688 -1.3466
  334TMC3    C7 5019   1.101   0.321  10.499 -0.6723  0.0881 -0.2254
  334TMC3    C8 5020   1.372   4.649  10.567  0.0916 -0.1290  0.4398
  334TMC3    O1 5021   1.181   0.384  10.431  0.5050 -0.3953  0.3065
  334TMC3    O2 5022   1.355   4.528  10.579 -0.6366  0.3282  0.2545
  335TMC3    C1 5023   0.316   2.372  17.583  0.3250 -0.5494 -1.2816
  335TMC3    C2 5024   0.238   2.311  17.485  0.4784  0.8389 -0.1775
  335TMC3    C3 5025   0.299   2.292  17.366  0.5489  0.0266 -0.6236
  335TMC3    C4 5026   0.446   2.412  17.561  0.0143 -0.4941 -0.5000
  335TMC3    C5 5027   0.498   2.389  17.436  0.2501 -0.1337  0.3862
  335TMC3    C6 5028   0.424   2.329  17.332  0.2257  0.2243 -0.0915
  335TMC3     C 5029   0.240   2.434  17.686 -0.4508  0.2690  0.6644
  335TMC3     O 5030   0.126   2.385   0.009 -0.9410 -0.4139 -0.1652
  335TMC3     H 5031   0.137   2.280  17.505  1.1040  0.4956  2.3751
  335TMC3    H1 5032   0.500   2.476  17.630 -2.0308 -0.0191  0.6509
  335TMC3    H2 5033   0.468   2.314  17.234  1.6835  2.3712  0.2103
  335TMC3    C7 5034   0.641   2.390  17.413  0.1394  0.5913  0.6284
  335TMC3    C8 5035   0.215   2.255  17.254  0.3013 -0.2019 -0.3175
  335TMC3    O1 5036   0.680   2.337  17.310 -0.1953 -0.1891  0.6023
  335TMC3    O2 5037   0.234   2.311  17.146  0.3866 -0.5038 -0.3525
  336MPD2     C 5038   0.201   4.688  16.080  0.2479  0.6866  0.6471
  336MPD2    C1 5039   0.153   4.637  15.961 -0.1343 -0.0880  0.1275
  336MPD2    C2 5040   0.174   4.499  15.942  0.0001 -0.3839 -0.0632
  336MPD2    C3 5041   0.220   4.414  16.042  0.2362 -0.0151  0.4514
  336MPD2    C4 5042   0.275   4.471  16.153  0.1005 -0.1913 -0.1835
  336MPD2    C5 5043   0.266   4.608  16.175  0.1973  0.3798  0.8935
  336MPD2     H 5044   0.140   4.455  15.849 -1.2111  2.3654 -0.9348
  336MPD2    H1 5045   0.320   4.410  16.230  0.3064  0.0365 -0.1224
  336MPD2    H2 5046   0.190   0.072  16.095  1.8079  0.6921  1.7633
  336MPD2    H3 5047   0.292   4.657  16.268 -0.9439 -1.5511  2.2147
  336MPD2     N 5048   0.215   4.275  16.038 -0.2243 -0.1553  0.1839
  336MPD2    H5 5049   0.248   4.228  16.122 -1.6359  0.1179  0.8991
  336MPD2    N1 5050   0.085   4.714  15.867 -0.3975 -0.2591 -0.0255
  336MPD2    H7 5051   0.049   4.665  15.786 -0.7910 -1.1050  0.6666
  337TMC3    C1 5052   4.713   0.158  15.747  0.5837 -0.1392 -0.3723
  337TMC3    C2 5053   4.624   0.069  15.694  0.3713 -0.5667 -0.0296
  337TMC3    C3 5054   4.555   0.123  15.588  0.3227 -0.0908  0.4403
  337TMC3    C4 5055   0.018   0.285  15.701  0.4694 -0.5485 -0.6059
  337TMC3    C5 5056   4.681   0.325  15.585  0.2662  0.8339  0.3104
  337TMC3    C6 5057   4.579   0.247  15.537  0.5783  0.1568 -0.6851
  337TMC3     C 5058   0.061   0.126  15.868 -0.1700 -0.3431  0.4500
  337TMC3     O 5059   0.107   0.214  15.939  0.2590 -0.6161 -1.0087
  337TMC3     H 5060   4.597   4.697  15.739 -0.6706 -0.4790 -0.4822
  337TMC3    H1 5061   0.093   0.348  15.747 -0.6614  0.3088  0.0517
  337TMC3    H2 5062   4.512   0.294  15.466  1.3098  0.5327 -1.1290
  337TMC3    C7 5063   4.678   0.468  15.547  0.1452  0.0845 -0.0990
  337TMC3    C8 5064   4.419   0.068  15.574  0.6185  0.2256  0.3727
  337TMC3    O1 5065   4.639   0.499  15.436  0.6685 -0.2774 -0.0343
  337TMC3    O2 5066   4.386   4.721  15.665 -0.4077  0.6125 -0.4437
  338MPD2     C 5067   0.538   4.344   1.064  0.4158  0.3997 -0.3684
  338MPD2    C1 5068   0.413   4.352   1.004  0.5384 -0.0951 -0.3722
  338MPD2    C2 5069   0.311   4.413   1.075 -0.0097 -0.5115  0.1384
  338MPD2    C3 5070   0.331   4.462   1.201 -0.4078  0.1748  0.3895
  338MPD2    C4 5071   0.454   4.443   1.263 -0.9898 -0.0944  0.0511
  338MPD2    C5 5072   0.559   4.389   1.192  0.3661 -0.3981  0.3665
  338MPD2     H 5073   0.209   4.419   1.039 -0.5108 -1.9360  1.3460
  338MPD2    H1 5074   0.480   4.458   1.367 -3.6320  1.7959  0.4466
  338MPD2    H2 5075   0.627   4.308   1.013  0.8103  1.8684 -0.7204
  338MPD2    H3 5076   0.656   4.383   1.238  0.3036  0.5900  0.6327
  338MPD2     N 5077   0.219   4.508   1.273 -0.0249  0.3670  0.1529
  338MPD2    H5 5078   0.138   4.536   1.219  0.1376 -1.4659 -1.0336
  338MPD2    N1 5079   0.390   4.287   0.879 -0.0198  0.4805  0.3624
  338MPD2    H7 5080   0.461   4.229   0.836  1.3480  1.6146  1.0953
  339TMC3    C1 5081   0.067   4.528   1.457 -0.0524  0.4107 -0.5824
  339TMC3    C2 5082   0.020   4.453   1.559 -0.6183 -0.7440  0.2213
  339TMC3    C3 5083   4.621   4.478   1.613  0.0923 -0.4359 -0.3323
  339TMC3    C4 5084   4.706   4.607   1.380 -0.8688 -0.2758  0.7732
  339TMC3    C5 5085   4.582   4.635   1.439 -0.0326  0.2026  0.0580
  339TMC3    C6 5086   4.538   4.569   1.555 -0.1161 -0.3784 -0.0873
  339TMC3     C 5087   0.207   4.514   1.411  0.9692  0.7781  0.9262
  339TMC3     O 5088   0.281   4.460   1.493 -0.4843 -0.3702  0.0902
  339TMC3     H 5089   0.090   4.385   1.606 -0.1675 -0.7434 -0.4495
  339TMC3    H1 5090   0.011   4.653   1.286  2.1399  0.8272  2.2079
  339TMC3    H2 5091   4.445   4.601   1.601 -0.4269  0.2997 -1.1820
  339TMC3    C7 5092   4.487   4.701   1.348  0.1964  0.2373 -0.4578
  339TMC3    C8 5093   4.562   4.393   1.713  0.1873 -0.8469  0.0385
  339TMC3    O1 5094   4.510   4.700   1.227  0.4731  0.5522 -0.3138
  339TMC3    O2 5095   4.452   4.426   1.757  0.0474 -0.1354 -0.3585
  340MPD2     C 5096   0.806   1.660   9.592  0.0790  0.1784 -0.3137
  340MPD2    C1 5097   0.894   1.691   9.492 -0.2974 -0.2598 -0.2065
  340MPD2    C2 5098   1.024   1.717   9.517  0.0876 -0.0825  0.6488
  340MPD2    C3 5099   1.073   1.697   9.643 -0.1235 -0.1229 -0.2271
  340MPD2    C4 5100   0.990   1.661   9.746 -0.8496 -0.6190 -0.0637
  340MPD2    C5 5101   0.855   1.646   9.720 -0.1326 -0.2722  0.5410
  340MPD2     H 5102   1.098   1.726   9.438 -0.9063  2.9211  0.0766
  340MPD2    H1 5103   1.018   1.649   9.850 -1.2874  0.5535  0.1915
  340MPD2    H2 5104   0.701   1.634   9.582  0.1219 -0.2469  0.3420
  340MPD2    H3 5105   0.794   1.618   9.805  0.1066  0.5751  0.9937
  340MPD2     N 5106   1.207   1.714   9.685 -0.3560 -0.1071 -0.3188
  340MPD2    H5 5107   1.223   1.706   9.785  0.1233 -0.4670 -0.4224
  340MPD2    N1 5108   0.861   1.671   9.358 -0.4332 -0.3313 -0.1007
  340MPD2    H7 5109   0.936   1.659   9.291  0.5992  1.0353  0.7909
  341TMC3    C1 5110   0.744   1.559   9.193 -0.6091 -0.1419  0.3843
  341TMC3    C2 5111   0.633   1.486   9.168 -0.0393 -0.0706  0.3486
  341TMC3    C3 5112   0.643   1.404   9.059  1.2779 -0.5874  0.0748
  341TMC3    C4 5113   0.854   1.570   9.107 -0.0597 -0.0792  0.3808
  341TMC3    C5 5114   0.826   1.522   8.978  0.2083  0.1795  0.1972
  341TMC3    C6 5115   0.725   1.433   8.953  0.1148  0.1269 -0.3340
  341TMC3     C 5116   0.738   1.634   9.319  0.9157 -0.1542 -0.6505
  341TMC3     O 5117   0.628   1.636   9.375  0.2957 -0.1157  0.3081
  341TMC3     H 5118   0.556   1.468   9.241  0.1238 -0.8609  0.3215
  341TMC3    H1 5119   0.940   1.634   9.121 -0.7259  0.1942  3.2032
  341TMC3    H2 5120   0.747   1.378   8.863 -1.3927 -0.3062 -0.4304
  341TMC3    C7 5121   0.927   1.533   8.880 -0.4799 -0.3702  0.7849
  341TMC3    C8 5122   0.546   1.303   9.046  0.1893 -0.0118  0.4803
  341TMC3    O1 5123   1.041   1.531   8.915  0.5908  0.1525  0.2060
  341TMC3    O2 5124   0.477   1.279   9.150 -0.6345 -0.4310 -0.1787
  342MPD2     C 5125   2.788   0.285  16.845 -0.3565  0.1677  0.1866
  342MPD2    C1 5126   2.909   0.354  16.837  0.1849 -0.3974 -0.2984
  342MPD2    C2 5127   2.905   0.493  16.827  0.5188 -0.2917 -1.0379
  342MPD2    C3 5128   2.792   0.569  16.831 -0.6136 -0.2615 -0.6748
  342MPD2    C4 5129   2.680   0.493  16.845 -0.3950  0.5024 -0.0887
  342MPD2    C5 5130   2.671   0.357  16.841 -0.1993 -0.0572 -0.3345
  342MPD2     H 5131   3.000   0.546  16.827 -1.1082  2.6492  0.9135
  342MPD2    H1 5132   2.586   0.547  16.841 -0.7581 -0.0771  0.7943
  342MPD2    H2 5133   2.785   0.177  16.861 -0.7815  0.5662  2.8117
  342MPD2    H3 5134   2.572   0.314  16.845 -0.1169 -0.4428 -2.3652
  342MPD2     N 5135   2.784   0.710  16.832  0.0687 -0.9922 -0.5538
  342MPD2    H5 5136   2.698   0.756  16.859  0.4144 -0.9128  0.4116
  342MPD2    N1 5137   3.030   0.278  16.846  0.8160 -0.0734  0.2024
  342MPD2    H7 5138   3.019   0.177  16.845 -3.2346  0.3682  1.1351
  343TMC3    C1 5139   3.249   0.225  16.898 -0.7159 -0.0705  0.4418
  343TMC3    C2 5140   3.379   0.232  16.865  0.3323  0.2709  0.3176
  343TMC3    C3 5141   3.445   0.112  16.862 -0.4559  0.2176  0.1234
  343TMC3    C4 5142   3.195   0.106  16.944  0.5744 -0.5094  0.1114
  343TMC3    C5 5143   3.273   4.716  16.946  0.5671 -0.7961 -0.6365
  343TMC3    C6 5144   3.401   4.714  16.908  0.5109 -0.3768 -0.5393
  343TMC3     C 5145   3.157   0.329  16.858  0.9109 -0.8702  0.1334
  343TMC3     O 5146   3.198   0.443  16.844  0.0438 -0.3647 -0.4891
  343TMC3     H 5147   3.418   0.324  16.822  1.1808 -0.5107 -0.5667
  343TMC3    H1 5148   3.104   0.098  17.002  1.0951  0.9957  1.1561
  343TMC3    H2 5149   3.466   4.628  16.913 -2.5834 -2.6485  1.1536
  343TMC3    C7 5150   3.208   4.594  17.007  0.4102  1.0323  0.4838
  343TMC3    C8 5151   3.591   0.133  16.842 -0.4642 -0.3872  0.6000
  343TMC3    O1 5152   3.088   4.584  17.028  0.1578 -0.3555  0.1488
  343TMC3    O2 5153   3.637   0.239  16.878  0.6093  0.1069  0.1533
  344MPD2     C 5154   4.700   4.278  10.241 -1.0184  0.1332  1.3457
  344MPD2    C1 5155   4.595   4.325  10.172  0.1477  0.7319  0.5017
  344MPD2    C2 5156   4.609   4.401  10.061 -1.1060 -0.3872 -0.1024
  344MPD2    C3 5157   0.014   4.447  10.018  0.4977  0.0618 -0.3412
  344MPD2    C4 5158   0.119   4.385  10.080 -0.0018 -0.2635  0.3325
  344MPD2    C5 5159   0.102   4.309  10.191  0.3096 -0.5782 -0.6350
  344MPD2     H 5160   4.518   4.441  10.018 -0.7877  0.2131 -0.2125
  344MPD2    H1 5161   0.216   4.408  10.037 -0.5138  1.7649  0.2617
  344MPD2    H2 5162   4.692   4.236  10.341 -0.2591 -0.6213  1.0849
  344MPD2    H3 5163   0.185   4.263  10.244 -0.0890  0.4710  0.8725
  344MPD2     N 5164   0.029   4.549   9.923 -0.0377  0.1382 -0.1519
  344MPD2    H5 5165   0.122   4.575   9.891  0.2792  0.4176  0.9974
  344MPD2    N1 5166   4.458   4.303  10.217 -0.4850  1.1878  0.1536
  344MPD2    H7 5167   4.385   4.365  10.185 -1.6037  0.7770  1.9032
  345TMC3    C1 5168   4.700   4.715   9.767  0.1651 -0.0293  0.0218
  345TMC3    C2 5169   0.105   0.037   9.779 -0.0129  0.9169  0.4905
  345TMC3    C3 5170   0.127   0.159   9.736  0.5123  0.4613  0.7068
  345TMC3    C4 5171   4.597   0.065   9.712  0.2859 -0.1955 -0.2985
  345TMC3    C5 5172   4.631   0.186   9.661  0.9716  0.3085 -0.9152
  345TMC3    C6 5173   0.036   0.238   9.675  0.2559 -0.1042  0.3534
  345TMC3     C 5174   4.649   4.615   9.860  0.2608 -0.2275 -0.3495
  345TMC3     O 5175   4.531   4.591   9.851 -0.0840 -0.0462 -0.1713
  345TMC3     H 5176   0.178   4.719   9.847 -1.4487 -0.5989  1.1236
  345TMC3    H1 5177   4.493   0.038   9.708  0.7257 -2.0124  0.8705
  345TMC3    H2 5178   0.060   0.340   9.649  3.8091 -1.1299 -0.3345
  345TMC3    C7 5179   4.533   0.281   9.621  0.0123 -0.1631  0.2486
  345TMC3    C8 5180   0.269   0.203   9.737 -0.0819 -0.9203  0.1106
  345TMC3    O1 5181   4.550   0.401   9.638 -0.0092 -0.3678 -0.2577
  345TMC3    O2 5182   0.332   0.171   9.834  0.0357  0.1472  0.1186
  346MPD2     C 5183   4.116   1.657  14.144  0.0529 -0.3152 -0.2194
  346MPD2    C1 5184   4.214   1.559  14.146 -0.0239  0.4937 -0.0710
  346MPD2    C2 5185   4.325   1.592  14.223 -0.3777 -0.1548  0.0838
  346MPD2    C3 5186   4.329   1.707  14.304 -0.5232  0.2498  0.2427
  346MPD2    C4 5187   4.229   1.799  14.302 -0.1866  0.9822  0.3763
  346MPD2    C5 5188   4.118   1.765  14.228  0.1448  0.2210  0.4984
  346MPD2     H 5189   4.404   1.517  14.225  1.8068  2.1893  2.0786
  346MPD2    H1 5190   4.229   1.889  14.363  1.4390  1.1843  0.0778
  346MPD2    H2 5191   4.035   1.650  14.073  1.3273 -0.0660 -1.7045
  346MPD2    H3 5192   4.029   1.825  14.219  0.7084  0.2904 -4.1778
  346MPD2     N 5193   4.440   1.718  14.402  0.1982  0.0830  0.0510
  346MPD2    H5 5194   4.499   1.636  14.408 -1.2809 -1.1062 -1.5772
  346MPD2    N1 5195   4.210   1.442  14.067 -0.4367  0.5431  0.1148
  346MPD2    H7 5196   4.297   1.390  14.065 -0.5337  0.1836  4.4053
  347TMC3    C1 5197   4.560   1.782  14.597  0.2472  0.3768 -0.9918
  347TMC3    C2 5198   4.668   1.732  14.549  0.3175  0.8243  0.2019
  347TMC3    C3 5199   0.012   1.644  14.624 -0.7601  0.9393  0.1246
  347TMC3    C4 5200   4.528   1.772  14.729 -0.3448 -1.1153 -0.0663
  347TMC3    C5 5201   4.604   1.689  14.807  0.3620 -0.3068  0.7423
  347TMC3    C6 5202   4.712   1.624  14.756 -0.1974  0.2176  0.4505
  347TMC3     C 5203   4.440   1.810  14.512  0.2632  0.5938 -0.5563
  347TMC3     O 5204   4.351   1.889  14.543 -0.3469 -0.2241  0.0831
  347TMC3     H 5205   4.695   1.747  14.445 -1.5113 -0.7834 -0.4931
  347TMC3    H1 5206   4.437   1.823  14.761  0.8808  0.0583  1.5562
  347TMC3    H2 5207   0.039   1.541  14.806 -0.5160 -0.1746  0.1200
  347TMC3    C7 5208   4.544   1.652  14.935 -0.3127 -0.2246  0.2322
  347TMC3    C8 5209   0.117   1.567  14.556  0.2523  0.0767 -0.1175
  347TMC3    O1 5210   4.429   1.692  14.958  0.0888  0.2631  0.7352
  347TMC3    O2 5211   0.153   1.459  14.605  0.1845 -0.1312 -0.0109
  348MPD2     C 5212   2.717   1.008  12.135  0.0528  0.3183 -0.6071
  348MPD2    C1 5213   2.798   0.982  12.025 -0.0163  1.0214 -0.6159
  348MPD2    C2 5214   2.758   1.032  11.902  0.3310  0.4442 -0.4334
  348MPD2    C3 5215   2.626   1.061  11.877 -0.3956  0.3195 -1.1697
  348MPD2    C4 5216   2.535   1.067  11.988  0.8154 -0.1893  0.1788
  348MPD2    C5 5217   2.588   1.041  12.112 -0.0017  0.1278 -0.3028
  348MPD2     H 5218   2.822   1.016  11.816 -0.1615 -0.5510 -0.6124
  348MPD2    H1 5219   2.434   1.103  11.971 -0.2658 -2.7901  1.1048
  348MPD2    H2 5220   2.745   0.985  12.237 -0.4352 -0.7424 -0.7125
  348MPD2    H3 5221   2.515   1.039  12.193  1.2699 -0.8136  0.8157
  348MPD2     N 5222   2.591   1.104  11.743 -0.7630  0.4701  0.6736
  348MPD2    H5 5223   2.671   1.126  11.684 -2.3306  1.5395 -1.0625
  348MPD2    N1 5224   2.930   0.929  12.040 -0.2087  0.3567  0.4516
  348MPD2    H7 5225   2.989   0.931  11.958  0.0083  1.6987  0.6247
  349TMC3    C1 5226   3.115   0.830  12.138  0.4057 -0.3719  0.3575
  349TMC3    C2 5227   3.137   0.701  12.174 -0.7067 -0.3475 -0.2717
  349TMC3    C3 5228   3.250   0.641  12.127  0.1175 -0.1407  0.8324
  349TMC3    C4 5229   3.184   0.891  12.041  0.3310  0.5024 -0.2669
  349TMC3    C5 5230   3.297   0.833  11.996 -0.1505 -0.7879 -0.8588
  349TMC3    C6 5231   3.338   0.707  12.044 -0.2817 -0.2611 -1.0011
  349TMC3     C 5232   2.980   0.873  12.156  0.5282 -0.3745  0.0252
  349TMC3     O 5233   2.919   0.828  12.252  0.0862  0.1697 -0.4042
  349TMC3     H 5234   3.060   0.643  12.224  0.2246 -0.4725  1.0030
  349TMC3    H1 5235   3.171   0.993  12.008  2.1014  0.3156 -1.4985
  349TMC3    H2 5236   3.421   0.666  11.988  1.6852  2.7668 -0.2597
  349TMC3    C7 5237   3.327   0.854  11.854  0.0118  0.6648  0.4755
  349TMC3    C8 5238   3.257   0.502  12.154  0.1340  0.2618 -0.5680
  349TMC3    O1 5239   3.233   0.893  11.787  0.1652  0.0912 -0.0206
  349TMC3    O2 5240   3.198   0.467  12.255 -0.3689  0.2619  0.7160
  350MPD2     C 5241   1.519   2.835   9.420  0.0429 -0.3303  0.5857
  350MPD2    C1 5242   1.655   2.829   9.429 -0.1067 -0.8988  0.0649
  350MPD2    C2 5243   1.733   2.944   9.413  0.0033  0.6024 -0.3829
  350MPD2    C3 5244   1.667   3.063   9.383  0.8852 -0.0310 -1.3820
  350MPD2    C4 5245   1.532   3.070   9.380  0.7236  0.6232 -0.1738
  350MPD2    C5 5246   1.458   2.962   9.399  0.1752  0.2183  0.0626
  350MPD2     H 5247   1.841   2.943   9.409 -0.0947  1.1377 -2.9696
  350MPD2    H1 5248   1.481   3.163   9.357 -0.8079  0.2670  1.8564
  350MPD2    H2 5249   1.448   2.753   9.426 -2.3229  1.7905  1.4429
  350MPD2    H3 5250   1.350   2.971   9.403  0.0493 -1.0321 -0.7391
  350MPD2     N 5251   1.748   3.176   9.359 -0.1210 -0.2150  0.0369
  350MPD2    H5 5252   1.843   3.147   9.337 -0.5411 -0.4235 -1.5133
  350MPD2    N1 5253   1.721   2.711   9.469  0.2906 -0.1510  0.2496
  350MPD2    H7 5254   1.822   2.717   9.475  0.1002  2.7564  0.4504
  351TMC3    C1 5255   1.758   2.492   9.526  0.4436 -0.0161 -0.0450
  351TMC3    C2 5256   1.874   2.493   9.456 -0.1678  0.0182 -0.1062
  351TMC3    C3 5257   1.969   2.401   9.495 -0.1456  0.6171 -0.2351
  351TMC3    C4 5258   1.728   2.404   9.626 -0.0347 -0.2909  0.5786
  351TMC3    C5 5259   1.826   2.311   9.666 -0.4116  0.5589 -0.5440
  351TMC3    C6 5260   1.944   2.311   9.593  0.1822 -0.1776 -1.2373
  351TMC3     C 5261   1.667   2.601   9.523 -0.0039  0.8999 -0.3626
  351TMC3     O 5262   1.553   2.575   9.568 -0.2987 -0.1117 -0.8215
  351TMC3     H 5263   1.890   2.559   9.371 -0.9673 -1.5585 -1.4947
  351TMC3    H1 5264   1.642   2.416   9.691 -0.4672 -2.5385  0.4377
  351TMC3    H2 5265   2.015   2.231   9.610 -1.3433 -1.3257 -0.3017
  351TMC3    C7 5266   1.824   2.263   9.802  0.2986  0.0283 -0.5633
  351TMC3    C8 5267   2.080   2.368   9.414 -0.3658 -0.3474 -0.7247
  351TMC3    O1 5268   1.725   2.263   9.870 -0.0548 -0.0796 -0.3277
  351TMC3    O2 5269   2.182   2.343   9.473 -0.1702  0.0865 -0.0457
  352MPD2     C 5270   0.366   1.828   1.272  0.4891  0.2515  0.2515
  352MPD2    C1 5271   0.236   1.803   1.300 -0.3844  0.0072  1.2679
  352MPD2    C2 5272   0.210   1.706   1.394  0.2164  0.1335 -0.0218
  352MPD2    C3 5273   0.317   1.638   1.452 -0.3265  0.1787 -0.2603
  352MPD2    C4 5274   0.447   1.676   1.417  0.7242  0.3619 -0.1135
  352MPD2    C5 5275   0.469   1.770   1.323  0.3694 -0.4725  0.4431
  352MPD2     H 5276   0.108   1.680   1.421  0.3603  1.0585  1.4210
  352MPD2    H1 5277   0.541   1.639   1.454 -0.7384 -0.8000  2.4908
  352MPD2    H2 5278   0.383   1.904   1.197 -2.2325  0.5593 -0.0704
  352MPD2    H3 5279   0.570   1.790   1.291 -0.1595  1.8827  0.2355
  352MPD2     N 5280   0.298   1.523   1.542 -0.4677  0.7340  0.4603
  352MPD2    H5 5281   0.387   1.480   1.565 -0.6618 -1.8334 -3.5285
  352MPD2    N1 5282   0.145   1.876   1.221  0.1271 -0.1733  0.0080
  352MPD2    H7 5283   0.180   1.936   1.147 -1.1277  0.0755 -0.3753
  353TMC3    C1 5284   0.199   1.326   1.633 -0.3288 -0.0720  0.7085
  353TMC3    C2 5285   0.328   1.265   1.630  0.5767 -0.3590  0.4658
  353TMC3    C3 5286   0.333   1.130   1.650 -0.3950 -0.1613 -0.1103
  353TMC3    C4 5287   0.091   1.251   1.668  0.3212  0.1681  0.3420
  353TMC3    C5 5288   0.102   1.126   1.703 -0.6857  0.3418  0.8140
  353TMC3    C6 5289   0.218   1.056   1.682  0.3008 -0.0201  0.7634
  353TMC3     C 5290   0.180   1.461   1.581  0.6788  0.2377  0.3321
  353TMC3     O 5291   0.066   1.504   1.563 -0.3668  0.2158 -0.0515
  353TMC3     H 5292   0.422   1.315   1.608 -0.8442  1.6183 -1.0742
  353TMC3    H1 5293   0.001   1.312   1.671 -1.9279 -3.1593 -0.6179
  353TMC3    H2 5294   0.230   0.950   1.701  1.0093 -0.5510 -2.7155
  353TMC3    C7 5295   4.702   1.054   1.728 -0.5686  0.4879 -0.3401
  353TMC3    C8 5296   0.466   1.065   1.636 -0.1588  0.9766  0.2488
  353TMC3    O1 5297   4.604   1.083   1.658  0.4584  0.0829 -0.0290
  353TMC3    O2 5298   0.564   1.144   1.635 -0.1195 -0.3167 -0.3178
  354TMC3    C1 5299   1.929   2.512  13.347  0.2447 -0.4770  0.3283
  354TMC3    C2 5300   1.950   2.624  13.427  1.3702 -0.4297 -0.3035
  354TMC3    C3 5301   1.914   2.747  13.381 -0.0060 -0.2908  0.3453
  354TMC3    C4 5302   1.879   2.524  13.218  0.8468 -0.1303 -1.0723
  354TMC3    C5 5303   1.824   2.646  13.188  0.4934  0.1854 -0.3290
  354TMC3    C6 5304   1.853   2.760  13.259  0.1019  1.0111  0.7302
  354TMC3     C 5305   1.890   2.388  13.412  0.0112 -0.4182  0.7154
  354TMC3     O 5306   1.859   2.294  13.339  0.2690  0.2583 -0.1918
  354TMC3     H 5307   1.985   2.613  13.529 -0.9525  2.2051  0.7737
  354TMC3    H1 5308   1.853   2.435  13.161 -1.2704  1.8437 -3.2294
  354TMC3    H2 5309   1.828   2.860  13.227  1.4782  0.7641 -1.1541
  354TMC3    C7 5310   1.805   2.683  13.056  1.6673  0.1293  0.3445
  354TMC3    C8 5311   2.008   2.849  13.413 -0.4233 -0.1837 -0.6100
  354TMC3    O1 5312   1.722   2.771  13.032  0.0711 -0.6536  0.0500
  354TMC3    O2 5313   2.058   2.866  13.524  0.1148 -0.2402 -0.0576
  355MPD2     C 5314   2.640   3.010  11.656  0.5633  0.7034 -0.0462
  355MPD2    C1 5315   2.630   3.110  11.564  0.9210 -0.3883 -0.1909
  355MPD2    C2 5316   2.723   3.135  11.467  0.4686  0.2661 -0.7317
  355MPD2    C3 5317   2.841   3.060  11.463  0.2041 -0.5401 -0.0869
  355MPD2    C4 5318   2.849   2.960  11.560 -0.1463  0.7282 -0.5848
  355MPD2    C5 5319   2.753   2.937  11.658  0.3871  0.3996  0.6984
  355MPD2     H 5320   2.719   3.231  11.418  0.8143  0.2128 -0.8662
  355MPD2    H1 5321   2.934   2.893  11.551 -1.3828 -0.6204 -2.1815
  355MPD2    H2 5322   2.567   2.993  11.735  1.8378 -0.1683  0.9363
  355MPD2    H3 5323   2.761   2.867  11.741 -2.8319 -0.8719 -0.0546
  355MPD2     N 5324   2.951   3.090  11.374 -0.0392 -0.2158 -0.3832
  355MPD2    H5 5325   3.040   3.049  11.401  0.6725  1.1641 -0.6461
  355MPD2    N1 5326   2.527   3.202  11.560 -0.3588 -0.2945  0.1830
  355MPD2    H7 5327   2.527   3.272  11.486 -1.3374  0.0998  0.5626
  356TMC3    C1 5328   3.087   3.252  11.269 -0.9981 -0.5625  0.2524
  356TMC3    C2 5329   3.113   3.328  11.156 -0.2475  0.1038  0.1372
  356TMC3    C3 5330   3.211   3.431  11.171  0.2874 -0.3266  0.8811
  356TMC3    C4 5331   3.141   3.272  11.390  0.3916 -0.0188  0.0498
  356TMC3    C5 5332   3.239   3.374  11.400 -1.3869  0.4946 -0.8623
  356TMC3    C6 5333   3.282   3.453  11.291 -0.3876  0.4752  0.4224
  356TMC3     C 5334   2.958   3.183  11.278  0.6702  0.6780  0.0324
  356TMC3     O 5335   2.861   3.240  11.223 -0.4234  0.5605 -0.7001
  356TMC3     H 5336   3.054   3.301  11.069  1.4476 -2.5841 -0.1639
  356TMC3    H1 5337   3.108   3.227  11.483 -1.1925 -0.4143 -0.6990
  356TMC3    H2 5338   3.358   3.529  11.305 -0.7618  0.7263  1.0706
  356TMC3    C7 5339   3.306   3.390  11.531  0.2110 -0.1408 -0.3356
  356TMC3    C8 5340   3.249   3.494  11.046 -0.3639 -0.7290  0.3319
  356TMC3    O1 5341   3.283   3.301  11.614  0.2827  0.1201 -0.0433
  356TMC3    O2 5342   3.188   3.460  10.943 -0.1758  0.0215  0.2349
  357MPD2     C 5343   2.113   3.121   0.796 -0.4340 -0.2585 -0.2949
  357MPD2    C1 5344   2.151   3.007   0.860 -0.3015  0.1987 -0.3878
  357MPD2    C2 5345   2.107   2.984   0.993  0.4053 -0.6794  0.6330
  357MPD2    C3 5346   2.035   3.085   1.058  0.3415 -0.0707 -0.3544
  357MPD2    C4 5347   1.998   3.197   0.994 -0.0414 -0.0091 -0.4959
  357MPD2    C5 5348   2.029   3.210   0.855  0.2511 -0.0578  0.9089
  357MPD2     H 5349   2.137   2.899   1.053  2.6966  0.5198  1.1672
  357MPD2    H1 5350   1.928   3.270   1.033  1.6037  1.5036 -0.3901
  357MPD2    H2 5351   2.158   3.139   0.700  0.1386 -1.2112 -0.2069
  357MPD2    H3 5352   2.005   3.304   0.806  2.4724  0.0038 -0.0242
  357MPD2     N 5353   1.988   3.075   1.191 -0.6687 -0.3283  0.2880
  357MPD2    H5 5354   1.951   3.163   1.225  0.9857 -0.6374  2.8902
  357MPD2    N1 5355   2.231   2.917   0.785  0.1077 -0.4008 -0.3411
  357MPD2    H7 5356   2.258   2.947   0.692 -0.2941 -0.2324 -0.4021
  358TMC3    C1 5357   2.366   2.716   0.738  0.1305  0.4849 -0.3038
  358TMC3    C2 5358   2.319   2.714   0.614 -0.8226  0.0843  0.0453
  358TMC3    C3 5359   2.317   2.603   0.536 -1.1443 -0.6634 -0.0323
  358TMC3    C4 5360   2.417   2.604   0.791 -0.4058  0.1971  0.1465
  358TMC3    C5 5361   2.416   2.494   0.712 -0.0347 -0.7399 -0.2660
  358TMC3    C6 5362   2.373   2.487   0.583  0.1009 -0.3179 -0.0629
  358TMC3     C 5363   2.292   2.802   0.837 -1.1483 -0.1648 -0.4980
  358TMC3     O 5364   2.296   2.765   0.954 -0.7091  0.3083 -0.4643
  358TMC3     H 5365   2.274   2.800   0.565  0.5971  0.0200 -1.3800
  358TMC3    H1 5366   2.470   2.600   0.886  1.3115  2.3669 -0.7251
  358TMC3    H2 5367   2.346   2.390   0.544 -0.5467 -0.3568  0.4748
  358TMC3    C7 5368   2.476   2.375   0.767  0.3353 -0.4213 -1.0659
  358TMC3    C8 5369   2.231   2.601   0.411  0.1855 -0.0463  0.0606
  358TMC3    O1 5370   2.490   2.367   0.888  0.1369  0.1531  0.0580
  358TMC3    O2 5371   2.215   2.705   0.347 -0.0911  0.3662  0.5413
  359MPD2     C 5372   2.413   1.589  12.402  0.4823 -0.4934 -0.5033
  359MPD2    C1 5373   2.428   1.632  12.271  0.6422  0.1085 -0.4602
  359MPD2    C2 5374   2.323   1.712  12.218 -0.2994  0.8754  0.1034
  359MPD2    C3 5375   2.214   1.739  12.305  0.3401  0.2965  0.2529
  359MPD2    C4 5376   2.209   1.687  12.430  0.5878  0.4992 -0.6229
  359MPD2    C5 5377   2.303   1.602  12.477  0.7723 -0.0827 -0.3555
  359MPD2     H 5378   2.333   1.748  12.117  1.4216 -2.9805 -1.1177
  359MPD2    H1 5379   2.126   1.716  12.493  0.5383 -0.5605 -0.2100
  359MPD2    H2 5380   2.482   1.516  12.444  0.0866 -0.7395 -0.2817
  359MPD2    H3 5381   2.297   1.567  12.580  1.3943  1.6961  0.3057
  359MPD2     N 5382   2.118   1.833  12.276  0.9071  0.5563  0.5124
  359MPD2    H5 5383   2.041   1.845  12.340 -0.8411 -0.0916 -1.4682
  359MPD2    N1 5384   2.541   1.591  12.194 -0.3451  0.4784  0.4271
  359MPD2    H7 5385   2.540   1.640  12.105  0.4671  0.9290  0.6704
  360TMC3    C1 5386   2.735   1.492  12.101 -0.3678 -0.5295  0.3068
  360TMC3    C2 5387   2.800   1.377  12.089 -0.3458 -0.0972  0.2036
  360TMC3    C3 5388   2.885   1.363  11.979 -0.5273  0.1358 -0.5690
  360TMC3    C4 5389   2.758   1.602  12.023  0.0425 -0.6320  1.2444
  360TMC3    C5 5390   2.846   1.591  11.922 -0.5821  0.1655  0.4682
  360TMC3    C6 5391   2.893   1.465  11.891  0.0562  0.2252 -0.3933
  360TMC3     C 5392   2.641   1.497  12.218 -0.0095 -0.2277 -0.0523
  360TMC3     O 5393   2.650   1.413  12.311  0.2358 -0.6134  0.0451
  360TMC3     H 5394   2.790   1.307  12.171 -1.0287 -0.4725 -0.1949
  360TMC3    H1 5395   2.709   1.698  12.039 -1.8817 -1.4155  0.1020
  360TMC3    H2 5396   2.962   1.468  11.807  0.8440  0.0346  0.2458
  360TMC3    C7 5397   2.882   1.701  11.837  0.0151 -0.5792  0.0996
  360TMC3    C8 5398   2.987   1.264  11.997 -0.6932  0.5617 -0.7247
  360TMC3    O1 5399   2.933   1.674  11.729  0.0167 -0.1080 -0.9201
  360TMC3    O2 5400   3.023   1.246  12.110 -0.3435  0.3289  0.4885
  361MPD2     C 5401   4.242   1.167  16.558  0.5714 -0.5578 -0.1528
  361MPD2    C1 5402   4.170   1.123  16.667  0.1191  0.4297  0.7354
  361MPD2    C2 5403   4.219   1.041  16.764 -0.5369  0.4120  0.1676
  361MPD2    C3 5404   4.339   0.973  16.742 -0.0318  0.7201 -0.6073
  361MPD2    C4 5405   4.405   1.008  16.626  0.6452 -0.0565  0.5743
  361MPD2    C5 5406   4.363   1.107  16.539  0.1590  0.0212 -0.3056
  361MPD2     H 5407   4.157   1.015  16.849 -1.0162  0.1271 -0.2737
  361MPD2    H1 5408   4.493   0.952  16.598 -0.9693 -2.4918  0.3765
  361MPD2    H2 5409   4.214   1.247  16.491  1.3795 -0.7769 -0.7503
  361MPD2    H3 5410   4.416   1.133  16.449  1.1103  0.7134  0.4483
  361MPD2     N 5411   4.393   0.880  16.831 -0.2846  0.0615  0.6606
  361MPD2    H5 5412   4.481   0.838  16.802 -1.1712  0.3944 -2.5071
  361MPD2    N1 5413   4.035   1.173  16.680  0.0226  0.9967 -0.1943
  361MPD2    H7 5414   3.986   1.158  16.768  1.9787 -0.6090  0.6257
  362TMC3    C1 5415   3.827   1.249  16.598  0.9304  0.6545 -0.0784
  362TMC3    C2 5416   3.809   1.328  16.709 -0.0817 -0.1804 -0.0981
  362TMC3    C3 5417   3.684   1.373  16.730  0.2037  0.5262  0.9277
  362TMC3    C4 5418   3.736   1.218  16.509 -0.1730  0.3495  0.0151
  362TMC3    C5 5419   3.609   1.260  16.540  0.1798  0.1698  0.7093
  362TMC3    C6 5420   3.576   1.334  16.649 -0.0364 -0.0574 -0.1752
  362TMC3     C 5421   3.960   1.213  16.568  0.1157 -0.5651 -0.4056
  362TMC3     O 5422   3.992   1.219  16.448 -0.3961 -0.2980  0.2631
  362TMC3     H 5423   3.886   1.377  16.768  0.8090 -1.7901  0.0755
  362TMC3    H1 5424   3.759   1.163  16.418  2.4722 -0.6840  1.3131
  362TMC3    H2 5425   3.474   1.366  16.666  0.4617 -0.5477  3.7319
  362TMC3    C7 5426   3.539   1.305  16.422  0.0079  0.3766 -0.4630
  362TMC3    C8 5427   3.669   1.487  16.819 -0.4588  0.3374 -0.6181
  362TMC3    O1 5428   3.469   1.406  16.424  0.1558 -0.4387 -0.1670
  362TMC3    O2 5429   3.761   1.529  16.886  0.3002 -0.4196  0.0600
  363TMC3    C1 5430   2.424   2.849   9.176  0.9114 -0.8532  0.1547
  363TMC3    C2 5431   2.415   2.788   9.295 -0.0477 -0.8292  0.4329
  363TMC3    C3 5432   2.449   2.656   9.309 -0.3000 -0.0447  0.1052
  363TMC3    C4 5433   2.470   2.780   9.066 -1.0079 -0.5631 -0.7618
  363TMC3    C5 5434   2.495   2.648   9.084 -0.2470  0.6726 -0.4547
  363TMC3    C6 5435   2.500   2.585   9.202 -0.2843  0.0478 -0.1871
  363TMC3     C 5436   2.407   2.991   9.149 -0.2700 -0.4941 -0.5101
  363TMC3     O 5437   2.388   3.030   9.038  0.5546 -0.1616 -0.0634
  363TMC3     H 5438   2.382   2.841   9.384  0.4219  0.2736 -0.0403
  363TMC3    H1 5439   2.496   2.837   8.977  0.2213  1.9137  1.1825
  363TMC3    H2 5440   2.511   2.478   9.207 -1.1547  0.0350  1.4920
  363TMC3    C7 5441   2.550   2.582   8.972  0.2932 -0.1116 -0.2072
  363TMC3    C8 5442   2.500   2.614   9.445  0.5109 -1.1560  0.1749
  363TMC3    O1 5443   2.634   2.501   8.993 -0.2650  0.2105  0.1806
  363TMC3    O2 5444   2.462   2.685   9.538 -0.2400  0.5604 -0.4817
  364MPD2     C 5445   1.847   2.414  10.934 -0.8142 -0.7601 -0.1619
  364MPD2    C1 5446   1.910   2.377  10.820  0.2998  0.0810 -0.2942
  364MPD2    C2 5447   1.948   2.247  10.804 -0.4736  0.3931 -0.1354
  364MPD2    C3 5448   1.926   2.156  10.906  0.5218 -0.2824 -0.2335
  364MPD2    C4 5449   1.868   2.197  11.025  0.4494  0.4231 -0.0797
  364MPD2    C5 5450   1.835   2.328  11.037 -0.3676 -0.3540 -0.1583
  364MPD2     H 5451   1.999   2.213  10.714 -0.8104 -0.8547  0.1433
  364MPD2    H1 5452   1.871   2.132  11.112 -2.8943 -0.0065 -0.2859
  364MPD2    H2 5453   1.812   2.515  10.951  2.3010  0.2798  0.1935
  364MPD2    H3 5454   1.816   2.372  11.134 -0.4426 -0.3939 -0.1549
  364MPD2     N 5455   1.985   2.021  10.902  0.0379 -0.2816  0.4406
  364MPD2    H5 5456   1.968   1.967  10.986 -2.7105  0.1207  0.1437
  364MPD2    N1 5457   1.930   2.478  10.726  0.1759 -0.4167  0.0242
  364MPD2    H7 5458   1.907   2.573  10.756 -0.1886 -0.5740  0.2568
  365TMC3    C1 5459   1.984   2.597  10.533  0.0157 -0.5697 -0.5008
  365TMC3    C2 5460   2.064   2.596  10.416 -0.5640  0.1514  0.2644
  365TMC3    C3 5461   2.077   2.711  10.349 -0.4954 -0.3986  0.1338
  365TMC3    C4 5462   1.920   2.712  10.580 -0.1192  0.1215 -0.2845
  365TMC3    C5 5463   1.944   2.829  10.515  0.3584  0.5581 -0.3123
  365TMC3    C6 5464   2.025   2.831  10.402  0.0941  0.0843  0.8252
  365TMC3     C 5465   1.969   2.467  10.600 -0.5143  0.7921  0.1599
  365TMC3     O 5466   1.995   2.370  10.533  0.7917  0.4649 -0.1107
  365TMC3     H 5467   2.116   2.510  10.375 -2.0285 -0.0105 -1.2166
  365TMC3    H1 5468   1.843   2.701  10.655 -0.1961 -3.0556 -0.8238
  365TMC3    H2 5469   2.060   2.921  10.353  1.5307 -1.1952 -0.5363
  365TMC3    C7 5470   1.897   2.964  10.552  0.8120  0.1245  0.7479
  365TMC3    C8 5471   2.139   2.723  10.217 -0.0354  0.5875  0.1194
  365TMC3    O1 5472   1.888   3.044  10.461 -0.3826 -0.1655 -0.0640
  365TMC3    O2 5473   2.109   2.810  10.144 -0.5272  0.2165  0.8234
  366MPD2     C 5474   4.367   3.544  15.460 -0.1524 -0.0567 -0.0775
  366MPD2    C1 5475   4.441   3.611  15.369 -0.2571 -0.1679 -0.3636
  366MPD2    C2 5476   4.555   3.541  15.319 -0.2645 -0.0143 -0.5230
  366MPD2    C3 5477   4.589   3.413  15.358  0.2718  0.3426 -0.6393
  366MPD2    C4 5478   4.516   3.352  15.455 -0.1333 -0.7028 -0.0737
  366MPD2    C5 5479   4.410   3.430  15.507  0.5036  0.0411 -0.5039
  366MPD2     H 5480   4.611   3.592  15.241  1.0911  0.2695  0.6256
  366MPD2    H1 5481   4.547   3.254  15.488  0.1559 -0.7069 -0.3609
  366MPD2    H2 5482   4.282   3.593  15.505 -0.8029 -2.1740  1.0255
  366MPD2    H3 5483   4.342   3.382  15.576  1.5626 -0.6945  0.0202
  366MPD2     N 5484   4.703   3.363  15.294 -0.0738  0.4025 -0.2705
  366MPD2    H5 5485   0.011   3.407  15.208  0.1206  0.2573 -0.2765
  366MPD2    N1 5486   4.404   3.734  15.322  0.2679  0.4906 -0.2719
  366MPD2    H7 5487   4.462   3.783  15.255 -1.1015  1.5988 -0.6467
  367TMC3    C1 5488   4.296   3.938  15.312 -0.6915  0.8213 -0.2521
  367TMC3    C2 5489   4.405   3.996  15.364  0.2718  0.8324  0.4378
  367TMC3    C3 5490   4.428   4.130  15.326 -0.4947 -1.1571 -0.2289
  367TMC3    C4 5491   4.210   3.992  15.228 -0.4555 -0.4129 -0.0994
  367TMC3    C5 5492   4.228   4.120  15.198 -0.1403  0.7187  0.2177
  367TMC3    C6 5493   4.331   4.200  15.245 -0.3739  0.6841  0.1062
  367TMC3     C 5494   4.285   3.801  15.344 -0.4347 -0.3447  0.3608
  367TMC3     O 5495   4.176   3.742  15.377 -0.3554  0.3321  0.5777
  367TMC3     H 5496   4.471   3.948  15.436  1.6258  0.6604 -0.9153
  367TMC3    H1 5497   4.131   3.929  15.188 -0.1578 -0.6724 -0.2830
  367TMC3    H2 5498   4.345   4.298  15.201  0.1252 -0.2781 -1.8434
  367TMC3    C7 5499   4.146   4.177  15.093  0.1073  0.3788  0.3530
  367TMC3    C8 5500   4.538   4.198  15.397 -0.2357  0.5662  0.5514
  367TMC3    O1 5501   4.207   4.259  15.030  0.0768 -0.6253  0.1015
  367TMC3    O2 5502   4.616   4.133  15.464 -0.1700 -0.2403 -0.5770
  368MPD2     C 5503   0.500   1.111  12.620 -0.1741  0.1986  0.1821
  368MPD2    C1 5504   0.461   1.240  12.586  0.5629 -0.3073  0.4011
  368MPD2    C2 5505   0.566   1.332  12.559  0.0807  0.3158  0.0380
  368MPD2    C3 5506   0.697   1.295  12.569  0.7197 -0.4396 -0.5954
  368MPD2    C4 5507   0.733   1.165  12.604 -0.5319 -0.3654  0.9146
  368MPD2    C5 5508   0.632   1.077  12.631 -0.4350 -0.3073  0.3926
  368MPD2     H 5509   0.539   1.433  12.532  1.6806  0.3758 -1.3475
  368MPD2    H1 5510   0.834   1.128  12.620 -0.5957 -0.5801  0.8172
  368MPD2    H2 5511   0.423   1.038  12.642  1.1762 -0.2630  3.3602
  368MPD2    H3 5512   0.652   0.976  12.665  0.0846 -0.4024 -0.1988
  368MPD2     N 5513   0.795   1.387  12.528  0.5608 -0.0269  0.2491
  368MPD2    H5 5514   0.761   1.481  12.512  0.2232  0.0429  1.4441
  368MPD2    N1 5515   0.325   1.274  12.574  0.4417  0.4233  0.5753
  368MPD2    H7 5516   0.256   1.207  12.609  0.5966 -0.1177 -0.1518
  369TMC3    C1 5517   0.129   1.405  12.528  0.3990 -0.6653  1.1006
  369TMC3    C2 5518   0.073   1.476  12.425  0.0904 -0.5777  0.6681
  369TMC3    C3 5519   4.661   1.466  12.420  0.9441  0.2997  0.5712
  369TMC3    C4 5520   0.064   1.329  12.623 -0.3901 -0.1378 -0.3518
  369TMC3    C5 5521   4.652   1.323  12.608 -1.0252  0.1318 -0.1792
  369TMC3    C6 5522   4.589   1.385  12.503  0.3910  0.2508 -0.0492
  369TMC3     C 5523   0.273   1.399  12.533 -0.6883 -0.1774 -0.3944
  369TMC3     O 5524   0.328   1.508  12.513  0.6952  1.0664  0.1328
  369TMC3     H 5525   0.122   1.556  12.372 -0.1958  0.1946  1.5756
  369TMC3    H1 5526   0.110   1.288  12.713  0.5395 -3.3448 -2.2765
  369TMC3    H2 5527   4.483   1.370  12.486  0.1267  1.0986  0.9115
  369TMC3    C7 5528   4.583   1.291  12.730  0.2564  0.0514 -0.8752
  369TMC3    C8 5529   4.588   1.573  12.349  0.2293 -0.6901 -0.0202
  369TMC3    O1 5530   4.648   1.274  12.836  0.0068  0.4170 -0.0116
  369TMC3    O2 5531   4.480   1.595  12.402  0.3015 -0.2383  0.2331
  370TMC3    C1 5532   0.442   1.642  16.135  0.1807  0.9729  0.0408
  370TMC3    C2 5533   0.358   1.612  16.238  0.1111  0.1445  0.1445
  370TMC3    C3 5534   0.273   1.501  16.233  0.8673  0.0117  0.1112
  370TMC3    C4 5535   0.452   1.566  16.022  1.3381  0.2331  0.3817
  370TMC3    C5 5536   0.372   1.449  16.023  0.1390 -0.0388  0.2360
  370TMC3    C6 5537   0.278   1.420  16.121  0.7091  0.3811  0.3031
  370TMC3     C 5538   0.540   1.746  16.154  0.3090  0.0479 -0.7342
  370TMC3     O 5539   0.570   1.770  16.269 -0.0033 -0.3920 -0.9994
  370TMC3     H 5540   0.378   1.665  16.330  2.7156  1.0592 -0.9451
  370TMC3    H1 5541   0.532   1.577  15.950  0.1572 -0.3405 -1.0224
  370TMC3    H2 5542   0.226   1.325  16.120  0.7047  0.3751  1.6581
  370TMC3    C7 5543   0.438   1.343  15.953 -0.5449 -0.1586 -0.5529
  370TMC3    C8 5544   0.228   1.441  16.353  0.5280  0.1139  0.3939
  370TMC3    O1 5545   0.554   1.358  15.920  0.2526 -0.2878  0.5023
  370TMC3    O2 5546   0.205   1.324  16.359  0.3232 -0.0597 -0.0508
  371TMC3    C1 5547   1.554   4.477  15.468  0.1121  0.3731  1.1618
  371TMC3    C2 5548   1.531   4.510  15.596  0.3899  0.3164  0.2795
  371TMC3    C3 5549   1.484   4.634  15.617  0.3651 -0.4245 -0.1689
  371TMC3    C4 5550   1.530   4.552  15.358 -0.2575 -0.2765 -0.4952
  371TMC3    C5 5551   1.500   4.682  15.381  0.8861  0.3610 -0.0892
  371TMC3    C6 5552   1.473   0.001  15.509 -0.4858  0.2362  0.1507
  371TMC3     C 5553   1.623   4.352  15.435 -0.1973  0.2596 -0.8737
  371TMC3     O 5554   1.704   4.349  15.344 -0.0223 -0.2912 -0.0535
  371TMC3     H 5555   1.543   4.440  15.678 -0.9028  0.4150  0.5551
  371TMC3    H1 5556   1.549   4.501  15.264  0.8837 -0.5227 -0.1415
  371TMC3    H2 5557   1.477   0.107  15.532 -0.3064  0.2712 -0.0385
  371TMC3    C7 5558   1.540   0.056  15.274 -0.1138 -0.5468  0.1050
  371TMC3    C8 5559   1.419   4.669  15.742  0.3434  0.0761  0.7122
  371TMC3    O1 5560   1.517   0.176  15.287 -0.1019  0.0132  0.1050
  371TMC3    O2 5561   1.409   4.582  15.828 -0.0289 -0.1291 -0.0305
  372MPD2     C 5562   1.362   1.084  12.973  0.2500 -0.0799 -0.0767
  372MPD2    C1 5563   1.438   1.040  13.085  0.4886  0.3999 -0.2243
  372MPD2    C2 5564   1.412   0.919  13.140 -0.6372  0.2438  0.1850
  372MPD2    C3 5565   1.311   0.837  13.084  0.2659  0.2744  0.6115
  372MPD2    C4 5566   1.234   0.877  12.972 -0.3095  0.9041  0.5692
  372MPD2    C5 5567   1.263   1.003  12.917  0.0381  0.8562 -0.1880
  372MPD2     H 5568   1.464   0.868  13.220  0.3291 -0.3755 -0.8503
  372MPD2    H1 5569   1.166   0.811  12.919  0.3453 -0.0930  0.9704
  372MPD2    H2 5570   1.392   1.173  12.920 -1.3711  0.2987 -0.3478
  372MPD2    H3 5571   1.219   1.040  12.824 -2.2002 -0.4379  0.3540
  372MPD2     N 5572   1.293   0.720  13.153  0.0948  0.1638  0.1626
  372MPD2    H5 5573   1.356   0.708  13.232  2.2117 -1.5542 -1.7997
  372MPD2    N1 5574   1.557   1.092  13.134 -0.0938  0.3213  0.4293
  372MPD2    H7 5575   1.600   1.044  13.212  0.2155  2.8923  1.8585
  373TMC3    C1 5576   1.228   0.499  13.205 -0.3509  0.1947 -0.5821
  373TMC3    C2 5577   1.130   0.412  13.239  0.3706  0.0372  0.0908
  373TMC3    C3 5578   1.176   0.288  13.285  0.5306 -0.1519  0.4044
  373TMC3    C4 5579   1.363   0.469  13.199 -0.6621  0.1192  0.1345
  373TMC3    C5 5580   1.397   0.343  13.246 -0.3492  0.0219 -0.5543
  373TMC3    C6 5581   1.306   0.250  13.286 -0.0861  0.1032 -0.2527
  373TMC3     C 5582   1.195   0.620  13.134  0.1017 -0.2700  0.5468
  373TMC3     O 5583   1.091   0.618  13.069 -0.8852 -0.8064  0.1738
  373TMC3     H 5584   1.024   0.432  13.249  0.8688  2.3957  0.5862
  373TMC3    H1 5585   1.434   0.543  13.163  1.9815 -3.1339 -1.3605
  373TMC3    H2 5586   1.338   0.159  13.336 -0.4695  0.7836  1.2423
  373TMC3    C7 5587   1.530   0.286  13.235 -0.5451 -0.2868  0.2343
  373TMC3    C8 5588   1.081   0.182  13.316 -0.4938 -0.2250 -0.0921
  373TMC3    O1 5589   1.539   0.169  13.197 -0.0623 -0.8018  0.3597
  373TMC3    O2 5590   1.089   0.075  13.256  0.6006 -0.4924  0.0560
  374TMC3    C1 5591   2.117   0.503   9.615  0.0826  0.4496 -0.1665
  374TMC3    C2 5592   2.233   0.572   9.576 -0.0115  0.2807  0.2677
  374TMC3    C3 5593   2.215   0.660   9.476  0.3242  0.4670  0.3363
  374TMC3    C4 5594   1.998   0.527   9.554 -0.2968 -0.1571 -0.6085
  374TMC3    C5 5595   1.997   0.613   9.452 -0.4443 -0.0633  0.3887
  374TMC3    C6 5596   2.104   0.681   9.405  0.6429  0.1505 -0.4584
  374TMC3     C 5597   2.113   0.393   9.713  0.3542  0.2729  0.4752
  374TMC3     O 5598   2.005   0.350   9.739  0.0793  0.4731 -0.3101
  374TMC3     H 5599   2.329   0.564   9.626  0.1380 -2.0200 -0.3789
  374TMC3    H1 5600   1.914   0.459   9.568  0.1079 -0.4976  0.1785
  374TMC3    H2 5601   2.106   0.760   9.330 -0.2430  2.3125  1.7749
  374TMC3    C7 5602   1.878   0.613   9.368 -1.4056  0.3722  0.7470
  374TMC3    C8 5603   2.303   0.776   9.479  0.8372  0.0818 -0.0900
  374TMC3    O1 5604   1.774   0.560   9.414  0.0838 -0.0195  0.1879
  374TMC3    O2 5605   2.333   0.838   9.379  0.4754  0.0453  0.0329
  375MPD2     C 5606   1.993   2.188  17.124 -0.4870  0.5110 -0.1157
  375MPD2    C1 5607   1.887   2.099  17.110  0.1569 -0.4780 -0.5247
  375MPD2    C2 5608   1.915   1.985  17.047  0.1614  0.0807 -0.3585
  375MPD2    C3 5609   2.036   1.957  16.984 -0.6351 -0.0949 -0.1068
  375MPD2    C4 5610   2.136   2.052  16.995 -0.0246 -0.2945 -0.3389
  375MPD2    C5 5611   2.116   2.167  17.063 -0.7348 -0.3801 -0.0958
  375MPD2     H 5612   1.836   1.912  17.032 -0.5454  0.7536  0.1210
  375MPD2    H1 5613   2.231   2.041  16.945  0.6698  1.0767  0.6659
  375MPD2    H2 5614   1.983   2.280  17.180 -2.3783 -1.0461  2.1071
  375MPD2    H3 5615   2.195   2.239  17.082 -1.2113  0.7872 -2.4613
  375MPD2     N 5616   2.073   1.837  16.913  0.5538 -0.3253  0.7391
  375MPD2    H5 5617   2.156   1.833  16.854 -0.5573 -0.4805 -0.8061
  375MPD2    N1 5618   1.756   2.111  17.162  0.0627 -1.1037 -0.0065
  375MPD2    H7 5619   1.692   2.039  17.127 -1.1013 -1.0816  2.0803
  376TMC3    C1 5620   2.051   1.658  16.769  0.2251  0.3955  0.2146
  376TMC3    C2 5621   2.186   1.637  16.782 -0.4247  0.0191 -0.7477
  376TMC3    C3 5622   2.253   1.579  16.677 -0.2404  0.1284  0.3573
  376TMC3    C4 5623   1.980   1.626  16.650 -0.6925 -0.2975 -0.2537
  376TMC3    C5 5624   2.054   1.572  16.544 -0.0663  0.2279  0.0777
  376TMC3    C6 5625   2.186   1.539  16.565 -0.1483  0.2589  0.0044
  376TMC3     C 5626   1.987   1.740  16.878 -1.1795 -0.1069 -0.2872
  376TMC3     O 5627   1.873   1.715  16.917 -0.3635  0.0930  0.3856
  376TMC3     H 5628   2.246   1.678  16.863  1.7131 -2.4215 -1.0984
  376TMC3    H1 5629   1.873   1.643  16.645 -0.3357  2.0429  0.3977
  376TMC3    H2 5630   2.241   1.485  16.488  0.9002 -0.3096  1.1492
  376TMC3    C7 5631   2.002   1.573  16.406  0.2029  0.6719 -0.7876
  376TMC3    C8 5632   2.401   1.560  16.694  0.2637 -0.3308 -0.2311
  376TMC3    O1 5633   2.082   1.580  16.312  0.5138  0.0718 -0.7320
  376TMC3    O2 5634   2.441   1.544  16.812  0.3134  0.2516  0.1475
  377MPD2     C 5635   4.197   1.510  11.966 -0.0014  0.0186 -0.3079
  377MPD2    C1 5636   4.279   1.417  12.021 -0.1701  0.8087 -0.6457
  377MPD2    C2 5637   4.233   1.341  12.132  0.0025 -0.3393 -0.0313
  377MPD2    C3 5638   4.110   1.375  12.193  0.4362  0.0148 -0.0479
  377MPD2    C4 5639   4.024   1.468  12.133  1.0246 -0.1624  0.3844
  377MPD2    C5 5640   4.070   1.534  12.024  0.1435  0.1189  0.1330
  377MPD2     H 5641   4.293   1.258  12.168 -1.0985 -0.4815  1.4898
  377MPD2    H1 5642   3.930   1.492  12.182  1.2490 -1.0619  1.2622
  377MPD2    H2 5643   4.216   1.563  11.873 -1.0666  0.9795  0.0112
  377MPD2    H3 5644   4.004   1.607  11.980  0.1139 -0.1348 -0.2446
  377MPD2     N 5645   4.056   1.310  12.309  0.0192  0.1608 -0.0990
  377MPD2    H5 5646   3.956   1.325  12.322 -0.0483 -1.6684  1.4687
  377MPD2    N1 5647   4.397   1.388  11.955  0.2801  0.1716  0.3490
  377MPD2    H7 5648   4.423   1.457  11.884 -0.2817 -0.3764 -0.3865
  378TMC3    C1 5649   0.030   1.331  11.734  0.3575  0.1808  0.7496
  378TMC3    C2 5650   4.630   1.313  11.791  0.3541 -0.2215 -0.5010
  378TMC3    C3 5651   4.629   1.311  11.932 -0.0945  1.1558 -0.3587
  378TMC3    C4 5652   0.133   1.386  11.806  0.1924 -0.0722  0.2178
  378TMC3    C5 5653   0.119   1.399  11.942  0.3265  0.0414 -0.1389
  378TMC3    C6 5654   0.008   1.355  12.012  0.3678  0.2232 -0.3439
  378TMC3     C 5655   0.041   1.312  11.596 -0.8083 -0.0912  0.0105
  378TMC3     O 5656   4.663   1.324  11.524  0.1276 -0.0343 -0.2306
  378TMC3     H 5657   4.543   1.288  11.731 -0.5458 -1.8328  1.4456
  378TMC3    H1 5658   0.223   1.423  11.759 -0.2457  1.1843  0.3723
  378TMC3    H2 5659   0.003   1.359  12.120  2.5184  0.8072 -0.2630
  378TMC3    C7 5660   0.222   1.461  12.023  0.3798 -0.3753 -0.2129
  378TMC3    C8 5661   4.502   1.304  11.998  0.1497  0.0919 -0.6241
  378TMC3    O1 5662   0.179   1.515  12.123  0.0003 -0.5098 -1.6420
  378TMC3    O2 5663   4.502   1.229  12.093  0.1982 -0.4986  0.3903
  379MPD2     C 5664   0.900   4.543  16.158  0.6634  0.1551  0.1504
  379MPD2    C1 5665   0.802   4.447  16.186 -0.1547  0.0364 -0.2164
  379MPD2    C2 5666   0.834   4.346  16.278 -0.1422 -0.0750  0.3368
  379MPD2    C3 5667   0.953   4.352  16.347 -0.8833  0.2612  0.0142
  379MPD2    C4 5668   1.047   4.453  16.326 -0.0298 -0.2102 -0.2921
  379MPD2    C5 5669   1.025   4.542  16.226  0.2685 -0.3354 -0.2787
  379MPD2     H 5670   0.771   4.259  16.292  1.4510 -1.0442  1.4492
  379MPD2    H1 5671   1.143   4.443  16.376 -0.7040 -1.9459  0.6584
  379MPD2    H2 5672   0.900   4.615  16.077  1.4407 -1.0416 -0.9126
  379MPD2    H3 5673   1.106   4.607  16.195 -0.2329  2.5327  4.3994
  379MPD2     N 5674   0.978   4.254  16.454  0.1283 -0.4988  0.1467
  379MPD2    H5 5675   1.073   4.245  16.489  1.2360 -3.1383 -3.5387
  379MPD2    N1 5676   0.685   4.435  16.110  0.2864  0.1440  0.2534
  379MPD2    H7 5677   0.630   4.352  16.130 -0.5336  1.2123  2.4945
  380TMC3    C1 5678   0.568   4.446  15.913 -0.0838 -0.5739  0.3229
  380TMC3    C2 5679   0.620   4.323  15.873  0.1086 -0.3750  0.4238
  380TMC3    C3 5680   0.566   4.274  15.757  0.2791 -0.2076  0.4937
  380TMC3    C4 5681   0.473   4.514  15.847 -0.1674 -0.5226 -0.7897
  380TMC3    C5 5682   0.417   4.457  15.737  0.0762 -0.2466 -0.6164
  380TMC3    C6 5683   0.464   4.338  15.689  0.5976 -0.1377 -0.3190
  380TMC3     C 5684   0.642   4.515  16.012 -0.7916 -0.0864 -0.0373
  380TMC3     O 5685   0.662   4.633  15.992  0.7903  0.0124 -0.2388
  380TMC3     H 5686   0.710   4.283  15.920 -0.2848 -0.6892  0.9071
  380TMC3    H1 5687   0.438   4.610  15.883  0.9173 -0.0477 -1.0275
  380TMC3    H2 5688   0.430   4.293  15.597  0.6818  1.1849 -1.0010
  380TMC3    C7 5689   0.313   4.531  15.663 -0.0249 -0.1312  0.4456
  380TMC3    C8 5690   0.675   4.265  15.661  0.0857 -0.3579 -0.0046
  380TMC3    O1 5691   0.310   4.653  15.673 -0.3594 -0.2241  0.5585
  380TMC3    O2 5692   0.671   4.338  15.564  0.6257  0.8486  0.2814
  381TMC3    C1 5693   0.215   0.775  16.191 -0.5527  0.3881  0.3194
  381TMC3    C2 5694   0.276   0.887  16.147 -0.4091  0.0015  0.3963
  381TMC3    C3 5695   0.288   0.982  16.239 -0.1911  0.6999  0.2114
  381TMC3    C4 5696   0.153   0.762  16.313 -0.4069  0.0678 -0.0906
  381TMC3    C5 5697   0.152   0.871  16.401 -0.4102 -0.2059 -0.1650
  381TMC3    C6 5698   0.227   0.978  16.365  0.3020 -0.0667  0.8618
  381TMC3     C 5699   0.234   0.652  16.119  0.4075  0.4874 -0.1995
  381TMC3     O 5700   0.169   0.549  16.154  0.2886 -0.0286 -0.3153
  381TMC3     H 5701   0.302   0.902  16.043 -2.6832  0.6224 -0.0962
  381TMC3    H1 5702   0.096   0.672  16.333  0.1549 -0.2215  0.1895
  381TMC3    H2 5703   0.245   1.057  16.437 -0.0501  0.5463  0.2836
  381TMC3    C7 5704   0.171   0.847  16.537  0.2301  0.2256  0.1601
  381TMC3    C8 5705   0.418   1.050  16.240  0.0061  0.2907  0.9063
  381TMC3    O1 5706   0.238   0.748  16.571  0.4415 -0.3644 -0.1514
  381TMC3    O2 5707   0.502   0.986  16.180 -0.4804  0.0462  0.0520
  382MPD2     C 5708   4.059   3.255   0.044  0.0563  0.1832  0.1870
  382MPD2    C1 5709   4.058   3.386  17.688 -0.4880 -0.3236  0.3669
  382MPD2    C2 5710   3.974   3.419  17.587 -0.4830  0.4326  0.1746
  382MPD2    C3 5711   3.888   3.327  17.538  0.3250 -0.0207  0.1179
  382MPD2    C4 5712   3.897   3.192  17.574 -0.1151 -0.1061  0.5500
  382MPD2    C5 5713   3.978   3.159  17.682 -0.5400 -0.4756 -0.1530
  382MPD2     H 5714   3.986   3.516  17.540 -0.9457 -0.3878 -1.6406
  382MPD2    H1 5715   3.843   3.111  17.527 -0.3689 -0.2825  1.1560
  382MPD2    H2 5716   4.120   3.234   0.131  1.8767 -0.2061 -1.1789
  382MPD2    H3 5717   3.989   3.056   0.021  1.8333 -0.3977 -0.7804
  382MPD2     N 5718   3.793   3.364  17.442 -0.1279 -0.0815  0.0996
  382MPD2    H5 5719   3.733   3.289  17.408  0.9758 -0.7637 -0.3477
  382MPD2    N1 5720   4.137   3.492   0.046 -0.2001  0.7340  0.4336
  382MPD2    H7 5721   4.119   3.582   0.001  0.6622  1.2196  1.0695
  383TMC3    C1 5722   3.648   3.500  17.324 -0.0008  0.0712 -0.4577
  383TMC3    C2 5723   3.616   3.393  17.247 -0.1658 -0.6827 -0.1814
  383TMC3    C3 5724   3.481   3.367  17.224 -0.5926 -0.4174 -0.4193
  383TMC3    C4 5725   3.546   3.585  17.366 -0.1142  0.8245 -0.6210
  383TMC3    C5 5726   3.417   3.560  17.328  0.7899  0.0275  0.3347
  383TMC3    C6 5727   3.377   3.455  17.254 -0.0700  0.5699  0.0756
  383TMC3     C 5728   3.757   3.494  17.421 -0.3696 -0.5869 -0.4012
  383TMC3     O 5729   3.778   3.596  17.483 -0.2609  0.2915 -0.3085
  383TMC3     H 5730   3.692   3.318  17.228 -0.0328 -0.2236 -1.4376
  383TMC3    H1 5731   3.571   3.666  17.433  0.5160 -1.0210  1.3688
  383TMC3    H2 5732   3.280   3.408  17.252  0.9712 -1.6598  2.0504
  383TMC3    C7 5733   3.322   3.604  17.432  0.3042  0.7175  0.0313
  383TMC3    C8 5734   3.456   3.252  17.141 -0.4510 -0.6086 -0.6923
  383TMC3    O1 5735   3.265   3.513  17.485 -0.2729 -0.0492 -0.5647
  383TMC3    O2 5736   3.401   3.278  17.037  0.5519  0.2082  0.5986
  384MPD2     C 5737   1.275   4.497  11.903 -0.0336  0.0784 -0.4469
  384MPD2    C1 5738   1.271   4.372  11.960 -0.5173  0.8281 -0.2496
  384MPD2    C2 5739   1.346   4.264  11.913  0.4621 -0.6716  0.1912
  384MPD2    C3 5740   1.463   4.290  11.838 -0.8432  0.6236  0.1518
  384MPD2    C4 5741   1.485   4.419  11.791  0.6690  0.4136  0.4243
  384MPD2    C5 5742   1.387   4.517  11.819 -0.3065  0.5611  0.1585
  384MPD2     H 5743   1.321   4.167  11.955 -0.7693 -0.1894  0.5681
  384MPD2    H1 5744   1.562   4.445  11.719  0.2296  2.4591  0.6927
  384MPD2    H2 5745   1.219   4.589  11.922 -1.2217 -0.8252  0.4173
  384MPD2    H3 5746   1.406   4.616  11.778 -0.0388  0.7203  0.6595
  384MPD2     N 5747   1.561   4.198  11.802 -0.2255  0.1333 -0.4414
  384MPD2    H5 5748   1.648   4.228  11.760 -0.4110  0.7430 -0.3866
  384MPD2    N1 5749   1.203   4.353  12.083 -0.0882 -0.2567  0.2028
  384MPD2    H7 5750   1.203   4.260  12.123  1.2586 -0.5568 -0.4690
  385TMC3    C1 5751   1.675   3.999  11.832 -0.3431 -0.6616 -0.0859
  385TMC3    C2 5752   1.661   3.862  11.835 -0.2878  0.6399 -0.4162
  385TMC3    C3 5753   1.722   3.798  11.941 -0.3691 -0.4841 -0.6073
  385TMC3    C4 5754   1.753   4.074  11.918  0.1495  0.1882 -0.1492
  385TMC3    C5 5755   1.814   4.005  12.023 -0.1739 -0.7323 -0.0960
  385TMC3    C6 5756   1.798   3.872  12.029  0.0866  0.9738 -0.1963
  385TMC3     C 5757   1.548   4.061  11.811 -0.4067  0.5309 -0.4607
  385TMC3     O 5758   1.454   3.998  11.855  0.0174 -0.0747  0.2610
  385TMC3     H 5759   1.588   3.815  11.769  0.5229  2.3197 -2.5073
  385TMC3    H1 5760   1.758   4.182  11.925  1.1149  0.0759  1.0098
  385TMC3    H2 5761   1.839   3.815  12.112 -1.3041 -0.9731 -0.8468
  385TMC3    C7 5762   1.805   4.075  12.155 -0.0803 -0.0279  0.1839
  385TMC3    C8 5763   1.696   3.660  11.968  0.1370 -0.3866  0.1054
  385TMC3    O1 5764   1.762   4.191  12.151  0.2219 -0.3044 -0.0135
  385TMC3    O2 5765   1.724   3.610  12.074 -0.4286  0.9981 -0.7472
  386TMC3    C1 5766   1.016   1.410  11.227  0.6034 -0.4208 -1.1766
  386TMC3    C2 5767   1.066   1.356  11.113  0.0765 -0.0804  0.1075
  386TMC3    C3 5768   0.974   1.275  11.053 -0.1822  0.3279  0.9015
  386TMC3    C4 5769   0.890   1.400  11.277 -0.4712  0.2390 -0.0708
  386TMC3    C5 5770   0.804   1.339  11.190 -0.6476  0.3705 -0.2744
  386TMC3    C6 5771   0.842   1.261  11.085 -0.6551  0.6339  0.3328
  386TMC3     C 5772   1.095   1.512  11.295  0.3748 -0.8742  0.0628
  386TMC3     O 5773   1.039   1.604  11.352 -0.4325  0.1126 -0.1473
  386TMC3     H 5774   1.153   1.397  11.063  1.0021 -0.6993  1.2324
  386TMC3    H1 5775   0.851   1.434  11.373 -1.8952 -2.4023  0.2682
  386TMC3    H2 5776   0.775   1.194  11.032  0.2857  0.0009 -0.0468
  386TMC3    C7 5777   0.671   1.381  11.202 -0.3321 -0.6164  0.7591
  386TMC3    C8 5778   1.008   1.220  10.925 -0.0011 -0.2846  0.2504
  386TMC3    O1 5779   0.634   1.439  11.305  0.2893 -0.2999  0.2478
  386TMC3    O2 5780   0.920   1.158  10.869 -0.1381 -0.3971 -0.2871
  387MPD2     C 5781   3.708   1.532   9.111 -0.5400  0.9497  0.0530
  387MPD2    C1 5782   3.764   1.536   9.231 -0.0098 -0.3732 -0.0113
  387MPD2    C2 5783   3.860   1.447   9.269  0.2436  0.1980 -0.4427
  387MPD2    C3 5784   3.898   1.344   9.186  0.8766  0.4699  0.3264
  387MPD2    C4 5785   3.842   1.336   9.063 -0.0427 -0.3488 -0.0358
  387MPD2    C5 5786   3.754   1.431   9.023 -0.6140 -0.2872  0.5058
  387MPD2     H 5787   3.906   1.463   9.366  0.6082  0.1130 -0.5988
  387MPD2    H1 5788   3.872   1.259   8.993 -2.0575  1.0495 -2.4355
  387MPD2    H2 5789   3.618   1.586   9.085  1.2047  3.5400 -0.6146
  387MPD2    H3 5790   3.711   1.414   8.925 -1.3559 -1.0562  0.9568
  387MPD2     N 5791   4.002   1.261   9.237 -0.2091 -0.3592 -0.3145
  387MPD2    H5 5792   4.034   1.292   9.328  0.3704 -1.0716 -0.2775
  387MPD2    N1 5793   3.720   1.623   9.328  0.1461 -0.4985 -0.3595
  387MPD2    H7 5794   3.775   1.628   9.413  0.2302  1.9055 -0.5512
  388TMC3    C1 5795   3.607   1.762   9.462 -0.4607 -0.3239  0.0744
  388TMC3    C2 5796   3.575   1.894   9.479 -0.1409  0.1407 -0.3080
  388TMC3    C3 5797   3.596   1.948   9.603 -0.0569 -0.4933 -0.7574
  388TMC3    C4 5798   3.672   1.693   9.561  0.1072  0.0656 -0.4082
  388TMC3    C5 5799   3.691   1.750   9.682 -0.1420 -0.3853 -0.1410
  388TMC3    C6 5800   3.648   1.877   9.711  0.6097 -0.1106 -0.4592
  388TMC3     C 5801   3.619   1.709   9.327  0.1518  0.2236  0.1343
  388TMC3     O 5802   3.551   1.765   9.240  0.3612 -0.2647  0.4848
  388TMC3     H 5803   3.538   1.950   9.394 -3.1835 -0.9591  0.3229
  388TMC3    H1 5804   3.685   1.586   9.549 -1.0587 -0.0712 -0.4199
  388TMC3    H2 5805   3.653   1.910   9.814 -0.1185 -3.0431  0.5233
  388TMC3    C7 5806   3.756   1.676   9.786  0.6938  0.1000 -0.2216
  388TMC3    C8 5807   3.504   2.061   9.638 -0.2110  0.2766  0.6509
  388TMC3    O1 5808   3.706   1.683   9.897 -0.1612  0.2424 -0.6028
  388TMC3    O2 5809   3.457   2.054   9.750  0.5570 -0.1209 -0.1850
  389MPD2     C 5810   3.638   4.531  10.986  0.1776  0.4875  0.7270
  389MPD2    C1 5811   3.568   4.488  10.879 -0.2937 -0.3468  0.2284
  389MPD2    C2 5812   3.463   4.391  10.888 -0.0696  0.1121  0.0119
  389MPD2    C3 5813   3.434   4.345  11.016 -0.0011 -0.0658  0.5573
  389MPD2    C4 5814   3.512   4.377  11.124  0.0001 -0.4789 -0.4149
  389MPD2    C5 5815   3.613   4.469  11.107  0.4286  0.6539 -0.3596
  389MPD2     H 5816   3.398   4.376  10.802 -0.4208  1.6578  0.0047
  389MPD2    H1 5817   3.486   4.343  11.223  0.6032  0.5829  0.1041
  389MPD2    H2 5818   3.723   4.595  10.967  1.8154 -1.6720  0.6996
  389MPD2    H3 5819   3.673   4.493  11.194  2.2080  0.4849 -1.5573
  389MPD2     N 5820   3.335   4.241  11.047 -0.4239 -0.2454  0.0947
  389MPD2    H5 5821   3.329   4.231  11.148 -0.8913 -0.8939  0.0036
  389MPD2    N1 5822   3.619   4.528  10.758 -0.0234  0.3085  0.6495
  389MPD2    H7 5823   3.703   4.583  10.775  1.5324 -1.0813 -2.5905
  390TMC3    C1 5824   3.161   4.085  11.012  0.3062 -0.1612  0.3538
  390TMC3    C2 5825   3.163   4.063  11.147 -0.2553 -0.7769  0.0498
  390TMC3    C3 5826   3.085   3.964  11.195  0.2756 -0.6699 -0.2651
  390TMC3    C4 5827   3.079   4.017  10.930  1.0759 -0.5707 -0.1183
  390TMC3    C5 5828   3.008   3.920  10.980  0.2675 -0.0291 -0.0746
  390TMC3    C6 5829   3.008   3.890  11.111 -0.8946  0.0098  0.1723
  390TMC3     C 5830   3.254   4.177  10.948 -0.6369  0.1591  0.0826
  390TMC3     O 5831   3.239   4.206  10.830  0.0874 -0.2718 -0.3104
  390TMC3     H 5832   3.210   4.125  11.222 -1.2492  0.3576 -0.2571
  390TMC3    H1 5833   3.077   4.027  10.822 -1.8904  0.7718  0.0677
  390TMC3    H2 5834   2.981   3.788  11.136 -1.6457 -0.1898 -1.4671
  390TMC3    C7 5835   2.869   3.908  10.932  0.1152 -0.0185 -0.1187
  390TMC3    C8 5836   3.035   3.970  11.334 -0.0365 -0.6220 -0.5983
  390TMC3    O1 5837   2.857   3.882  10.814  0.2924  0.0515 -0.4823
  390TMC3    O2 5838   3.098   4.024  11.414 -0.2331 -0.1206 -0.0663
  391MPD2     C 5839   2.143   0.957  11.041 -0.5310 -0.0709  0.4303
  391MPD2    C1 5840   2.246   1.050  11.026  0.0896 -0.1378 -0.0400
  391MPD2    C2 5841   2.305   1.082  10.909 -0.5520  0.3158 -0.2710
  391MPD2    C3 5842   2.260   1.028  10.788  0.5702  0.0441 -0.3232
  391MPD2    C4 5843   2.146   0.951  10.799 -0.1939 -0.2217 -0.1087
  391MPD2    C5 5844   2.088   0.918  10.918 -0.2888 -0.2813  0.1379
  391MPD2     H 5845   2.386   1.153  10.897  0.6064 -0.9186  0.2790
  391MPD2    H1 5846   2.096   0.903  10.716  1.7111 -1.0898 -0.7542
  391MPD2    H2 5847   2.098   0.924  11.134 -2.7857 -0.6283 -0.8447
  391MPD2    H3 5848   1.994   0.866  10.902 -1.4025  1.1777  1.9759
  391MPD2     N 5849   2.334   1.045  10.675 -0.0338  0.4109  0.4516
  391MPD2    H5 5850   2.426   1.087  10.681 -0.7510  1.7664  1.8647
  391MPD2    N1 5851   2.297   1.117  11.138  0.0388  0.3309 -0.1044
  391MPD2    H7 5852   2.340   1.206  11.116 -0.0011  0.1264 -1.0440
  392TMC3    C1 5853   2.402   1.032  10.445  0.5929 -0.0777  0.7901
  392TMC3    C2 5854   2.380   0.989  10.313  0.1628 -0.6942 -0.0445
  392TMC3    C3 5855   2.454   1.040  10.210 -0.3119  0.0026  0.0077
  392TMC3    C4 5856   2.494   1.133  10.472  0.1878 -0.7014  0.0211
  392TMC3    C5 5857   2.567   1.180  10.357  0.5170  0.1313  0.0393
  392TMC3    C6 5858   2.550   1.131  10.231  0.2016 -0.1856 -0.2049
  392TMC3     C 5859   2.312   0.987  10.548  0.4649 -0.4160 -0.5496
  392TMC3     O 5860   2.217   0.917  10.511 -0.0621  0.0944 -0.3406
  392TMC3     H 5861   2.302   0.919  10.289 -0.3595 -0.1344  0.0328
  392TMC3    H1 5862   2.512   1.175  10.570  0.4664 -1.6967  0.3940
  392TMC3    H2 5863   2.623   1.162  10.157 -0.0671  0.4673 -0.2003
  392TMC3    C7 5864   2.684   1.264  10.382  0.4800  0.3852  0.3547
  392TMC3    C8 5865   2.428   0.985  10.077 -0.1080  0.0917  0.6862
  392TMC3    O1 5866   2.720   1.273  10.498 -0.6838 -0.0509 -0.2479
  392TMC3    O2 5867   2.363   0.884  10.068 -0.2830 -0.6516 -0.1918
  393TMC3    C1 5868   1.629   2.865  10.012 -0.1891  0.7507 -0.4772
  393TMC3    C2 5869   1.615   2.795  10.126  0.2644 -0.5021  0.3955
  393TMC3    C3 5870   1.705   2.695  10.148 -0.2478  0.6491 -0.4733
  393TMC3    C4 5871   1.719   2.832   9.909 -1.1347  0.1279  0.3182
  393TMC3    C5 5872   1.805   2.732   9.934 -0.7153  0.1093 -0.6079
  393TMC3    C6 5873   1.795   2.658  10.042  0.0600 -0.2034  0.0240
  393TMC3     C 5874   1.566   2.987   9.996  0.0685  0.5948  0.3342
  393TMC3     O 5875   1.532   3.039  10.104 -0.2399 -0.1762 -0.2797
  393TMC3     H 5876   1.539   2.826  10.197  1.1508  0.8621  0.7444
  393TMC3    H1 5877   1.730   2.894   9.820  0.7159 -0.7292 -0.0533
  393TMC3    H2 5878   1.877   2.590  10.061 -0.2175 -0.4261  0.4401
  393TMC3    C7 5879   1.918   2.715   9.841  0.3179  0.1593  0.5720
  393TMC3    C8 5880   1.685   2.609  10.267  0.5431 -0.3717 -0.3768
  393TMC3    O1 5881   1.910   2.608   9.779  0.1260 -0.4944  0.0721
  393TMC3    O2 5882   1.703   2.492  10.250 -0.0734 -0.6584  0.5671
  394TMC3    C1 5883   3.660   4.554  10.521  0.1228 -0.1808  0.0199
  394TMC3    C2 5884   3.608   4.581  10.400 -0.2272  0.7358  0.3999
  394TMC3    C3 5885   3.690   4.608  10.295  0.1265  0.1567 -0.2344
  394TMC3    C4 5886   3.802   4.549  10.543 -0.3762  0.2102  0.2053
  394TMC3    C5 5887   3.876   4.570  10.431 -0.8730  0.3993 -0.2698
  394TMC3    C6 5888   3.823   4.608  10.310  0.4478 -0.5049 -0.2413
  394TMC3     C 5889   3.572   4.501  10.628  0.3862 -0.3649  0.5981
  394TMC3     O 5890   3.466   4.446  10.600  0.7053  0.0941  0.4442
  394TMC3     H 5891   3.499   4.581  10.397 -0.2436  1.5194  0.9471
  394TMC3    H1 5892   3.849   4.522  10.637  0.6147  0.4092 -0.2382
  394TMC3    H2 5893   3.885   4.650  10.231  0.1311 -0.7057 -0.5930
  394TMC3    C7 5894   4.025   4.571  10.428 -0.3433 -0.0821  0.3568
  394TMC3    C8 5895   3.645   4.681  10.176 -0.9330 -0.3250 -0.1973
  394TMC3    O1 5896   4.086   4.610  10.330 -0.2055 -0.4807 -0.0085
  394TMC3    O2 5897   3.715   0.051  10.140 -0.5028  0.0630 -0.1568
  395TMC3    C1 5898   2.999   1.540  14.746  0.6980 -0.0179  0.6719
  395TMC3    C2 5899   2.897   1.541  14.659  0.9022 -0.5035  0.1775
  395TMC3    C3 5900   2.928   1.575  14.531  0.2763 -0.0231  0.5129
  395TMC3    C4 5901   3.121   1.598  14.716  0.6560  0.2724  0.4880
  395TMC3    C5 5902   3.144   1.622  14.585  0.2798 -0.5857  0.2880
  395TMC3    C6 5903   3.050   1.601  14.481  0.0783 -0.2925 -0.1300
  395TMC3     C 5904   2.969   1.548  14.887  0.5528  0.1298  0.3098
  395TMC3     O 5905   2.863   1.595  14.925 -0.3201  0.2182  0.0911
  395TMC3     H 5906   2.802   1.501  14.691  0.8505 -0.4549  0.0826
  395TMC3    H1 5907   3.198   1.609  14.792 -0.4225  1.4835  1.4063
  395TMC3    H2 5908   3.070   1.630  14.379  0.8236 -1.2211 -0.2420
  395TMC3    C7 5909   3.254   1.707  14.548 -0.7614 -0.1418  0.1998
  395TMC3    C8 5910   2.822   1.613  14.442  0.6749  0.1124  1.0003
  395TMC3    O1 5911   3.300   1.688  14.434 -0.1228 -0.3230 -0.0419
  395TMC3    O2 5912   2.835   1.687  14.346 -0.4870 -0.1379  0.2102
  396MPD2     C 5913   2.451   3.323  17.265 -0.0601 -0.2810  0.0187
  396MPD2    C1 5914   2.562   3.263  17.202 -0.2450 -0.3693 -0.2383
  396MPD2    C2 5915   2.652   3.341  17.135 -0.0816  0.6568  0.1849
  396MPD2    C3 5916   2.647   3.477  17.128  0.8487 -0.9385  0.7369
  396MPD2    C4 5917   2.530   3.527  17.182 -0.1201 -0.7099 -0.4968
  396MPD2    C5 5918   2.436   3.454  17.250 -0.2662 -0.5228 -0.0860
  396MPD2     H 5919   2.738   3.295  17.089 -0.0630 -0.2644  1.1395
  396MPD2    H1 5920   2.496   3.630  17.177  0.8894 -0.3419  0.2340
  396MPD2    H2 5921   2.380   3.273  17.329 -0.2332  0.6119  0.5226
  396MPD2    H3 5922   2.352   3.505  17.296 -0.3307 -0.4486 -0.2885
  396MPD2     N 5923   2.740   3.552  17.047  0.5633  0.8211 -0.0252
  396MPD2    H5 5924   2.827   3.507  17.019 -0.9629 -1.3522 -1.2216
  396MPD2    N1 5925   2.582   3.128  17.222  0.2925  0.5855  0.2221
  396MPD2    H7 5926   2.524   3.078  17.289  1.2890 -0.9532 -0.0645
  397TMC3    C1 5927   2.682   2.914  17.197 -0.8661 -0.1645 -0.0391
  397TMC3    C2 5928   2.699   2.826  17.090 -0.2186  0.6941 -0.4687
  397TMC3    C3 5929   2.618   2.712  17.075  0.2298 -0.4810 -0.0706
  397TMC3    C4 5930   2.599   2.867  17.295  0.5848  0.6578  0.2271
  397TMC3    C5 5931   2.526   2.754  17.278 -0.2365  0.0587 -0.8231
  397TMC3    C6 5932   2.533   2.672  17.175  0.8523 -0.6897 -0.0714
  397TMC3     C 5933   2.674   3.051  17.154 -0.5754 -0.1591 -0.4178
  397TMC3     O 5934   2.735   3.075  17.053  0.1570  0.0968 -1.1734
  397TMC3     H 5935   2.747   2.864  17.001  1.0399 -0.1356 -0.1484
  397TMC3    H1 5936   2.588   2.935  17.378  0.5169 -0.6664  1.2921
  397TMC3    H2 5937   2.484   2.576  17.176 -0.4701  0.0004  1.6011
  397TMC3    C7 5938   2.454   2.690  17.386  0.3126  0.5265 -0.6086
  397TMC3    C8 5939   2.603   2.644  16.946  0.2360  0.1622  0.6511
  397TMC3    O1 5940   2.364   2.614  17.361  0.2419 -0.1084 -0.4937
  397TMC3    O2 5941   2.547   2.533  16.942 -0.2938  0.1575  0.0429
  398MPD2     C 5942   0.627   4.359   0.551  0.6058 -0.8967 -0.1611
  398MPD2    C1 5943   0.701   4.316   0.438 -0.3313  0.8178 -0.7575
  398MPD2    C2 5944   0.789   4.402   0.379  0.0528  0.2472 -0.1810
  398MPD2    C3 5945   0.805   4.536   0.422  0.0034  0.5062  0.7112
  398MPD2    C4 5946   0.729   4.579   0.529  0.0922  0.1349 -0.6892
  398MPD2    C5 5947   0.638   4.495   0.585  0.5390 -0.3439 -0.3900
  398MPD2     H 5948   0.855   4.365   0.302  0.2966 -1.0035  0.6256
  398MPD2    H1 5949   0.736   4.679   0.569  0.7673 -0.2121  0.0711
  398MPD2    H2 5950   0.545   4.301   0.592  0.1826  0.4819  0.9358
  398MPD2    H3 5951   0.570   4.530   0.662  1.2677  0.0195  0.0796
  398MPD2     N 5952   0.900   4.619   0.351 -0.3424 -0.3546  0.6584
  398MPD2    H5 5953   0.949   4.570   0.277 -2.8298 -2.2238  0.2336
  398MPD2    N1 5954   0.693   4.186   0.374 -0.5678 -0.3992  0.4125
  398MPD2    H7 5955   0.743   4.175   0.287 -3.3275 -1.3131 -1.0636
  399TMC3    C1 5956   0.635   3.963   0.331 -0.6870 -0.0830  0.3582
  399TMC3    C2 5957   0.758   3.915   0.350  0.6702 -0.3663 -0.1782
  399TMC3    C3 5958   0.778   3.780   0.352  0.3237 -0.0133  0.2828
  399TMC3    C4 5959   0.529   3.881   0.311 -0.1406 -0.0725 -0.8070
  399TMC3    C5 5960   0.552   3.745   0.310 -0.1034  0.5881  0.1875
  399TMC3    C6 5961   0.677   3.692   0.338 -0.1935  0.1714 -0.3847
  399TMC3     C 5962   0.609   4.080   0.413  0.2792  0.4478 -0.2773
  399TMC3     O 5963   0.530   4.080   0.504  0.5392 -0.3117 -0.7167
  399TMC3     H 5964   0.835   3.990   0.338  0.5198 -0.5337 -2.3593
  399TMC3    H1 5965   0.425   3.911   0.319 -0.2552 -0.0291 -2.3779
  399TMC3    H2 5966   0.692   3.589   0.308  0.7683  0.1373  0.2122
  399TMC3    C7 5967   0.444   3.651   0.283 -0.3820  0.5453  0.0051
  399TMC3    C8 5968   0.911   3.735   0.317 -0.5001 -0.2852 -0.3599
  399TMC3    O1 5969   0.480   3.534   0.303  0.3014  0.2656 -0.7130
  399TMC3    O2 5970   0.980   3.821   0.260  0.1730 -0.1522 -0.5730
  400TMC3    C1 5971   3.973   2.504  16.632 -0.3443  0.3301 -0.6477
  400TMC3    C2 5972   3.865   2.462  16.563 -0.1816  0.6337  0.0111
  400TMC3    C3 5973   3.768   2.559  16.534  0.5047 -0.4673  0.0013
  400TMC3    C4 5974   4.003   2.639  16.641 -0.4704  0.1734  0.2612
  400TMC3    C5 5975   3.915   2.734  16.590 -0.5896 -0.6077  0.3765
  400TMC3    C6 5976   3.792   2.691  16.550  0.5740  0.0589  1.2136
  400TMC3     C 5977   4.064   2.399  16.676 -0.8433 -1.1374  0.5177
  400TMC3     O 5978   4.037   2.283  16.653  0.2278  0.0228 -1.0859
  400TMC3     H 5979   3.842   2.356  16.570  0.8812  0.4259  0.3265
  400TMC3    H1 5980   4.099   2.668  16.683 -0.2610  0.8682 -0.7112
  400TMC3    H2 5981   3.718   2.761  16.514 -1.5345 -0.8016  3.8485
  400TMC3    C7 5982   3.925   2.864  16.660 -0.0634 -0.8475 -0.2705
  400TMC3    C8 5983   3.627   2.518  16.517  0.0474  0.0825 -0.1248
  400TMC3    O1 5984   4.028   2.877  16.724 -0.3950 -1.0672  0.0770
  400TMC3    O2 5985   3.530   2.589  16.551 -0.6085  0.7090 -0.4688
  401MPD2     C 5986   2.258   0.673   0.201  0.2054 -0.1297  0.2713
  401MPD2    C1 5987   2.308   0.733   0.314 -0.3894  0.3316 -0.5615
  401MPD2    C2 5988   2.400   0.663   0.388  0.5317  0.2462 -0.0354
  401MPD2    C3 5989   2.441   0.534   0.358 -0.2319 -0.2460  0.2529
  401MPD2    C4 5990   2.389   0.470   0.247  0.6684  0.0085  0.6397
  401MPD2    C5 5991   2.302   0.544   0.167  0.1604 -0.0271  0.5180
  401MPD2     H 5992   2.434   0.706   0.481 -0.4099  1.4132 -0.2312
  401MPD2    H1 5993   2.407   0.368   0.215  1.5629 -0.2637  2.0173
  401MPD2    H2 5994   2.188   0.723   0.135  0.2242  0.5436  0.7554
  401MPD2    H3 5995   2.256   0.501   0.079  1.4329 -1.7654  0.6966
  401MPD2     N 5996   2.533   0.465   0.442  0.9037  0.3883  0.3416
  401MPD2    H5 5997   2.553   0.515   0.527 -2.4038 -0.8910  1.8999
  401MPD2    N1 5998   2.294   0.870   0.350  0.0280 -1.0014  0.1511
  401MPD2    H7 5999   2.355   0.898   0.425  1.4760 -0.6443 -1.1608
  402TMC3    C1 6000   2.688   0.305   0.524  0.2083 -0.2282  0.4803
  402TMC3    C2 6001   2.671   0.366   0.647 -0.1207  0.1762 -0.0238
  402TMC3    C3 6002   2.768   0.343   0.741 -0.3695  0.0053 -0.6378
  402TMC3    C4 6003   2.803   0.239   0.494 -0.2844  0.6102  0.1942
  402TMC3    C5 6004   2.900   0.224   0.581 -0.1807  0.3984  0.4976
  402TMC3    C6 6005   2.886   0.273   0.707  0.1243  0.0281 -0.5470
  402TMC3     C 6006   2.598   0.344   0.415 -0.2290 -0.1067 -0.0750
  402TMC3     O 6007   2.609   0.283   0.312  0.1704  0.0141  0.5707
  402TMC3     H 6008   2.569   0.390   0.676 -0.1675 -0.4581  0.3414
  402TMC3    H1 6009   2.810   0.192   0.396  0.6297  0.3993  0.3587
  402TMC3    H2 6010   2.963   0.263   0.784  0.2701  0.6995 -0.6052
  402TMC3    C7 6011   3.027   0.173   0.533  0.9388 -0.5041 -0.2551
  402TMC3    C8 6012   2.732   0.339   0.877  0.2397 -0.0250 -0.3964
  402TMC3    O1 6013   3.042   0.162   0.410  0.8594 -0.0520  0.0312
  402TMC3    O2 6014   2.795   0.261   0.949  0.4225  0.4172  0.2280
  403MPD2     C 6015   0.791   4.151  13.320  0.5589 -0.1298  0.7492
  403MPD2    C1 6016   0.809   4.041  13.396 -0.1629  0.0667  0.3030
  403MPD2    C2 6017   0.889   4.050  13.508 -0.6687  0.4171 -0.0652
  403MPD2    C3 6018   0.948   4.175  13.544  0.4952 -0.7682  0.0347
  403MPD2    C4 6019   0.920   4.286  13.466  0.5702  0.2704  0.3954
  403MPD2    C5 6020   0.841   4.276  13.354  0.0437  1.1313 -0.4965
  403MPD2     H 6021   0.903   3.957  13.563  2.4627  0.4971 -0.7297
  403MPD2    H1 6022   0.972   4.380  13.481 -3.9299  2.6196  1.1518
  403MPD2    H2 6023   0.723   4.143  13.236  0.9433 -3.0614  0.7005
  403MPD2    H3 6024   0.806   4.359  13.293 -2.1285  0.2763 -0.4285
  403MPD2     N 6025   1.030   4.177  13.662  0.7454 -0.1232  0.0726
  403MPD2    H5 6026   1.069   4.087  13.691 -1.5607 -1.2852 -0.4516
  403MPD2    N1 6027   0.740   3.920  13.350  0.4504 -0.0049 -0.0955
  403MPD2    H7 6028   0.681   3.926  13.267 -1.9521 -1.7882  1.5031
  404TMC3    C1 6029   0.647   3.704  13.362 -0.9002 -0.2602 -0.6428
  404TMC3    C2 6030   0.583   3.616  13.447 -0.2769  0.5903 -0.5712
  404TMC3    C3 6031   0.532   3.504  13.390  0.2238  0.5328  0.2222
  404TMC3    C4 6032   0.643   3.692  13.228 -0.0806  0.6458  0.6952
  404TMC3    C5 6033   0.587   3.580  13.170 -0.1890 -0.1182 -1.0193
  404TMC3    C6 6034   0.526   3.488  13.251  0.2831  0.7471  0.6789
  404TMC3     C 6035   0.729   3.807  13.424 -0.1431 -0.2799 -0.4200
  404TMC3     O 6036   0.757   3.793  13.541  0.6404  0.2866  0.4967
  404TMC3     H 6037   0.607   3.634  13.551 -0.3506  0.7406 -0.5803
  404TMC3    H1 6038   0.696   3.762  13.164  0.9980 -1.5264 -0.7859
  404TMC3    H2 6039   0.487   3.397  13.207 -1.5492  1.9312 -0.1144
  404TMC3    C7 6040   0.542   3.597  13.026 -0.3435  0.6292 -0.5112
  404TMC3    C8 6041   0.508   3.384  13.473  0.5543  0.4058  0.4920
  404TMC3    O1 6042   0.566   3.711  12.982 -0.4856 -0.4589 -0.0425
  404TMC3    O2 6043   0.514   3.273  13.422 -0.1211 -0.2131 -0.4552
  405MPD2     C 6044   1.395   4.497  14.610  0.3783 -0.7630  0.4026
  405MPD2    C1 6045   1.286   4.415  14.610  0.6534 -0.0027 -0.4334
  405MPD2    C2 6046   1.179   4.440  14.521 -0.1171 -0.6504  0.3737
  405MPD2    C3 6047   1.188   4.550  14.437 -0.3022 -0.1791  0.6838
  405MPD2    C4 6048   1.302   4.629  14.437  0.3018 -0.0195 -0.0899
  405MPD2    C5 6049   1.403   4.601  14.526  0.2780 -0.3325  0.1259
  405MPD2     H 6050   1.085   4.387  14.533  0.1065 -0.7865  1.5611
  405MPD2    H1 6051   1.315   4.711  14.368 -2.3004 -0.4721 -1.1367
  405MPD2    H2 6052   1.486   4.477  14.665  0.1262 -0.9516  0.7501
  405MPD2    H3 6053   1.500   4.646  14.507  0.4105 -0.6970 -0.0586
  405MPD2     N 6054   1.075   4.583  14.354  0.2319  0.2556 -0.6809
  405MPD2    H5 6055   0.986   4.537  14.374  1.3150 -0.6242  2.0552
  405MPD2    N1 6056   1.291   4.290  14.681  0.8224  0.0454 -0.0152
  405MPD2    H7 6057   1.364   4.273  14.749  1.4678  0.6255 -0.5666
  406TMC3    C1 6058   0.727   4.699  14.122  0.3012 -0.1199 -0.1531
  406TMC3    C2 6059   0.699   4.571  14.072 -0.4582 -0.4031  0.2156
  406TMC3    C3 6060   0.801   4.475  14.096  0.7902 -0.0294 -0.7278
  406TMC3    C4 6061   0.848   0.006  14.169 -0.4160  0.2131  0.3251
  406TMC3    C5 6062   0.945   4.635  14.179 -0.2917  0.1037 -0.0969
  406TMC3    C6 6063   0.927   4.509  14.134 -0.1931  0.3678 -0.6575
  406TMC3     C 6064   0.626   0.080  14.120  0.5266 -0.1322 -0.3165
  406TMC3     O 6065   0.662   0.197  14.122 -0.0229 -0.4984  0.0750
  406TMC3     H 6066   0.597   4.550  14.041 -1.0512  3.2448 -0.4055
  406TMC3    H1 6067   0.880   0.106  14.197 -1.6857  0.0045  2.4671
  406TMC3    H2 6068   1.009   4.440  14.154  0.3980  0.4711 -2.7089
  406TMC3    C7 6069   1.064   4.673  14.256  0.7871  0.1834  0.2624
  406TMC3    C8 6070   0.756   4.341  14.107  0.5423  0.1704 -0.0443
  406TMC3    O1 6071   1.145   0.031  14.209 -0.2824 -0.0285 -0.2349
  406TMC3    O2 6072   0.633   4.321  14.089  0.0468 -0.1549  0.0987
  407MPD2     C 6073   3.751   0.866   8.890  0.0367 -0.2054  0.0467
  407MPD2    C1 6074   3.839   0.842   8.990 -0.0160  0.3913 -0.8193
  407MPD2    C2 6075   3.809   0.881   9.117  0.4243  0.3426 -0.8869
  407MPD2    C3 6076   3.696   0.949   9.148  0.8230 -0.1386 -0.4989
  407MPD2    C4 6077   3.618   0.992   9.044  0.1604 -0.5165 -0.1711
  407MPD2    C5 6078   3.645   0.944   8.916  0.6413  0.2176 -0.5941
  407MPD2     H 6079   3.881   0.868   9.198 -2.1533 -0.2874  1.2861
  407MPD2    H1 6080   3.529   1.054   9.054  0.8334  0.3940  0.2231
  407MPD2    H2 6081   3.766   0.838   8.786 -2.6551  0.6452 -0.5965
  407MPD2    H3 6082   3.586   0.958   8.826 -0.0383 -1.2108 -0.3662
  407MPD2     N 6083   3.663   0.984   9.283  0.4999  0.8100 -0.0551
  407MPD2    H5 6084   3.585   1.049   9.286  0.1165  0.4875 -2.6566
  407MPD2    N1 6085   3.966   0.773   8.970  0.4105  0.3502  0.4314
  407MPD2    H7 6086   4.029   0.748   9.046 -0.4400 -1.3883  0.5903
  408TMC3    C1 6087   4.142   0.674   8.862  0.1233 -0.1195 -0.1590
  408TMC3    C2 6088   4.238   0.705   8.953 -0.0168 -0.1245 -0.7975
  408TMC3    C3 6089   4.351   0.620   8.964  0.5694 -0.4744  0.3023
  408TMC3    C4 6090   4.150   0.554   8.791 -0.2834  0.5552 -0.1016
  408TMC3    C5 6091   4.253   0.472   8.814  0.0093 -1.1269  0.0622
  408TMC3    C6 6092   4.358   0.507   8.896  0.0195 -0.3486 -0.1424
  408TMC3     C 6093   4.013   0.723   8.850 -0.0203  0.0425  0.5023
  408TMC3     O 6094   3.958   0.711   8.738  0.3656 -0.3358  0.2870
  408TMC3     H 6095   4.228   0.779   9.033  0.2632 -2.5775  1.5041
  408TMC3    H1 6096   4.075   0.525   8.719  1.1748 -0.4526 -1.2181
  408TMC3    H2 6097   4.444   0.441   8.902 -2.3444 -3.4281  0.4236
  408TMC3    C7 6098   4.218   0.332   8.811 -0.7341  1.2340 -0.4202
  408TMC3    C8 6099   4.456   0.635   9.073  0.0778  0.3277 -0.2335
  408TMC3    O1 6100   4.099   0.292   8.811  0.8951  0.8498  0.0751
  408TMC3    O2 6101   4.494   0.533   9.119  0.2190  0.0906 -0.4910
  409MPD2     C 6102   2.806   2.163  16.323 -0.4094  0.5218  0.7468
  409MPD2    C1 6103   2.851   2.191  16.454  0.4413 -0.1808 -0.0185
  409MPD2    C2 6104   2.919   2.311  16.478 -0.3190 -0.7454  0.5404
  409MPD2    C3 6105   2.943   2.404  16.379  0.3696 -0.1770 -0.0364
  409MPD2    C4 6106   2.887   2.378  16.253 -0.4875 -0.4694  0.1219
  409MPD2    C5 6107   2.831   2.256  16.229 -0.2339 -0.3624  0.8258
  409MPD2     H 6108   2.959   2.313  16.579  0.7606 -1.9854  0.1346
  409MPD2    H1 6109   2.904   2.436  16.163 -2.0536  1.2543  0.9294
  409MPD2    H2 6110   2.760   2.069  16.294  1.1908 -0.5293  1.6195
  409MPD2    H3 6111   2.822   2.234  16.123  2.2060 -0.0672  0.5654
  409MPD2     N 6112   3.017   2.527  16.398 -0.8401 -0.3616 -0.6352
  409MPD2    H5 6113   3.020   2.595  16.323 -1.5412  0.1310 -0.2209
  409MPD2    N1 6114   2.839   2.101  16.561 -0.5658  0.6077  0.6199
  409MPD2    H7 6115   2.887   2.127  16.647  4.2060 -0.9251 -1.5689
  410TMC3    C1 6116   3.103   2.707  16.506 -0.4733 -0.3889 -0.0647
  410TMC3    C2 6117   3.128   2.770  16.627 -0.6477 -0.3312  0.0345
  410TMC3    C3 6118   3.206   2.880  16.631 -0.6723  0.4957  0.1869
  410TMC3    C4 6119   3.156   2.763  16.395  0.4917 -0.1486  0.2338
  410TMC3    C5 6120   3.237   2.873  16.403 -0.5909  0.4025 -0.2027
  410TMC3    C6 6121   3.266   2.930  16.520 -0.1048 -0.2418 -0.2510
  410TMC3     C 6122   3.070   2.564  16.514  0.0595 -0.3127 -0.5899
  410TMC3     O 6123   3.080   2.507  16.622  0.3139 -0.7219 -0.1675
  410TMC3     H 6124   3.077   2.725  16.710  1.4873  1.2273  2.1967
  410TMC3    H1 6125   3.152   2.710  16.301 -1.5884  1.9368 -0.8514
  410TMC3    H2 6126   3.328   3.019  16.528 -2.6062  1.4462  0.4591
  410TMC3    C7 6127   3.280   2.933  16.281 -0.4475  0.1873  1.0578
  410TMC3    C8 6128   3.238   2.937  16.758  0.0019  0.1297 -0.3432
  410TMC3    O1 6129   3.382   2.998  16.291  0.1409  0.4262  0.2957
  410TMC3    O2 6130   3.233   3.061  16.772  0.2988  0.3588 -0.2947
  411MPD2     C 6131   3.363   2.674  14.028 -0.1163 -0.0237  0.1640
  411MPD2    C1 6132   3.312   2.660  14.154  0.6946  0.0068 -0.9981
  411MPD2    C2 6133   3.318   2.529  14.211 -0.6557  0.7971 -0.1212
  411MPD2    C3 6134   3.375   2.425  14.151  0.1989  0.1869  0.3035
  411MPD2    C4 6135   3.426   2.437  14.026 -0.1934  0.5309 -0.6385
  411MPD2    C5 6136   3.418   2.564  13.964 -0.7223 -0.2627  1.4574
  411MPD2     H 6137   3.278   2.517  14.311  2.0407 -1.8885  0.6378
  411MPD2    H1 6138   3.465   2.351  13.975  0.8070  0.2531  0.6002
  411MPD2    H2 6139   3.349   2.770  13.980 -0.0963 -0.5641 -0.9262
  411MPD2    H3 6140   3.455   2.587  13.865 -1.1773 -0.3729  1.2601
  411MPD2     N 6141   3.373   2.291  14.204  0.2985  0.8327 -0.4167
  411MPD2    H5 6142   3.405   2.224  14.135  1.9129  1.4921 -0.3207
  411MPD2    N1 6143   3.259   2.776  14.212 -0.5343 -0.7039 -0.0881
  411MPD2    H7 6144   3.251   2.858  14.152  2.4505  0.0874  0.6302
  412TMC3    C1 6145   3.259   2.112  14.309  0.8535 -0.0481 -0.5006
  412TMC3    C2 6146   3.164   2.074  14.399 -0.1485  0.3049 -0.0357
  412TMC3    C3 6147   3.073   1.982  14.369 -0.2011 -0.0699 -0.4473
  412TMC3    C4 6148   3.261   2.048  14.187 -0.2693 -0.1249 -0.0261
  412TMC3    C5 6149   3.160   1.964  14.158  0.2042 -0.4849  0.1923
  412TMC3    C6 6150   3.074   1.918  14.249  1.0517  0.0499  0.0951
  412TMC3     C 6151   3.306   2.248  14.315  0.7076  0.2717 -0.4409
  412TMC3     O 6152   3.253   2.310  14.404  0.0469 -0.2012 -0.5739
  412TMC3     H 6153   3.164   2.107  14.502 -1.7388 -1.5854  0.5866
  412TMC3    H1 6154   3.346   2.062  14.122 -0.5520  0.4033 -0.2799
  412TMC3    H2 6155   2.999   1.845  14.219 -1.3313  3.3748 -2.0108
  412TMC3    C7 6156   3.077   2.016  14.048  0.1484 -0.1668  0.2217
  412TMC3    C8 6157   2.941   2.007  14.437  0.3046  0.3984 -0.3931
  412TMC3    O1 6158   2.958   1.997  14.054 -0.2537  0.1151 -0.2856
  412TMC3    O2 6159   2.940   2.026  14.556  0.3114  0.8139 -0.0460
  413MPD2     C 6160   0.189   1.116  15.122  0.4979  0.2841 -0.9018
  413MPD2    C1 6161   0.102   1.049  15.041  0.7076  0.2138  0.2658
  413MPD2    C2 6162   0.142   0.925  14.985 -0.4336  0.5263  0.4639
  413MPD2    C3 6163   0.269   0.876  15.012  0.1507  0.4549 -0.1184
  413MPD2    C4 6164   0.356   0.955  15.080  0.5349 -0.0744  0.0986
  413MPD2    C5 6165   0.316   1.080  15.129 -0.2935 -0.4083  0.5549
  413MPD2     H 6166   0.068   0.873  14.925  2.3861 -0.0950 -2.4896
  413MPD2    H1 6167   0.459   0.929  15.100  0.7642 -1.1951 -2.4839
  413MPD2    H2 6168   0.159   1.209  15.169  0.2425 -0.3501  0.2147
  413MPD2    H3 6169   0.380   1.152  15.179 -0.3282  0.3247 -0.4598
  413MPD2     N 6170   0.295   0.744  14.976 -0.8946 -0.0097  0.7471
  413MPD2    H5 6171   0.239   0.702  14.902 -1.6670 -0.0321  1.3436
  413MPD2    N1 6172   4.696   1.113  15.022  0.6765  0.7002  0.0697
  413MPD2    H7 6173   4.680   1.204  15.064  0.7574 -0.4994  2.7174
  414TMC3    C1 6174   0.434   0.551  14.943 -0.2751  0.9201 -0.6089
  414TMC3    C2 6175   0.505   0.456  15.010  0.3638 -0.3368  0.3870
  414TMC3    C3 6176   0.508   0.325  14.964 -0.4439  0.8447  0.4073
  414TMC3    C4 6177   0.393   0.532  14.818  0.0813  0.1286  0.2615
  414TMC3    C5 6178   0.414   0.411  14.758  0.0570 -0.4747 -0.1990
  414TMC3    C6 6179   0.470   0.305  14.836 -0.0485 -0.3377 -0.4330
  414TMC3     C 6180   0.404   0.672  15.018  0.4331 -0.4251 -0.0241
  414TMC3     O 6181   0.474   0.696  15.115 -0.1650  0.1003  0.1152
  414TMC3     H 6182   0.533   0.486  15.110  0.1684  1.8973 -0.2155
  414TMC3    H1 6183   0.368   0.619  14.759 -0.4551  0.4510  0.9545
  414TMC3    H2 6184   0.495   0.211  14.788 -1.2268 -1.3737  0.9916
  414TMC3    C7 6185   0.385   0.410  14.611 -0.0271  0.2186 -0.1668
  414TMC3    C8 6186   0.610   0.235  15.006 -0.3900  0.2519  0.2792
  414TMC3    O1 6187   0.294   0.488  14.583  0.0820 -0.3188  0.2209
  414TMC3    O2 6188   0.607   0.123  14.954 -0.1473 -0.0383 -0.1926
  415TMC3    C1 6189   1.196   2.994  10.062 -0.5736 -0.2982 -0.1373
  415TMC3    C2 6190   1.194   3.126  10.114  0.5041 -0.1462 -0.0579
  415TMC3    C3 6191   1.128   3.218  10.039  0.2107 -0.2146 -0.3826
  415TMC3    C4 6192   1.111   2.959   9.963  0.0282  0.3559 -0.2786
  415TMC3    C5 6193   1.026   3.045   9.902  0.3905  0.1755 -0.2237
  415TMC3    C6 6194   1.055   3.181   9.925 -0.4295  0.6164  0.2486
  415TMC3     C 6195   1.220   2.887  10.159  0.1463  0.0241  0.5687
  415TMC3     O 6196   1.266   2.783  10.119 -0.3887 -0.4671 -0.3852
  415TMC3     H 6197   1.269   3.161  10.183  0.7023 -0.1446 -0.2759
  415TMC3    H1 6198   1.086   2.853   9.958  2.9907 -0.4726  1.9930
  415TMC3    H2 6199   0.989   3.249   9.873  1.7643  0.3776 -2.8680
  415TMC3    C7 6200   0.944   3.008   9.797 -0.5611  0.3062 -0.2621
  415TMC3    C8 6201   1.143   3.361  10.083 -0.3116 -0.4114  1.0845
  415TMC3    O1 6202   0.912   3.099   9.718  0.4046 -0.4193 -0.8265
  415TMC3    O2 6203   1.183   3.382  10.195 -0.3978  0.2956 -0.5700
  416MPD2     C 6204   2.734   2.813  11.266 -0.6384  0.4399  0.2194
  416MPD2    C1 6205   2.696   2.714  11.346 -0.4142  0.1402 -0.6046
  416MPD2    C2 6206   2.760   2.593  11.338 -0.2007  0.6347 -0.2066
  416MPD2    C3 6207   2.862   2.571  11.246 -0.0765  0.7404  0.2600
  416MPD2    C4 6208   2.900   2.672  11.163  0.1117  0.1168  0.0452
  416MPD2    C5 6209   2.824   2.783  11.168 -0.3572  0.0844 -0.2538
  416MPD2     H 6210   2.736   2.527  11.420 -0.8840  1.4649  0.2555
  416MPD2    H1 6211   2.971   2.660  11.082  0.2522 -0.2731  0.2277
  416MPD2    H2 6212   2.689   2.912  11.269  1.9046  1.6274 -0.8288
  416MPD2    H3 6213   2.847   2.856  11.091 -1.4044  1.0018  0.3045
  416MPD2     N 6214   2.940   2.448  11.246 -0.0428 -0.2406  0.4837
  416MPD2    H5 6215   2.913   2.378  11.315  0.8879 -0.7017  0.3885
  416MPD2    N1 6216   2.594   2.750  11.439  0.3410  0.7067  0.2324
  416MPD2    H7 6217   2.553   2.843  11.434  1.0216  0.9985  0.1936
  417TMC3    C1 6218   2.410   2.706  11.566 -0.3608 -0.8040 -0.2286
  417TMC3    C2 6219   2.380   2.701  11.703 -0.9189  0.0100  0.5307
  417TMC3    C3 6220   2.287   2.790  11.751 -0.9826  0.2953  0.3262
  417TMC3    C4 6221   2.347   2.789  11.481 -0.2221 -0.5223 -0.0105
  417TMC3    C5 6222   2.248   2.866  11.531 -0.3071  0.2106  0.1610
  417TMC3    C6 6223   2.225   2.872  11.661 -0.3001 -0.1861  0.2630
  417TMC3     C 6224   2.538   2.659  11.524  0.3397 -0.3725  0.2722
  417TMC3     O 6225   2.595   2.573  11.589 -0.5781  0.0778  0.4360
  417TMC3     H 6226   2.432   2.630  11.767  0.3561 -0.4451 -1.0034
  417TMC3    H1 6227   2.368   2.784  11.375  3.3641  1.3404  0.6043
  417TMC3    H2 6228   2.153   2.942  11.703  0.1929  0.0891  0.6564
  417TMC3    C7 6229   2.175   2.944  11.441  0.5044 -0.7667  0.0706
  417TMC3    C8 6230   2.291   2.818  11.890 -0.0018  0.0231  0.0793
  417TMC3    O1 6231   2.252   2.980  11.351  0.0779  0.1670  0.0850
  417TMC3    O2 6232   2.204   2.892  11.923 -0.5648  0.4269 -0.1592
  418TMC3    C1 6233   1.141   4.637   0.125  0.1751 -0.1988 -0.4055
  418TMC3    C2 6234   1.062   0.010   0.185  0.7635 -0.4750 -0.4459
  418TMC3    C3 6235   1.075   0.041   0.312 -0.2736 -0.4947 -0.2717
  418TMC3    C4 6236   1.249   4.586   0.195  0.1327 -0.7928 -0.2252
  418TMC3    C5 6237   1.268   4.624   0.321  0.0044 -0.3458 -0.3580
  418TMC3    C6 6238   1.185   4.720   0.385  0.2595 -0.4614  0.5186
  418TMC3     C 6239   1.151   4.629  17.673 -0.0373 -1.1743  0.6976
  418TMC3     O 6240   1.092   4.711  17.605  0.8916  0.1402 -0.3679
  418TMC3     H 6241   0.977   0.052   0.131  0.0326 -3.5514 -1.7206
  418TMC3    H1 6242   1.322   4.516   0.158  0.1274 -1.2496  0.6317
  418TMC3    H2 6243   1.187   0.014   0.492 -1.3039  1.7639  0.1984
  418TMC3    C7 6244   1.313   4.513   0.402 -0.4258 -0.1333 -0.5876
  418TMC3    C8 6245   0.954   0.018   0.391 -0.2385  0.3248  0.1576
  418TMC3    O1 6246   1.257   4.408   0.369  0.2397  0.1728  0.3293
  418TMC3    O2 6247   0.945   0.068   0.503  0.2773 -0.2043  0.0633
  419MPD2     C 6248   4.415   2.117  12.876 -0.6219 -0.8806  0.1125
  419MPD2    C1 6249   4.390   2.228  12.804 -0.0688  0.4922  0.5597
  419MPD2    C2 6250   4.388   2.347  12.871 -0.3190 -0.6846 -0.0907
  419MPD2    C3 6251   4.394   2.351  13.013 -0.0477 -0.2501  0.0535
  419MPD2    C4 6252   4.427   2.234  13.086  0.2535 -0.1343 -0.3994
  419MPD2    C5 6253   4.432   2.111  13.017  0.0031 -0.1656 -0.0522
  419MPD2     H 6254   4.368   2.440  12.819  0.3598 -0.6918 -0.3623
  419MPD2    H1 6255   4.450   2.237  13.192 -1.7524 -0.9390  0.0478
  419MPD2    H2 6256   4.406   2.026  12.817 -1.2535  0.5772 -2.0129
  419MPD2    H3 6257   4.438   2.019  13.074  1.6581 -1.1856 -1.8789
  419MPD2     N 6258   4.379   2.476  13.071 -0.6448  0.6880  0.7775
  419MPD2    H5 6259   4.365   2.555  13.009 -0.3262 -0.3885 -0.6782
  419MPD2    N1 6260   4.358   2.237  12.667  0.3798 -0.1476 -0.0456
  419MPD2    H7 6261   4.362   2.328  12.622  1.2806 -0.2109 -0.0817
  420TMC3    C1 6262   4.346   2.634  13.230  0.5526 -0.2973  0.5986
  420TMC3    C2 6263   4.229   2.675  13.173  0.3212  0.1043  0.4913
  420TMC3    C3 6264   4.160   2.769  13.231  0.1002 -0.4683  0.4451
  420TMC3    C4 6265   4.379   2.690  13.343 -0.5116  0.1595 -0.5504
  420TMC3    C5 6266   4.313   2.797  13.399  1.0792  1.0700  0.5089
  420TMC3    C6 6267   4.197   2.842  13.338 -0.2388 -0.3290 -0.4731
  420TMC3     C 6268   4.380   2.500  13.208 -0.5515 -0.7154  0.1975
  420TMC3     O 6269   4.410   2.428  13.299  0.3959 -0.0034  0.2657
  420TMC3     H 6270   4.184   2.619  13.092 -2.4269  2.3854  0.4400
  420TMC3    H1 6271   4.455   2.641  13.402  0.1599  3.1510  1.1023
  420TMC3    H2 6272   4.134   2.923  13.373  0.0485  0.4126 -1.6630
  420TMC3    C7 6273   4.333   2.801  13.540  0.0641 -0.2775 -0.3081
  420TMC3    C8 6274   4.036   2.794  13.166 -0.0151  0.9318 -0.2078
  420TMC3    O1 6275   4.430   2.745  13.588  0.8259  0.0628  0.2830
  420TMC3    O2 6276   4.039   2.785  13.046  0.3609 -0.1316  0.6831
  421TMC3    C1 6277   1.165   4.261  13.839  0.0327  0.2116 -0.1254
  421TMC3    C2 6278   1.213   4.368  13.910 -0.4054 -0.1601  0.4575
  421TMC3    C3 6279   1.311   4.344  14.002  0.3965 -0.1247  0.0995
  421TMC3    C4 6280   1.198   4.130  13.870  0.4171  0.4451  0.0914
  421TMC3    C5 6281   1.300   4.110  13.959 -0.3063  0.4685  0.4895
  421TMC3    C6 6282   1.358   4.215  14.025 -0.3540 -0.0604  1.0195
  421TMC3     C 6283   1.081   4.287  13.720 -0.0442  0.0316 -0.1621
  421TMC3     O 6284   1.058   4.405  13.688 -0.4918 -0.7030  0.2884
  421TMC3     H 6285   1.175   4.468  13.899 -0.4482  0.0062  2.0125
  421TMC3    H1 6286   1.177   4.047  13.804  0.2896 -1.4133  2.4756
  421TMC3    H2 6287   1.446   4.197  14.085  0.2146  0.3942  0.3165
  421TMC3    C7 6288   1.373   3.981  13.969  0.1929  0.6753  0.8341
  421TMC3    C8 6289   1.373   4.459  14.066  0.1875  0.5375  0.6801
  421TMC3    O1 6290   1.492   3.998  13.994  0.7033 -0.5599 -0.3403
  421TMC3    O2 6291   1.362   4.567  14.011 -0.1438 -0.7963 -0.0554
  422TMC3    C1 6292   3.555   0.508  12.355  0.1643  0.2962  0.3003
  422TMC3    C2 6293   3.536   0.643  12.340  0.5890  0.6607  0.3227
  422TMC3    C3 6294   3.447   0.701  12.426  0.1175  0.1566  0.7654
  422TMC3    C4 6295   3.485   0.428  12.438  0.0825  0.6550 -0.5901
  422TMC3    C5 6296   3.388   0.493  12.511 -0.0019 -0.0174  0.9205
  422TMC3    C6 6297   3.370   0.630  12.513 -0.0791 -0.5177  0.0029
  422TMC3     C 6298   3.668   0.457  12.273  0.3144  0.6152  0.1575
  422TMC3     O 6299   3.725   0.537  12.201 -0.1492  0.2696  0.9182
  422TMC3     H 6300   3.593   0.701  12.268  0.7105  1.1453  0.8147
  422TMC3    H1 6301   3.487   0.320  12.434 -0.4609  0.4541  4.3845
  422TMC3    H2 6302   3.290   0.677  12.568  1.0564  0.4262  0.8720
  422TMC3    C7 6303   3.296   0.401  12.582  0.3516 -0.3565 -0.4074
  422TMC3    C8 6304   3.412   0.839  12.393 -0.7364 -0.1149  0.5080
  422TMC3    O1 6305   3.345   0.297  12.616 -0.1109  0.1942  0.1635
  422TMC3    O2 6306   3.442   0.879  12.279 -0.3424  0.4532  0.6307
  423MPD2     C 6307   4.433   2.028   0.496  1.1111 -0.0045 -0.4857
  423MPD2    C1 6308   4.514   1.939   0.562 -0.3355  0.2352  0.2903
  423MPD2    C2 6309   4.580   1.841   0.488 -1.5355  0.2454  0.6755
  423MPD2    C3 6310   4.578   1.835   0.348 -0.1305  0.4605  0.9113
  423MPD2    C4 6311   4.504   1.936   0.284  0.6906  0.3224  0.1201
  423MPD2    C5 6312   4.428   2.021   0.358  0.0547  0.4948 -0.4625
  423MPD2     H 6313   4.635   1.767   0.547 -2.9366  0.4104  2.1720
  423MPD2    H1 6314   4.502   1.956   0.178  1.8048 -0.4481 -0.0478
  423MPD2    H2 6315   4.374   2.099   0.552  1.8425 -0.7880  1.2723
  423MPD2    H3 6316   4.360   2.088   0.308 -0.4908  1.9352  2.2360
  423MPD2     N 6317   4.656   1.755   0.259  0.2470  0.1364 -0.0080
  423MPD2    H5 6318   4.640   1.770   0.160 -0.6132 -2.1377 -0.2230
  423MPD2    N1 6319   4.516   1.958   0.701  0.4673  0.5248  0.1240
  423MPD2    H7 6320   4.466   2.035   0.745 -0.1867 -0.0461  0.3794
  424TMC3    C1 6321   4.571   1.935   0.921 -0.7064 -0.3623  0.3777
  424TMC3    C2 6322   4.669   1.897   1.007  0.5033  0.3527  0.2843
  424TMC3    C3 6323   4.643   1.920   1.141  0.4551  0.5330 -0.7046
  424TMC3    C4 6324   4.445   1.972   0.956  0.1480  0.0508  0.0549
  424TMC3    C5 6325   4.426   1.984   1.091  0.9320  0.5893 -0.7387
  424TMC3    C6 6326   4.523   1.969   1.184 -0.4292 -0.4499 -0.4571
  424TMC3     C 6327   4.598   1.892   0.786 -0.4076  0.4930 -0.5746
  424TMC3     O 6328   4.695   1.820   0.763 -0.0531  0.4813  0.2638
  424TMC3     H 6329   0.048   1.877   0.976  0.1045  0.2453 -0.9409
  424TMC3    H1 6330   4.369   2.011   0.888  0.1545 -2.1908 -1.2432
  424TMC3    H2 6331   4.504   1.983   1.290  0.4264 -0.4549 -0.2990
  424TMC3    C7 6332   4.297   2.029   1.126 -0.1088 -0.7175  0.4850
  424TMC3    C8 6333   0.013   1.874   1.250 -0.0805  0.2580 -0.5854
  424TMC3    O1 6334   4.218   2.051   1.037  0.0368  0.1241  0.1559
  424TMC3    O2 6335   4.681   1.852   1.359 -0.7528  0.1420 -0.2366
  425MPD2     C 6336   3.534   1.244  17.036  0.6255 -0.8392  0.8567
  425MPD2    C1 6337   3.526   1.139  16.947 -0.0566 -0.9447 -0.8402
  425MPD2    C2 6338   3.408   1.126  16.878 -0.0106 -0.5429  0.0856
  425MPD2    C3 6339   3.302   1.213  16.899  0.2328  0.0749 -0.0508
  425MPD2    C4 6340   3.309   1.321  16.986  0.4595  0.3663  0.8467
  425MPD2    C5 6341   3.428   1.339  17.047 -0.0609 -0.0326 -0.3797
  425MPD2     H 6342   3.397   1.034  16.821  2.2877 -1.0485  0.4361
  425MPD2    H1 6343   3.232   1.396  16.999 -1.2044 -0.8643 -1.9237
  425MPD2    H2 6344   3.636   1.261  17.072  0.7077  0.6734 -0.1187
  425MPD2    H3 6345   3.450   1.424  17.111 -3.1875  0.5685 -0.0955
  425MPD2     N 6346   3.183   1.164  16.853  0.2085  0.5706 -0.0499
  425MPD2    H5 6347   3.188   1.074  16.807  0.2943  0.0436  0.9707
  425MPD2    N1 6348   3.635   1.051  16.939 -0.0822 -0.0690  0.1347
  425MPD2    H7 6349   3.717   1.076  16.993  0.8274  0.3857 -1.4553
  426TMC3    C1 6350   3.787   0.897  16.827 -0.8035 -0.4547 -0.7992
  426TMC3    C2 6351   3.831   0.860  16.706  0.6738 -0.7371  0.2121
  426TMC3    C3 6352   3.942   0.795  16.689 -0.7103  0.8492  0.0442
  426TMC3    C4 6353   3.861   0.863  16.938 -0.1512 -0.7228  0.3954
  426TMC3    C5 6354   3.969   0.783  16.921  0.3138 -0.8962  0.5176
  426TMC3    C6 6355   4.021   0.754  16.793  0.2204 -0.7672  0.8951
  426TMC3     C 6356   3.658   0.962  16.834 -0.2707  0.3201 -0.0753
  426TMC3     O 6357   3.597   0.942  16.730 -0.3488  0.0139  0.3057
  426TMC3     H 6358   3.779   0.892  16.615 -1.1787  1.8484  2.1821
  426TMC3    H1 6359   3.825   0.878  17.040 -1.4928 -1.3680  0.0194
  426TMC3    H2 6360   4.116   0.704  16.780  0.2976 -0.4233  0.1451
  426TMC3    C7 6361   4.021   0.694  17.033 -0.4175 -0.8582  0.1132
  426TMC3    C8 6362   3.958   0.714  16.573 -0.1348 -0.3919 -0.2636
  426TMC3    O1 6363   4.135   0.642  17.024  0.4858 -0.1495  0.3005
  426TMC3    O2 6364   4.066   0.702  16.519  0.0657 -0.2010  0.4626
  427MPD2     C 6365   2.340   2.931  15.119  0.0089 -0.8643 -0.3206
  427MPD2    C1 6366   2.299   2.803  15.088  0.5263 -0.1232 -1.1198
  427MPD2    C2 6367   2.171   2.772  15.056  1.0955 -0.0519  0.3579
  427MPD2    C3 6368   2.078   2.877  15.048  0.9728 -0.3802  0.2320
  427MPD2    C4 6369   2.119   3.005  15.077 -0.5747  0.0226 -1.0811
  427MPD2    C5 6370   2.248   3.033  15.114 -0.0311  0.4934  0.0863
  427MPD2     H 6371   2.142   2.669  15.037 -2.0726  0.8197  0.4835
  427MPD2    H1 6372   2.052   3.088  15.058  0.3772  1.3380  1.2699
  427MPD2    H2 6373   2.438   2.952  15.159 -0.7573 -1.4134  1.8274
  427MPD2    H3 6374   2.269   3.132  15.153  1.9382 -0.2013  0.8252
  427MPD2     N 6375   1.945   2.854  15.027  0.2991  0.1338  0.1751
  427MPD2    H5 6376   1.886   2.936  15.019 -0.4101 -0.4451 -0.6308
  427MPD2    N1 6377   2.401   2.708  15.086 -0.4884 -0.6839  0.1282
  427MPD2    H7 6378   2.487   2.737  15.132 -1.1843 -0.9255  1.6074
  428TMC3    C1 6379   2.513   2.497  15.047 -0.4321 -0.2070  0.3185
  428TMC3    C2 6380   2.484   2.362  15.071 -0.0274 -0.1189  0.3357
  428TMC3    C3 6381   2.576   2.285  15.141 -0.4446 -0.0598  0.3120
  428TMC3    C4 6382   2.631   2.558  15.086 -0.2863 -0.2409 -1.0178
  428TMC3    C5 6383   2.711   2.472  15.154  1.0629 -0.2554  0.0248
  428TMC3    C6 6384   2.685   2.342  15.191 -0.2836  1.0400 -0.0068
  428TMC3     C 6385   2.391   2.581  15.042  0.0964  0.7738 -0.2738
  428TMC3     O 6386   2.293   2.516  15.009 -0.0217 -0.3557 -0.1257
  428TMC3     H 6387   2.389   2.323  15.036  0.1786 -2.0965  1.9939
  428TMC3    H1 6388   2.654   2.662  15.066 -0.0012 -0.3403 -1.2159
  428TMC3    H2 6389   2.762   2.281  15.236 -2.4561 -0.2051  2.0021
  428TMC3    C7 6390   2.846   2.516  15.183  0.1987  0.1313  0.1760
  428TMC3    C8 6391   2.546   2.149  15.181  0.7915 -0.4120  0.2299
  428TMC3    O1 6392   2.875   2.519  15.302 -0.2932 -1.1491  0.5695
  428TMC3    O2 6393   2.640   2.093  15.238 -0.6118  0.0188 -0.2975
  429MPD2     C 6394   2.978   3.133  17.347  0.0761 -0.2135 -0.4265
  429MPD2    C1 6395   3.025   3.031  17.265 -0.0930 -0.5472  0.6127
  429MPD2    C2 6396   3.054   3.072  17.136  0.9970 -0.6059 -0.2963
  429MPD2    C3 6397   3.045   3.204  17.093 -0.0382  0.4915  0.0436
  429MPD2    C4 6398   2.993   3.299  17.177 -0.8375 -0.1918 -0.3465
  429MPD2    C5 6399   2.957   3.262  17.301  0.6401 -0.5447  0.0814
  429MPD2     H 6400   3.087   2.998  17.065 -0.1424 -1.9707  0.5881
  429MPD2    H1 6401   2.987   3.403  17.144  2.9421 -1.1753 -4.1933
  429MPD2    H2 6402   2.943   3.120  17.449  0.2931  2.7631  0.0374
  429MPD2    H3 6403   2.914   3.335  17.369  2.4147 -0.4145  1.0627
  429MPD2     N 6404   3.087   3.244  16.964 -0.0282  0.4814 -0.2125
  429MPD2    H5 6405   3.142   3.178  16.909 -0.6288 -1.7936  1.9300
  429MPD2    N1 6406   3.050   2.901  17.300 -0.2760  0.4052  0.5500
  429MPD2    H7 6407   3.064   2.833  17.226 -3.7856 -0.3173  0.5747
  430TMC3    C1 6408   3.101   3.375  16.768 -0.4630 -0.4223  0.0356
  430TMC3    C2 6409   3.022   3.382  16.659 -0.2359  1.0312 -0.1674
  430TMC3    C3 6410   3.081   3.367  16.533  0.0503  0.1588 -0.1775
  430TMC3    C4 6411   3.233   3.353  16.760 -1.0511  0.1750 -0.1069
  430TMC3    C5 6412   3.293   3.342  16.641 -0.6900 -0.1064  0.3387
  430TMC3    C6 6413   3.214   3.341  16.522  0.2924 -0.4349  0.2238
  430TMC3     C 6414   3.039   3.354  16.893  0.2909  0.1911 -0.0417
  430TMC3     O 6415   2.946   3.430  16.923 -0.5931  0.2061  0.7067
  430TMC3     H 6416   2.914   3.376  16.665 -0.1726  0.5853  0.5601
  430TMC3    H1 6417   3.291   3.321  16.845 -2.7069 -0.4486  0.7859
  430TMC3    H2 6418   3.241   3.313  16.421 -0.1642  1.2367 -0.3597
  430TMC3    C7 6419   3.419   3.279  16.629 -1.2298  0.0438 -0.1851
  430TMC3    C8 6420   2.991   3.351  16.419 -0.2997  0.6847  0.4711
  430TMC3    O1 6421   3.461   3.249  16.517 -0.2991  0.1830 -0.1004
  430TMC3    O2 6422   3.021   3.270  16.331 -0.1138 -0.4977  0.0711
  431MPD2     C 6423   4.250   2.923  12.616  0.3775 -0.3159  0.4167
  431MPD2    C1 6424   4.346   2.878  12.533 -0.2871 -0.3765 -0.6945
  431MPD2    C2 6425   4.331   2.751  12.470  0.4585 -0.2761  0.3874
  431MPD2    C3 6426   4.221   2.680  12.499  0.6675 -0.2741  0.2429
  431MPD2    C4 6427   4.133   2.726  12.595 -0.1873 -0.1459  0.6670
  431MPD2    C5 6428   4.145   2.847  12.648 -0.4166 -0.0847 -0.0908
  431MPD2     H 6429   4.407   2.711  12.404  0.4513  1.9136 -0.9244
  431MPD2    H1 6430   4.044   2.671  12.624  1.2645 -0.8581  3.7672
  431MPD2    H2 6431   4.250   3.018  12.669 -1.6163  0.1880 -0.5006
  431MPD2    H3 6432   4.062   2.878  12.709 -0.4121  1.3587 -0.8224
  431MPD2     N 6433   4.189   2.558  12.436  0.4861  0.3562 -0.1813
  431MPD2    H5 6434   4.112   2.512  12.483  2.0600  0.7952  2.8903
  431MPD2    N1 6435   4.459   2.965  12.493 -0.2657  0.1543 -0.0660
  431MPD2    H7 6436   4.461   3.063  12.517  0.1351 -0.1594  1.1819
  432TMC3    C1 6437   4.234   2.363  12.321 -0.0491  0.3869 -0.1081
  432TMC3    C2 6438   4.304   2.317  12.217  0.5786  0.6467 -0.5710
  432TMC3    C3 6439   4.383   2.209  12.225 -1.1105  0.3505 -0.8900
  432TMC3    C4 6440   4.250   2.296  12.441 -0.9589  0.2376  0.0267
  432TMC3    C5 6441   4.325   2.182  12.448 -0.0284  0.0746 -0.7517
  432TMC3    C6 6442   4.396   2.134  12.338  0.1743  0.3296  0.3358
  432TMC3     C 6443   4.243   2.509  12.321  0.1410 -0.3443  0.5484
  432TMC3     O 6444   4.318   2.570  12.245 -0.0629 -0.5936 -0.1593
  432TMC3     H 6445   4.306   2.382  12.130 -0.0473  2.7678  1.0044
  432TMC3    H1 6446   4.182   2.321  12.522 -2.7623 -1.3407 -0.9981
  432TMC3    H2 6447   4.450   2.040  12.340  1.2962  0.9688  0.2197
  432TMC3    C7 6448   4.353   2.139  12.575 -0.3136  0.0157  0.0987
  432TMC3    C8 6449   4.439   2.154  12.105  0.0526 -0.0022 -0.0761
  432TMC3    O1 6450   4.390   2.019  12.584 -0.2785 -0.2922 -0.4761
  432TMC3    O2 6451   4.386   2.186  11.996  0.5779  0.1859 -0.2663
  433MPD2     C 6452   3.297   1.196  10.481  0.4254  0.1440 -0.0819
  433MPD2    C1 6453   3.403   1.125  10.523  0.3570  0.2666  1.1234
  433MPD2    C2 6454   3.439   1.140  10.660 -0.0575  0.2235  0.2210
  433MPD2    C3 6455   3.376   1.237  10.742 -0.8155  1.1282  0.3648
  433MPD2    C4 6456   3.271   1.307  10.692  0.1231  0.0295 -0.2934
  433MPD2    C5 6457   3.233   1.286  10.562 -0.1572 -0.2984 -0.2042
  433MPD2     H 6458   3.525   1.089  10.702 -2.9468 -1.6231  3.9029
  433MPD2    H1 6459   3.225   1.396  10.731  2.3388  1.4492 -0.9051
  433MPD2    H2 6460   3.275   1.189  10.375  0.6430 -0.4707 -0.0871
  433MPD2    H3 6461   3.161   1.354  10.518 -1.6155 -2.3748 -1.0109
  433MPD2     N 6462   3.418   1.244  10.877  0.0974 -0.1216  0.7233
  433MPD2    H5 6463   3.482   1.167  10.894  0.5052 -0.4803 -2.4098
  433MPD2    N1 6464   3.467   1.023  10.452 -0.1485  0.5705 -0.1281
  433MPD2    H7 6465   3.547   0.979  10.496  0.5009  2.7631  0.9102
  434TMC3    C1 6466   3.497   0.861  10.288  0.9259 -0.5305 -0.0708
  434TMC3    C2 6467   3.575   0.795  10.374 -0.7675  0.4214  0.0796
  434TMC3    C3 6468   3.653   0.703  10.323 -0.0088  0.7495 -0.0214
  434TMC3    C4 6469   3.474   0.831  10.159 -0.4705  0.3617 -0.0473
  434TMC3    C5 6470   3.547   0.727  10.111  0.0925 -0.1134 -0.3676
  434TMC3    C6 6471   3.644   0.670  10.194  0.2426  0.6943  0.1559
  434TMC3     C 6472   3.422   0.976  10.330 -0.5243  0.4974 -0.6120
  434TMC3     O 6473   3.344   1.022  10.251 -0.1993 -0.2947 -0.2320
  434TMC3     H 6474   3.588   0.817  10.479 -1.2976 -2.3397  0.7253
  434TMC3    H1 6475   3.407   0.877  10.087 -2.3587 -1.7252  0.3643
  434TMC3    H2 6476   3.701   0.583  10.162  0.7107  1.2771 -0.5894
  434TMC3    C7 6477   3.554   0.706   9.963  0.0890  0.1987 -0.2228
  434TMC3    C8 6478   3.722   0.627  10.421 -0.1009  0.2104  0.1041
  434TMC3    O1 6479   3.501   0.797   9.896 -0.5302 -0.0668  0.4496
  434TMC3    O2 6480   3.660   0.600  10.521  1.0700  0.2913  0.9334
  435MPD2     C 6481   0.345   1.453  15.395  0.5063 -0.2617 -0.4317
  435MPD2    C1 6482   0.356   1.483  15.530  0.2876  0.1952  0.8564
  435MPD2    C2 6483   0.443   1.416  15.612 -0.0917 -0.6248  0.1924
  435MPD2    C3 6484   0.529   1.324  15.560 -0.2129 -0.1107  0.0161
  435MPD2    C4 6485   0.519   1.299  15.427  0.3176 -0.5388  0.5266
  435MPD2    C5 6486   0.438   1.365  15.345  0.3140  0.1355  0.7416
  435MPD2     H 6487   0.453   1.441  15.716 -0.3376 -0.7835  0.2532
  435MPD2    H1 6488   0.580   1.230  15.370  2.4147  2.2241 -0.5827
  435MPD2    H2 6489   0.287   1.510  15.324  0.3512 -1.1018 -0.9684
  435MPD2    H3 6490   0.448   1.353  15.238 -1.4176  2.1790  0.3440
  435MPD2     N 6491   0.639   1.274  15.645 -0.2531 -0.1695 -0.3454
  435MPD2    H5 6492   0.626   1.281  15.745  1.6558  0.7266 -0.1717
  435MPD2    N1 6493   0.272   1.583  15.586  0.3985  0.6127  0.0037
  435MPD2    H7 6494   0.286   1.607  15.683  0.8330  3.0516 -0.6595
  436TMC3    C1 6495   0.065   1.840  15.828 -0.4256  0.1632  0.3039
  436TMC3    C2 6496   0.115   1.737  15.752 -0.8783 -0.4728 -0.1477
  436TMC3    C3 6497   0.131   1.758  15.617 -0.0244 -0.2582  0.0022
  436TMC3    C4 6498   0.025   1.959  15.779  0.6414  0.2054 -0.5768
  436TMC3    C5 6499   0.033   1.973  15.643 -1.1737 -0.8527  0.2598
  436TMC3    C6 6500   0.086   1.875  15.562 -0.4335  0.3794 -0.2688
  436TMC3     C 6501   0.047   1.806  15.969  0.1488  0.3938  0.3318
  436TMC3     O 6502   0.104   1.708  16.005 -0.1457  0.2914  0.2152
  436TMC3     H 6503   0.146   1.644  15.798 -0.9732 -0.0311  0.7901
  436TMC3    H1 6504   0.002   2.043  15.843 -2.4341 -1.0396 -0.0623
  436TMC3    H2 6505   0.109   1.895  15.458 -1.6423  1.4161 -0.3327
  436TMC3    C7 6506   0.051   2.108  15.600  0.3302  0.1422 -0.2842
  436TMC3    C8 6507   0.188   1.666  15.521  0.5468 -0.7971  0.4404
  436TMC3    O1 6508   0.142   2.129  15.512 -0.0872  0.1416  0.1065
  436TMC3    O2 6509   0.167   1.679  15.402  0.3308  0.3204  0.0315
  437TMC3    C1 6510   3.882   3.667  12.548  0.4448 -0.3176 -0.0382
  437TMC3    C2 6511   3.766   3.716  12.500 -0.6138  0.0960 -0.4497
  437TMC3    C3 6512   3.782   3.798  12.388  0.2284  0.1416 -0.1884
  437TMC3    C4 6513   4.010   3.707  12.502  0.2516 -0.3504  0.3567
  437TMC3    C5 6514   4.015   3.792  12.401  0.2971  0.7346  0.0649
  437TMC3    C6 6515   3.906   3.840  12.347  0.7221 -0.1535  0.3148
  437TMC3     C 6516   3.872   3.591  12.676 -0.2984 -0.5078 -0.3335
  437TMC3     O 6517   3.975   3.538  12.708  0.0878  0.3534 -0.4611
  437TMC3     H 6518   3.675   3.661  12.519 -1.3820  1.3036 -0.6581
  437TMC3    H1 6519   4.093   3.645  12.535 -1.3916 -2.1275  1.1394
  437TMC3    H2 6520   3.907   3.897  12.255 -1.0103  0.2757  0.5643
  437TMC3    C7 6521   4.146   3.835  12.341  0.3489 -0.5726 -0.4823
  437TMC3    C8 6522   3.681   3.798  12.291 -0.3795  0.4617  0.1771
  437TMC3    O1 6523   4.145   3.919  12.251 -0.1319  0.2510 -0.5107
  437TMC3    O2 6524   3.709   3.783  12.174  0.2760  0.0492  0.4974
  438MPD2     C 6525   1.277   4.337  16.664 -0.0974  0.3213 -0.0203
  438MPD2    C1 6526   1.364   4.262  16.737 -0.6435 -0.0884  0.5073
  438MPD2    C2 6527   1.323   4.217  16.861 -0.2637 -0.1113 -0.8086
  438MPD2    C3 6528   1.198   4.243  16.914 -0.3641  0.4047 -0.1725
  438MPD2    C4 6529   1.116   4.323  16.838 -0.6038  0.2684 -0.2566
  438MPD2    C5 6530   1.154   4.368  16.714 -0.0465 -0.4302 -0.5942
  438MPD2     H 6531   1.405   4.176  16.918 -1.0317  1.8116  1.7147
  438MPD2    H1 6532   1.012   4.338  16.868 -0.9462 -1.9168 -0.3737
  438MPD2    H2 6533   1.306   4.377  16.567  0.6032  1.3037  0.5970
  438MPD2    H3 6534   1.082   4.425  16.656  0.5633  0.5096 -0.4253
  438MPD2     N 6535   1.164   4.198  17.040  0.1008  0.0335  0.2529
  438MPD2    H5 6536   1.088   4.245  17.088 -0.9819  0.5703 -2.0248
  438MPD2    N1 6537   1.499   4.233  16.703  0.4451  0.0362 -0.2511
  438MPD2    H7 6538   1.556   4.182  16.770  0.2901  0.0131 -0.1371
  439TMC3    C1 6539   1.697   4.191  16.574  0.5039  0.0722  0.1504
  439TMC3    C2 6540   1.751   4.182  16.448 -0.3952  0.0920 -0.1164
  439TMC3    C3 6541   1.885   4.187  16.436 -0.2869  0.0437 -0.1800
  439TMC3    C4 6542   1.778   4.200  16.686  0.2568  0.0310 -0.1643
  439TMC3    C5 6543   1.916   4.200  16.664 -0.7440 -0.7336  0.7240
  439TMC3    C6 6544   1.971   4.201  16.537  0.3891  0.0324 -0.4558
  439TMC3     C 6545   1.553   4.239  16.574  0.4288 -0.9657 -0.0265
  439TMC3     O 6546   1.507   4.282  16.472  0.1847  0.4070 -0.8913
  439TMC3     H 6547   1.691   4.184  16.358  0.0760  0.8260 -0.4158
  439TMC3    H1 6548   1.747   4.231  16.785 -0.2613 -0.4792 -0.1634
  439TMC3    H2 6549   2.078   4.191  16.524  0.6575  1.1533  0.7700
  439TMC3    C7 6550   2.003   4.173  16.776 -0.3150 -0.2206 -0.7708
  439TMC3    C8 6551   1.934   4.118  16.325  0.8362  0.2787  0.1590
  439TMC3    O1 6552   2.125   4.183  16.758  0.2286  0.0678 -0.0535
  439TMC3    O2 6553   2.041   4.062  16.343  0.0341 -0.2776 -0.1061
  440MPD2     C 6554   0.324   4.438  14.853 -0.4153  0.1574 -0.0726
  440MPD2    C1 6555   0.414   4.538  14.851  0.7316  0.0553 -0.1767
  440MPD2    C2 6556   0.555   4.519  14.849  0.2373 -0.1300 -0.0134
  440MPD2    C3 6557   0.608   4.394  14.853  0.3753  0.3087  0.0436
  440MPD2    C4 6558   0.518   4.288  14.870  0.5001  0.0868 -0.6636
  440MPD2    C5 6559   0.378   4.310  14.862  0.1501 -0.1841 -0.0671
  440MPD2     H 6560   0.621   4.605  14.859  0.2707 -0.2114  0.4868
  440MPD2    H1 6561   0.553   4.186  14.884 -0.2306 -0.3792 -2.1693
  440MPD2    H2 6562   0.216   4.441  14.840 -0.9560 -0.0118  4.3459
  440MPD2    H3 6563   0.315   4.221  14.867  2.2817 -1.7277 -0.4729
  440MPD2     N 6564   0.745   4.362  14.857 -0.3631 -0.6574  0.6671
  440MPD2    H5 6565   0.772   4.264  14.853 -1.2520 -0.9286  1.4481
  440MPD2    N1 6566   0.371   4.676  14.843 -0.4572 -0.1590 -0.7182
  440MPD2    H7 6567   0.428   0.027  14.882  0.4847 -2.5652  2.4856
  441TMC3    C1 6568   0.982   4.390  14.887 -0.1867 -0.5001 -0.8356
  441TMC3    C2 6569   1.087   4.488  14.877  0.3484 -0.3759  0.5285
  441TMC3    C3 6570   1.166   4.498  14.990  0.1174  0.2677 -0.3434
  441TMC3    C4 6571   0.972   4.295  14.982  0.1752  0.3041  0.0817
  441TMC3    C5 6572   1.040   4.321  15.093 -0.6212  0.5670  0.0477
  441TMC3    C6 6573   1.139   4.417  15.099  0.5412 -0.4822 -0.0695
  441TMC3     C 6574   0.855   4.449  14.860 -0.6045 -0.0594  0.7864
  441TMC3     O 6575   0.857   4.572  14.843 -0.4960  0.3587 -0.8056
  441TMC3     H 6576   1.082   4.558  14.795 -1.3268 -0.8879  0.1944
  441TMC3    H1 6577   0.890   4.226  14.999 -0.4777  0.7163 -1.3442
  441TMC3    H2 6578   1.190   4.448  15.189  0.2462  1.0108 -0.4232
  441TMC3    C7 6579   0.976   4.287  15.217 -0.3966 -0.2761 -0.4140
  441TMC3    C8 6580   1.175   4.631  15.035 -0.1622  1.3201 -0.8555
  441TMC3    O1 6581   0.853   4.298  15.231  0.0132  0.0559  0.4321
  441TMC3    O2 6582   1.269   4.659  15.108 -0.1204  0.1383  0.6441
  442MPD2     C 6583   3.094   0.674  16.036  0.6338  0.0574 -0.1930
  442MPD2    C1 6584   3.019   0.582  16.098 -0.4524 -0.1227  0.2245
  442MPD2    C2 6585   3.065   0.455  16.116 -0.6824  0.5880 -0.7084
  442MPD2    C3 6586   3.186   0.416  16.063 -0.1058  0.4747 -0.4280
  442MPD2    C4 6587   3.254   0.506  15.988 -0.0085 -0.0874  0.7387
  442MPD2    C5 6588   3.215   0.637  15.983 -0.2361  0.0508  0.5351
  442MPD2     H 6589   3.002   0.391  16.178  1.4836 -0.6649  0.1825
  442MPD2    H1 6590   3.348   0.484  15.939 -0.9131  1.7678 -1.8518
  442MPD2    H2 6591   3.063   0.777  16.023 -0.5837 -0.2958 -0.0173
  442MPD2    H3 6592   3.277   0.715  15.940 -2.0400  0.9267 -0.4991
  442MPD2     N 6593   3.256   0.298  16.091 -0.0806  0.2066 -0.0494
  442MPD2    H5 6594   3.352   0.304  16.059  0.0933  0.4943  0.5235
  442MPD2    N1 6595   2.885   0.602  16.126  0.0997  0.0556 -0.2317
  442MPD2    H7 6596   2.837   0.530  16.179 -1.3160  1.0512 -0.1600
  443TMC3    C1 6597   2.670   0.700  16.119  0.2096 -0.4269 -0.9858
  443TMC3    C2 6598   2.586   0.783  16.046 -0.3159 -0.2449 -0.5300
  443TMC3    C3 6599   2.453   0.762  16.063  0.1915  0.3083 -0.0394
  443TMC3    C4 6600   2.627   0.621  16.223 -0.6381 -0.4512 -0.1447
  443TMC3    C5 6601   2.494   0.607  16.235 -0.0021 -0.1574 -0.5477
  443TMC3    C6 6602   2.405   0.678  16.158  0.0787 -0.6351  0.6673
  443TMC3     C 6603   2.811   0.721  16.097 -0.7562 -0.2397 -0.4213
  443TMC3     O 6604   2.842   0.822  16.040  0.1951  0.1059 -0.1132
  443TMC3     H 6605   2.625   0.842  15.964  1.6903  1.1535  1.4428
  443TMC3    H1 6606   2.702   0.574  16.286 -1.4103 -0.0268  1.0914
  443TMC3    H2 6607   2.300   0.689  16.185 -0.2902  1.6796 -1.6790
  443TMC3    C7 6608   2.452   0.566  16.369  0.2224 -0.2142 -0.1232
  443TMC3    C8 6609   2.354   0.817  15.970 -0.7481 -0.5282 -0.0435
  443TMC3    O1 6610   2.511   0.461  16.409  0.3072 -0.4338  0.2508
  443TMC3    O2 6611   2.245   0.854  16.012 -0.5578  0.4919  0.0112
  444MPD2     C 6612   3.888   0.112  16.787 -0.1157  0.5509  0.2636
  444MPD2    C1 6613   3.797   0.004  16.771 -0.4602  0.3536  0.2110
  444MPD2    C2 6614   3.838   4.594  16.729  0.7205  0.7444  0.2300
  444MPD2    C3 6615   3.974   4.568  16.725 -0.3204  0.2165 -0.0297
  444MPD2    C4 6616   4.060   4.672  16.755 -0.0539  0.6060 -0.0086
  444MPD2    C5 6617   4.017   0.076  16.775 -0.4906 -0.0931 -0.1237
  444MPD2     H 6618   3.771   4.512  16.704  1.4159 -0.7955  3.3966
  444MPD2    H1 6619   4.168   4.662  16.757 -0.1712 -0.6002  0.1169
  444MPD2    H2 6620   3.856   0.206  16.830  0.2526  0.8355 -0.0909
  444MPD2    H3 6621   4.096   0.147  16.798  0.8169 -1.3943 -0.5703
  444MPD2     N 6622   4.020   4.433  16.696  0.7471  0.1878 -0.1073
  444MPD2    H5 6623   3.947   4.367  16.672  0.0676  1.3033 -1.1579
  444MPD2    N1 6624   3.656   0.022  16.788 -0.3857 -0.3575 -0.5282
  444MPD2    H7 6625   3.608   4.663  16.753  0.5406 -2.7820  3.8324
  445TMC3    C1 6626   4.158   4.247  16.659  0.3988  0.1963 -0.8804
  445TMC3    C2 6627   4.057   4.193  16.575 -0.2148  0.0254  0.1751
  445TMC3    C3 6628   4.075   4.078  16.512  0.5048  0.0724 -0.2062
  445TMC3    C4 6629   4.283   4.188  16.666  0.2678 -0.1526 -0.6444
  445TMC3    C5 6630   4.298   4.069  16.606  1.0270  0.0382  0.0762
  445TMC3    C6 6631   4.195   4.017  16.525  0.1612 -0.1423  1.1521
  445TMC3     C 6632   4.147   4.385  16.709  0.0431 -0.4928  0.3431
  445TMC3     O 6633   4.246   4.452  16.725 -0.1791 -0.5519 -0.2230
  445TMC3     H 6634   3.957   4.233  16.579  0.2078  0.9267  1.4899
  445TMC3    H1 6635   4.361   4.235  16.726 -1.9413 -0.1268  2.1870
  445TMC3    H2 6636   4.216   3.919  16.485  0.4150  1.6628 -3.1951
  445TMC3    C7 6637   4.433   4.011  16.581  0.1076  0.3223  0.3630
  445TMC3    C8 6638   3.972   4.029  16.426 -0.5487  0.2467 -0.0670
  445TMC3    O1 6639   4.445   3.927  16.495  0.2218 -0.3040  0.2542
  445TMC3    O2 6640   3.869   4.093  16.425  0.0412 -0.0628  0.1533
  446MPD2     C 6641   3.461   0.396  11.048  0.6213  0.8202  0.2516
  446MPD2    C1 6642   3.433   0.439  10.917 -0.1800  0.7216  0.3627
  446MPD2    C2 6643   3.522   0.530  10.857 -0.1582  0.7792  0.2643
  446MPD2    C3 6644   3.627   0.582  10.925 -0.6490  0.1785  0.5568
  446MPD2    C4 6645   3.632   0.550  11.057  0.3249  0.1043 -0.0566
  446MPD2    C5 6646   3.564   0.449  11.113 -0.6237  0.3934  0.1473
  446MPD2     H 6647   3.514   0.559  10.753  0.8020  0.5658  0.1283
  446MPD2    H1 6648   3.707   0.593  11.122 -0.7434 -1.0252  1.9322
  446MPD2    H2 6649   3.406   0.311  11.088  0.4958  1.1387  0.7430
  446MPD2    H3 6650   3.589   0.406  11.210 -2.0618 -1.6345 -0.3731
  446MPD2     N 6651   3.709   0.676  10.865  0.7123  0.5261  0.0914
  446MPD2    H5 6652   3.670   0.706  10.776 -2.2315  1.5047  1.6883
  446MPD2    N1 6653   3.332   0.375  10.836 -0.3476  0.4862 -0.5113
  446MPD2    H7 6654   3.315   0.403  10.740 -0.3727 -1.3107 -1.0432
  447TMC3    C1 6655   3.908   0.806  10.832  1.0472 -0.3963  0.0593
  447TMC3    C2 6656   3.847   0.871  10.728 -0.0776  0.9132  0.8949
  447TMC3    C3 6657   3.924   0.962  10.667  1.1215 -0.0679 -0.3986
  447TMC3    C4 6658   4.032   0.840  10.876 -0.4693 -0.4097 -0.3765
  447TMC3    C5 6659   4.116   0.920  10.796 -0.1352  0.3858 -0.2731
  447TMC3    C6 6660   4.054   0.983  10.690 -0.0041  0.3689  0.2226
  447TMC3     C 6661   3.832   0.708  10.912  0.1243 -0.2667 -0.5122
  447TMC3     O 6662   3.893   0.661  11.008  0.3385 -0.8557  0.6407
  447TMC3     H 6663   3.750   0.845  10.687 -0.1641  0.8059  1.1711
  447TMC3    H1 6664   4.073   0.789  10.963  0.0612  1.4159  0.4306
  447TMC3    H2 6665   4.101   1.065  10.638  0.0452 -0.3114 -0.7991
  447TMC3    C7 6666   4.237   0.849  10.754 -0.9023  0.5545 -0.3433
  447TMC3    C8 6667   3.889   0.972  10.519 -0.7425 -0.0765 -0.2018
  447TMC3    O1 6668   4.267   0.853  10.635  0.2161  0.3122 -0.0590
  447TMC3    O2 6669   3.773   0.979  10.489  0.1169 -0.5507  0.2560
  448TMC3    C1 6670   1.305   1.107  17.192 -0.7798 -0.4441  0.0888
  448TMC3    C2 6671   1.284   1.051  17.068 -0.0408 -0.1048  0.3802
  448TMC3    C3 6672   1.218   0.929  17.067  0.9849  0.1912  0.2174
  448TMC3    C4 6673   1.293   1.033  17.309  0.8494 -0.3741 -0.0463
  448TMC3    C5 6674   1.227   0.909  17.303  0.5325  0.2986  0.0216
  448TMC3    C6 6675   1.191   0.860  17.184  0.0073 -0.2691  0.2660
  448TMC3     C 6676   1.396   1.219  17.200  0.0419 -0.1369  0.0683
  448TMC3     O 6677   1.466   1.254  17.105 -0.1155 -0.6313 -0.1761
  448TMC3     H 6678   1.325   1.088  16.975  0.5821 -1.8937 -0.0649
  448TMC3    H1 6679   1.327   1.070  17.405  1.5643  0.8558 -0.7810
  448TMC3    H2 6680   1.135   0.767  17.185  0.1908 -0.3716  1.1717
  448TMC3    C7 6681   1.306   0.813  17.378  0.2652 -0.2010 -0.0693
  448TMC3    C8 6682   1.269   0.838  16.971  0.5717  0.6255 -0.9270
  448TMC3    O1 6683   1.347   0.856  17.489 -0.4339 -1.0038  0.2835
  448TMC3    O2 6684   1.297   0.721  17.008  0.3809  0.0427 -0.3127
  449MPD2     C 6685   3.038   4.080  13.903 -0.2076 -0.1398 -0.7696
  449MPD2    C1 6686   2.933   4.170  13.875  0.0339 -0.2999  0.1331
  449MPD2    C2 6687   2.800   4.124  13.910  0.5809 -0.7433  0.6138
  449MPD2    C3 6688   2.776   3.993  13.929 -0.1972 -0.7924 -0.3053
  449MPD2    C4 6689   2.876   3.910  13.952 -0.1638 -0.0251  0.0637
  449MPD2    C5 6690   3.008   3.951  13.949 -0.5781 -0.2544  0.0175
  449MPD2     H 6691   2.714   4.186  13.886  0.0882 -1.5146  0.4060
  449MPD2    H1 6692   2.861   3.809  13.987 -3.1931  0.2148 -0.6013
  449MPD2    H2 6693   3.138   4.101  13.867 -0.4642  0.1695 -1.3018
  449MPD2    H3 6694   3.084   3.874  13.959  2.9742  3.1989 -0.4266
  449MPD2     N 6695   2.637   3.954  13.933 -1.1393 -0.0306 -0.0621
  449MPD2    H5 6696   2.568   4.027  13.944 -2.3570 -0.7450 -2.9226
  449MPD2    N1 6697   2.939   4.295  13.819 -0.1470  0.3384 -0.0062
  449MPD2    H7 6698   2.851   4.342  13.801 -0.6825 -0.1605  1.3135
  450TMC3    C1 6699   3.009   4.453  13.675 -0.1387  0.4678 -0.1504
  450TMC3    C2 6700   3.034   4.438  13.540 -0.0201 -0.1322 -0.6943
  450TMC3    C3 6701   2.941   4.486  13.450  0.4833 -0.2467  0.4564
  450TMC3    C4 6702   2.891   4.517  13.711  0.1281 -1.3192  0.6351
  450TMC3    C5 6703   2.792   4.532  13.619 -0.4033 -0.9108  0.4647
  450TMC3    C6 6704   2.812   4.515  13.486 -0.0249 -0.0809 -0.0980
  450TMC3     C 6705   3.053   4.348  13.758  0.3881 -0.9148 -0.4707
  450TMC3     O 6706   3.158   4.286  13.736 -0.1906 -0.5006 -0.1589
  450TMC3     H 6707   3.130   4.399  13.510  0.0697  0.3179 -0.9826
  450TMC3    H1 6708   2.880   4.536  13.817  2.0547 -2.2612  1.0199
  450TMC3    H2 6709   2.736   4.516  13.408  0.3512  1.8958 -0.4485
  450TMC3    C7 6710   2.669   4.472  13.670 -0.0311  0.7316 -0.2527
  450TMC3    C8 6711   2.964   4.444  13.312 -0.1620 -0.6144 -0.0466
  450TMC3    O1 6712   2.689   4.383  13.750 -0.1204  0.3977 -0.1603
  450TMC3    O2 6713   2.883   4.489  13.237  0.5439  0.2654 -0.3026
  451MPD2     C 6714   4.055   3.151   1.787  0.1917  0.2026 -0.3097
  451MPD2    C1 6715   4.168   3.220   1.759  0.8674 -0.5993  0.7659
  451MPD2    C2 6716   4.283   3.146   1.734  0.3542  0.3964 -0.2261
  451MPD2    C3 6717   4.293   3.012   1.740 -0.1125  0.2579  0.2059
  451MPD2    C4 6718   4.177   2.944   1.785 -0.2456 -0.4869  0.0107
  451MPD2    C5 6719   4.063   3.013   1.800 -0.4213 -0.2667 -0.6470
  451MPD2     H 6720   4.371   3.203   1.705  0.2608  1.6165  1.9049
  451MPD2    H1 6721   4.178   2.837   1.803 -1.6247 -0.4724  0.1926
  451MPD2    H2 6722   3.959   3.197   1.807  1.7249  3.1553  0.2872
  451MPD2    H3 6723   3.974   2.961   1.836 -0.4027  1.4870  1.9743
  451MPD2     N 6724   4.405   2.940   1.697  0.3678  0.6815  0.2841
  451MPD2    H5 6725   4.392   2.841   1.713  1.6115  0.0438 -2.8562
  451MPD2    N1 6726   4.155   3.359   1.766 -0.1476 -0.4259  0.0802
  451MPD2    H7 6727   4.060   3.390   1.784 -0.4723 -2.2093  1.4748
  452TMC3    C1 6728   4.610   2.891   1.577  0.0900  0.0398  0.0556
  452TMC3    C2 6729   4.587   2.758   1.591 -1.0218  0.3479 -0.0356
  452TMC3    C3 6730   4.675   2.666   1.530  0.3767  0.4143 -0.1703
  452TMC3    C4 6731   4.718   2.941   1.507 -0.6456  0.2455  0.1395
  452TMC3    C5 6732   0.076   2.850   1.449 -0.3152 -0.6315 -0.9827
  452TMC3    C6 6733   0.065   2.716   1.462 -0.1837  0.2289 -0.1642
  452TMC3     C 6734   4.514   2.992   1.627 -0.0243  0.1888 -0.5120
  452TMC3     O 6735   4.538   3.107   1.596  0.5357 -0.1176 -0.0804
  452TMC3     H 6736   4.499   2.713   1.634  1.4193 -2.5147  1.9594
  452TMC3    H1 6737   0.007   3.047   1.492 -0.5606  0.2862  0.4779
  452TMC3    H2 6738   0.139   2.652   1.415  1.0473  2.3059 -1.0767
  452TMC3    C7 6739   0.153   2.891   1.326 -0.1723 -0.6998 -0.3127
  452TMC3    C8 6740   4.689   2.545   1.607  0.0604 -0.0937  0.1470
  452TMC3    O1 6741   0.151   2.811   1.235 -0.8694 -0.4263  0.5999
  452TMC3    O2 6742   0.068   2.533   1.678  0.0192  0.0831  0.4272
  453TMC3    C1 6743   1.117   0.161  11.917 -0.1539 -0.3362 -0.1505
  453TMC3    C2 6744   1.018   0.076  11.972 -0.5705 -0.0070 -0.2855
  453TMC3    C3 6745   0.949   0.007  11.884 -0.1222  0.3906 -0.2126
  453TMC3    C4 6746   1.147   0.157  11.784  0.4228 -0.2735 -0.6479
  453TMC3    C5 6747   1.066   0.080  11.699  0.4120  0.0285 -0.1807
  453TMC3    C6 6748   0.958   0.011  11.746 -0.4371 -0.5449 -0.2299
  453TMC3     C 6749   1.231   0.207  12.002 -0.2917 -0.3974 -0.1474
  453TMC3     O 6750   1.295   0.307  11.969  0.1485  0.1464 -0.6666
  453TMC3     H 6751   0.998   0.072  12.078  2.2542  1.4539  0.3004
  453TMC3    H1 6752   1.235   0.208  11.747 -1.1531  2.7438 -0.2786
  453TMC3    H2 6753   0.890   4.678  11.683  2.0639 -0.8038 -2.6753
  453TMC3    C7 6754   1.125   0.023  11.581  0.0684  0.2851 -0.9839
  453TMC3    C8 6755   0.890   4.610  11.938  0.2296 -0.2747 -0.1178
  453TMC3    O1 6756   1.085   4.634  11.543 -0.6655  0.4203  0.2414
  453TMC3    O2 6757   0.829   4.622  12.047 -0.3630 -0.7354 -0.6937
  454MPD2     C 6758   4.702   4.430  16.328  0.3303 -0.1220  0.7060
  454MPD2    C1 6759   4.622   4.540  16.292  0.3444 -1.6403  0.4839
  454MPD2    C2 6760   4.592   4.635  16.390  0.5235 -0.4989  0.1632
  454MPD2    C3 6761   4.614   4.600  16.522 -0.7642 -0.7784 -0.1744
  454MPD2    C4 6762   4.688   4.490  16.564  0.3838  0.0693 -0.1626
  454MPD2    C5 6763   0.014   4.409  16.464 -0.5320  0.6293  0.8092
  454MPD2     H 6764   4.550   0.005  16.352  0.0521 -0.9555 -0.4117
  454MPD2    H1 6765   4.704   4.468  16.668 -0.0154  1.8362  0.2782
  454MPD2    H2 6766   0.022   4.361  16.256 -0.1147 -1.6533  1.9181
  454MPD2    H3 6767   0.063   4.321  16.503 -0.8490  0.6151  1.1745
  454MPD2     N 6768   4.543   4.662  16.633  0.1616 -0.1670  0.6807
  454MPD2    H5 6769   4.580   4.639  16.725 -0.9145 -2.1253  0.6313
  454MPD2    N1 6770   4.587   4.565  16.158 -0.3096 -0.5254  0.6116
  454MPD2    H7 6771   4.552   4.654  16.126  0.4125 -1.2051 -2.0363
  455TMC3    C1 6772   4.364   0.023  16.509 -0.7835 -0.0159 -0.3396
  455TMC3    C2 6773   4.314   0.140  16.465  0.4618 -0.3142 -0.1132
  455TMC3    C3 6774   4.214   0.132  16.371 -1.0006  0.2515  0.9856
  455TMC3    C4 6775   4.308   4.628  16.473  1.2952 -0.9785  0.2709
  455TMC3    C5 6776   4.201   4.627  16.384  0.1106  0.0586  0.4454
  455TMC3    C6 6777   4.151   0.020  16.326  0.3179  0.3913 -0.6384
  455TMC3     C 6778   4.442   0.036  16.628  0.8263  0.2227 -0.6872
  455TMC3     O 6779   4.395   0.109  16.716  0.3002 -0.1320 -0.3324
  455TMC3     H 6780   4.368   0.228  16.497 -1.7360  1.2244 -0.7072
  455TMC3    H1 6781   4.325   4.543  16.537 -1.2547 -2.0258 -0.4459
  455TMC3    H2 6782   4.071   0.016  16.254 -0.4438  1.5338  0.1555
  455TMC3    C7 6783   4.175   4.501  16.317  0.4801 -0.2994 -0.6973
  455TMC3    C8 6784   4.135   0.253  16.360  0.3896 -0.5383 -0.0252
  455TMC3    O1 6785   4.100   4.508  16.222 -0.6861  0.4127 -0.2081
  455TMC3    O2 6786   4.198   0.356  16.368  0.0950 -0.6740 -0.4831
  456MPD2     C 6787   1.852   4.494  16.069  0.6399 -0.4274  0.2945
  456MPD2    C1 6788   1.953   4.484  16.172 -0.1798 -0.0383  0.4645
  456MPD2    C2 6789   1.947   4.559  16.288  0.0338  0.3748 -0.5912
  456MPD2    C3 6790   1.848   4.652  16.304  0.1147 -0.0344 -0.2432
  456MPD2    C4 6791   1.753   4.669  16.199  0.3828  0.0550  0.4470
  456MPD2    C5 6792   1.751   4.587  16.087  0.3768 -0.2524 -0.1746
  456MPD2     H 6793   2.009   4.544  16.376 -1.0176  0.5122  0.1792
  456MPD2    H1 6794   1.669   0.014  16.207 -1.1064 -1.7726  0.1246
  456MPD2    H2 6795   1.864   4.435  15.979 -3.2939  0.2094 -0.6239
  456MPD2    H3 6796   1.687   4.606  16.002  0.0657 -0.2121  0.0667
  456MPD2     N 6797   1.845   0.013  16.418  0.1221  0.8206  0.0478
  456MPD2    H5 6798   1.918   0.001  16.488  0.8533  0.7808 -0.7262
  456MPD2    N1 6799   2.054   4.389  16.146  0.0443  0.3023 -0.0358
  456MPD2    H7 6800   2.048   4.339  16.058 -0.0408 -1.1650  0.7892
  457TMC3    C1 6801   1.784   0.179  16.580  1.2235 -0.5119 -0.4529
  457TMC3    C2 6802   1.721   0.298  16.596 -0.2250  0.2629  0.2766
  457TMC3    C3 6803   1.713   0.355  16.720  0.4434  0.2641  0.8185
  457TMC3    C4 6804   1.854   0.123  16.677  0.3716  0.3875 -0.2763
  457TMC3    C5 6805   1.850   0.187  16.800  0.0203  0.1132 -0.3146
  457TMC3    C6 6806   1.788   0.305  16.827  0.6718  0.7845  0.9106
  457TMC3     C 6807   1.754   0.106  16.453  0.9274  0.5881 -0.0987
  457TMC3     O 6808   1.647   0.131  16.402  0.5121  0.2186 -0.2353
  457TMC3     H 6809   1.668   0.331  16.507  3.0549  0.9870 -1.4225
  457TMC3    H1 6810   1.912   0.032  16.663 -2.3234 -1.3430 -0.0481
  457TMC3    H2 6811   1.765   0.339  16.928 -0.2150  1.7927  0.3691
  457TMC3    C7 6812   1.931   0.129  16.905 -0.9660  0.4407 -0.1734
  457TMC3    C8 6813   1.613   0.460  16.748 -0.8065  0.0512 -0.3221
  457TMC3    O1 6814   1.982   0.026  16.872  0.0226  0.2336  0.0307
  457TMC3    O2 6815   1.577   0.472  16.863 -0.6207  0.2138 -0.2197
  458MPD2     C 6816   4.659   3.856  12.263  0.5293  0.1631  0.0647
  458MPD2    C1 6817   4.643   3.823  12.395 -0.0040  0.3761 -0.3277
  458MPD2    C2 6818   4.511   3.811  12.443  0.3462  0.5624  0.0983
  458MPD2    C3 6819   4.398   3.828  12.366 -0.4319  1.4200 -0.0413
  458MPD2    C4 6820   4.422   3.852  12.234 -0.6865  0.2641  0.3924
  458MPD2    C5 6821   4.548   3.866  12.184  0.2438 -1.1952  0.0656
  458MPD2     H 6822   4.494   3.793  12.548 -3.2279 -0.9231 -0.7198
  458MPD2    H1 6823   4.343   3.870  12.162 -0.1755 -0.4635 -0.3554
  458MPD2    H2 6824   0.037   3.875  12.228  1.4953 -2.1625  1.6028
  458MPD2    H3 6825   4.569   3.899  12.083 -0.5921 -1.5660 -0.2262
  458MPD2     N 6826   4.262   3.792  12.413 -0.2780  0.6618 -0.2277
  458MPD2    H5 6827   4.262   3.762  12.510 -0.2144 -0.8121 -0.6745
  458MPD2    N1 6828   0.039   3.805  12.482 -0.3411  0.6691 -0.4073
  458MPD2    H7 6829   0.127   3.819  12.433  1.6696 -3.7030  1.8847
  459TMC3    C1 6830   0.169   3.758  12.683 -0.3266 -0.2965  1.1754
  459TMC3    C2 6831   0.267   3.842  12.650 -0.4652  0.9711  1.0181
  459TMC3    C3 6832   0.346   3.893  12.747  0.2284 -0.4869  0.3566
  459TMC3    C4 6833   0.148   3.718  12.806  0.7819  0.1813 -0.0761
  459TMC3    C5 6834   0.223   3.770  12.905 -0.4615  0.2713 -0.2425
  459TMC3    C6 6835   0.311   3.869  12.878  1.0111  0.2061  0.4859
  459TMC3     C 6836   0.040   3.779  12.620 -0.3730  0.5806 -0.4386
  459TMC3     O 6837   4.663   3.777  12.691 -0.5253  0.3858  0.2728
  459TMC3     H 6838   0.295   3.867  12.549  1.4484  1.2952  1.6339
  459TMC3    H1 6839   0.072   3.647  12.837  0.0827  0.1484 -1.8924
  459TMC3    H2 6840   0.376   3.910  12.955  0.0865 -0.3505  1.5476
  459TMC3    C7 6841   0.209   3.706  13.038  0.3486  0.9053 -0.3609
  459TMC3    C8 6842   0.471   3.956  12.704  0.1100  0.2816 -0.1789
  459TMC3    O1 6843   0.156   3.596  13.044 -0.8616  0.4483  0.4061
  459TMC3    O2 6844   0.484   4.007  12.595 -0.0921 -0.0816  0.1002
  460MPD2     C 6845   4.126   0.873  10.256 -0.6240 -0.2184  0.1032
  460MPD2    C1 6846   4.006   0.924  10.304 -0.2934  0.0184 -0.5034
  460MPD2    C2 6847   3.911   0.967  10.214 -0.1491 -0.1888 -0.0293
  460MPD2    C3 6848   3.928   0.941  10.074  0.7036  0.1130 -0.8411
  460MPD2    C4 6849   4.049   0.899  10.029 -0.1043 -0.0792  0.0498
  460MPD2    C5 6850   4.146   0.864  10.119  0.0792  0.1589 -0.5703
  460MPD2     H 6851   3.814   0.998  10.252 -0.4900 -1.3988  0.1006
  460MPD2    H1 6852   4.076   0.884   9.924  0.1175  1.4115 -0.1052
  460MPD2    H2 6853   4.209   0.839  10.317  0.3609  0.6193 -0.7604
  460MPD2    H3 6854   4.235   0.814  10.082  0.4142  1.1171 -1.0708
  460MPD2     N 6855   3.819   0.966   9.986  0.2664 -0.0965 -0.4787
  460MPD2    H5 6856   3.741   1.021  10.020  0.8002  1.6544 -2.1218
  460MPD2    N1 6857   3.999   0.932  10.443 -0.4674  0.4809  0.2732
  460MPD2    H7 6858   4.078   0.895  10.495 -0.6007 -1.2367 -0.7662
  461TMC3    C1 6859   3.726   0.982   9.761 -0.3759  0.5775  0.1186
  461TMC3    C2 6860   3.704   0.913   9.641 -1.0972 -0.4220 -0.1864
  461TMC3    C3 6861   3.683   0.994   9.532  0.1882 -0.4197 -0.3907
  461TMC3    C4 6862   3.709   1.120   9.774  0.2208 -0.0444 -0.5534
  461TMC3    C5 6863   3.684   1.187   9.656 -0.1443 -0.5103 -0.0578
  461TMC3    C6 6864   3.677   1.130   9.534  0.4122  0.7238 -0.4248
  461TMC3     C 6865   3.821   0.916   9.857 -0.3311 -0.9423 -0.6624
  461TMC3     O 6866   3.879   0.817   9.815  0.6529 -0.1013  0.1874
  461TMC3     H 6867   3.735   0.809   9.634 -0.1100 -0.2144  1.0912
  461TMC3    H1 6868   3.748   1.172   9.861 -0.6290 -1.2911  0.5602
  461TMC3    H2 6869   3.642   1.180   9.444 -1.4806 -1.2217 -0.7587
  461TMC3    C7 6870   3.604   1.302   9.670  0.3108  0.1039 -0.0803
  461TMC3    C8 6871   3.718   0.935   9.401  0.8683  0.5064 -0.4151
  461TMC3    O1 6872   3.602   1.365   9.566  0.3925  0.4239  0.1141
  461TMC3    O2 6873   3.780   0.832   9.404  0.5016 -0.6532  0.0708
  462TMC3    C1 6874   3.555   2.260  16.809  0.2577 -0.2193  0.0984
  462TMC3    C2 6875   3.576   2.149  16.731  0.0085 -0.1404  0.1100
  462TMC3    C3 6876   3.467   2.063  16.721 -0.1375  0.2675 -0.2260
  462TMC3    C4 6877   3.443   2.283  16.873 -0.3263 -0.1601 -0.1765
  462TMC3    C5 6878   3.339   2.197  16.861  0.0091  0.3424  0.1221
  462TMC3    C6 6879   3.343   2.093  16.771  0.4540  0.3237  0.4755
  462TMC3     C 6880   3.671   2.346  16.841 -0.5563  0.2799 -0.0949
  462TMC3     O 6881   3.784   2.298  16.834  0.4714  0.0357  0.4170
  462TMC3     H 6882   3.665   2.135  16.671  0.6556 -3.3796  1.8373
  462TMC3    H1 6883   3.424   2.378  16.922  1.1546  1.1684 -2.1841
  462TMC3    H2 6884   3.260   2.023  16.767  0.2876  0.5181  0.5654
  462TMC3    C7 6885   3.240   2.179  16.971  0.1294 -0.1331 -0.2513
  462TMC3    C8 6886   3.492   1.932  16.659 -0.2597  0.3623 -0.5248
  462TMC3    O1 6887   3.153   2.094  16.958  0.8389  0.3929 -0.6255
  462TMC3    O2 6888   3.396   1.873  16.612 -0.3042 -0.0295 -0.0755
  463MPD2     C 6889   0.219   1.446   2.073  0.2379  0.0101 -0.8597
  463MPD2    C1 6890   0.118   1.481   1.981  0.5555  0.2935 -0.0976
  463MPD2    C2 6891   0.136   1.591   1.908 -0.4537 -0.3896 -0.0032
  463MPD2    C3 6892   0.257   1.662   1.907 -0.2334 -0.5062  0.2482
  463MPD2    C4 6893   0.359   1.621   1.996  0.0492 -0.5049 -0.0356
  463MPD2    C5 6894   0.343   1.501   2.069  0.3347 -0.3264  0.0820
  463MPD2     H 6895   0.057   1.621   1.840 -0.5106 -1.2829 -0.3339
  463MPD2    H1 6896   0.451   1.678   2.001 -0.1817 -0.1477  0.1950
  463MPD2    H2 6897   0.208   1.357   2.133  1.2361 -0.8655 -1.9864
  463MPD2    H3 6898   0.416   1.461   2.137 -1.3849 -2.1642  0.8437
  463MPD2     N 6899   0.281   1.766   1.820 -0.0131  0.3561  0.4383
  463MPD2    H5 6900   0.377   1.787   1.796  0.2680 -2.7076 -1.0256
  463MPD2    N1 6901   4.720   1.412   1.953 -0.0723  0.3372  0.3751
  463MPD2    H7 6902   4.648   1.449   1.891 -0.4477  1.6172  1.5910
  464TMC3    C1 6903   4.538   1.261   2.002 -0.2429  0.4626  0.6557
  464TMC3    C2 6904   4.445   1.348   1.952  0.1559 -0.4326  0.0915
  464TMC3    C3 6905   4.319   1.300   1.937  0.6285 -0.2268  0.6617
  464TMC3    C4 6906   4.516   1.129   2.017 -0.3479 -0.1284 -0.3260
  464TMC3    C5 6907   4.396   1.080   1.995 -0.6432  0.4401  0.7667
  464TMC3    C6 6908   4.291   1.161   1.954  0.0952  0.2076 -0.7566
  464TMC3     C 6909   4.677   1.296   2.019  1.6223  0.2019 -0.4515
  464TMC3     O 6910   0.031   1.210   2.063 -0.3118  0.1111 -0.0753
  464TMC3     H 6911   4.481   1.448   1.933  0.5633 -0.3975  1.0673
  464TMC3    H1 6912   4.596   1.060   2.041 -0.9283  0.0916  2.2462
  464TMC3    H2 6913   4.191   1.131   1.924 -0.0157 -0.8591  0.7053
  464TMC3    C7 6914   4.370   0.943   2.034  0.1535  0.2259 -0.1871
  464TMC3    C8 6915   4.217   1.384   1.873 -0.5600 -0.5640 -0.3079
  464TMC3    O1 6916   4.438   0.887   2.122  0.0795  0.6559 -0.2767
  464TMC3    O2 6917   4.245   1.482   1.806  0.7858  0.4640  0.1092
  465MPD2     C 6918   1.660   4.553  16.804  0.6130 -0.0800  0.0276
  465MPD2    C1 6919   1.565   4.611  16.883 -0.2635  0.3774  0.3394
  465MPD2    C2 6920   1.451   4.663  16.824 -0.5279 -0.2307  0.0869
  465MPD2    C3 6921   1.436   4.658  16.687  0.0725  0.6160 -0.3916
  465MPD2    C4 6922   1.537   4.612  16.609 -0.1854 -0.2309  0.1769
  465MPD2    C5 6923   1.645   4.566  16.669  0.2953  0.2234  0.3732
  465MPD2     H 6924   1.367   4.695  16.885 -0.6462  1.9709 -1.2416
  465MPD2    H1 6925   1.538   4.626  16.502  2.5850 -0.7188  0.1198
  465MPD2    H2 6926   1.748   4.500  16.838  1.1915 -0.0558 -1.4540
  465MPD2    H3 6927   1.723   4.533  16.602  0.1607  1.3389 -0.3421
  465MPD2     N 6928   1.315   4.701  16.635  0.0553  0.1045 -0.2510
  465MPD2    H5 6929   1.244   4.722  16.704 -0.1099  0.7984 -0.6332
  465MPD2    N1 6930   1.590   4.643  17.021 -0.1317  0.0588 -0.1789
  465MPD2    H7 6931   1.531   4.718  17.056  1.3940 -0.4314  3.3730
  466TMC3    C1 6932   0.927   4.688  16.536  0.3672  0.8993  0.0468
  466TMC3    C2 6933   0.883   0.053  16.442 -0.0569  0.5462 -0.0806
  466TMC3    C3 6934   0.972   0.132  16.375  1.0329  0.0935  1.1379
  466TMC3    C4 6935   1.054   4.687  16.580  0.4113  0.4623 -0.5760
  466TMC3    C5 6936   1.140   0.052  16.514 -0.1504  0.3599  0.0969
  466TMC3    C6 6937   1.102   0.130  16.408  0.6098 -0.1308  0.6506
  466TMC3     C 6938   0.838   4.587  16.596 -0.1774  0.1604  0.5303
  466TMC3     O 6939   0.868   4.543  16.705 -0.1757  0.0351 -0.9822
  466TMC3     H 6940   0.779   0.072  16.418  0.1981  0.4645 -1.2974
  466TMC3    H1 6941   1.080   4.636  16.672  1.6586  1.9373 -0.1215
  466TMC3    H2 6942   1.176   0.197  16.365  1.9185 -1.2451  1.1589
  466TMC3    C7 6943   1.278   0.008  16.508 -0.4316  0.5584 -0.3375
  466TMC3    C8 6944   0.920   0.256  16.325 -0.5933 -0.0597  0.5959
  466TMC3    O1 6945   1.338   0.010  16.402 -0.2589  0.2573  0.2680
  466TMC3    O2 6946   0.967   0.294  16.217 -0.9373  0.5277  0.3410
  467TMC3    C1 6947   1.486   2.983  13.917  0.1110 -0.0773 -0.0475
  467TMC3    C2 6948   1.513   2.902  13.816 -0.5336 -0.0212  0.3466
  467TMC3    C3 6949   1.431   2.907  13.709 -0.0860 -0.0375  0.6544
  467TMC3    C4 6950   1.377   3.066  13.913  0.5647  0.3039  0.0338
  467TMC3    C5 6951   1.293   3.063  13.801  0.1038 -0.2686  0.2862
  467TMC3    C6 6952   1.329   2.991  13.692 -1.1935  0.1421 -0.5882
  467TMC3     C 6953   1.610   3.041  13.974  0.4919  0.4323 -0.3088
  467TMC3     O 6954   1.604   3.120  14.066 -0.6294  0.5529  0.0861
  467TMC3     H 6955   1.586   2.824  13.829 -0.9404 -0.4793 -0.1274
  467TMC3    H1 6956   1.358   3.128  13.999 -0.0912  0.4869 -0.2392
  467TMC3    H2 6957   1.264   2.985  13.605  0.6067  0.3461 -1.9455
  467TMC3    C7 6958   1.172   3.142  13.798 -0.0418 -0.6975 -0.5981
  467TMC3    C8 6959   1.504   2.879  13.582  0.5602  0.0490  0.4347
  467TMC3    O1 6960   1.134   3.181  13.690 -0.1984  0.5899 -0.2519
  467TMC3    O2 6961   1.627   2.867  13.588  0.2210 -0.0325 -0.1611
  468MPD2     C 6962   0.732   0.529  10.222 -0.3227  0.1431 -0.2157
  468MPD2    C1 6963   0.859   0.581  10.247 -0.2523  0.1785  0.0205
  468MPD2    C2 6964   0.938   0.511  10.337 -0.5109  0.0695 -0.8023
  468MPD2    C3 6965   0.895   0.398  10.393 -0.2478  0.2054 -0.0229
  468MPD2    C4 6966   0.771   0.346  10.369  0.1737  0.1739 -0.0325
  468MPD2    C5 6967   0.683   0.410  10.287  0.0842  0.3775 -0.1484
  468MPD2     H 6968   1.024   0.561  10.380 -0.5508  2.0501 -3.0331
  468MPD2    H1 6969   0.734   0.265  10.430  1.0083  0.0010  0.2458
  468MPD2    H2 6970   0.669   0.564  10.142 -2.7498 -2.0440  0.7228
  468MPD2    H3 6971   0.583   0.367  10.283 -0.1618  0.6624  2.6813
  468MPD2     N 6972   0.967   0.325  10.491  0.1988  0.5974 -0.3344
  468MPD2    H5 6973   0.921   0.242  10.525 -0.2812  1.3767  0.9081
  468MPD2    N1 6974   0.912   0.702  10.190  0.2407  0.1911 -0.1816
  468MPD2    H7 6975   1.001   0.732  10.228  1.1247 -1.4082 -0.9838
  469TMC3    C1 6976   0.872   0.928  10.116 -0.0907 -0.0701  0.4666
  469TMC3    C2 6977   0.977   0.978  10.176  0.4499  0.1826  0.2715
  469TMC3    C3 6978   0.975   1.099  10.230 -0.1062  0.4717 -0.6184
  469TMC3    C4 6979   0.758   1.010  10.098  0.1845 -0.1323  0.5586
  469TMC3    C5 6980   0.762   1.138  10.150  0.2885 -0.0432  0.0878
  469TMC3    C6 6981   0.869   1.181  10.219  0.5858  0.1012  0.3425
  469TMC3     C 6982   0.832   0.790  10.115  0.1194  0.2212 -0.2113
  469TMC3     O 6983   0.736   0.766  10.043 -0.1046 -0.6859 -0.0580
  469TMC3     H 6984   1.066   0.918  10.190  2.5988  3.3322  0.1582
  469TMC3    H1 6985   0.660   0.982  10.059  0.8556 -1.2198 -0.3608
  469TMC3    H2 6986   0.864   1.282  10.256  2.3923  0.3426 -0.0853
  469TMC3    C7 6987   0.630   1.201  10.169  0.0981 -0.5179  0.1452
  469TMC3    C8 6988   1.097   1.144  10.292 -0.1448  0.3229  0.4484
  469TMC3    O1 6989   0.535   1.164  10.105  0.2057 -0.1897 -0.1250
  469TMC3    O2 6990   1.206   1.103  10.249  0.2815 -0.2518  0.4278
  470TMC3    C1 6991   4.143   2.613   1.529  0.0874  0.7630 -0.3254
  470TMC3    C2 6992   4.016   2.620   1.473  0.6501  0.8324 -0.0035
  470TMC3    C3 6993   3.912   2.548   1.526  0.0512  0.0657  0.1009
  470TMC3    C4 6994   4.172   2.537   1.636  0.0810  0.1779 -0.4584
  470TMC3    C5 6995   4.069   2.465   1.685  0.1478  0.3674 -0.3798
  470TMC3    C6 6996   3.938   2.473   1.636  0.1790  0.0182  0.1498
  470TMC3     C 6997   4.266   2.662   1.459  0.4782  1.3889  0.0456
  470TMC3     O 6998   4.361   2.584   1.451 -0.4869  0.0369  0.0453
  470TMC3     H 6999   4.003   2.686   1.388 -0.0528  3.1762  1.9138
  470TMC3    H1 7000   4.273   2.529   1.674  0.2219  2.2933 -0.4044
  470TMC3    H2 7001   3.850   2.430   1.681  0.2315 -0.0457  0.1909
  470TMC3    C7 7002   4.101   2.399   1.813  0.0869 -0.3877  0.0317
  470TMC3    C8 7003   3.779   2.605   1.520 -0.1947  0.1998  0.0009
  470TMC3    O1 7004   4.215   2.408   1.863 -0.3702 -0.2409  0.1337
  470TMC3    O2 7005   3.716   2.620   1.618  0.6212 -0.1160  0.4347
  471MPD2     C 7006   2.539   3.444  16.181  0.3181  0.1443  0.2905
  471MPD2    C1 7007   2.634   3.354  16.150 -1.0565 -0.0507  0.1793
  471MPD2    C2 7008   2.750   3.343  16.226  0.2160  0.3117  0.6192
  471MPD2    C3 7009   2.772   3.422  16.335  0.0656  0.9989 -0.4348
  471MPD2    C4 7010   2.674   3.522  16.359  1.0452 -0.5253  0.5098
  471MPD2    C5 7011   2.559   3.526  16.286 -0.1552  0.6231 -0.2545
  471MPD2     H 7012   2.823   3.270  16.192  0.5418  1.1640 -0.4999
  471MPD2    H1 7013   2.694   3.610  16.420 -0.7535 -1.4921  2.5039
  471MPD2    H2 7014   2.444   3.447  16.129  0.3442  0.5146  0.2599
  471MPD2    H3 7015   2.486   3.605  16.302  0.1327  0.9043 -0.3377
  471MPD2     N 7016   2.877   3.420  16.427  0.0109 -0.7972  0.0300
  471MPD2    H5 7017   2.871   3.485  16.505 -1.4444  0.3728 -1.0663
  471MPD2    N1 7018   2.632   3.269  16.038  0.1416  0.1580  0.0636
  471MPD2    H7 7019   2.708   3.203  16.025 -0.1140 -0.1443  0.1004
  472TMC3    C1 7020   2.546   3.143  15.860  0.3744  0.0180  0.1569
  472TMC3    C2 7021   2.443   3.066  15.859 -0.0612  0.1337 -0.6752
  472TMC3    C3 7022   2.460   2.939  15.819  0.3351  0.1376 -0.1968
  472TMC3    C4 7023   2.676   3.106  15.831 -0.0738  0.6872 -0.1085
  472TMC3    C5 7024   2.693   2.975  15.795  0.3936  0.2942  1.0635
  472TMC3    C6 7025   2.582   2.888  15.798 -0.8735  0.5337 -0.3627
  472TMC3     C 7026   2.537   3.262  15.940 -0.2719 -0.7455  0.2057
  472TMC3     O 7027   2.436   3.334  15.923 -0.5480  0.1241 -0.1912
  472TMC3     H 7028   2.344   3.101  15.885 -0.7949 -2.2017 -0.3920
  472TMC3    H1 7029   2.762   3.170  15.839  1.6493 -1.7261  0.6234
  472TMC3    H2 7030   2.586   2.780  15.789  0.0379  0.4746  0.7191
  472TMC3    C7 7031   2.818   2.918  15.833 -0.1654 -0.1613 -0.3213
  472TMC3    C8 7032   2.344   2.850  15.808 -0.3129 -0.4773  0.7836
  472TMC3    O1 7033   2.808   2.819  15.906  0.0106 -0.1018 -0.2075
  472TMC3    O2 7034   2.240   2.892  15.761 -0.0289 -0.1069  0.2380
  473MPD2     C 7035   3.407   0.847  13.634 -0.0368  0.3385 -0.5955
  473MPD2    C1 7036   3.412   0.983  13.603 -0.0305 -0.0504  0.1851
  473MPD2    C2 7037   3.494   1.064  13.678 -0.4571  0.1450  0.3319
  473MPD2    C3 7038   3.569   1.014  13.781  0.0512  0.1124 -0.8075
  473MPD2    C4 7039   3.546   0.885  13.820 -0.0592 -0.5509  0.3006
  473MPD2    C5 7040   3.470   0.800  13.744 -1.1095  0.3300 -0.9404
  473MPD2     H 7041   3.500   1.164  13.638  1.1742 -0.2865 -0.4862
  473MPD2    H1 7042   3.588   0.851  13.914  0.7512 -3.2200 -1.0253
  473MPD2    H2 7043   3.349   0.779  13.571 -0.6455 -1.6881  2.1760
  473MPD2    H3 7044   3.451   0.696  13.769  0.2654  0.0475 -1.0525
  473MPD2     N 7045   3.628   1.105  13.871  0.0327  0.3937 -0.7434
  473MPD2    H5 7046   3.607   1.204  13.863 -2.3288 -0.0188  0.1845
  473MPD2    N1 7047   3.341   1.034  13.489 -0.4433 -0.6377 -0.6538
  473MPD2    H7 7048   3.360   1.131  13.467  0.6301 -0.8169 -0.5061
  474TMC3    C1 7049   3.740   1.181  14.070  0.0805 -0.2021 -0.1437
  474TMC3    C2 7050   3.665   1.299  14.069  0.2510 -0.2761 -0.5603
  474TMC3    C3 7051   3.708   1.402  14.151 -0.6597 -0.1067  0.1604
  474TMC3    C4 7052   3.845   1.168  14.164  0.1451  0.1917  0.0902
  474TMC3    C5 7053   3.869   1.272  14.253 -0.8180  0.4297 -1.0799
  474TMC3    C6 7054   3.800   1.389  14.249 -0.5993  0.1595  0.6583
  474TMC3     C 7055   3.707   1.074  13.982  0.4596 -0.0784  0.1624
  474TMC3     O 7056   3.786   0.978  13.983 -0.0684 -0.4349 -0.1979
  474TMC3     H 7057   3.573   1.309  14.013 -1.0267 -0.8327  1.4363
  474TMC3    H1 7058   3.903   1.077  14.168 -0.8948 -0.4927 -0.4512
  474TMC3    H2 7059   3.840   1.476  14.298  0.3539  0.3319 -0.4270
  474TMC3    C7 7060   4.009   1.270  14.317  0.4960 -0.0119  1.1107
  474TMC3    C8 7061   3.670   1.534  14.090 -0.0438  0.1433  0.0688
  474TMC3    O1 7062   4.092   1.188  14.277 -0.2315 -0.0970 -0.6047
  474TMC3    O2 7063   3.611   1.533  13.984  0.6512  0.0266 -0.3819
  475MPD2     C 7064   2.148   2.904   9.424 -0.1150 -0.2106 -0.3649
  475MPD2    C1 7065   2.109   3.009   9.507 -0.6328 -0.4778 -0.2571
  475MPD2    C2 7066   2.058   2.985   9.632  0.7502 -0.0017 -0.5577
  475MPD2    C3 7067   2.040   2.855   9.676 -0.7081  0.2918  0.4956
  475MPD2    C4 7068   2.068   2.752   9.590  0.2692 -0.1793  0.0381
  475MPD2    C5 7069   2.121   2.772   9.470  0.4671 -0.2976 -0.6052
  475MPD2     H 7070   2.021   3.061   9.700 -1.3160 -1.8653  0.4125
  475MPD2    H1 7071   2.052   2.649   9.621  1.8352 -0.8253 -1.3235
  475MPD2    H2 7072   2.193   2.926   9.328 -2.1471  1.5116 -0.9177
  475MPD2    H3 7073   2.138   2.681   9.413  0.1564 -0.5768 -0.2566
  475MPD2     N 7074   1.968   2.837   9.799  1.1277  0.2736  0.3973
  475MPD2    H5 7075   1.943   2.916   9.857  1.9239  1.4086 -0.8279
  475MPD2    N1 7076   2.120   3.140   9.451 -0.3668  0.5265  0.1711
  475MPD2    H7 7077   2.132   3.145   9.350 -2.8650 -1.4763 -0.2225
  476TMC3    C1 7078   2.046   3.368   9.463 -0.0050 -0.3361 -0.0697
  476TMC3    C2 7079   1.939   3.339   9.382  0.3131  0.4570 -0.8319
  476TMC3    C3 7080   1.819   3.402   9.403  0.4837 -0.2160 -0.1045
  476TMC3    C4 7081   2.033   3.470   9.543  0.0671 -0.3164  0.1509
  476TMC3    C5 7082   1.910   3.528   9.565  0.5789 -0.8753  0.4505
  476TMC3    C6 7083   1.798   3.497   9.498  0.5084  0.3710  0.0859
  476TMC3     C 7084   2.103   3.251   9.529  0.4057  0.1665 -0.7980
  476TMC3     O 7085   2.122   3.261   9.650  0.1906  0.6387 -0.0416
  476TMC3     H 7086   1.953   3.275   9.295  0.5362  0.2762 -0.6617
  476TMC3    H1 7087   2.118   3.492   9.606  0.8144 -1.1678 -0.5610
  476TMC3    H2 7088   1.707   3.556   9.508 -0.6422 -1.4545  0.4094
  476TMC3    C7 7089   1.885   3.619   9.672  1.0286 -0.3959  0.6356
  476TMC3    C8 7090   1.711   3.312   9.376 -0.2248  0.4301  0.7022
  476TMC3    O1 7091   1.769   3.637   9.706 -0.1077  1.0884 -0.1245
  476TMC3    O2 7092   1.604   3.361   9.402  0.3461  0.1801 -0.2365
  477MPD2     C 7093   4.007   4.655  11.392 -0.4117  0.3914  0.2535
  477MPD2    C1 7094   4.131   4.702  11.373  0.4008  0.0009  0.4030
  477MPD2    C2 7095   4.222   4.669  11.467 -0.4995  0.4799 -0.1382
  477MPD2    C3 7096   4.194   4.590  11.576 -0.0234  0.2367 -0.5204
  477MPD2    C4 7097   4.065   4.545  11.597  0.0972  0.0977  0.5095
  477MPD2    C5 7098   3.971   4.576  11.499  0.1436 -0.1465 -0.1682
  477MPD2     H 7099   4.323   4.709  11.459 -0.4539  0.5906  0.9085
  477MPD2    H1 7100   4.040   4.480  11.680  0.2894 -2.9727 -1.8323
  477MPD2    H2 7101   3.930   4.684  11.321  0.5421 -0.7331 -1.2517
  477MPD2    H3 7102   3.867   4.546  11.506  0.1001 -0.3694 -1.7713
  477MPD2     N 7103   4.296   4.588  11.679 -0.1751  0.7823 -0.5014
  477MPD2    H5 7104   4.381   4.636  11.651 -0.8549  0.2487 -3.4331
  477MPD2    N1 7105   4.154   0.065  11.264  0.2744 -0.2423 -0.6856
  477MPD2    H7 7106   4.082   0.065  11.191 -0.1780 -0.3779 -0.2417
  478TMC3    C1 7107   4.231   0.255  11.173 -0.3147  0.0785  0.0472
  478TMC3    C2 7108   4.231   0.382  11.239 -0.8443 -0.0516  0.3570
  478TMC3    C3 7109   4.182   0.493  11.173  0.4852  0.3484 -0.0307
  478TMC3    C4 7110   4.158   0.244  11.051 -0.1979  0.1854 -1.1290
  478TMC3    C5 7111   4.129   0.363  10.996  0.3426 -0.5240 -0.1495
  478TMC3    C6 7112   4.133   0.490  11.050  0.4909  0.2102 -0.1212
  478TMC3     C 7113   4.266   0.150  11.259 -0.6176  0.0135  0.3497
  478TMC3     O 7114   4.355   0.172  11.340 -0.0101  0.6168  0.5238
  478TMC3     H 7115   4.277   0.396  11.336  0.0495  1.8498 -0.3405
  478TMC3    H1 7116   4.162   0.150  10.998 -2.3566 -0.3599 -0.3328
  478TMC3    H2 7117   4.112   0.580  10.993  0.0903 -0.2422 -0.6927
  478TMC3    C7 7118   4.122   0.354  10.851  0.4497 -0.0286 -0.3511
  478TMC3    C8 7119   4.175   0.619  11.250 -0.4936  0.2882  0.2080
  478TMC3    O1 7120   4.184   0.266  10.792 -0.4080 -0.1559 -0.9940
  478TMC3    O2 7121   4.263   0.627  11.336 -0.5700  0.4472 -0.0545
  479MPD2     C 7122   3.043   2.715  14.959 -0.5230 -0.6655  0.4556
  479MPD2    C1 7123   3.007   2.667  15.085  0.8146 -0.2414 -0.7670
  479MPD2    C2 7124   3.078   2.703  15.193  0.5189  0.1340 -0.0605
  479MPD2    C3 7125   3.189   2.791  15.182 -0.1458  0.3168  0.1311
  479MPD2    C4 7126   3.232   2.830  15.055  0.0434 -0.2815  0.0320
  479MPD2    C5 7127   3.158   2.792  14.948  0.7034 -0.0602 -0.2542
  479MPD2     H 7128   3.061   2.641  15.280  1.0469  0.4832  0.2922
  479MPD2    H1 7129   3.316   2.898  15.044 -1.4527  1.3063 -1.3794
  479MPD2    H2 7130   2.993   2.685  14.868 -0.7289 -2.3212  1.1131
  479MPD2    H3 7131   3.179   2.829  14.848  3.0362  0.0938  0.3054
  479MPD2     N 7132   3.267   2.832  15.294  0.6716 -0.3218 -0.4725
  479MPD2    H5 7133   3.347   2.882  15.257  0.2470  0.3723 -0.4448
  479MPD2    N1 7134   2.899   2.579  15.073  0.2930 -0.7526 -0.1051
  479MPD2    H7 7135   2.858   2.565  14.982 -0.9206 -2.0237  0.6351
  480TMC3    C1 7136   2.916   2.710  15.552  0.1124  0.2677 -0.9503
  480TMC3    C2 7137   2.823   2.774  15.473 -0.7995  0.0065  0.3563
  480TMC3    C3 7138   2.864   2.877  15.391 -0.0785 -0.7543 -0.5894
  480TMC3    C4 7139   3.047   2.732  15.545  0.2397 -0.7154  0.0902
  480TMC3    C5 7140   3.086   2.836  15.458 -0.4733  0.3229 -0.8125
  480TMC3    C6 7141   2.995   2.916  15.388  0.2205  0.2086 -0.0215
  480TMC3     C 7142   2.873   2.588  15.627 -0.1572  0.0771  0.2132
  480TMC3     O 7143   2.969   2.537  15.691 -0.1518 -0.3761 -0.2759
  480TMC3     H 7144   2.720   2.742  15.459 -0.6564 -0.6774  0.8752
  480TMC3    H1 7145   3.118   2.680  15.609 -0.2965 -1.4034  0.1160
  480TMC3    H2 7146   3.030   2.986  15.314 -1.5531  1.3290  0.2132
  480TMC3    C7 7147   3.228   2.829  15.426 -0.0971  0.3161  0.3848
  480TMC3    C8 7148   2.783   2.906  15.271  0.4088  0.3390 -0.1622
  480TMC3    O1 7149   3.308   2.852  15.513  0.3352 -0.2365 -0.0321
  480TMC3    O2 7150   2.662   2.883  15.285  0.0796 -0.3138 -0.2369
  481MPD2     C 7151   0.141   2.268  13.969 -0.1610  1.1110 -0.2168
  481MPD2    C1 7152   0.052   2.199  14.052  0.2939  0.4733  0.4492
  481MPD2    C2 7153   0.092   2.153  14.175 -0.5945  0.5632 -0.0779
  481MPD2    C3 7154   0.227   2.156  14.215  0.3795 -0.1856  0.2599
  481MPD2    C4 7155   0.318   2.208  14.123 -0.1503 -0.2391  0.4005
  481MPD2    C5 7156   0.277   2.270  14.010 -0.5596  0.3269  0.5906
  481MPD2     H 7157   0.025   2.122  14.255  0.0447  0.5876  0.4709
  481MPD2    H1 7158   0.422   2.216  14.152 -0.3215  1.0022  0.7097
  481MPD2    H2 7159   0.107   2.320  13.880  0.7996 -2.5610 -2.7482
  481MPD2    H3 7160   0.343   2.320  13.940 -0.7245 -1.2849 -0.7169
  481MPD2     N 7161   0.271   2.108  14.335  0.4472  0.0568  0.6825
  481MPD2    H5 7162   0.360   2.132  14.377  0.2268  1.0323  0.5848
  481MPD2    N1 7163   4.635   2.199  14.019 -0.0790  0.0064  0.1231
  481MPD2    H7 7164   4.608   2.244  13.932  0.7718 -0.7008 -0.5157
  482TMC3    C1 7165   4.416   2.114  14.024 -0.5216 -0.5340  0.5444
  482TMC3    C2 7166   4.345   2.002  13.995 -0.1101  0.9463 -0.1918
  482TMC3    C3 7167   4.212   2.014  13.962  0.0801 -0.2539  0.7096
  482TMC3    C4 7168   4.364   2.242  14.017  0.5698 -0.6798 -0.3895
  482TMC3    C5 7169   4.232   2.253  13.972  0.0317 -0.1566  0.2275
  482TMC3    C6 7170   4.153   2.140  13.966  0.5273 -0.1109  0.2905
  482TMC3     C 7171   4.552   2.100  14.071  0.6254  0.1513  0.2476
  482TMC3     O 7172   4.560   2.007  14.151 -0.4233  0.5252 -0.0229
  482TMC3     H 7173   4.400   1.911  13.976 -0.3958  0.5723  0.8301
  482TMC3    H1 7174   4.430   2.319  14.054 -0.7140  0.5709 -0.7054
  482TMC3    H2 7175   4.047   2.152  13.945  0.4203  0.3516  1.0916
  482TMC3    C7 7176   4.162   2.381  13.983 -0.8372  0.2675  0.8109
  482TMC3    C8 7177   4.149   1.900  13.906  0.2005  0.8613 -0.5015
  482TMC3    O1 7178   4.051   2.387  14.033  0.5162 -0.8692 -0.6235
  482TMC3    O2 7179   4.220   1.802  13.902 -0.1970 -0.6586 -0.0409
  483TMC3    C1 7180   2.212   1.095   0.361  0.2525 -0.0113 -0.6356
  483TMC3    C2 7181   2.189   1.204   0.279  0.2825  0.3328 -0.5848
  483TMC3    C3 7182   2.219   1.322   0.332  0.1640 -0.1951 -0.2187
  483TMC3    C4 7183   2.254   1.110   0.490  0.7152  0.1604  0.7449
  483TMC3    C5 7184   2.285   1.239   0.532 -0.5715  0.1476  0.2525
  483TMC3    C6 7185   2.270   1.344   0.459 -0.3030  0.1514 -0.4786
  483TMC3     C 7186   2.214   0.962   0.292  0.6855 -0.2758  0.3075
  483TMC3     O 7187   2.141   0.949   0.193  0.0467 -0.3386  0.1420
  483TMC3     H 7188   2.143   1.196   0.181  1.7760 -1.7343 -1.1267
  483TMC3    H1 7189   2.248   1.029   0.562 -2.0005 -0.8943 -0.6774
  483TMC3    H2 7190   2.316   1.435   0.497 -0.3431 -0.4702  1.0538
  483TMC3    C7 7191   2.316   1.261   0.672 -0.0761 -0.3443 -0.1515
  483TMC3    C8 7192   2.204   1.434   0.240 -0.3252  0.3854 -0.0317
  483TMC3    O1 7193   2.279   1.359   0.724  0.5325 -0.1834 -0.3438
  483TMC3    O2 7194   2.241   1.426   0.122  0.3195 -0.0841 -0.1265
  484MPD2     C 7195   0.774   3.938  12.903 -0.7982  0.0375 -0.5105
  484MPD2    C1 7196   0.701   3.969  12.787  0.9121 -0.6308  0.7669
  484MPD2    C2 7197   0.767   4.037  12.682  0.2277 -0.0746 -0.0180
  484MPD2    C3 7198   0.908   4.060  12.693 -0.6179 -0.1670 -0.6034
  484MPD2    C4 7199   0.971   4.022  12.809 -0.7552  0.0075 -0.8777
  484MPD2    C5 7200   0.907   3.970  12.912  0.7074 -0.1201 -0.4390
  484MPD2     H 7201   0.711   4.057  12.591  0.5878 -0.0824 -0.2431
  484MPD2    H1 7202   1.078   4.035  12.826 -0.4500 -1.7981 -1.3577
  484MPD2    H2 7203   0.730   3.898  12.993 -0.5117 -2.8749 -1.6495
  484MPD2    H3 7204   0.967   3.950  13.001  1.2161 -1.4113 -1.0626
  484MPD2     N 7205   0.994   4.110  12.594 -0.4619 -0.6806  0.0005
  484MPD2    H5 7206   1.087   4.130  12.629 -0.7274  0.2990  0.1236
  484MPD2    N1 7207   0.572   3.932  12.791 -0.2106  0.5462 -0.1370
  484MPD2    H7 7208   0.547   3.885  12.878  1.2653 -0.6402 -0.3329
  485TMC3    C1 7209   1.068   4.215  12.411 -0.4901  0.4061 -0.8012
  485TMC3    C2 7210   1.192   4.202  12.475 -0.0459  0.3033  0.8846
  485TMC3    C3 7211   1.283   4.300  12.448  0.3208 -0.1122  0.4049
  485TMC3    C4 7212   1.044   4.320  12.323 -0.8258 -0.9029 -1.2129
  485TMC3    C5 7213   1.137   4.411  12.300 -0.1657 -0.7338  0.4632
  485TMC3    C6 7214   1.257   4.399  12.365 -0.3287 -0.7218  0.4289
  485TMC3     C 7215   0.957   4.144  12.468 -1.0979 -0.0904  0.0402
  485TMC3     O 7216   0.848   4.159  12.415 -0.0983  0.2995 -0.0454
  485TMC3     H 7217   1.218   4.112  12.529 -0.4049  0.9444  2.1248
  485TMC3    H1 7218   0.945   4.335  12.282 -1.0246 -0.1358 -0.4453
  485TMC3    H2 7219   1.326   4.476  12.332  0.2889 -1.7559 -0.6515
  485TMC3    C7 7220   1.151   4.455  12.162 -0.1527  0.9602 -0.9771
  485TMC3    C8 7221   1.429   4.268  12.460 -0.8936  0.3750 -0.6809
  485TMC3    O1 7222   1.165   4.577  12.152 -0.0970 -0.3290  0.7203
  485TMC3    O2 7223   1.503   4.333  12.387 -0.1413 -0.0809  0.5667
  486MPD2     C 7224   2.792   3.008  12.870  1.0307  0.7486 -0.1971
  486MPD2    C1 7225   2.701   2.968  12.775  0.5424  0.4652 -0.2664
  486MPD2    C2 7226   2.650   3.061  12.686 -0.5479 -0.4195 -0.0844
  486MPD2    C3 7227   2.686   3.196  12.691  1.1859 -0.2789 -0.5172
  486MPD2    C4 7228   2.777   3.229  12.796 -0.4580  0.0991  0.9501
  486MPD2    C5 7229   2.837   3.138  12.878  0.2401 -0.2875  0.9712
  486MPD2     H 7230   2.589   3.032  12.601 -1.4050  0.2072  0.3221
  486MPD2    H1 7231   2.821   3.327  12.806  1.4246 -0.7965  1.3741
  486MPD2    H2 7232   2.836   2.932  12.933  1.6217  0.5888 -0.7946
  486MPD2    H3 7233   2.902   3.168  12.960  4.2703 -2.3551 -1.5109
  486MPD2     N 7234   2.640   3.289  12.596 -0.2833 -0.0039 -0.3103
  486MPD2    H5 7235   2.586   3.245  12.522  0.8222 -0.6521 -0.7309
  486MPD2    N1 7236   2.666   2.827  12.770  0.3204 -0.4990 -0.0604
  486MPD2    H7 7237   2.725   2.768  12.828 -0.4528 -1.2265 -0.0219
  487TMC3    C1 7238   2.572   2.626  12.714 -0.2392  0.1144  0.4136
  487TMC3    C2 7239   2.489   2.558  12.634  0.1513  0.9716 -0.2435
  487TMC3    C3 7240   2.434   2.441  12.678 -0.8218  0.3618 -0.1513
  487TMC3    C4 7241   2.612   2.569  12.835  0.1976  0.1952 -0.0766
  487TMC3    C5 7242   2.580   2.439  12.865 -1.2106  0.1004 -0.5471
  487TMC3    C6 7243   2.496   2.369  12.778  0.3076  0.5255 -0.2922
  487TMC3     C 7244   2.574   2.771  12.693  0.2013 -0.6220 -0.0274
  487TMC3     O 7245   2.479   2.821  12.634  1.0937 -0.2284 -0.1518
  487TMC3     H 7246   2.435   2.604  12.553  1.3356 -0.0912 -1.6309
  487TMC3    H1 7247   2.655   2.625  12.917 -1.6455  0.6718  0.5386
  487TMC3    H2 7248   2.457   2.274  12.812 -1.5335  2.0554  1.8121
  487TMC3    C7 7249   2.551   2.417  13.003  0.1196  0.0362 -0.1346
  487TMC3    C8 7250   2.292   2.453  12.705  0.3882 -0.8756 -0.3206
  487TMC3    O1 7251   2.627   2.461  13.089 -0.0530 -0.6517  0.0093
  487TMC3    O2 7252   2.253   2.378  12.798  0.1885  0.2758 -0.2640
  488MPD2     C 7253   2.807   4.544  16.319 -0.2478 -0.3279  0.0124
  488MPD2    C1 7254   2.745   4.664  16.296  0.7515  0.3832 -0.0229
  488MPD2    C2 7255   2.663   4.711  16.398  0.1952  0.2168 -0.2872
  488MPD2    C3 7256   2.639   4.632  16.508 -0.0382  0.1473 -0.2334
  488MPD2    C4 7257   2.693   4.505  16.516 -0.4148  0.6184 -0.1084
  488MPD2    C5 7258   2.778   4.462  16.420 -0.0763 -0.1771  0.2071
  488MPD2     H 7259   2.606   0.080  16.392  0.1797  0.3144  1.5257
  488MPD2    H1 7260   2.680   4.436  16.600  1.1575 -0.3438 -0.6471
  488MPD2    H2 7261   2.877   4.502  16.247 -0.4968 -1.6387  0.5222
  488MPD2    H3 7262   2.805   4.357  16.422  3.1928  0.6301 -1.0945
  488MPD2     N 7263   2.558   4.681  16.613  0.0008  0.5271  0.1693
  488MPD2    H5 7264   2.533   0.057  16.607  0.2495  0.5961  0.2816
  488MPD2    N1 7265   2.769   0.025  16.183 -0.1426 -0.1768 -0.1318
  488MPD2    H7 7266   2.731   0.119  16.186 -0.3748 -0.2236 -1.5221
  489TMC3    C1 7267   2.437   4.697  16.811 -0.5160 -0.3334  0.1650
  489TMC3    C2 7268   2.366   0.077  16.756  0.3137 -0.4350  0.1321
  489TMC3    C3 7269   2.303   0.157  16.846  0.4354 -0.0820 -0.1717
  489TMC3    C4 7270   2.452   4.689  16.949 -0.5474  0.4051  0.2097
  489TMC3    C5 7271   2.391   0.049  17.033 -0.1130 -0.1790 -0.6875
  489TMC3    C6 7272   2.318   0.152  16.983 -1.0882 -0.3764 -0.5966
  489TMC3     C 7273   2.523   4.615  16.728 -0.1489  0.2861 -0.2782
  489TMC3     O 7274   2.554   4.508  16.771  0.2028  0.2763  0.1098
  489TMC3     H 7275   2.356   0.093  16.650 -0.0931  2.6610  0.6579
  489TMC3    H1 7276   2.521   4.611  16.979 -0.5933  0.3186  0.0874
  489TMC3    H2 7277   2.257   0.215  17.046  1.1608  0.9733  0.2146
  489TMC3    C7 7278   2.462   0.058  17.162  0.8394 -0.0676  0.5220
  489TMC3    C8 7279   2.266   0.288  16.781  0.4005  0.1111  0.5071
  489TMC3    O1 7280   2.546   4.696  17.195 -0.5059 -0.3976  0.3329
  489TMC3    O2 7281   2.207   0.277  16.671 -0.4675  0.1729  0.1564
  490MPD2     C 7282   4.034   4.522  17.131  0.1389  0.0918  0.3725
  490MPD2    C1 7283   4.043   4.477  17.258 -0.0329  0.9720 -0.1506
  490MPD2    C2 7284   4.107   4.545  17.355 -0.7472  0.0872 -0.3866
  490MPD2    C3 7285   4.159   4.668  17.326 -0.5358  0.5037  0.0861
  490MPD2    C4 7286   4.150   4.720  17.195 -0.2246  0.3612 -0.5610
  490MPD2    C5 7287   4.089   4.644  17.100 -0.4214  0.3263 -0.1796
  490MPD2     H 7288   4.116   4.497  17.452 -2.5476 -1.9757 -1.2476
  490MPD2    H1 7289   4.184   0.097  17.171  0.6273 -0.5506 -3.2319
  490MPD2    H2 7290   3.983   4.464  17.055 -0.5388  0.3905  0.5992
  490MPD2    H3 7291   4.083   4.683  16.999  2.1546  0.0979 -0.4116
  490MPD2     N 7292   4.224   0.007  17.433  0.1332  0.1762  0.3078
  490MPD2    H5 7293   4.213   4.684  17.523 -0.3140 -0.0857  0.1234
  490MPD2    N1 7294   3.989   4.360  17.307  0.8744  0.1528  0.1142
  490MPD2    H7 7295   4.014   4.335  17.403  2.3019  0.6215 -0.1310
  491TMC3    C1 7296   3.843   4.173  17.331  0.2506 -0.1256 -0.2584
  491TMC3    C2 7297   3.825   4.193  17.466 -0.2461 -1.0354  0.5071
  491TMC3    C3 7298   3.752   4.098  17.528  0.5499  0.0558 -0.2778
  491TMC3    C4 7299   3.775   4.072  17.267  0.7649  0.2587 -0.0173
  491TMC3    C5 7300   3.691   3.992  17.337  0.0781  0.7328 -0.2170
  491TMC3    C6 7301   3.680   4.001  17.467  0.0385 -0.1757  0.9124
  491TMC3     C 7302   3.887   4.285  17.249 -0.0328  0.0954  0.0087
  491TMC3     O 7303   3.834   4.294  17.141 -0.5681  0.4611  0.4163
  491TMC3     H 7304   3.851   4.288  17.511 -2.2225 -0.1640 -0.1332
  491TMC3    H1 7305   3.786   4.060  17.160  1.1206  0.1968  0.0265
  491TMC3    H2 7306   3.602   3.942  17.513 -1.7159  2.1660  0.9776
  491TMC3    C7 7307   3.600   3.916  17.262 -0.9642 -0.0286  0.1527
  491TMC3    C8 7308   3.690   4.134  17.652  0.4624  0.6121  0.0543
  491TMC3    O1 7309   3.487   3.896  17.300  0.8030 -0.1584 -0.1365
  491TMC3    O2 7310   3.572   4.116  17.674 -0.2253  0.6104  0.1498
  492MPD2     C 7311   4.328   4.093  10.909 -0.2780 -0.1075  0.4276
  492MPD2    C1 7312   4.208   4.063  10.857 -0.6479  0.7334 -0.4720
  492MPD2    C2 7313   4.116   3.988  10.930 -0.2119  0.1700  0.5008
  492MPD2    C3 7314   4.139   3.961  11.065 -0.9323  0.9126  0.0130
  492MPD2    C4 7315   4.260   4.008  11.121 -0.4556  0.4591  0.6989
  492MPD2    C5 7316   4.348   4.075  11.037  0.0478 -0.0296 -0.4278
  492MPD2     H 7317   4.022   3.963  10.880 -0.4976  0.6924  0.7821
  492MPD2    H1 7318   4.281   4.007  11.227  1.0379  1.2638  0.4114
  492MPD2    H2 7319   4.399   4.156  10.857  0.3512 -1.3430 -0.1916
  492MPD2    H3 7320   4.440   4.117  11.076 -0.0777  2.6585 -3.0985
  492MPD2     N 7321   4.047   3.894  11.149  0.2643 -0.2610 -0.5766
  492MPD2    H5 7322   4.075   3.884  11.246 -1.1804 -2.2824 -0.3632
  492MPD2    N1 7323   4.187   4.110  10.728 -0.7998  0.5187  0.1412
  492MPD2    H7 7324   4.261   4.172  10.695  1.0535  0.0865  3.4577
  493TMC3    C1 7325   4.116   4.148  10.513 -0.2232 -0.4218 -0.2756
  493TMC3    C2 7326   4.249   4.171  10.482  0.6614  0.2479 -0.2235
  493TMC3    C3 7327   4.287   4.216  10.363  0.1324 -0.3910 -0.1450
  493TMC3    C4 7328   4.019   4.165  10.422 -0.0481  0.0018 -0.0991
  493TMC3    C5 7329   4.061   4.218  10.300 -0.3656 -0.1668  0.2401
  493TMC3    C6 7330   4.193   4.249  10.267  0.3247 -0.1920  0.5740
  493TMC3     C 7331   4.089   4.091  10.644  0.1714 -0.4223  0.6103
  493TMC3     O 7332   3.989   4.025  10.663 -0.3686  0.2500 -0.5979
  493TMC3     H 7333   4.334   4.144  10.543  0.9582 -1.3163 -1.3353
  493TMC3    H1 7334   3.915   4.150  10.449 -0.8622  0.7775 -2.7231
  493TMC3    H2 7335   4.222   4.277  10.166  0.8100 -1.6607  0.3000
  493TMC3    C7 7336   3.961   4.276  10.216  0.6590  0.1291 -0.7537
  493TMC3    C8 7337   4.427   4.220  10.325  0.6457  0.3055  0.3722
  493TMC3    O1 7338   3.847   4.239  10.243  0.7670 -0.2354 -0.3170
  493TMC3    O2 7339   4.487   4.129  10.384  0.2870 -0.5627  0.1203
  494TMC3    C1 7340   4.511   1.459   0.716  0.0485  0.2416 -0.3506
  494TMC3    C2 7341   4.552   1.335   0.754 -0.6948 -0.1581  0.2507
  494TMC3    C3 7342   4.534   1.240   0.663  0.1352  0.0950  0.7058
  494TMC3    C4 7343   4.476   1.486   0.585 -0.6841  0.4728  0.3698
  494TMC3    C5 7344   4.476   1.383   0.499 -0.2683 -0.0615 -0.1518
  494TMC3    C6 7345   4.490   1.255   0.539  0.9020  0.1107 -0.7453
  494TMC3     C 7346   4.462   1.544   0.817 -0.1845  0.0771 -0.4444
  494TMC3     O 7347   4.377   1.625   0.786  0.4054 -0.7994 -0.3114
  494TMC3     H 7348   4.580   1.306   0.855 -1.4885 -3.3699 -0.4700
  494TMC3    H1 7349   4.457   1.590   0.557  0.0213  0.4768 -0.0995
  494TMC3    H2 7350   4.485   1.164   0.479 -1.1742 -1.1481  1.3635
  494TMC3    C7 7351   4.433   1.399   0.362  0.1025  0.4324  0.3989
  494TMC3    C8 7352   4.470   1.130   0.725  0.2393 -0.1358  0.3517
  494TMC3    O1 7353   4.462   1.305   0.285 -0.0817 -0.0839 -0.1696
  494TMC3    O2 7354   4.553   1.045   0.769 -0.2243 -0.3049  0.1589
  495TMC3    C1 7355   3.129   2.901  14.351 -0.1478  0.5547  0.7746
  495TMC3    C2 7356   3.021   2.896  14.266  0.0452  0.3949  0.4436
  495TMC3    C3 7357   2.912   2.966  14.300 -0.0518 -0.5646 -0.4287
  495TMC3    C4 7358   3.117   2.948  14.472  0.4026  0.6455 -0.1747
  495TMC3    C5 7359   2.998   3.002  14.507  0.2133  0.5039  0.1228
  495TMC3    C6 7360   2.888   3.015  14.423 -0.2365  0.2485  0.1940
  495TMC3     C 7361   3.217   2.786  14.343 -0.1985 -0.2940  0.8934
  495TMC3     O 7362   3.248   2.720  14.442 -0.8507  0.5347  0.3184
  495TMC3     H 7363   3.027   2.839  14.174 -0.4994  0.9762  0.0513
  495TMC3    H1 7364   3.197   2.923  14.541  0.9198 -2.6737 -1.9650
  495TMC3    H2 7365   2.786   3.039  14.453 -1.7573 -2.5738 -2.7298
  495TMC3    C7 7366   2.988   3.017  14.647  0.0009 -0.4287  0.5606
  495TMC3    C8 7367   2.798   2.940  14.225 -0.1480  0.1724 -0.3978
  495TMC3    O1 7368   3.092   3.031  14.713  0.2419 -0.2666 -0.0116
  495TMC3    O2 7369   2.692   2.914  14.284  0.3170 -0.2727  0.0664
  496MPD2     C 7370   0.490   2.289  15.960  0.5873 -0.3102  0.2223
  496MPD2    C1 7371   0.440   2.396  15.887 -0.3757 -0.4590  0.2310
  496MPD2    C2 7372   0.376   2.507  15.942  0.0673  0.2379  0.6414
  496MPD2    C3 7373   0.365   2.510  16.078 -0.1160 -0.1376  0.3071
  496MPD2    C4 7374   0.399   2.405  16.159  0.3910 -0.4346  0.3022
  496MPD2    C5 7375   0.466   2.298  16.096 -0.7005 -0.0780  0.3735
  496MPD2     H 7376   0.331   2.582  15.878  1.0747 -1.9578 -2.6412
  496MPD2    H1 7377   0.383   2.408  16.266 -2.2160  1.2670 -0.1431
  496MPD2    H2 7378   0.553   2.209  15.924  0.7038  0.3425 -1.0222
  496MPD2    H3 7379   0.504   2.222  16.163 -1.1972 -0.4173  0.2726
  496MPD2     N 7380   0.303   2.613  16.148 -0.4327  0.6852  0.3299
  496MPD2    H5 7381   0.296   2.592  16.247  0.2987 -0.7290  0.0716
  496MPD2    N1 7382   0.458   2.380  15.746 -0.2384 -0.8783 -0.3058
  496MPD2    H7 7383   0.513   2.305  15.705  0.7038  0.6549 -1.8056
  497TMC3    C1 7384   0.181   2.797  16.202  0.4037  0.2234 -0.0569
  497TMC3    C2 7385   0.178   2.751  16.329 -0.6384 -0.2064 -0.1254
  497TMC3    C3 7386   0.143   2.834  16.431 -0.0760  0.4454 -0.5130
  497TMC3    C4 7387   0.154   2.930  16.181  0.1619 -0.0859  0.5739
  497TMC3    C5 7388   0.120   3.007  16.288  0.9377 -0.9372  0.4557
  497TMC3    C6 7389   0.113   2.970  16.413 -0.6385  0.0846 -0.4854
  497TMC3     C 7390   0.256   2.733  16.100  0.0357  0.0346 -0.7390
  497TMC3     O 7391   0.275   2.781  15.992 -0.2336 -0.3682 -0.1344
  497TMC3     H 7392   0.209   2.652  16.360 -1.5547 -0.6181 -0.5180
  497TMC3    H1 7393   0.169   2.969  16.081 -1.7997  1.2181  0.8064
  497TMC3    H2 7394   0.077   3.043  16.485 -0.7054  1.6472 -2.1112
  497TMC3    C7 7395   0.159   3.148  16.261  0.5007 -0.2137  0.7878
  497TMC3    C8 7396   0.183   2.786  16.566 -0.0808  0.3338  0.3566
  497TMC3    O1 7397   0.171   3.185  16.146 -0.8063 -0.1549 -0.3245
  497TMC3    O2 7398   0.274   2.705  16.567 -0.4072 -0.0082  0.1275
  498MPD2     C 7399   1.162   3.845   9.961  0.4977 -0.3270 -0.3138
  498MPD2    C1 7400   1.160   3.774   9.845  0.6437  0.2947  0.0971
  498MPD2    C2 7401   1.146   3.636   9.843  0.2084  0.5438  0.3825
  498MPD2    C3 7402   1.134   3.574   9.964  0.3951 -0.1839  0.0496
  498MPD2    C4 7403   1.135   3.652  10.079  0.0113  0.2117  0.3260
  498MPD2    C5 7404   1.158   3.782  10.081 -0.2314  0.3848  0.1222
  498MPD2     H 7405   1.141   3.578   9.752  1.9460  0.7449  0.1708
  498MPD2    H1 7406   1.133   3.602  10.175  0.3458 -0.4977 -0.0374
  498MPD2    H2 7407   1.167   3.953   9.963 -2.0774 -0.2147  0.1170
  498MPD2    H3 7408   1.163   3.844  10.170 -0.2329  0.0085  0.3828
  498MPD2     N 7409   1.127   3.437   9.973  0.1900 -0.6290  0.1398
  498MPD2    H5 7410   1.125   3.387   9.884 -0.0842  0.0991 -0.2657
  498MPD2    N1 7411   1.162   3.843   9.718 -0.4291 -0.1210 -0.2968
  498MPD2    H7 7412   1.131   3.795   9.635 -0.5087 -0.1758 -0.2347
  499TMC3    C1 7413   1.229   4.013   9.571 -0.2621 -0.3061  0.4870
  499TMC3    C2 7414   1.104   4.028   9.516  0.1001  0.4336  0.1034
  499TMC3    C3 7415   1.103   4.103   9.399 -0.3158 -0.1361 -0.5079
  499TMC3    C4 7416   1.340   4.081   9.530  0.9540 -0.5042 -0.2653
  499TMC3    C5 7417   1.328   4.168   9.427 -0.4363 -1.0192  0.9328
  499TMC3    C6 7418   1.213   4.167   9.352  0.3341  0.2366 -0.1200
  499TMC3     C 7419   1.233   3.961   9.709 -0.4599  0.2723  0.3293
  499TMC3     O 7420   1.304   4.025   9.780  0.3131 -0.0131  0.0925
  499TMC3     H 7421   1.022   3.973   9.560  2.1197 -3.4176 -0.9060
  499TMC3    H1 7422   1.437   4.062   9.574 -0.4401  1.3398  3.6582
  499TMC3    H2 7423   1.199   4.224   9.261  1.8543  2.5725  1.0940
  499TMC3    C7 7424   1.440   4.218   9.372  0.1560 -0.5339 -0.0624
  499TMC3    C8 7425   0.975   4.130   9.336 -0.7263  0.6353 -0.1684
  499TMC3    O1 7426   1.551   4.171   9.393  0.3834  0.4625  0.7638
  499TMC3    O2 7427   0.960   4.231   9.263  0.5641  0.1016 -0.2986
  500MPD2     C 7428   4.082   4.403   9.455 -0.2918 -0.3262 -0.5554
  500MPD2    C1 7429   3.995   4.494   9.507  0.4751  0.0137  0.7608
  500MPD2    C2 7430   3.858   4.474   9.493  0.1753  0.5711  0.0314
  500MPD2    C3 7431   3.811   4.364   9.431  0.5926 -0.2988  0.0881
  500MPD2    C4 7432   3.902   4.285   9.364 -0.3894 -0.5033  0.2994
  500MPD2    C5 7433   4.032   4.297   9.391  0.2007 -0.0652  0.2847
  500MPD2     H 7434   3.790   4.545   9.540 -0.8123 -0.5290  0.2486
  500MPD2    H1 7435   3.884   4.197   9.302 -1.7625 -0.1606  0.2181
  500MPD2    H2 7436   4.190   4.410   9.461 -0.2584 -1.9100  0.7613
  500MPD2    H3 7437   4.109   4.235   9.347 -0.0382  0.6352 -1.1299
  500MPD2     N 7438   3.672   4.346   9.410  0.3753  0.1573 -0.0853
  500MPD2    H5 7439   3.640   4.283   9.337 -3.8414  0.6717  1.3169
  500MPD2    N1 7440   4.039   4.610   9.574  0.1915  0.2338  0.0875
  500MPD2    H7 7441   3.963   4.675   9.593  0.0479  0.2478 -0.5460
  501TMC3    C1 7442   4.176   0.016   9.720  0.8856  0.4490  0.3247
  501TMC3    C2 7443   4.104   0.125   9.680 -0.3872  0.7329 -0.6602
  501TMC3    C3 7444   4.136   0.240   9.740  0.0348  0.4548  0.1361
  501TMC3    C4 7445   4.262   0.005   9.824  0.1913  0.1019  0.3557
  501TMC3    C5 7446   4.291   0.121   9.884 -0.1502 -0.7379 -0.3922
  501TMC3    C6 7447   4.234   0.236   9.835 -0.0559 -0.7657  0.2545
  501TMC3     C 7448   4.163   4.620   9.636 -0.0364  0.3362  0.2751
  501TMC3     O 7449   4.248   4.533   9.651 -0.0919 -0.1354 -0.3514
  501TMC3     H 7450   4.043   0.127   9.590 -2.8248  0.5467  0.9762
  501TMC3    H1 7451   4.309   4.635   9.855 -0.0089 -0.5486 -1.3099
  501TMC3    H2 7452   4.272   0.325   9.883 -1.6023 -0.0313  0.1184
  501TMC3    C7 7453   4.291   0.119  10.028  0.4348  0.9469  0.6453
  501TMC3    C8 7454   4.022   0.315   9.778  0.3507 -0.2929  0.5073
  501TMC3    O1 7455   4.365   0.041  10.079 -0.1613 -0.0182 -0.4549
  501TMC3    O2 7456   4.025   0.352   9.894  0.6751 -0.3579 -0.3731
  502TMC3    C1 7457   2.648   3.946  14.911 -0.4213  0.2378  0.0166
  502TMC3    C2 7458   2.622   4.077  14.891 -0.5829 -0.1114 -0.5529
  502TMC3    C3 7459   2.495   4.123  14.906 -0.2523  0.0453  0.7015
  502TMC3    C4 7460   2.545   3.858  14.933 -0.3604  0.8328 -0.9714
  502TMC3    C5 7461   2.420   3.908  14.952  0.3022  0.6031  0.1041
  502TMC3    C6 7462   2.386   4.038  14.929 -0.2845 -0.4437  0.0865
  502TMC3     C 7463   2.748   3.946  15.013 -1.1962  0.2715 -0.5488
  502TMC3     O 7464   2.852   4.002  14.987 -0.5811  0.1597  0.4598
  502TMC3     H 7465   2.702   4.144  14.863 -0.2400 -0.0741  0.5270
  502TMC3    H1 7466   2.567   3.753  14.947  0.0956  0.4778 -4.2600
  502TMC3    H2 7467   2.284   4.071  14.942  0.5521  1.2922  2.3410
  502TMC3    C7 7468   2.345   3.845  15.065 -0.5237 -1.1965  0.0732
  502TMC3    C8 7469   2.480   4.259  14.882 -0.2924 -0.1080  0.1595
  502TMC3    O1 7470   2.412   3.830  15.162  0.0813  0.1103  0.5975
  502TMC3    O2 7471   2.582   4.325  14.883  0.0826  0.4147  0.3923
  503MPD2     C 7472   0.045   0.244  16.818 -0.0283 -0.3132 -0.0336
  503MPD2    C1 7473   4.695   0.243  16.936 -0.3904  0.1918  0.5832
  503MPD2    C2 7474   4.690   0.127  17.014  0.0893  0.5937 -0.2634
  503MPD2    C3 7475   0.021   0.009  16.960  1.0327 -1.0338  0.1506
  503MPD2    C4 7476   0.083   0.016  16.834  0.7926  0.2624  0.0002
  503MPD2    C5 7477   0.096   0.131  16.768 -0.2685  0.3972 -0.6084
  503MPD2     H 7478   4.631   0.134  17.105  0.0013 -1.2844 -0.1650
  503MPD2    H1 7479   0.153   4.667  16.791  0.4541 -0.6135  0.8822
  503MPD2    H2 7480   0.047   0.322  16.743 -3.3147 -1.1791 -1.0354
  503MPD2    H3 7481   0.144   0.127  16.670  0.2815 -2.4113 -0.2323
  503MPD2     N 7482   0.004   4.615  17.033 -0.0317 -0.2739 -0.6343
  503MPD2    H5 7483   4.686   4.630  17.125 -0.1269  0.5702 -0.8140
  503MPD2    N1 7484   4.645   0.357  16.990  1.0219 -0.1060 -0.0355
  503MPD2    H7 7485   4.587   0.348  17.073 -0.2775  1.9575 -0.7201
  504TMC3    C1 7486   0.056   4.393  17.099 -1.3450 -0.7665 -0.0913
  504TMC3    C2 7487   0.011   4.422  17.221  0.0056 -0.2550  0.0253
  504TMC3    C3 7488   0.078   4.372  17.335 -0.4466  0.3746 -0.2035
  504TMC3    C4 7489   0.167   4.305  17.075  0.3453 -0.1838 -1.1783
  504TMC3    C5 7490   0.226   4.254  17.185 -0.2765 -0.2356  0.4045
  504TMC3    C6 7491   0.191   4.290  17.316  0.3670 -0.5228 -1.1250
  504TMC3     C 7492   0.051   4.493  16.991  0.9285 -0.6769  0.0904
  504TMC3     O 7493   0.115   4.470  16.888 -0.1520 -0.2817 -0.6560
  504TMC3     H 7494   4.654   4.496  17.225  0.3976  0.1462  0.4051
  504TMC3    H1 7495   0.190   4.270  16.975 -0.2285  1.0264 -1.7295
  504TMC3    H2 7496   0.253   4.251  17.397  0.5265  2.1614  0.0463
  504TMC3    C7 7497   0.356   4.206  17.146 -0.2109  0.6211  0.2655
  504TMC3    C8 7498   0.051   4.445  17.457  0.3773 -0.4926  0.1257
  504TMC3    O1 7499   0.387   4.221  17.029 -0.3691  0.2593 -0.1309
  504TMC3    O2 7500   0.007   4.557  17.445  0.5114  0.0674  0.7223
  505MPD2     C 7501   0.535   2.121  10.197 -0.4993 -0.3846  0.6752
  505MPD2    C1 7502   0.643   2.110  10.119 -0.1989  0.1800  0.2708
  505MPD2    C2 7503   0.764   2.087  10.182  0.7626 -0.1213 -0.3852
  505MPD2    C3 7504   0.785   2.109  10.321 -0.1190  0.4312 -0.0690
  505MPD2    C4 7505   0.672   2.126  10.399 -0.4195 -0.0969 -0.0478
  505MPD2    C5 7506   0.547   2.131  10.336 -0.6043  0.4265  0.5796
  505MPD2     H 7507   0.849   2.072  10.115 -0.2042 -3.7920 -0.7724
  505MPD2    H1 7508   0.672   2.138  10.507  0.8249 -1.8833  0.1421
  505MPD2    H2 7509   0.438   2.145  10.155 -0.6187  1.2196  1.8960
  505MPD2    H3 7510   0.462   2.171  10.390 -2.0778  0.7370 -1.9234
  505MPD2     N 7511   0.917   2.112  10.375 -0.1072 -0.7516 -0.3313
  505MPD2    H5 7512   0.918   2.160  10.464  1.1319  0.1824 -0.8568
  505MPD2    N1 7513   0.616   2.100   9.979  0.1671  0.3186 -0.2438
  505MPD2    H7 7514   0.519   2.109   9.949  0.4267 -0.1926 -1.2177
  506TMC3    C1 7515   0.681   2.057   9.754 -0.0739  0.5159 -0.0668
  506TMC3    C2 7516   0.616   2.171   9.712  0.0726 -0.1704  0.4272
  506TMC3    C3 7517   0.680   2.242   9.618 -0.0387  0.5987  0.3521
  506TMC3    C4 7518   0.791   2.008   9.684  0.1501  0.2163  0.0261
  506TMC3    C5 7519   0.846   2.081   9.582  0.5362  0.7493 -0.1811
  506TMC3    C6 7520   0.796   2.202   9.553 -0.2403  0.1192  0.0010
  506TMC3     C 7521   0.715   2.057   9.893  0.1503  1.1841  0.6540
  506TMC3     O 7522   0.824   2.008   9.909 -0.1798  0.0109  0.1231
  506TMC3     H 7523   0.546   2.230   9.769 -0.1700  1.7137 -1.8420
  506TMC3    H1 7524   0.826   1.906   9.702 -0.3181  0.1855  0.7491
  506TMC3    H2 7525   0.842   2.262   9.475  0.9017  0.1448  0.6914
  506TMC3    C7 7526   0.992   2.083   9.581 -0.4764  0.3484 -0.3222
  506TMC3    C8 7527   0.643   2.382   9.600  0.3226  0.4713 -0.8551
  506TMC3    O1 7528   1.050   2.134   9.487 -0.1917  0.0708  0.1056
  506TMC3    O2 7529   0.525   2.411   9.585  0.1404  0.0505 -0.5889
  507TMC3    C1 7530   1.111   3.939  14.847 -0.3386  0.1798  0.2958
  507TMC3    C2 7531   1.089   3.833  14.760  0.1707  0.9586 -0.3313
  507TMC3    C3 7532   1.146   3.851  14.633 -0.1914  0.2904 -0.6700
  507TMC3    C4 7533   1.179   4.054  14.823  1.1743  0.1748  0.2612
  507TMC3    C5 7534   1.246   4.059  14.702  0.9711  0.0304 -0.0127
  507TMC3    C6 7535   1.230   3.964  14.607  0.0966 -0.2922 -0.7521
  507TMC3     C 7536   1.032   3.945  14.966  0.2927 -0.0157 -0.1294
  507TMC3     O 7537   1.076   4.016  15.058 -0.4308  0.1099 -0.1098
  507TMC3     H 7538   1.012   3.759  14.777 -0.0951  0.9572 -1.5256
  507TMC3    H1 7539   1.192   4.133  14.896  3.4939  0.4973 -0.4793
  507TMC3    H2 7540   1.279   3.972  14.510  1.5210 -0.1671 -0.0262
  507TMC3    C7 7541   1.229   4.179  14.633 -0.0679  0.2423 -0.1458
  507TMC3    C8 7542   1.052   3.823  14.530  0.7539 -0.2878  0.1009
  507TMC3    O1 7543   1.166   4.171  14.527  0.0683  0.2950  0.2281
  507TMC3    O2 7544   0.965   3.737  14.545  0.3034 -0.3952  0.0274
  508MPD2     C 7545   1.665   1.520  16.282  0.3970  0.4626 -0.3018
  508MPD2    C1 7546   1.793   1.569  16.281  0.3497 -0.3342  0.7809
  508MPD2    C2 7547   1.836   1.617  16.158  0.1270  0.1709  0.4456
  508MPD2    C3 7548   1.759   1.615  16.042 -0.1120  0.5008 -0.1315
  508MPD2    C4 7549   1.633   1.565  16.051  0.4354  0.4934 -0.2461
  508MPD2    C5 7550   1.585   1.527  16.172  0.3130 -0.4187 -0.0717
  508MPD2     H 7551   1.940   1.648  16.149 -0.3896  2.1822  1.3670
  508MPD2    H1 7552   1.576   1.556  15.959  2.1515 -0.4152 -1.2171
  508MPD2    H2 7553   1.624   1.467  16.368  0.2544  1.5183  0.2800
  508MPD2    H3 7554   1.481   1.496  16.182  1.1299 -2.7517  1.4458
  508MPD2     N 7555   1.795   1.678  15.917 -0.7803 -0.0888 -0.5622
  508MPD2    H5 7556   1.727   1.680  15.842 -2.0644 -1.2354  0.5759
  508MPD2    N1 7557   1.868   1.561  16.397 -0.1788  0.4424 -0.3274
  508MPD2    H7 7558   1.812   1.536  16.479  0.7730 -1.1294 -0.1537
  509TMC3    C1 7559   1.815   2.019  15.714  0.0560  0.5223  0.0382
  509TMC3    C2 7560   1.928   2.054  15.649 -1.1855  0.5736  0.0472
  509TMC3    C3 7561   2.025   1.957  15.630 -0.0869  0.3225 -0.2328
  509TMC3    C4 7562   1.795   1.902  15.771  0.2646  0.0917 -0.1133
  509TMC3    C5 7563   1.897   1.808  15.761 -0.1760  0.1996  0.0185
  509TMC3    C6 7564   2.008   1.839  15.688  0.0709  0.6120 -0.4857
  509TMC3     C 7565   1.701   2.113  15.713  0.1439  0.3776  0.0360
  509TMC3     O 7566   1.628   2.113  15.810 -0.1127  0.1802 -0.7595
  509TMC3     H 7567   1.935   2.156  15.613  1.6061 -0.1492 -1.4466
  509TMC3    H1 7568   1.710   1.896  15.838 -1.3245 -1.2654 -2.2282
  509TMC3    H2 7569   2.091   1.769  15.690 -1.7384 -1.5317 -0.7950
  509TMC3    C7 7570   1.917   1.724  15.886 -0.0165 -0.1087 -0.3476
  509TMC3    C8 7571   2.160   1.997  15.583 -0.0518 -0.4104 -0.1643
  509TMC3    O1 7572   2.019   1.741  15.946  0.1502  0.1355  0.2878
  509TMC3    O2 7573   2.256   1.938  15.635 -0.3358 -0.4680 -0.3861
  510MPD2     C 7574   4.221   3.547  14.558 -0.0074 -1.2946  0.2547
  510MPD2    C1 7575   4.257   3.414  14.576  0.0156 -0.2012  0.7141
  510MPD2    C2 7576   4.377   3.373  14.518 -0.0771  0.4322  0.2531
  510MPD2    C3 7577   4.450   3.458  14.439 -0.3654 -0.1164  1.0253
  510MPD2    C4 7578   4.413   3.593  14.417 -0.7993 -0.4089 -0.1115
  510MPD2    C5 7579   4.297   3.632  14.482 -0.0576 -0.2366  0.0048
  510MPD2     H 7580   4.417   3.273  14.530  0.4367  0.6971  0.7437
  510MPD2    H1 7581   4.486   3.659  14.371 -1.1970 -1.8872 -2.8660
  510MPD2    H2 7582   4.137   3.583  14.615  0.9983  2.4380 -0.6277
  510MPD2    H3 7583   4.263   3.733  14.467 -0.5612 -0.3291  0.5365
  510MPD2     N 7584   4.563   3.404  14.383 -0.0996  0.1973 -0.3717
  510MPD2    H5 7585   4.575   3.307  14.411  4.6926  0.7271 -0.6220
  510MPD2    N1 7586   4.176   3.340  14.663 -0.3087  0.2221  0.2434
  510MPD2    H7 7587   4.099   3.389  14.706 -2.1095  0.1071 -2.8247
  511TMC3    C1 7588   4.122   3.153  14.790  0.7122 -0.5182 -0.8639
  511TMC3    C2 7589   4.086   3.234  14.896  0.5867 -0.1906 -0.1863
  511TMC3    C3 7590   4.041   3.181  15.012  0.3357  0.1251  0.3457
  511TMC3    C4 7591   4.094   3.023  14.788  0.1470 -0.2507 -0.2298
  511TMC3    C5 7592   4.048   2.974  14.911 -0.3175 -0.2087 -0.7011
  511TMC3    C6 7593   4.020   3.046  15.021 -0.8912  0.5851  0.5529
  511TMC3     C 7594   4.199   3.207  14.686  0.2571 -0.2892  0.0665
  511TMC3     O 7595   4.255   3.121  14.619 -0.2455  0.0151  0.1917
  511TMC3     H 7596   4.114   3.339  14.898 -0.5134  0.0737  1.5012
  511TMC3    H1 7597   4.113   2.957  14.704 -0.6546 -2.2888  1.1864
  511TMC3    H2 7598   3.975   2.999  15.108 -0.8490 -0.6332 -0.0749
  511TMC3    C7 7599   4.003   2.835  14.905  0.7983 -0.3764 -0.2458
  511TMC3    C8 7600   4.027   3.263  15.132 -0.3594 -0.0012 -0.8162
  511TMC3    O1 7601   3.971   2.783  14.795  0.1652  0.1834  0.0390
  511TMC3    O2 7602   4.005   3.385  15.109  0.9837 -0.5843 -0.4329
  512TMC3    C1 7603   3.235   2.849  12.946  0.0762 -0.1634  0.5927
  512TMC3    C2 7604   3.222   2.852  13.086  0.0492  0.2488 -0.3248
  512TMC3    C3 7605   3.285   2.747  13.154  0.1851  0.3795  0.3347
  512TMC3    C4 7606   3.278   2.735  12.877  0.3510 -0.5372  0.0505
  512TMC3    C5 7607   3.323   2.623  12.953  0.3090 -0.0931  1.0480
  512TMC3    C6 7608   3.337   2.636  13.085 -0.1567  0.1398 -0.2811
  512TMC3     C 7609   3.185   2.958  12.874  0.1416 -0.8266 -0.2567
  512TMC3     O 7610   3.133   3.048  12.937  0.4524 -0.0896  0.2715
  512TMC3     H 7611   3.186   2.938  13.141 -2.3022 -0.9937  0.0774
  512TMC3    H1 7612   3.297   2.733  12.770  2.8901 -1.0638  0.4999
  512TMC3    H2 7613   3.380   2.556  13.145 -2.4360  0.7201  2.1279
  512TMC3    C7 7614   3.410   2.530  12.878 -0.2211  0.9146  0.0760
  512TMC3    C8 7615   3.245   2.717  13.296 -0.7596 -0.1562  0.0969
  512TMC3    O1 7616   3.446   2.576  12.772 -0.9074  0.1457 -0.7024
  512TMC3    O2 7617   3.231   2.597  13.311  0.2838 -0.0235 -0.5447
  513MPD2     C 7618   0.094   2.542  13.362  0.0789  0.8139 -0.3997
  513MPD2    C1 7619   0.106   2.419  13.303 -0.6295  0.0804 -0.1278
  513MPD2    C2 7620   0.228   2.384  13.244 -0.0717  0.3403  0.1916
  513MPD2    C3 7621   0.326   2.478  13.234 -0.2241  0.2376 -0.0496
  513MPD2    C4 7622   0.320   2.594  13.302  0.0975  0.1025  0.3616
  513MPD2    C5 7623   0.200   2.624  13.362  0.1212  0.6310  0.6453
  513MPD2     H 7624   0.260   2.291  13.198  0.9268  0.0209  1.5519
  513MPD2    H1 7625   0.403   2.663  13.308 -0.9783  1.5592 -1.7628
  513MPD2    H2 7626   0.011   2.563  13.428 -0.9270 -1.7062 -0.8520
  513MPD2    H3 7627   0.197   2.713  13.423 -3.5299 -0.1817  1.6237
  513MPD2     N 7628   0.441   2.458  13.155 -1.0248 -0.2372 -0.1620
  513MPD2    H5 7629   0.447   2.373  13.099 -0.8787 -1.0071  1.0315
  513MPD2    N1 7630   0.003   2.321  13.321 -0.0041  0.2622  0.3092
  513MPD2    H7 7631   4.647   2.352  13.377  0.6383 -0.1920  1.4698
  514TMC3    C1 7632   0.061   2.147  13.143 -0.1819 -0.5383 -0.1145
  514TMC3    C2 7633   0.055   2.241  13.035 -0.6398  0.0384  0.5517
  514TMC3    C3 7634   0.075   2.193  12.912 -0.2065 -0.1905  0.6825
  514TMC3    C4 7635   0.076   2.012  13.126 -0.2013 -1.0656 -0.4833
  514TMC3    C5 7636   0.096   1.968  12.998 -0.5078 -1.0752 -0.9962
  514TMC3    C6 7637   0.098   2.057  12.891  0.3449 -0.1620  0.9406
  514TMC3     C 7638   4.716   2.188  13.268 -0.4352  0.1297 -0.0242
  514TMC3     O 7639   4.638   2.105  13.312  0.3431  0.4911 -0.3436
  514TMC3     H 7640   0.046   2.347  13.057  1.9407  0.5487 -0.7971
  514TMC3    H1 7641   0.080   1.937  13.204  2.0334  0.3720  0.7854
  514TMC3    H2 7642   0.096   2.021  12.789 -0.8539  0.3534  0.7831
  514TMC3    C7 7643   0.084   1.826  12.982 -0.4724  0.0744  0.1966
  514TMC3    C8 7644   0.124   2.301  12.823  0.1645  0.7812 -0.2028
  514TMC3    O1 7645   4.720   1.772  13.050 -0.6947 -0.0872  0.3187
  514TMC3    O2 7646   0.099   2.419  12.850  0.9005  0.2977  0.4134
  515MPD2     C 7647   3.195   0.189  14.421 -0.2394 -0.1759 -0.5794
  515MPD2    C1 7648   3.242   0.062  14.429 -0.0172  0.3656 -0.3825
  515MPD2    C2 7649   3.359   0.038  14.503 -0.1021  0.2497  0.1604
  515MPD2    C3 7650   3.415   0.136  14.583 -0.5881 -0.4563 -0.8419
  515MPD2    C4 7651   3.360   0.266  14.573  0.4676  0.1918  0.4822
  515MPD2    C5 7652   3.257   0.291  14.486 -0.0885 -0.4876 -0.2232
  515MPD2     H 7653   3.391   4.658  14.507 -0.3954  0.1710  0.4258
  515MPD2    H1 7654   3.398   0.355  14.620 -1.0166 -0.5872  3.1518
  515MPD2    H2 7655   3.110   0.229  14.366 -1.7752 -3.1592 -0.3438
  515MPD2    H3 7656   3.224   0.393  14.472 -0.2589 -0.4223  0.6371
  515MPD2     N 7657   3.528   0.106  14.666  0.3621  0.1537 -0.3975
  515MPD2    H5 7658   3.561   0.011  14.680 -2.1644 -0.5532  0.6950
  515MPD2    N1 7659   3.169   4.677  14.375  0.0655 -0.1775  0.2870
  515MPD2    H7 7660   3.214   4.586  14.380 -0.2336 -0.2223  2.2291
  516TMC3    C1 7661   3.003   4.563  14.243 -0.2672  0.0052 -0.5327
  516TMC3    C2 7662   2.898   4.570  14.146 -0.2636 -0.5249 -0.2693
  516TMC3    C3 7663   2.810   4.466  14.143 -0.6996  0.1027  0.0864
  516TMC3    C4 7664   3.018   4.447  14.313 -0.0160 -0.6061 -0.3092
  516TMC3    C5 7665   2.932   4.343  14.294 -0.0391  0.1368  0.0642
  516TMC3    C6 7666   2.823   4.354  14.211  0.1330 -0.7189  0.9290
  516TMC3     C 7667   3.059   4.688  14.283 -0.0908 -0.1705 -0.7500
  516TMC3     O 7668   3.012   0.070  14.239 -0.1272  0.4022 -0.1387
  516TMC3     H 7669   2.906   4.645  14.068 -1.2172  0.4507  0.5770
  516TMC3    H1 7670   3.107   4.429  14.372  0.1286  1.0310 -0.0310
  516TMC3    H2 7671   2.759   4.269  14.191 -0.3500  0.5865 -3.0855
  516TMC3    C7 7672   2.953   4.227  14.370  0.1185 -0.0426 -0.5292
  516TMC3    C8 7673   2.677   4.494  14.086 -0.2854 -0.4109  1.0145
  516TMC3    O1 7674   3.045   4.218  14.443  0.4650  0.3280 -0.1966
  516TMC3    O2 7675   2.587   4.421  14.118 -0.1686  0.0696  1.1817
  517MPD2     C 7676   2.381   1.322  17.038  0.0286  0.0239 -0.4498
  517MPD2    C1 7677   2.513   1.370  17.040  0.2871 -0.4135  0.1711
  517MPD2    C2 7678   2.536   1.492  17.098 -0.2056 -1.1734 -0.0021
  517MPD2    C3 7679   2.433   1.568  17.158 -0.5129  0.2382  0.5471
  517MPD2    C4 7680   2.305   1.513  17.153 -0.1302  0.2208 -0.3498
  517MPD2    C5 7681   2.278   1.395  17.088  0.3568  0.0034 -0.4913
  517MPD2     H 7682   2.642   1.515  17.109 -0.5633 -0.4751  2.0286
  517MPD2    H1 7683   2.220   1.564  17.195 -0.1002 -0.8538  1.0165
  517MPD2    H2 7684   2.349   1.231  16.990  0.1235 -0.5235  0.5204
  517MPD2    H3 7685   2.182   1.346  17.095  1.1436 -1.3882  0.7191
  517MPD2     N 7686   2.462   1.693  17.227  0.8092 -0.2708 -0.1223
  517MPD2    H5 7687   2.379   1.742  17.258  1.2876 -0.1653  0.9623
  517MPD2    N1 7688   2.617   1.290  16.988 -0.2804 -0.4497 -0.4876
  517MPD2    H7 7689   2.714   1.316  17.005 -0.7927  1.3684 -0.4059
  518TMC3    C1 7690   2.737   1.111  16.901 -0.3369  0.9856  0.3626
  518TMC3    C2 7691   2.746   0.979  16.876 -0.4595 -0.5028 -0.0792
  518TMC3    C3 7692   2.865   0.935  16.830  0.0110 -0.4877  0.5025
  518TMC3    C4 7693   2.840   1.198  16.875  0.4872 -0.0585  0.3672
  518TMC3    C5 7694   2.954   1.156  16.820  0.3523 -0.2067 -0.0321
  518TMC3    C6 7695   2.971   1.023  16.795 -0.1893  0.0397 -0.5847
  518TMC3     C 7696   2.606   1.172  16.914 -0.0513 -1.1415 -1.1117
  518TMC3     O 7697   2.505   1.121  16.865 -0.3176 -0.6447  0.1475
  518TMC3     H 7698   2.667   0.907  16.896 -1.4153 -0.4576 -3.6767
  518TMC3    H1 7699   2.829   1.304  16.892 -0.3516 -0.3123  1.4717
  518TMC3    H2 7700   3.066   0.982  16.763 -0.6414 -1.6002  0.1802
  518TMC3    C7 7701   3.065   1.234  16.862 -0.2116  0.0788 -0.0175
  518TMC3    C8 7702   2.891   0.794  16.803 -0.8544 -0.2615 -0.0787
  518TMC3    O1 7703   3.038   1.347  16.895 -0.1088  0.1642 -0.5563
  518TMC3    O2 7704   3.007   0.765  16.784 -0.0840  0.2346  0.4902
  519MPD2     C 7705   0.042   4.578  13.584 -0.1303 -0.3983  1.2080
  519MPD2    C1 7706   4.674   4.538  13.682  0.6829  0.0565 -0.2172
  519MPD2    C2 7707   4.692   4.417  13.746  0.1174 -0.4673 -0.9184
  519MPD2    C3 7708   0.080   4.338  13.722 -0.8178  0.2131 -0.8580
  519MPD2    C4 7709   0.174   4.378  13.631  0.1222  0.1331 -0.4017
  519MPD2    C5 7710   0.151   4.495  13.562 -0.0967 -0.0524  0.4396
  519MPD2     H 7711   4.621   4.376  13.817  0.6306  1.5434  0.7555
  519MPD2    H1 7712   0.269   4.328  13.616 -0.7533 -1.9662  1.1711
  519MPD2    H2 7713   0.019   4.670  13.532  0.6486 -0.6511  0.4246
  519MPD2    H3 7714   0.225   4.522  13.488  0.0555  0.8485  0.9156
  519MPD2     N 7715   0.104   4.206  13.776 -0.1608  0.2926 -0.5367
  519MPD2    H5 7716   0.186   4.156  13.743 -0.1114 -0.5225  0.8163
  519MPD2    N1 7717   4.552   4.618  13.696  0.4302  0.1024  0.0235
  519MPD2    H7 7718   4.529   4.676  13.616  1.3147  0.2770 -0.1111
  520TMC3    C1 7719   0.053   3.996  13.881  0.8874 -0.7031 -0.2752
  520TMC3    C2 7720   4.669   3.915  13.863  0.4267  0.2379 -0.3412
  520TMC3    C3 7721   4.681   3.779  13.876 -0.5125  0.1852 -0.1001
  520TMC3    C4 7722   0.168   3.941  13.930  0.1228  0.4211  0.6093
  520TMC3    C5 7723   0.177   3.805  13.935  0.2826  0.2937 -0.4942
  520TMC3    C6 7724   0.081   3.727  13.901  0.1133  0.0810  0.6106
  520TMC3     C 7725   0.029   4.141  13.873  0.0713  0.1161  0.0310
  520TMC3     O 7726   4.645   4.180  13.916  0.2752 -0.4005 -0.1549
  520TMC3     H 7727   4.572   3.958  13.839  0.9009  0.8717 -1.1409
  520TMC3    H1 7728   0.257   3.999  13.951  1.1509 -0.0439 -2.4521
  520TMC3    H2 7729   0.102   3.621  13.886 -0.1384  0.3793 -1.8452
  520TMC3    C7 7730   0.308   3.741  13.964 -0.6154  0.0035 -0.4660
  520TMC3    C8 7731   4.602   3.700  13.790 -0.2350  0.1762  0.4355
  520TMC3    O1 7732   0.303   3.634  14.017  0.2492  0.8346  0.0138
  520TMC3    O2 7733   4.644   3.593  13.753  0.4804  0.1067  0.5800
  521MPD2     C 7734   0.869   2.640  17.528  0.1324 -0.0084  0.9486
  521MPD2    C1 7735   0.830   2.516  17.489  0.0630 -0.2024 -0.1421
  521MPD2    C2 7736   0.926   2.429  17.440 -0.3234  1.1400  0.2205
  521MPD2    C3 7737   1.061   2.466  17.432  0.2172 -0.4044 -0.2112
  521MPD2    C4 7738   1.096   2.594  17.476 -0.2345  0.6836 -0.2798
  521MPD2    C5 7739   1.002   2.683  17.526  0.4615  0.3744 -0.0395
  521MPD2     H 7740   0.902   2.334  17.393  1.5454  0.3830  0.8036
  521MPD2    H1 7741   1.198   2.629  17.477 -0.4728  1.3296  1.5298
  521MPD2    H2 7742   0.792   2.704  17.569 -1.2795  0.7778 -3.0278
  521MPD2    H3 7743   1.021   2.781  17.568  0.4049  0.3470  0.0499
  521MPD2     N 7744   1.151   2.375  17.376  0.1174 -0.7007 -0.1047
  521MPD2    H5 7745   1.101   2.305  17.321 -2.6484  0.4057  0.9810
  521MPD2    N1 7746   0.693   2.494  17.489  0.3558 -0.1866 -0.3275
  521MPD2    H7 7747   0.639   2.548  17.555  1.7998  2.0929 -1.0187
  522TMC3    C1 7748   1.360   2.282  17.305 -0.3056 -0.1843 -0.0165
  522TMC3    C2 7749   1.494   2.288  17.316  0.0504 -0.5378  0.0170
  522TMC3    C3 7750   1.569   2.221  17.226  0.4469 -0.2476  0.1531
  522TMC3    C4 7751   1.293   2.216  17.201  0.5564 -0.4620  1.0675
  522TMC3    C5 7752   1.376   2.165  17.107 -1.3798  0.7710 -0.7822
  522TMC3    C6 7753   1.512   2.161  17.117 -0.2235  0.3539  0.3195
  522TMC3     C 7754   1.286   2.376  17.392 -0.0473  0.2325 -1.2123
  522TMC3     O 7755   1.359   2.432  17.474 -0.0174 -0.0684 -0.0264
  522TMC3     H 7756   1.546   2.332  17.400  1.2846 -1.8478 -0.0643
  522TMC3    H1 7757   1.185   2.211  17.198  0.5105 -0.0179  1.9288
  522TMC3    H2 7758   1.575   2.135  17.033  1.9368 -0.6838  2.2621
  522TMC3    C7 7759   1.316   2.088  17.003  0.0128 -0.9746 -0.5569
  522TMC3    C8 7760   1.710   2.213  17.239 -0.0227 -0.2625  0.2108
  522TMC3    O1 7761   1.396   2.019  16.936  0.1323 -0.6165 -0.3504
  522TMC3    O2 7762   1.775   2.285  17.315 -0.1687  0.6061 -0.3137
  523MPD2     C 7763   3.401   1.404   9.952  0.2660  0.1757  0.0591
  523MPD2    C1 7764   3.459   1.411   9.830 -1.0048 -0.6158 -0.0172
  523MPD2    C2 7765   3.417   1.513   9.741  0.7560 -0.0826  0.0818
  523MPD2    C3 7766   3.334   1.615   9.794  0.1302 -0.3280  0.6241
  523MPD2    C4 7767   3.277   1.601   9.922 -0.0163 -0.1093 -0.0217
  523MPD2    C5 7768   3.308   1.490   9.998  0.8544 -0.3224  0.7753
  523MPD2     H 7769   3.452   1.528   9.640 -0.4769 -0.6718 -0.4252
  523MPD2    H1 7770   3.214   1.683   9.956  0.6783  0.7323 -0.7615
  523MPD2    H2 7771   3.417   1.312  10.008 -0.6609 -0.7193 -1.1614
  523MPD2    H3 7772   3.259   1.473  10.093 -0.1152  2.9666  0.8479
  523MPD2     N 7773   3.283   1.713   9.715 -0.2576  0.2665 -0.4051
  523MPD2    H5 7774   3.244   1.791   9.766  0.0367 -1.5980  2.6422
  523MPD2    N1 7775   3.548   1.310   9.793  0.0287 -0.3658 -0.3220
  523MPD2    H7 7776   3.559   1.231   9.855 -1.7274 -0.3022  0.0764
  524TMC3    C1 7777   3.221   1.837   9.527 -0.2588  0.1762  0.0446
  524TMC3    C2 7778   3.241   1.854   9.389 -0.6097 -0.4717  0.2195
  524TMC3    C3 7779   3.219   1.978   9.334  0.0146  0.1883  0.1469
  524TMC3    C4 7780   3.141   1.919   9.599 -0.2322  0.3680  1.1983
  524TMC3    C5 7781   3.093   2.030   9.534 -0.0609  0.9159  0.6142
  524TMC3    C6 7782   3.127   2.059   9.407  0.3525 -0.1409  0.1776
  524TMC3     C 7783   3.285   1.719   9.581 -0.7340  0.6642 -0.1861
  524TMC3     O 7784   3.333   1.643   9.498  0.5528 -0.8445  0.5598
  524TMC3     H 7785   3.314   1.792   9.337 -1.9707 -1.0489 -1.0040
  524TMC3    H1 7786   3.110   1.895   9.701 -3.1153  0.8060  0.4167
  524TMC3    H2 7787   3.094   2.149   9.357 -0.0952 -1.1430 -1.3342
  524TMC3    C7 7788   3.008   2.116   9.608 -0.1647 -0.4802  0.4073
  524TMC3    C8 7789   3.240   2.008   9.190  0.2390 -0.1928  1.2922
  524TMC3    O1 7790   3.012   2.101   9.732 -0.0766 -0.3469  0.0052
  524TMC3    O2 7791   3.196   2.113   9.151 -0.0345  0.2227  0.0149
  525MPD2     C 7792   1.332   3.607  14.418 -0.0930  0.4485  0.2273
  525MPD2    C1 7793   1.442   3.593  14.507  0.0537 -0.1646  0.5725
  525MPD2    C2 7794   1.556   3.666  14.490  0.0616  0.0745  0.5965
  525MPD2    C3 7795   1.562   3.760  14.386 -0.1408  0.1778  0.2118
  525MPD2    C4 7796   1.456   3.775  14.303  0.6909  0.0531 -0.3587
  525MPD2    C5 7797   1.340   3.701  14.317  0.0348  0.1952  0.6263
  525MPD2     H 7798   1.646   3.640  14.544  0.6315  1.2569  0.2173
  525MPD2    H1 7799   1.457   3.846  14.221  0.6268 -1.1603 -1.4102
  525MPD2    H2 7800   1.243   3.545  14.420 -0.7115  1.2912 -0.9264
  525MPD2    H3 7801   1.258   3.708  14.246 -0.8562  0.8695  1.7314
  525MPD2     N 7802   1.672   3.854  14.375 -0.0116 -0.2740 -0.5754
  525MPD2    H5 7803   1.662   3.927  14.305 -1.0534 -0.0110 -0.1483
  525MPD2    N1 7804   1.454   3.487  14.600  0.3494 -0.2293  0.3669
  525MPD2    H7 7805   1.543   3.492  14.648  0.0405 -0.1317  0.9244
  526TMC3    C1 7806   1.402   3.307  14.741  0.1780  0.9900  0.0193
  526TMC3    C2 7807   1.329   3.283  14.854 -0.0035  0.1978  0.0152
  526TMC3    C3 7808   1.392   3.220  14.950 -0.1484  0.3513  0.1168
  526TMC3    C4 7809   1.541   3.272  14.727 -0.5178 -0.1819 -0.1282
  526TMC3    C5 7810   1.592   3.199  14.828  0.2428 -0.5205  1.0581
  526TMC3    C6 7811   1.524   3.179  14.944  0.4681  0.0379 -0.3378
  526TMC3     C 7812   1.352   3.410  14.655 -0.1331  0.0306 -0.3128
  526TMC3     O 7813   1.233   3.436  14.640  0.0212 -0.1756 -0.1527
  526TMC3     H 7814   1.234   3.334  14.867  0.5447  1.1726  0.1717
  526TMC3    H1 7815   1.589   3.282  14.630 -0.9223  2.8931 -0.0317
  526TMC3    H2 7816   1.568   3.120  15.023 -1.7923 -0.5191  0.5083
  526TMC3    C7 7817   1.731   3.157  14.832  0.0149 -0.1517 -0.0692
  526TMC3    C8 7818   1.342   3.244  15.084 -0.2744  1.0046  0.5190
  526TMC3    O1 7819   1.790   3.131  14.939 -0.1167 -0.4204 -0.6743
  526TMC3    O2 7820   1.419   3.236  15.179  0.1052  0.8700 -0.2943
  527MPD2     C 7821   3.907   2.092   1.466  0.1761  1.1932 -0.2342
  527MPD2    C1 7822   4.006   2.024   1.529  0.1605 -0.8900  0.2280
  527MPD2    C2 7823   4.129   2.006   1.465 -0.2109  0.4086  0.0607
  527MPD2    C3 7824   4.140   2.043   1.330  0.2465  0.3978 -0.3554
  527MPD2    C4 7825   4.035   2.108   1.260 -0.3444 -0.4288  0.0177
  527MPD2    C5 7826   3.927   2.138   1.343  0.2831  0.0649  0.0367
  527MPD2     H 7827   4.206   1.936   1.497  0.0581  0.7699  0.1994
  527MPD2    H1 7828   4.043   2.147   1.160  2.0390 -1.4925 -0.2211
  527MPD2    H2 7829   3.816   2.123   1.517  0.4691  2.3340 -0.4052
  527MPD2    H3 7830   3.859   2.208   1.296 -0.2985 -1.3663 -1.2621
  527MPD2     N 7831   4.268   2.016   1.263  0.4588 -0.1243 -0.1726
  527MPD2    H5 7832   4.335   1.974   1.328 -1.2612 -0.7556  1.1995
  527MPD2    N1 7833   3.995   1.965   1.658 -0.4364 -0.3433  0.5611
  527MPD2    H7 7834   4.077   1.919   1.695 -0.5724 -1.0688 -0.0407
  528TMC3    C1 7835   3.891   1.889   1.869 -0.5119 -0.0744 -0.5837
  528TMC3    C2 7836   4.020   1.854   1.907 -0.9305  0.0398  0.0676
  528TMC3    C3 7837   4.030   1.758   2.002  0.2879 -0.5157 -0.2714
  528TMC3    C4 7838   3.784   1.832   1.930 -0.0739  0.9460 -0.1174
  528TMC3    C5 7839   3.798   1.732   2.024  0.1677  0.7154 -0.8931
  528TMC3    C6 7840   3.923   1.704   2.065  0.1916 -0.4688  0.7330
  528TMC3     C 7841   3.884   1.963   1.738 -0.6581  0.6852  0.0135
  528TMC3     O 7842   3.772   2.007   1.710 -0.2546 -0.0051 -0.1300
  528TMC3     H 7843   4.096   1.923   1.872 -1.1625 -1.6195 -3.8018
  528TMC3    H1 7844   3.688   1.854   1.885 -1.0222  1.1007  1.9991
  528TMC3    H2 7845   3.941   1.628   2.140 -1.0699  0.0226  1.5354
  528TMC3    C7 7846   3.685   1.664   2.096  0.2213 -0.6334 -0.2827
  528TMC3    C8 7847   4.162   1.743   2.047  0.1549 -0.1770 -0.2655
  528TMC3    O1 7848   3.718   1.582   2.178 -0.3237  0.0722  0.5506
  528TMC3    O2 7849   4.240   1.824   2.006  0.2393  0.0822 -0.5639
  529MPD2     C 7850   1.647   4.290   0.152 -0.2195  0.6194  0.1158
  529MPD2    C1 7851   1.674   4.356   0.276 -0.0559 -0.6881  0.2939
  529MPD2    C2 7852   1.682   4.492   0.292  0.5817  0.1349 -0.5160
  529MPD2    C3 7853   1.640   4.570   0.187  0.0735 -0.1418 -0.2650
  529MPD2    C4 7854   1.598   4.515   0.069 -0.4111  0.4040  0.0011
  529MPD2    C5 7855   1.605   4.381   0.049  0.9115 -0.7318 -0.4808
  529MPD2     H 7856   1.735   4.538   0.375  1.6523 -0.2996 -0.9580
  529MPD2    H1 7857   1.559   4.574  17.679 -1.8125 -0.1107  0.2992
  529MPD2    H2 7858   1.657   4.183   0.143 -1.6541  0.5973 -1.2250
  529MPD2    H3 7859   1.559   4.335  17.655  0.0376  0.3975 -0.6179
  529MPD2     N 7860   1.647   4.708   0.198  0.1592 -0.9911 -0.3790
  529MPD2    H5 7861   1.619   0.038   0.115  1.8734  0.2885 -0.1442
  529MPD2    N1 7862   1.728   4.282   0.388 -0.7957  0.3611  0.2636
  529MPD2    H7 7863   1.778   4.338   0.457 -1.3765  1.6874 -0.3903
  530TMC3    C1 7864   1.811   4.106   0.517 -0.1005  0.4343  0.4582
  530TMC3    C2 7865   1.903   4.189   0.571  0.6168  0.5756  0.8856
  530TMC3    C3 7866   1.954   4.170   0.697  0.2471  0.2887  0.0543
  530TMC3    C4 7867   1.766   3.997   0.583 -0.1169 -0.1710 -0.3888
  530TMC3    C5 7868   1.811   3.982   0.710  0.4652  0.5298 -0.6260
  530TMC3    C6 7869   1.902   4.064   0.775 -0.1306  0.5417 -0.5963
  530TMC3     C 7870   1.735   4.145   0.397 -0.5808 -0.3722  0.4376
  530TMC3     O 7871   1.659   4.059   0.345  0.0713  0.0417 -0.0169
  530TMC3     H 7872   1.945   4.265   0.506 -0.2591 -0.7864 -1.2807
  530TMC3    H1 7873   1.700   3.926   0.534 -1.6575  1.4830 -0.7067
  530TMC3    H2 7874   1.953   4.030   0.865 -0.7867 -2.1564 -1.2501
  530TMC3    C7 7875   1.757   3.875   0.784  0.5680 -0.1969 -0.1352
  530TMC3    C8 7876   2.028   4.280   0.755 -0.7581 -0.1970  0.2567
  530TMC3    O1 7877   1.728   3.769   0.729  0.0033 -0.1672 -0.1484
  530TMC3    O2 7878   2.082   4.358   0.677  0.3567 -0.2024 -0.5980
  531MPD2     C 7879   0.526   1.877  12.699  1.0535  0.8231 -0.1660
  531MPD2    C1 7880   0.482   1.955  12.809 -0.2519  0.4457  0.3748
  531MPD2    C2 7881   0.362   1.924  12.873  0.6698 -0.1923 -0.6563
  531MPD2    C3 7882   0.287   1.808  12.833  0.6044  0.3994  0.8231
  531MPD2    C4 7883   0.333   1.727  12.736  0.4090  0.0060  0.3509
  531MPD2    C5 7884   0.457   1.757  12.678  0.1890 -0.3612  0.1376
  531MPD2     H 7885   0.331   1.982  12.958  0.0569 -1.1737 -0.2069
  531MPD2    H1 7886   0.277   1.643  12.697 -0.7921  0.8227  0.3413
  531MPD2    H2 7887   0.612   1.896  12.636 -0.0924  1.4138 -1.5499
  531MPD2    H3 7888   0.493   1.689  12.602  1.3962  2.9270 -2.2892
  531MPD2     N 7889   0.160   1.764  12.887 -0.0594 -0.6001  0.3570
  531MPD2    H5 7890   0.139   1.670  12.855 -3.5206 -0.4359  2.1566
  531MPD2    N1 7891   0.551   2.070  12.837  0.0950 -0.0154 -0.1452
  531MPD2    H7 7892   0.644   2.077  12.796  1.0137 -0.3946  1.9053
  532TMC3    C1 7893   0.623   2.253  12.934  0.1682  0.7681  0.1358
  532TMC3    C2 7894   0.567   2.375  12.960  0.0533  0.1622 -0.0753
  532TMC3    C3 7895   0.626   2.465  13.039  0.0251  0.0763 -0.7217
  532TMC3    C4 7896   0.744   2.216  12.988 -0.1544 -0.7018 -1.0273
  532TMC3    C5 7897   0.803   2.321  13.057  0.9977  0.6857 -0.9693
  532TMC3    C6 7898   0.745   2.434  13.091  0.3849  0.4427 -0.9358
  532TMC3     C 7899   0.513   2.166  12.921 -1.1679  0.1230 -0.0751
  532TMC3     O 7900   0.404   2.195  12.970  0.3773  0.3475  1.3733
  532TMC3     H 7901   0.471   2.397  12.916  0.4798  2.2711  0.0458
  532TMC3    H1 7902   0.783   2.115  12.979 -1.4199 -0.8230 -4.7610
  532TMC3    H2 7903   0.791   2.510  13.154 -0.1063 -0.2834  0.2987
  532TMC3    C7 7904   0.945   2.309  13.097 -0.0920 -0.0800 -0.0892
  532TMC3    C8 7905   0.544   2.537  13.132  0.5438 -0.2809  0.1729
  532TMC3    O1 7906   0.996   2.395  13.165  0.0564  0.4286  0.0602
  532TMC3    O2 7907   0.594   2.632  13.186  0.6482  0.3538 -0.1739
  533TMC3    C1 7908   1.832   4.000  14.445 -0.5183 -0.1541  0.2603
  533TMC3    C2 7909   1.967   4.017  14.484  0.6185  0.3603 -0.2376
  533TMC3    C3 7910   1.995   4.135  14.556  0.3503 -0.8009  0.5507
  533TMC3    C4 7911   1.741   4.097  14.463 -0.3277 -0.0692 -0.1772
  533TMC3    C5 7912   1.773   4.210  14.540 -0.0918 -0.5334 -0.8933
  533TMC3    C6 7913   1.901   4.226  14.587  0.5533  0.3556  0.4736
  533TMC3     C 7914   1.778   3.866  14.459  0.7533 -0.5790 -0.5624
  533TMC3     O 7915   1.819   3.790  14.548 -0.2902  0.0270 -0.0518
  533TMC3     H 7916   2.046   3.946  14.464  2.1369  2.3237 -1.1482
  533TMC3    H1 7917   1.638   4.081  14.433  0.2973  1.4287 -3.2431
  533TMC3    H2 7918   1.928   4.317  14.639 -0.6893  1.2321 -0.4444
  533TMC3    C7 7919   1.669   4.225  14.643  0.1313  0.1715  0.8029
  533TMC3    C8 7920   2.115   4.200  14.535 -0.8480 -0.7564 -0.1462
  533TMC3    O1 7921   1.575   4.145  14.639 -0.5010 -0.7494 -0.5767
  533TMC3    O2 7922   2.102   4.315  14.497 -0.3930  0.0980  0.1300
  534MPD2     C 7923   4.257   0.661   2.038  0.4349  0.9038  0.4690
  534MPD2    C1 7924   4.215   0.763   1.949 -0.1188 -0.4214 -0.3414
  534MPD2    C2 7925   4.123   0.727   1.854 -0.2435  1.0022 -0.0573
  534MPD2    C3 7926   4.068   0.599   1.858 -0.3366 -0.5797 -0.0245
  534MPD2    C4 7927   4.118   0.505   1.949 -0.9706  0.3786  0.8731
  534MPD2    C5 7928   4.207   0.533   2.046 -0.7455 -0.7695  0.2193
  534MPD2     H 7929   4.092   0.804   1.783 -0.4662 -0.2497 -1.3161
  534MPD2    H1 7930   4.075   0.406   1.936  1.0446 -0.4010  0.0301
  534MPD2    H2 7931   4.331   0.683   2.114 -0.2239  1.8997  0.8265
  534MPD2    H3 7932   4.237   0.458   2.118 -0.7934 -0.5507  0.4665
  534MPD2     N 7933   3.977   0.543   1.765 -0.1688  0.1279 -0.1823
  534MPD2    H5 7934   3.943   0.448   1.777  2.8605 -0.7404  1.3683
  534MPD2    N1 7935   4.277   0.897   1.951  0.4316 -0.1048 -0.4043
  534MPD2    H7 7936   4.253   0.954   1.871  0.0242  2.0807  1.2543
  535TMC3    C1 7937   3.837   0.527   1.577  0.5440  0.1219 -0.4738
  535TMC3    C2 7938   3.736   0.457   1.638  0.4326  0.1541  0.2724
  535TMC3    C3 7939   3.626   0.441   1.566  0.6494  0.9659  0.1348
  535TMC3    C4 7940   3.841   0.549   1.441 -0.1303 -0.4225 -0.2238
  535TMC3    C5 7941   3.729   0.514   1.375 -0.5917  0.0039 -0.7114
  535TMC3    C6 7942   3.619   0.460   1.435  0.4289  0.5836  0.3885
  535TMC3     C 7943   3.928   0.605   1.655  0.1282 -0.7092 -0.5746
  535TMC3     O 7944   3.966   0.708   1.608 -0.0117 -0.0983 -0.3700
  535TMC3     H 7945   3.743   0.455   1.747  0.8798 -1.8636  0.2116
  535TMC3    H1 7946   3.920   0.602   1.389 -1.3600  0.3038 -1.3510
  535TMC3    H2 7947   3.532   0.429   1.379  1.0542 -0.5421  0.0232
  535TMC3    C7 7948   3.708   0.569   1.243  0.0348  0.7423 -0.7587
  535TMC3    C8 7949   3.501   0.412   1.629 -0.0889 -0.0780 -0.5510
  535TMC3    O1 7950   3.803   0.569   1.164  0.2959 -0.4413  0.5850
  535TMC3    O2 7951   3.404   0.406   1.553 -0.1068 -0.0748 -0.2649
  536MPD2     C 7952   3.159   3.734  16.303 -0.6247 -0.8719  0.0280
  536MPD2    C1 7953   3.036   3.762  16.368 -0.3172  0.0141 -0.7948
  536MPD2    C2 7954   2.919   3.765  16.287 -0.5306 -0.0910 -0.6821
  536MPD2    C3 7955   2.931   3.740  16.151 -0.3222 -0.2915 -0.1533
  536MPD2    C4 7956   3.050   3.701  16.099  0.5128  0.6248  0.1375
  536MPD2    C5 7957   3.164   3.698  16.169 -0.6386  0.1895  0.0004
  536MPD2     H 7958   2.821   3.780  16.330 -0.5146 -2.1040  0.0869
  536MPD2    H1 7959   3.058   3.696  15.992 -1.5750 -0.0751  0.0034
  536MPD2    H2 7960   3.252   3.724  16.358  0.8432 -0.0333 -2.2979
  536MPD2    H3 7961   3.255   3.677  16.115  0.3123  1.6822  1.0211
  536MPD2     N 7962   2.821   3.747  16.063 -0.1588 -0.1333 -0.3368
  536MPD2    H5 7963   2.849   3.718  15.970 -3.4624 -0.3541 -1.2692
  536MPD2    N1 7964   3.038   3.772  16.507 -0.2732  0.8954  0.6644
  536MPD2    H7 7965   3.122   3.737  16.554  0.3882  2.1077  0.3799
  537TMC3    C1 7966   2.946   3.774  16.726 -0.8622 -0.5454 -0.5581
  537TMC3    C2 7967   3.071   3.761  16.778 -0.3348  0.9960 -0.4257
  537TMC3    C3 7968   3.077   3.735  16.913 -0.0132 -0.3077  0.4869
  537TMC3    C4 7969   2.831   3.763  16.806  0.1421  0.3994 -0.1462
  537TMC3    C5 7970   2.840   3.725  16.937 -0.6451 -0.3707 -0.3189
  537TMC3    C6 7971   2.966   3.726  16.992  0.2598  0.9017 -0.3853
  537TMC3     C 7972   2.934   3.804  16.586 -0.0858 -1.8101 -0.1087
  537TMC3     O 7973   2.818   3.830  16.556 -0.0043  0.5565 -0.6562
  537TMC3     H 7974   3.158   3.790  16.720 -0.6657  0.8870 -0.9687
  537TMC3    H1 7975   2.735   3.759  16.755 -0.2954  0.0978  0.6935
  537TMC3    H2 7976   2.976   3.697  17.096 -1.7586  0.4041 -0.3126
  537TMC3    C7 7977   2.726   3.682  17.013 -0.1524 -0.0205 -0.1935
  537TMC3    C8 7978   3.202   3.728  16.982 -0.6351 -0.5406  0.2946
  537TMC3    O1 7979   2.629   3.756  17.011  0.1152  0.4629 -0.1912
  537TMC3    O2 7980   3.201   3.743  17.102  0.1268 -0.2132  0.0189
  538TMC3    C1 7981   4.236   1.815  10.445 -0.1269  0.0902  0.0454
  538TMC3    C2 7982   4.344   1.850  10.527 -0.2607 -0.1521  0.5279
  538TMC3    C3 7983   4.320   1.945  10.621 -0.4131  0.3642  0.5280
  538TMC3    C4 7984   4.113   1.861  10.467 -0.2290  0.0096  0.2451
  538TMC3    C5 7985   4.088   1.943  10.572  0.8117  0.3446  0.8885
  538TMC3    C6 7986   4.189   1.982  10.655  0.7122  0.7368 -0.5264
  538TMC3     C 7987   4.229   1.680  10.393 -0.1636 -0.2426  0.3361
  538TMC3     O 7988   4.162   1.666  10.292  0.1319 -0.2027  0.2104
  538TMC3     H 7989   4.442   1.806  10.513  0.3616  1.8792 -1.4409
  538TMC3    H1 7990   4.031   1.811  10.417  0.2347 -1.4460  0.9414
  538TMC3    H2 7991   4.183   2.063  10.727  2.9476  0.0636  0.4048
  538TMC3    C7 7992   3.947   1.966  10.598  0.2938  0.9056 -0.8060
  538TMC3    C8 7993   4.427   2.011  10.693 -0.4560 -0.1792 -0.8930
  538TMC3    O1 7994   3.866   1.904  10.533 -0.1069  0.1769  0.0303
  538TMC3    O2 7995   4.396   2.061  10.798  0.4212 -0.0219 -0.3970
  539MPD2     C 7996   4.129   0.874  11.411 -0.3506 -0.6117 -0.1803
  539MPD2    C1 7997   4.052   0.836  11.297 -0.4445 -0.6392 -0.1427
  539MPD2    C2 7998   3.939   0.912  11.272 -0.2840  1.0934  0.1293
  539MPD2    C3 7999   3.900   1.016  11.356 -0.3137  0.5911  0.8026
  539MPD2    C4 8000   3.970   1.044  11.473 -0.0801 -0.2413  1.0980
  539MPD2    C5 8001   4.085   0.969  11.498  0.0949  0.4674  0.0466
  539MPD2     H 8002   3.885   0.894  11.180 -1.1421  3.4670  0.1546
  539MPD2    H1 8003   3.944   1.134  11.527 -1.6541  0.5824 -1.0193
  539MPD2    H2 8004   4.214   0.813  11.437 -0.1206  0.5168  1.7092
  539MPD2    H3 8005   4.150   0.988  11.582  1.3972 -0.3841 -0.7715
  539MPD2     N 8006   3.783   1.100  11.337  0.0418  0.1000 -0.0463
  539MPD2    H5 8007   3.757   1.162  11.413  1.8858 -0.0030  0.6755
  539MPD2    N1 8008   4.078   0.714  11.219 -0.5811 -0.0804  0.8631
  539MPD2    H7 8009   4.010   0.694  11.145 -0.6199  3.0295  0.0521
  540TMC3    C1 8010   3.602   1.194  11.227 -0.1039  0.0785  0.2283
  540TMC3    C2 8011   3.562   1.262  11.112  0.0283 -1.3881  0.6395
  540TMC3    C3 8012   3.423   1.274  11.109 -0.4504  0.2308  0.7220
  540TMC3    C4 8013   3.526   1.165  11.332  0.1846 -0.2430 -0.3531
  540TMC3    C5 8014   3.403   1.221  11.336 -0.4398 -0.5198  0.0709
  540TMC3    C6 8015   3.348   1.269  11.221 -0.1671 -0.1594 -0.2545
  540TMC3     C 8016   3.723   1.117  11.216 -0.1815  0.2474  0.6686
  540TMC3     O 8017   3.749   1.075  11.103 -0.1868 -0.1629 -1.3070
  540TMC3     H 8018   3.625   1.262  11.024  0.1681  0.1654  0.7519
  540TMC3    H1 8019   3.555   1.084  11.397  2.2885 -0.7874 -1.9794
  540TMC3    H2 8020   3.242   1.289  11.232  0.1594  0.7971  1.1860
  540TMC3    C7 8021   3.325   1.212  11.456  0.4294  0.6819  0.4746
  540TMC3    C8 8022   3.362   1.311  10.986 -0.2761 -0.4229 -0.0082
  540TMC3    O1 8023   3.202   1.210  11.441 -1.1022  0.2408  0.3207
  540TMC3    O2 8024   3.263   1.377  10.986 -0.3276  0.6838  0.3302
  541MPD2     C 8025   2.233   3.059  13.369 -0.1024  0.1975  0.5802
  541MPD2    C1 8026   2.155   2.994  13.273  0.3111 -0.3458 -0.2307
  541MPD2    C2 8027   2.182   3.010  13.140  0.7663  0.0308  0.5223
  541MPD2    C3 8028   2.290   3.096  13.101  0.5041  0.4315  0.0632
  541MPD2    C4 8029   2.360   3.167  13.195  0.1540 -0.4305 -0.2043
  541MPD2    C5 8030   2.332   3.150  13.326 -0.9718 -0.3508  0.1100
  541MPD2     H 8031   2.120   2.965  13.063  2.0271  1.4136 -1.3194
  541MPD2    H1 8032   2.414   3.251  13.153 -0.6353  0.0582 -0.2389
  541MPD2    H2 8033   2.215   3.044  13.475 -0.9875 -0.0096  0.4042
  541MPD2    H3 8034   2.381   3.215  13.398 -0.4190 -1.1217  0.4351
  541MPD2     N 8035   2.320   3.127  12.962  0.5425  0.2734  0.1310
  541MPD2    H5 8036   2.396   3.191  12.943  0.9669  0.7720  3.6225
  541MPD2    N1 8037   2.050   2.906  13.299  0.2247 -0.0973 -0.2929
  541MPD2    H7 8038   1.996   2.874  13.219 -2.1483  0.0540  1.2447
  542TMC3    C1 8039   2.298   3.118  12.731 -0.6284 -0.2437 -0.7461
  542TMC3    C2 8040   2.282   3.035  12.615  0.2270  0.9362 -0.5742
  542TMC3    C3 8041   2.243   3.093  12.506  0.2430  0.0688  0.2670
  542TMC3    C4 8042   2.269   3.250  12.724  0.0418  0.8006  0.2762
  542TMC3    C5 8043   2.241   3.303  12.599 -0.2750 -0.0620 -0.2636
  542TMC3    C6 8044   2.228   3.225  12.489  0.2650  0.0609 -0.2025
  542TMC3     C 8045   2.277   3.053  12.851 -0.2698 -0.0720 -0.4030
  542TMC3     O 8046   2.234   2.937  12.856 -0.1875 -0.2052 -0.0989
  542TMC3     H 8047   2.268   2.928  12.625 -0.5265  0.9018 -2.0818
  542TMC3    H1 8048   2.270   3.311  12.813  0.8258  1.5874 -0.2756
  542TMC3    H2 8049   2.219   3.267  12.390  0.4379 -2.8882 -1.4729
  542TMC3    C7 8050   2.219   3.447  12.602 -0.4534  0.3261 -0.8771
  542TMC3    C8 8051   2.258   3.013  12.386 -1.0621  0.1094  0.0402
  542TMC3    O1 8052   2.259   3.500  12.706 -0.2641 -0.1351  1.1155
  542TMC3    O2 8053   2.196   3.053  12.290  0.2124 -0.2331 -0.2278
  543TMC3    C1 8054   1.156   4.055  17.222 -0.0865  0.0730 -0.6744
  543TMC3    C2 8055   1.170   3.922  17.251 -0.2166  0.0325 -0.4183
  543TMC3    C3 8056   1.147   3.883  17.381  0.0439 -0.0789  0.5596
  543TMC3    C4 8057   1.107   4.148  17.309 -0.6312  0.7187 -0.2219
  543TMC3    C5 8058   1.063   4.100  17.426 -0.3266 -0.2747 -0.5521
  543TMC3    C6 8059   1.087   3.968  17.470 -0.7717  0.3053  0.0477
  543TMC3     C 8060   1.231   4.099  17.110  0.2211 -0.3038  0.0223
  543TMC3     O 8061   1.324   4.026  17.078  0.1892 -0.1382  0.1716
  543TMC3     H 8062   1.209   3.849  17.181  0.7793  0.8534 -0.7078
  543TMC3    H1 8063   1.090   4.246  17.266 -1.0103  0.5446 -0.4649
  543TMC3    H2 8064   1.055   3.938  17.569  0.3596 -1.5537 -0.1422
  543TMC3    C7 8065   0.992   4.196  17.513 -0.7246  0.1492  0.6136
  543TMC3    C8 8066   1.154   3.745  17.404 -0.4035 -0.5834  0.0735
  543TMC3    O1 8067   0.959   4.160  17.625  0.2349 -0.0115 -0.1600
  543TMC3    O2 8068   1.116   3.676  17.313  0.0713  0.1014 -0.0660
  544MPD2     C 8069   1.361   3.321  17.578  0.3099 -0.3638  0.5634
  544MPD2    C1 8070   1.250   3.335  17.503  0.1580  0.2177  0.6323
  544MPD2    C2 8071   1.204   3.466  17.484 -0.2659  0.0324  0.6660
  544MPD2    C3 8072   1.273   3.569  17.541 -0.0234  0.0030  0.0155
  544MPD2    C4 8073   1.373   3.550  17.633 -0.4744 -0.2428 -0.6726
  544MPD2    C5 8074   1.425   3.426  17.639  0.5238  0.1974  0.3142
  544MPD2     H 8075   1.115   3.481  17.424 -1.6419 -0.8227  2.5153
  544MPD2    H1 8076   1.415   3.631  17.691  0.4124 -0.9901 -0.2831
  544MPD2    H2 8077   1.388   3.218  17.599 -0.2260 -0.4734  0.7444
  544MPD2    H3 8078   1.507   3.409   0.016  0.4677 -0.3455  0.2477
  544MPD2     N 8079   1.231   3.706  17.514  0.2421  0.1389  0.4963
  544MPD2    H5 8080   1.270   3.781  17.570  2.3696 -1.6890  1.4641
  544MPD2    N1 8081   1.177   3.222  17.450  0.6386  0.5614  0.3822
  544MPD2    H7 8082   1.227   3.135  17.444 -1.1172 -0.4056 -0.2239
  545TMC3    C1 8083   0.986   3.116  17.358 -0.1802  0.1329  0.4392
  545TMC3    C2 8084   0.851   3.096  17.378  0.0925 -0.6222  0.4851
  545TMC3    C3 8085   0.793   2.981  17.346 -0.4975  0.3961  0.0252
  545TMC3    C4 8086   1.070   3.027  17.300 -0.4253  0.2037 -0.0413
  545TMC3    C5 8087   1.006   2.912  17.258 -0.1019 -0.0019 -0.3937
  545TMC3    C6 8088   0.868   2.884  17.284 -0.2953 -0.3583  0.8487
  545TMC3     C 8089   1.043   3.235  17.421 -0.2655  0.4195 -0.5491
  545TMC3     O 8090   0.965   3.310  17.471 -0.3219 -0.2613 -0.0845
  545TMC3     H 8091   0.791   3.179  17.416  2.2489  0.1062  2.2470
  545TMC3    H1 8092   1.175   3.047  17.285 -0.0414 -1.7084  0.0999
  545TMC3    H2 8093   0.827   2.791  17.246 -0.3493 -1.2068  2.9965
  545TMC3    C7 8094   1.082   2.796  17.196 -0.8198  0.2503  0.5608
  545TMC3    C8 8095   0.645   2.983  17.365 -0.1139 -0.4073  0.4027
  545TMC3    O1 8096   1.016   2.732  17.116 -0.4421  0.0008 -0.4325
  545TMC3    O2 8097   0.591   3.075  17.427 -0.1798 -0.4383 -0.2487
  546MPD2     C 8098   3.254   4.138  17.241 -0.5967 -0.0301 -0.2804
  546MPD2    C1 8099   3.138   4.197  17.193 -0.5325 -0.3459 -0.5949
  546MPD2    C2 8100   3.153   4.319  17.122 -0.5359  0.3290  0.0080
  546MPD2    C3 8101   3.278   4.386  17.115 -0.1874 -0.0503 -0.1384
  546MPD2    C4 8102   3.387   4.321  17.169  0.4614 -0.2371  0.8020
  546MPD2    C5 8103   3.376   4.201  17.234 -0.0297 -0.7816  0.1183
  546MPD2     H 8104   3.063   4.367  17.083 -0.2407  0.0957 -0.9641
  546MPD2    H1 8105   3.487   4.364  17.170  0.8755 -1.1722 -0.4907
  546MPD2    H2 8106   3.257   4.040  17.288  0.9632  0.3904  0.4725
  546MPD2    H3 8107   3.464   4.154  17.278 -1.0971 -0.4582  2.5574
  546MPD2     N 8108   3.303   4.510  17.055 -0.1291 -0.0052 -0.2260
  546MPD2    H5 8109   3.396   4.545  17.036 -0.4603  2.0011  1.8358
  546MPD2    N1 8110   3.010   4.128  17.207 -0.3338 -0.5249  0.5515
  546MPD2    H7 8111   3.008   4.040  17.257 -1.9305 -0.3119  0.8797
  547TMC3    C1 8112   2.788   4.065  17.163 -0.1651 -0.0257 -0.4784
  547TMC3    C2 8113   2.671   4.077  17.087  0.3917 -0.2827 -0.9362
  547TMC3    C3 8114   2.562   4.007  17.126 -0.2312 -0.1332  0.3271
  547TMC3    C4 8115   2.793   4.000  17.290 -0.0568  0.6911 -0.4971
  547TMC3    C5 8116   2.679   3.929  17.314 -0.2765  0.1672  0.0394
  547TMC3    C6 8117   2.561   3.928  17.239  1.0641  0.3851  0.7808
  547TMC3     C 8118   2.898   4.147  17.123 -0.3716  0.6806 -0.4361
  547TMC3     O 8119   2.883   4.217  17.022  0.0807  0.1466  0.7480
  547TMC3     H 8120   2.675   4.128  16.991 -0.1022  0.6739 -0.4464
  547TMC3    H1 8121   2.883   4.005  17.351 -0.7352 -1.9028  0.7168
  547TMC3    H2 8122   2.477   3.875  17.283  1.1003 -0.7174 -0.4978
  547TMC3    C7 8123   2.671   3.865  17.440 -1.2004 -0.0058  0.4885
  547TMC3    C8 8124   2.437   4.053  17.065 -0.0042  0.7326  0.0844
  547TMC3    O1 8125   2.567   3.848  17.498  0.5107 -0.4158 -0.1310
  547TMC3    O2 8126   2.444   4.141  16.986  0.6674  0.2891  0.0794
  548MPD2     C 8127   3.093   0.056  11.988 -0.6384 -0.3319 -0.3284
  548MPD2    C1 8128   3.059   4.672  12.067 -0.6567 -0.0735 -0.2205
  548MPD2    C2 8129   3.129   4.555  12.042 -0.3050 -1.4519  0.2796
  548MPD2    C3 8130   3.231   4.546  11.946 -0.2052  0.2893 -0.2049
  548MPD2    C4 8131   3.262   4.653  11.866 -0.1515  0.3148 -1.0378
  548MPD2    C5 8132   3.186   0.045  11.882  0.5143  0.2494 -0.1865
  548MPD2     H 8133   3.111   4.472  12.109  0.6903  0.0105  2.3568
  548MPD2    H1 8134   3.343   4.655  11.794  0.6838  3.0846  0.0034
  548MPD2    H2 8135   3.054   0.156  12.004 -1.3092 -0.3192 -2.0057
  548MPD2    H3 8136   3.202   0.136  11.826  1.7825 -0.6174 -1.2338
  548MPD2     N 8137   3.306   4.430  11.953  0.8023 -0.0447  0.1151
  548MPD2    H5 8138   3.301   4.372  12.036 -2.6656 -1.8479 -1.3523
  548MPD2    N1 8139   2.966   4.695  12.170  0.3931 -0.3065 -0.1821
  548MPD2    H7 8140   2.913   0.058  12.167  0.7677 -0.0688 -0.0666
  549TMC3    C1 8141   2.832   4.647  12.354  0.5699  0.7455 -0.2604
  549TMC3    C2 8142   2.799   0.059  12.373  0.2143  0.3807  0.5317
  549TMC3    C3 8143   2.720   0.081  12.486  1.1673 -0.6619 -0.3718
  549TMC3    C4 8144   2.778   4.544  12.432  0.1379  0.0227  0.1610
  549TMC3    C5 8145   2.710   4.587  12.542 -0.2357 -0.2863 -0.4180
  549TMC3    C6 8146   2.675   4.712  12.574 -0.6785 -0.3872 -0.5481
  549TMC3     C 8147   2.918   4.600  12.249 -0.0129  0.6401 -0.5148
  549TMC3     O 8148   2.908   4.482  12.229  0.2584 -0.6588 -0.0517
  549TMC3     H 8149   2.833   0.135  12.305  0.7717  0.1437  0.5461
  549TMC3    H1 8150   2.803   4.439  12.421 -0.4643 -0.2935  1.9109
  549TMC3    H2 8151   2.610   0.019  12.656  0.5536  0.7197  0.0287
  549TMC3    C7 8152   2.648   4.491  12.632 -0.0929  0.0988  0.3225
  549TMC3    C8 8153   2.626   0.190  12.466  0.1497  0.3925 -0.4134
  549TMC3    O1 8154   2.614   4.532  12.745  0.2852  0.3517  0.1285
  549TMC3    O2 8155   2.517   0.171  12.511  0.1203 -0.9854 -0.0854
  550TMC3    C1 8156   1.187   2.274  12.592  0.2405  0.3322  0.4055
  550TMC3    C2 8157   1.099   2.378  12.614  0.4360 -0.3104  0.4373
  550TMC3    C3 8158   1.119   2.500  12.555  0.2410 -0.4184 -0.0913
  550TMC3    C4 8159   1.302   2.293  12.520 -0.2354 -0.0929  0.2817
  550TMC3    C5 8160   1.317   2.412  12.458 -0.5192  0.0484  0.1265
  550TMC3    C6 8161   1.234   2.517  12.477  0.3750 -0.0015 -0.2435
  550TMC3     C 8162   1.110   2.152  12.567 -0.1700 -0.4707  0.6112
  550TMC3     O 8163   1.019   2.126  12.639 -0.3560  0.2190 -0.2452
  550TMC3     H 8164   1.009   2.357  12.671  0.0033 -1.7467 -0.7779
  550TMC3    H1 8165   1.378   2.215  12.508  0.1873  0.3124  0.3291
  550TMC3    H2 8166   1.255   2.619  12.449 -1.6689  0.6245  0.5105
  550TMC3    C7 8167   1.347   2.385  12.316  0.1898 -0.2745 -0.4287
  550TMC3    C8 8168   1.015   2.597  12.538 -0.2005 -0.4434  0.1376
  550TMC3    O1 8169   1.337   2.269  12.289 -0.0238  0.4202  0.2181
  550TMC3    O2 8170   1.036   2.694  12.464 -0.2597 -0.5349 -0.7187
  551TMC3    C1 8171   3.737   0.205  13.110 -0.7108  0.3969 -0.5534
  551TMC3    C2 8172   3.858   0.208  13.043  0.3800  0.5588  0.3246
  551TMC3    C3 8173   3.967   0.285  13.098  0.0984 -0.7074  0.4022
  551TMC3    C4 8174   3.716   0.279  13.220 -0.3312 -0.3057  0.0287
  551TMC3    C5 8175   3.819   0.363  13.260 -0.0940 -0.4056  0.7190
  551TMC3    C6 8176   3.938   0.366  13.202  0.2808 -0.6341 -0.2064
  551TMC3     C 8177   3.633   0.142  13.047 -0.5648  0.3927  0.0640
  551TMC3     O 8178   3.654   0.108  12.927 -0.1673  0.3334  1.1127
  551TMC3     H 8179   3.878   0.142  12.959 -1.1037  2.0297 -1.1902
  551TMC3    H1 8180   3.619   0.297  13.266 -0.6685  0.5540 -1.0198
  551TMC3    H2 8181   4.021   0.428  13.235 -0.4010  0.5234 -0.6361
  551TMC3    C7 8182   3.795   0.439  13.380 -0.6256  0.1494  0.0801
  551TMC3    C8 8183   4.083   0.311  13.013 -0.0929  0.4123 -0.2526
  551TMC3    O1 8184   3.729   0.384  13.471 -0.2261 -0.1481 -0.0861
  551TMC3    O2 8185   4.129   0.218  12.947 -0.2368 -0.0938  0.8620
  552MPD2     C 8186   0.612   2.333  13.480 -0.3256  0.3346  0.8217
  552MPD2    C1 8187   0.623   2.209  13.534  0.6372  0.7183 -0.3380
  552MPD2    C2 8188   0.697   2.191  13.651  0.3462  0.1682  0.1198
  552MPD2    C3 8189   0.769   2.294  13.706  0.2551  0.0456 -0.2014
  552MPD2    C4 8190   0.762   2.418  13.646  0.2847  0.3602 -0.0983
  552MPD2    C5 8191   0.697   2.429  13.527 -0.1679 -0.2111  0.8645
  552MPD2     H 8192   0.704   2.088  13.685  2.3475  0.8776  1.8783
  552MPD2    H1 8193   0.811   2.504  13.689  0.9640  0.1241 -0.3951
  552MPD2    H2 8194   0.563   2.345  13.384 -1.3819  0.7742  1.4128
  552MPD2    H3 8195   0.690   2.522  13.472  0.3957  0.0994  1.3183
  552MPD2     N 8196   0.850   2.274  13.821 -0.2378  0.3719  0.0897
  552MPD2    H5 8197   0.900   2.356  13.852 -0.2747  0.5911 -0.4299
  552MPD2    N1 8198   0.557   2.098  13.472  0.1719  0.2494 -0.1706
  552MPD2    H7 8199   0.541   2.014  13.527 -0.5405 -0.0681 -0.8616
  553TMC3    C1 8200   0.463   1.973  13.313  0.4410  0.1306 -0.0641
  553TMC3    C2 8201   0.491   1.927  13.190 -0.2277 -0.0148 -0.0476
  553TMC3    C3 8202   0.460   1.797  13.165 -0.2968  0.7531  0.1753
  553TMC3    C4 8203   0.399   1.902  13.410  0.5835  0.1113 -0.0922
  553TMC3    C5 8204   0.394   1.768  13.383  0.1082  0.3297  0.1461
  553TMC3    C6 8205   0.398   1.715  13.255  0.4980 -0.1698 -1.0411
  553TMC3     C 8206   0.517   2.095  13.342  0.5410  0.5164 -0.5359
  553TMC3     O 8207   0.543   2.166  13.250  0.2859 -0.2139 -0.0694
  553TMC3     H 8208   0.561   1.981  13.127  1.6077 -0.2114  1.8020
  553TMC3    H1 8209   0.381   1.932  13.512 -1.8408 -1.4319 -0.0813
  553TMC3    H2 8210   0.378   1.610  13.235 -2.3533  0.0462  0.6962
  553TMC3    C7 8211   0.495   1.716  13.467 -0.3482  0.4360 -0.5219
  553TMC3    C8 8212   0.549   1.726  13.074 -0.1727  0.4252  0.4215
  553TMC3    O1 8213   0.537   1.787  13.557 -0.1379  0.2376 -0.0399
  553TMC3    O2 8214   0.657   1.781  13.052 -0.0396 -0.5931 -0.2964
  554TMC3    C1 8215   2.457   1.174  11.567 -0.1545 -0.0524 -0.0204
  554TMC3    C2 8216   2.357   1.124  11.491 -0.4826 -0.3862 -0.1198
  554TMC3    C3 8217   2.364   1.159  11.359 -0.1421  0.6638  0.7242
  554TMC3    C4 8218   2.559   1.248  11.515  0.2235 -0.0757 -0.2014
  554TMC3    C5 8219   2.560   1.277  11.381  0.8731 -0.1499  0.6551
  554TMC3    C6 8220   2.456   1.235  11.299 -0.0736 -0.2280  0.2356
  554TMC3     C 8221   2.466   1.131  11.702 -0.6365  0.0641  0.0389
  554TMC3     O 8222   2.364   1.089  11.760  0.2208 -0.3750 -0.3187
  554TMC3     H 8223   2.283   1.054  11.527  0.5867 -0.3116  2.2315
  554TMC3    H1 8224   2.625   1.301  11.583  2.8358 -2.3554 -0.9465
  554TMC3    H2 8225   2.455   1.271  11.197 -0.2923 -0.9581 -0.0130
  554TMC3    C7 8226   2.658   1.380  11.335 -0.5202  0.6872  0.3891
  554TMC3    C8 8227   2.276   1.079  11.270 -0.2917  0.0013  0.6432
  554TMC3    O1 8228   2.629   1.446  11.241 -0.1148 -0.0124  0.3332
  554TMC3    O2 8229   2.221   0.982  11.322  0.2218 -0.4413  0.1036
  555TMC3    C1 8230   1.675   0.716  14.640  0.3272 -0.5650  0.6980
  555TMC3    C2 8231   1.636   0.832  14.700 -0.5795 -0.0799  0.0359
  555TMC3    C3 8232   1.594   0.825  14.826  0.4920  0.4107 -0.1692
  555TMC3    C4 8233   1.680   0.600  14.718  0.1953 -0.2457 -0.2578
  555TMC3    C5 8234   1.640   0.597  14.849 -0.2337 -0.5202 -0.0339
  555TMC3    C6 8235   1.595   0.715  14.909 -0.7370  0.5108  0.1994
  555TMC3     C 8236   1.740   0.715  14.515  0.0216 -0.2625 -0.0484
  555TMC3     O 8237   1.832   0.635  14.501  0.4889 -0.0997  0.4537
  555TMC3     H 8238   1.642   0.930  14.654  0.1708  0.9687  2.3400
  555TMC3    H1 8239   1.716   0.507  14.676  2.2026  0.1685  0.5676
  555TMC3    H2 8240   1.550   0.708  15.008 -0.6957 -1.7819  0.0657
  555TMC3    C7 8241   1.646   0.483  14.933  0.2385 -0.1015  0.0306
  555TMC3    C8 8242   1.584   0.953  14.886 -0.3203 -0.4768 -0.2868
  555TMC3    O1 8243   1.567   0.471  15.030  0.2898 -0.5626 -0.1668
  555TMC3    O2 8244   1.560   1.053  14.820  0.0058 -0.2020 -0.2589
  556MPD2     C 8245   1.119   2.098  10.824  0.6600  0.4893 -0.6928
  556MPD2    C1 8246   0.989   2.121  10.861 -0.2556 -0.4263  0.2218
  556MPD2    C2 8247   0.891   2.045  10.804 -0.2618 -0.1072  1.1177
  556MPD2    C3 8248   0.914   1.951  10.708  0.7877  0.2594  0.6584
  556MPD2    C4 8249   1.047   1.926  10.673 -0.2147  0.1650 -0.5386
  556MPD2    C5 8250   1.153   1.999  10.728  0.1117  0.0474  0.2461
  556MPD2     H 8251   0.788   2.061  10.835 -0.1101 -0.1530  1.6428
  556MPD2    H1 8252   1.080   1.849  10.605  3.6712  1.4766 -0.1612
  556MPD2    H2 8253   1.195   2.161  10.869  2.3687 -2.0912 -0.0164
  556MPD2    H3 8254   1.253   1.984  10.690  0.4990  0.9666  0.8940
  556MPD2     N 8255   0.801   1.886  10.645  0.1732 -0.2750 -0.3500
  556MPD2    H5 8256   0.713   1.935  10.657  0.1987 -0.1883 -0.5241
  556MPD2    N1 8257   0.946   2.205  10.965  0.5043  0.1768  0.3587
  556MPD2    H7 8258   0.848   2.200  10.989  0.3778  0.4058 -0.1056
  557TMC3    C1 8259   0.677   1.798  10.457  0.3639 -0.5262 -0.0769
  557TMC3    C2 8260   0.683   1.744  10.334 -0.0694  0.2792  0.0651
  557TMC3    C3 8261   0.564   1.731  10.267  0.3248 -0.7990 -0.0068
  557TMC3    C4 8262   0.558   1.840  10.515  0.2946  0.0364  0.2458
  557TMC3    C5 8263   0.446   1.821  10.442 -0.3946 -0.1674  0.4176
  557TMC3    C6 8264   0.443   1.770  10.314 -0.2222  0.1012  0.0633
  557TMC3     C 8265   0.800   1.795  10.542 -0.3272 -0.9520  0.1228
  557TMC3     O 8266   0.895   1.734  10.495  0.3475  0.6478  0.4063
  557TMC3     H 8267   0.774   1.707  10.288  0.3711 -0.2683  1.3700
  557TMC3    H1 8268   0.551   1.873  10.618 -1.5790  1.1428 -0.2154
  557TMC3    H2 8269   0.355   1.761  10.252 -1.2049 -0.6440  1.5612
  557TMC3    C7 8270   0.320   1.872  10.488  0.2842 -1.0737 -0.4779
  557TMC3    C8 8271   0.580   1.675  10.132  0.5267  0.2978 -0.6944
  557TMC3    O1 8272   0.222   1.859  10.418  0.0516  0.0248 -0.6397
  557TMC3    O2 8273   0.689   1.682  10.080 -0.2663 -0.4305  0.0527
  558TMC3    C1 8274   3.440   4.377   9.405 -0.0117 -0.4941 -0.0324
  558TMC3    C2 8275   3.393   4.251   9.442  0.2476  0.2483  0.5992
  558TMC3    C3 8276   3.255   4.234   9.463 -0.5526  0.5152 -0.0018
  558TMC3    C4 8277   3.345   4.477   9.396  0.2608 -0.0113  0.1123
  558TMC3    C5 8278   3.214   4.457   9.410 -0.8616 -0.3650  0.0302
  558TMC3    C6 8279   3.166   4.332   9.436 -0.1458  0.0556 -0.0448
  558TMC3     C 8280   3.569   4.423   9.454 -0.5145 -0.3663  0.1003
  558TMC3     O 8281   3.568   4.518   9.531  0.1530 -0.3129 -0.1299
  558TMC3     H 8282   3.459   4.172   9.474  0.8542  0.6961  0.4455
  558TMC3    H1 8283   3.391   4.570   9.364  0.2729 -0.3084 -0.7304
  558TMC3    H2 8284   3.062   4.328   9.464 -0.5888  0.3029 -1.6281
  558TMC3    C7 8285   3.128   4.570   9.386  0.0761  0.1568 -0.4644
  558TMC3    C8 8286   3.223   4.108   9.532 -0.2477  0.1703 -0.3301
  558TMC3    O1 8287   3.187   4.678   9.390 -0.2968 -0.0350  0.0651
  558TMC3    O2 8288   3.295   4.014   9.517  0.3760  1.2928 -0.2988
  559MPD2     C 8289   2.705   0.471  10.087  0.6138 -0.4761  0.6807
  559MPD2    C1 8290   2.637   0.407  10.181  0.3286  0.0027 -0.2354
  559MPD2    C2 8291   2.708   0.362  10.292 -0.5287 -0.2783 -0.2174
  559MPD2    C3 8292   2.845   0.351  10.283 -0.2216  0.2195  0.0788
  559MPD2    C4 8293   2.910   0.396  10.176 -0.4079 -0.0655 -0.5971
  559MPD2    C5 8294   2.840   0.451  10.075 -0.7084  0.1285 -0.3209
  559MPD2     H 8295   2.661   0.309  10.375 -1.5341 -0.6904 -1.0496
  559MPD2    H1 8296   3.017   0.392  10.163 -0.4270 -3.4476  0.1867
  559MPD2    H2 8297   2.659   0.525  10.004 -2.1245 -0.1902  2.4093
  559MPD2    H3 8298   2.892   0.494   9.990 -0.2605 -0.4894 -0.3532
  559MPD2     N 8299   2.918   0.288  10.390 -0.8655  0.3057 -0.1639
  559MPD2    H5 8300   2.871   0.269  10.478 -1.9648  1.7970 -0.4223
  559MPD2    N1 8301   2.501   0.387  10.159 -0.3562  0.9255  0.4490
  559MPD2    H7 8302   2.450   0.449  10.096 -3.7609 -0.8654  1.4109
  560TMC3    C1 8303   3.088   0.215  10.537  0.5528  0.3909  0.1552
  560TMC3    C2 8304   2.998   0.112  10.568  0.9591  0.0293 -0.8409
  560TMC3    C3 8305   2.999   0.067  10.692  0.4260  0.3600 -0.4581
  560TMC3    C4 8306   3.168   0.280  10.628 -0.1834 -1.1228 -0.5065
  560TMC3    C5 8307   3.168   0.230  10.753  0.0763  0.8039 -0.2669
  560TMC3    C6 8308   3.076   0.130  10.790 -0.6805  0.2674  0.1375
  560TMC3     C 8309   3.054   0.288  10.417 -0.1189 -0.2619  0.0570
  560TMC3     O 8310   3.142   0.337  10.350  0.3453  0.1970  0.0557
  560TMC3     H 8311   2.938   0.073  10.487  1.1730  1.2116 -1.5701
  560TMC3    H1 8312   3.233   0.359  10.592  0.5613 -1.2474  0.5501
  560TMC3    H2 8313   3.054   0.103  10.892  2.5044  1.4957  1.1392
  560TMC3    C7 8314   3.241   0.283  10.871 -0.2194  0.5189 -0.2148
  560TMC3    C8 8315   2.880   4.715  10.737  0.2602  0.2040 -0.6924
  560TMC3    O1 8316   3.225   0.230  10.983 -0.2448  0.1767 -0.0261
  560TMC3    O2 8317   2.824   0.036  10.843 -0.1890 -0.5354  0.1035
  561TMC3    C1 8318   0.833   4.198  11.504  0.7488 -0.0811 -0.0295
  561TMC3    C2 8319   0.759   4.177  11.620  0.2370 -0.3914 -0.2813
  561TMC3    C3 8320   0.674   4.277  11.654 -0.3548 -0.0192  0.5591
  561TMC3    C4 8321   0.827   4.319  11.438 -0.4218  0.5294  0.1135
  561TMC3    C5 8322   0.749   4.421  11.479  1.0777 -0.5818  0.6577
  561TMC3    C6 8323   0.663   4.394  11.586  0.3770  0.1752 -0.2163
  561TMC3     C 8324   0.870   4.075  11.441  0.4212 -0.3232 -0.1443
  561TMC3     O 8325   0.808   3.974  11.471  0.1551  0.5943  0.0157
  561TMC3     H 8326   0.756   4.082  11.673  6.2522  0.4072  1.4718
  561TMC3    H1 8327   0.892   4.328  11.352 -1.2206 -0.8941 -0.6327
  561TMC3    H2 8328   0.610   4.475  11.635  0.9316  2.3749 -3.2835
  561TMC3    C7 8329   0.762   4.559  11.440  0.3317  0.5340 -0.1344
  561TMC3    C8 8330   0.611   4.261  11.778  0.9664  0.5948  1.0485
  561TMC3    O1 8331   0.703   4.640  11.510  0.3204 -0.3460  0.6073
  561TMC3    O2 8332   0.625   4.159  11.840 -0.4354  0.6619 -0.3479
  562TMC3    C1 8333   1.415   1.201  15.914 -0.7219 -0.1847 -0.3337
  562TMC3    C2 8334   1.392   1.303  15.826  0.1517 -0.0151  0.2909
  562TMC3    C3 8335   1.408   1.276  15.695  0.1256  0.9533  0.0221
  562TMC3    C4 8336   1.471   1.078  15.884  0.4611  0.1919  0.3010
  562TMC3    C5 8337   1.504   1.066  15.746 -0.7746  0.2545  0.8391
  562TMC3    C6 8338   1.473   1.165  15.653  0.6940  0.6508  0.1971
  562TMC3     C 8339   1.411   1.238  16.054 -0.1947  0.8282 -0.1001
  562TMC3     O 8340   1.332   1.328  16.083 -0.2496 -0.1069  0.2820
  562TMC3     H 8341   1.374   1.406  15.852  1.1144  0.2572 -0.1259
  562TMC3    H1 8342   1.479   0.998  15.957  2.8948  1.0578  0.9688
  562TMC3    H2 8343   1.508   1.152  15.551 -1.4340 -0.4078 -0.4073
  562TMC3    C7 8344   1.554   0.941  15.695 -0.0671  0.7398 -0.7985
  562TMC3    C8 8345   1.401   1.393  15.605  0.2862 -0.2585  0.6599
  562TMC3    O1 8346   1.546   0.928  15.576 -0.0576  0.1367 -0.0393
  562TMC3    O2 8347   1.391   1.502  15.654 -0.2954 -0.0172 -0.0623
  563MPD2     C 8348   3.909   2.456  15.681  0.3718 -0.0357 -0.3281
  563MPD2    C1 8349   3.965   2.585  15.676  0.8459 -0.2727 -0.9388
  563MPD2    C2 8350   4.080   2.607  15.754  1.0750 -0.2939  0.4521
  563MPD2    C3 8351   4.148   2.503  15.812 -0.7648  0.5109  0.0833
  563MPD2    C4 8352   4.106   2.373  15.795 -0.0311  0.0244  0.1305
  563MPD2    C5 8353   3.974   2.353  15.748 -0.1602  0.0549 -0.7065
  563MPD2     H 8354   4.113   2.709  15.769  0.3141 -0.2283  1.7268
  563MPD2    H1 8355   4.139   2.288  15.853 -0.5145 -1.2629 -1.4823
  563MPD2    H2 8356   3.813   2.439  15.633  0.1871  1.9574 -0.6800
  563MPD2    H3 8357   3.928   2.255  15.742 -0.7024  0.2142  0.9202
  563MPD2     N 8358   4.265   2.534  15.880  0.0284  0.4297  0.3812
  563MPD2    H5 8359   4.287   2.632  15.897 -0.0750  0.4742  0.2572
  563MPD2    N1 8360   3.886   2.688  15.624 -0.0306 -0.0235  0.0280
  563MPD2    H7 8361   3.788   2.670  15.604  0.0269  1.4396 -1.4894
  564TMC3    C1 8362   3.795   2.899  15.640  0.5893 -0.0461 -0.4566
  564TMC3    C2 8363   3.697   2.832  15.574  0.1210  0.3854  1.0756
  564TMC3    C3 8364   3.583   2.806  15.644 -0.4934 -0.1749  0.1407
  564TMC3    C4 8365   3.782   2.968  15.759 -0.4292 -0.6069 -0.5122
  564TMC3    C5 8366   3.682   2.916  15.836 -1.0031  0.0115  0.8229
  564TMC3    C6 8367   3.576   2.852  15.775  0.2300 -0.3179  0.1095
  564TMC3     C 8368   3.914   2.819  15.651 -0.0010  0.6358 -0.3100
  564TMC3     O 8369   4.018   2.881  15.652  0.0967 -0.2239  0.0941
  564TMC3     H 8370   3.724   2.787  15.479 -0.2668  2.4786 -0.0368
  564TMC3    H1 8371   3.871   3.010  15.804 -1.7258 -0.2902  1.7476
  564TMC3    H2 8372   3.487   2.820  15.826 -2.5395  0.8746 -3.9713
  564TMC3    C7 8373   3.750   2.826  15.933  0.5230 -0.1129 -0.3100
  564TMC3    C8 8374   3.541   2.664  15.633 -0.2419 -0.0194  0.5627
  564TMC3    O1 8375   3.837   2.873  16.008 -0.3288  0.1977  0.0480
  564TMC3    O2 8376   3.494   2.614  15.735  0.1601 -0.6926 -0.1304
  565TMC3    C1 8377   0.675   3.309  10.470  0.3400 -0.5274  0.0349
  565TMC3    C2 8378   0.578   3.278  10.561 -0.0282  0.1120 -0.1357
  565TMC3    C3 8379   0.563   3.145  10.585  0.1932 -0.1600  0.1795
  565TMC3    C4 8380   0.776   3.223  10.423 -0.0710 -0.5059  0.6161
  565TMC3    C5 8381   0.750   3.093  10.453  0.4710  0.1097 -0.2318
  565TMC3    C6 8382   0.635   3.046  10.520  0.0949 -0.4381 -0.7700
  565TMC3     C 8383   0.670   3.438  10.415 -0.0637  0.2838  0.9369
  565TMC3     O 8384   0.752   3.458  10.329 -0.6894  0.3846  0.3274
  565TMC3     H 8385   0.496   3.338  10.598  1.2194  1.1421  0.9407
  565TMC3    H1 8386   0.863   3.259  10.368 -0.9150 -0.1633 -0.4759
  565TMC3    H2 8387   0.639   2.950  10.570 -1.7946 -0.5146 -0.7848
  565TMC3    C7 8388   0.799   3.000  10.349  0.2827 -0.1897 -0.0327
  565TMC3    C8 8389   0.452   3.111  10.677 -0.2055  0.5190  0.3921
  565TMC3    O1 8390   0.885   3.051  10.274 -0.0398 -0.1191  0.4192
  565TMC3    O2 8391   0.410   3.196  10.754 -0.2993  0.3021 -0.1650
  566MPD2     C 8392   1.000   0.488  13.736 -0.3911 -0.0347  0.6726
  566MPD2    C1 8393   1.113   0.453  13.674  0.0366  0.3604  0.2041
  566MPD2    C2 8394   1.118   0.373  13.559  0.7061  1.0341  0.5883
  566MPD2    C3 8395   0.996   0.315  13.516 -0.0746  0.0650  1.2367
  566MPD2    C4 8396   0.877   0.359  13.573  0.3322  0.1599 -1.0858
  566MPD2    C5 8397   0.883   0.450  13.678  0.1894  0.0790 -0.1142
  566MPD2     H 8398   1.216   0.354  13.517 -0.3311  0.6030 -1.6905
  566MPD2    H1 8399   0.780   0.326  13.537  0.7970 -0.5214 -1.7091
  566MPD2    H2 8400   0.993   0.561  13.816  1.3420  1.3022 -0.4042
  566MPD2    H3 8401   0.785   0.490  13.702  0.3838  1.3266 -1.3817
  566MPD2     N 8402   0.987   0.213  13.414  0.2129 -0.3511  0.3963
  566MPD2    H5 8403   0.903   0.156  13.418  0.3744 -0.7738 -2.2607
  566MPD2    N1 8404   1.236   0.486  13.734  0.5343 -0.2625  0.2389
  566MPD2    H7 8405   1.317   0.453  13.682  0.8758  0.1113  0.5308
  567TMC3    C1 8406   1.401   0.541  13.902 -0.5494  0.7201 -0.7236
  567TMC3    C2 8407   1.485   0.577  13.801 -0.1788 -0.4646 -0.6328
  567TMC3    C3 8408   1.616   0.596  13.834 -0.1313  0.2883  0.0357
  567TMC3    C4 8409   1.443   0.532  14.031 -0.8784  0.3856  0.5602
  567TMC3    C5 8410   1.574   0.539  14.055 -0.0190 -0.4281 -0.0357
  567TMC3    C6 8411   1.667   0.581  13.964 -0.2623  0.2638  0.3804
  567TMC3     C 8412   1.256   0.521  13.869 -0.1228 -0.1010  0.3086
  567TMC3     O 8413   1.178   0.552  13.951 -0.8271 -0.2661 -0.4506
  567TMC3     H 8414   1.461   0.585  13.695 -0.3568  3.9509 -0.2635
  567TMC3    H1 8415   1.373   0.514  14.112  0.9554 -2.5090  1.5092
  567TMC3    H2 8416   1.769   0.595  13.998  0.7860  0.3710 -2.7360
  567TMC3    C7 8417   1.614   0.493  14.186 -0.3878  0.3946  0.6644
  567TMC3    C8 8418   1.686   0.677  13.739 -0.2954 -0.1512  0.0251
  567TMC3    O1 8419   1.734   0.482  14.202  0.3961  0.5139  0.2155
  567TMC3    O2 8420   1.639   0.685  13.629 -0.2732  0.0619  0.1249
  568MPD2     C 8421   3.500   1.144  16.091  0.4624 -0.4477  0.3924
  568MPD2    C1 8422   3.530   1.247  16.177 -0.3819  0.1841  0.3050
  568MPD2    C2 8423   3.512   1.374  16.130  0.3922 -0.6566  0.5235
  568MPD2    C3 8424   3.492   1.396  15.994 -0.0670  0.3484  0.4658
  568MPD2    C4 8425   3.485   1.294  15.901 -1.2137 -0.0002  0.3993
  568MPD2    C5 8426   3.480   1.168  15.954 -0.1427  0.0119 -0.2793
  568MPD2     H 8427   3.544   1.455  16.195  0.0245 -0.7985  0.8854
  568MPD2    H1 8428   3.488   1.306  15.793  1.8126 -0.3505  0.4498
  568MPD2    H2 8429   3.496   1.041  16.125  1.3782 -0.2451  1.1391
  568MPD2    H3 8430   3.476   1.082  15.888 -1.1734  0.4091 -0.7393
  568MPD2     N 8431   3.475   1.530  15.964  0.7920 -0.2774  0.3667
  568MPD2    H5 8432   3.487   1.599  16.038 -0.0709 -0.8894  1.0836
  568MPD2    N1 8433   3.553   1.220  16.317  0.7225 -0.5585  0.0290
  568MPD2    H7 8434   3.597   1.133  16.347 -0.0801 -0.6705  0.8921
  569TMC3    C1 8435   3.447   1.724  15.871 -0.3060  0.2389 -0.1023
  569TMC3    C2 8436   3.382   1.777  15.986 -0.0373  0.2031  0.4533
  569TMC3    C3 8437   3.405   1.910  16.009  0.7094 -0.1496  0.9155
  569TMC3    C4 8438   3.527   1.798  15.789 -0.9082 -0.2788 -0.1908
  569TMC3    C5 8439   3.526   1.931  15.811 -0.2596 -0.1527  0.1124
  569TMC3    C6 8440   3.468   1.992  15.919 -0.9702  0.0271 -0.3602
  569TMC3     C 8441   3.467   1.585  15.844  0.5464 -0.2513  0.3597
  569TMC3     O 8442   3.465   1.533  15.732  0.8090 -0.0403 -0.0686
  569TMC3     H 8443   3.327   1.717  16.058 -0.2690 -0.6145 -0.4148
  569TMC3    H1 8444   3.587   1.765  15.705 -1.7061 -3.1196  0.3435
  569TMC3    H2 8445   3.491   2.097  15.937 -2.8902  0.0989  1.7157
  569TMC3    C7 8446   3.600   2.007  15.709  0.5156 -0.1231 -0.1965
  569TMC3    C8 8447   3.368   1.956  16.142 -0.5520 -0.4736  0.3299
  569TMC3    O1 8448   3.690   1.960  15.640  0.0688  0.2858  0.1276
  569TMC3    O2 8449   3.269   1.911  16.195 -0.5989 -0.0514 -0.4045
  570TMC3    C1 8450   2.871   0.101  15.987  0.1361 -0.0924  0.2558
  570TMC3    C2 8451   2.985   0.107  15.918  0.5835  0.3729 -0.2137
  570TMC3    C3 8452   2.999   0.188  15.809  0.6416  0.3857 -0.0369
  570TMC3    C4 8453   2.771   0.195  15.965  0.4757  0.7858 -0.1681
  570TMC3    C5 8454   2.797   0.288  15.870 -0.9367 -0.1298  0.1688
  570TMC3    C6 8455   2.905   0.282  15.779 -0.4126  0.3803 -0.1766
  570TMC3     C 8456   2.851   4.714  16.079 -0.0511  0.0151 -0.1460
  570TMC3     O 8457   2.910   4.607  16.063  0.4010 -0.4563  0.3393
  570TMC3     H 8458   3.067   0.049  15.960  0.2162  0.1854  0.2513
  570TMC3    H1 8459   2.688   0.207  16.033  2.0909 -0.9645  2.1215
  570TMC3    H2 8460   2.928   0.343  15.693 -0.9400  1.8043  0.6886
  570TMC3    C7 8461   2.709   0.400  15.867 -0.1874 -0.5829 -0.2329
  570TMC3    C8 8462   3.132   0.208  15.754  0.5073 -0.0740 -0.4278
  570TMC3    O1 8463   2.624   0.398  15.955 -0.0309 -0.6534  0.2102
  570TMC3    O2 8464   3.148   0.317  15.710  0.2736  0.2027 -0.2341
  571MPD2     C 8465   1.656   1.912  17.400 -0.4259 -0.5330 -0.4680
  571MPD2    C1 8466   1.525   1.914  17.373  0.5758 -0.2209  0.6272
  571MPD2    C2 8467   1.434   1.977  17.454  1.0060  0.6844  0.1034
  571MPD2    C3 8468   1.480   2.043  17.565 -0.3709 -0.1528  0.0349
  571MPD2    C4 8469   1.612   2.027  17.603  0.4943  0.7384  0.8987
  571MPD2    C5 8470   1.703   1.968  17.515 -0.4307 -0.5314  0.0427
  571MPD2     H 8471   1.333   1.989  17.418  0.5317 -1.1146  0.8499
  571MPD2    H1 8472   1.646   2.067   0.005  0.3873 -1.2454  1.7803
  571MPD2    H2 8473   1.719   1.859  17.330 -0.1398 -0.3836 -0.3264
  571MPD2    H3 8474   1.806   1.953  17.546 -1.1373 -2.0949  1.6688
  571MPD2     N 8475   1.393   2.116  17.648 -0.4373  0.1990  0.2972
  571MPD2    H5 8476   1.436   2.143   0.044 -1.5504 -0.8456  1.1515
  571MPD2    N1 8477   1.483   1.846  17.258 -0.0128  0.1741 -0.5224
  571MPD2    H7 8478   1.556   1.791  17.213 -1.2192 -1.0616 -0.9695
  572TMC3    C1 8479   1.210   2.199   0.059 -0.0228  0.8392  0.1837
  572TMC3    C2 8480   1.083   2.171   0.091 -0.5241 -0.4208 -0.5178
  572TMC3    C3 8481   0.991   2.273   0.106 -0.6674  0.4808 -0.0829
  572TMC3    C4 8482   1.255   2.326   0.065  0.2523  0.1558 -0.7526
  572TMC3    C5 8483   1.162   2.422   0.095 -0.1078 -0.2000  0.3475
  572TMC3    C6 8484   1.027   2.403   0.117  0.4703  0.2962  0.9106
  572TMC3     C 8485   1.260   2.126  17.643  0.2405  0.0489 -0.4347
  572TMC3     O 8486   1.182   2.062  17.576 -0.0034 -0.5162  0.1912
  572TMC3     H 8487   1.042   2.075   0.061 -1.0650 -0.5526  0.6631
  572TMC3    H1 8488   1.356   2.350   0.034  0.3934  0.0464 -0.3727
  572TMC3    H2 8489   0.963   2.490   0.124  0.0437  0.0422  0.1460
  572TMC3    C7 8490   1.210   2.558   0.099  0.1548 -0.4442  0.7874
  572TMC3    C8 8491   0.849   2.236   0.100  0.4469  0.4568  0.1725
  572TMC3    O1 8492   1.331   2.572   0.068  0.0683 -0.0450 -0.2529
  572TMC3    O2 8493   0.822   2.122   0.066 -0.2906 -0.2177 -0.1247
  573MPD2     C 8494   2.024   2.313   0.314  0.6396  0.4315 -0.1715
  573MPD2    C1 8495   2.095   2.431   0.295 -0.6614  0.1557 -0.3458
  573MPD2    C2 8496   2.088   2.497   0.173  0.2974 -0.3313 -0.4239
  573MPD2    C3 8497   2.024   2.443   0.062  0.4164 -0.1592 -0.0611
  573MPD2    C4 8498   1.973   2.317   0.076  0.0517  0.1815 -0.5073
  573MPD2    C5 8499   1.965   2.258   0.200  0.4107  0.1527  0.2580
  573MPD2     H 8500   2.153   2.583   0.161 -0.1484  0.3408  1.9643
  573MPD2    H1 8501   1.946   2.255  17.683  1.6548  0.0160 -0.9014
  573MPD2    H2 8502   2.003   2.263   0.408  1.1577  0.2951 -0.1255
  573MPD2    H3 8503   1.905   2.168   0.207  0.3323  0.4305  3.0497
  573MPD2     N 8504   2.021   2.497  17.630  0.0991  0.3952 -0.3298
  573MPD2    H5 8505   1.982   2.445  17.552  0.4876 -0.2518 -0.0889
  573MPD2    N1 8506   2.166   2.479   0.404 -0.0488  0.0628 -0.1739
  573MPD2    H7 8507   2.161   2.422   0.488  1.0568 -0.7883 -0.6933
  574TMC3    C1 8508   2.020   2.659  17.466 -0.8229 -0.4447 -0.2825
  574TMC3    C2 8509   1.916   2.597  17.405 -0.2824  0.3498 -0.0414
  574TMC3    C3 8510   1.909   2.621  17.272 -0.7638  0.3727 -0.2419
  574TMC3    C4 8511   2.109   2.744  17.402 -0.3169  0.0357 -0.0027
  574TMC3    C5 8512   2.103   2.748  17.264  0.7102  0.0871 -0.6937
  574TMC3    C6 8513   2.002   2.689  17.197 -0.0585 -1.0189  0.2254
  574TMC3     C 8514   2.058   2.624  17.600  0.5347  0.4788 -0.7262
  574TMC3     O 8515   2.110   2.706  17.673 -0.2861  0.3194  0.1788
  574TMC3     H 8516   1.852   2.525  17.455 -1.5765  1.1332 -0.5614
  574TMC3    H1 8517   2.183   2.799  17.460 -0.2023  0.2392 -0.3444
  574TMC3    H2 8518   1.977   2.689  17.091  0.9211  0.9124  0.0017
  574TMC3    C7 8519   2.190   2.842  17.193  0.9805 -0.3168  0.4796
  574TMC3    C8 8520   1.797   2.589  17.194  0.4438  0.6956  1.5898
  574TMC3    O1 8521   2.231   2.932  17.265 -0.6923  0.2347  0.3162
  574TMC3    O2 8522   1.814   2.534  17.084  0.2020  0.1175 -0.3777
  575TMC3    C1 8523   0.066   2.962  11.474 -0.4470 -0.7283 -0.2136
  575TMC3    C2 8524   0.013   3.073  11.530  0.1854  0.9132  0.0715
  575TMC3    C3 8525   0.023   3.190  11.461 -0.2683  0.1904 -0.5374
  575TMC3    C4 8526   0.119   2.953  11.349  0.5169 -0.1783  0.2224
  575TMC3    C5 8527   0.133   3.070  11.282  0.1101  0.0269 -0.4538
  575TMC3    C6 8528   0.083   3.189  11.332  1.4473  0.2744  0.0015
  575TMC3     C 8529   0.049   2.833  11.547  0.6458  0.5656 -0.3338
  575TMC3     O 8530   0.127   2.747  11.503  0.0470 -0.5282  0.1890
  575TMC3     H 8531   4.708   3.075  11.635  1.5250 -0.4400  0.4459
  575TMC3    H1 8532   0.178   2.869  11.313 -0.9448 -0.6524 -1.0374
  575TMC3    H2 8533   0.088   3.274  11.265 -1.4627 -0.2291 -0.8706
  575TMC3    C7 8534   0.170   3.068  11.142 -0.8579 -0.3652  0.1612
  575TMC3    C8 8535   4.685   3.312  11.500 -0.0279  0.3645 -0.1015
  575TMC3    O1 8536   0.215   3.167  11.086  0.3009  0.1582  0.0657
  575TMC3    O2 8537   4.705   3.408  11.426  0.4861  0.0063  0.3498
  576MPD2     C 8538   4.232   4.687  12.494 -0.3114  0.5520 -0.2946
  576MPD2    C1 8539   4.253   0.058  12.397  0.2066 -0.3016  0.1269
  576MPD2    C2 8540   4.195   0.182  12.402  0.4863  0.2626 -0.3486
  576MPD2    C3 8541   4.111   0.217  12.501 -0.1784 -0.0847  0.0158
  576MPD2    C4 8542   4.106   0.130  12.608  0.5268 -0.2488  0.2704
  576MPD2    C5 8543   4.163   0.002  12.604  0.1583  0.1992  1.0021
  576MPD2     H 8544   4.200   0.247  12.316  1.3704 -0.0516 -0.5296
  576MPD2    H1 8545   4.063   0.148  12.706 -1.0002 -1.2332 -0.2142
  576MPD2    H2 8546   4.274   4.587  12.492 -1.4146  0.0256  2.9808
  576MPD2    H3 8547   4.145   4.658  12.688 -2.1841 -0.4485 -0.0205
  576MPD2     N 8548   4.047   0.348  12.503 -0.0287  0.2837  0.1028
  576MPD2    H5 8549   4.069   0.410  12.425 -0.4457 -0.0486 -0.2846
  576MPD2    N1 8550   4.325   0.021  12.281  0.1976 -0.4437 -0.3565
  576MPD2    H7 8551   4.312   0.077  12.197 -1.6446 -1.4822 -0.7689
  577TMC3    C1 8552   4.446   4.627  12.128 -0.5038 -0.2114 -0.1976
  577TMC3    C2 8553   4.584   4.614  12.103  0.5959  0.3498 -0.5729
  577TMC3    C3 8554   4.618   4.584  11.972 -0.7561 -0.6104 -0.0382
  577TMC3    C4 8555   4.356   4.590  12.035  0.5275  0.5189 -0.4495
  577TMC3    C5 8556   4.391   4.573  11.902  0.4863 -0.1174  0.3750
  577TMC3    C6 8557   4.526   4.580  11.867 -0.5623  0.8061  0.3762
  577TMC3     C 8558   4.400   4.632  12.264  0.1508 -1.0505  0.2139
  577TMC3     O 8559   4.433   4.537  12.336 -0.0579 -0.4070 -0.0041
  577TMC3     H 8560   4.650   4.631  12.188 -0.1502  2.1973 -0.3602
  577TMC3    H1 8561   4.252   4.584  12.064  0.6102 -2.1906 -0.7114
  577TMC3    H2 8562   4.558   4.577  11.763  1.9374 -0.6205  1.1841
  577TMC3    C7 8563   4.280   4.553  11.811 -0.9339  0.1234  0.3003
  577TMC3    C8 8564   0.035   4.562  11.933  0.4849  0.3505  0.7160
  577TMC3    O1 8565   4.177   4.513  11.862  0.2139  0.5767 -0.1556
  577TMC3    O2 8566   0.071   4.581  11.818  1.0447  0.2374  0.1775
  578MPD2     C 8567   2.486   0.554   1.048  0.2692  0.0995 -0.1991
  578MPD2    C1 8568   2.587   0.466   1.034  0.7000  0.7041 -0.5267
  578MPD2    C2 8569   2.646   0.417   1.149  0.3348  0.0481  0.0119
  578MPD2    C3 8570   2.597   0.446   1.277  0.0308 -0.7458  0.3103
  578MPD2    C4 8571   2.480   0.526   1.284  0.5729 -0.8405 -0.4292
  578MPD2    C5 8572   2.427   0.576   1.170 -0.1284  0.0850  0.2680
  578MPD2     H 8573   2.740   0.362   1.146  0.3274  0.0722 -0.5705
  578MPD2    H1 8574   2.423   0.544   1.375 -0.9333 -4.0768 -0.7460
  578MPD2    H2 8575   2.455   0.597   0.954  0.1661  0.1231 -0.1546
  578MPD2    H3 8576   2.337   0.634   1.182 -1.4150 -1.8389 -0.1613
  578MPD2     N 8577   2.648   0.390   1.393 -0.3137  0.1425 -0.0893
  578MPD2    H5 8578   2.723   0.322   1.382  0.2365  0.7930 -0.3359
  578MPD2    N1 8579   2.637   0.433   0.904  0.0207  0.3263 -0.0900
  578MPD2    H7 8580   2.590   0.479   0.827  0.5360 -1.0526 -1.2255
  579TMC3    C1 8581   2.703   0.358   1.620  0.3212  0.1034  0.5703
  579TMC3    C2 8582   2.754   0.426   1.725  0.3820 -0.2833  0.5021
  579TMC3    C3 8583   2.790   0.340   1.827  0.4612  0.0725  0.0725
  579TMC3    C4 8584   2.680   0.217   1.622  1.3554  0.5062 -0.6294
  579TMC3    C5 8585   2.709   0.145   1.731  0.1179 -0.5154 -0.1497
  579TMC3    C6 8586   2.781   0.205   1.828  0.2451  0.2680  0.5675
  579TMC3     C 8587   2.632   0.440   1.522  0.4879 -0.3755 -0.3037
  579TMC3     O 8588   2.592   0.552   1.548 -0.1778  0.6051  0.6643
  579TMC3     H 8589   2.764   0.534   1.720 -0.1935 -0.3224 -1.7429
  579TMC3    H1 8590   2.604   0.185   1.552  0.1334  3.9255 -0.9017
  579TMC3    H2 8591   2.802   0.151   1.919 -3.2613 -1.1444  0.5226
  579TMC3    C7 8592   2.666   0.006   1.745 -0.3894  0.0077 -0.2602
  579TMC3    C8 8593   2.907   0.372   1.916 -0.4218 -0.7626 -0.6889
  579TMC3    O1 8594   2.674   4.679   1.859 -0.0531 -0.4320  0.3257
  579TMC3    O2 8595   2.887   0.348   2.034 -0.1951 -0.4647  0.1100
  580TMC3    C1 8596   2.144   4.123  11.549 -0.5397 -0.1238  0.5998
  580TMC3    C2 8597   2.185   4.067  11.437  0.1417 -0.3347  0.6706
  580TMC3    C3 8598   2.188   3.932  11.425 -0.0479 -0.2089 -0.0135
  580TMC3    C4 8599   2.072   4.050  11.639 -0.4238 -0.1654  0.1805
  580TMC3    C5 8600   2.064   3.913  11.620  0.5828 -0.4864 -0.0994
  580TMC3    C6 8601   2.125   3.855  11.511  0.6371  0.0003  0.6020
  580TMC3     C 8602   2.246   4.186  11.630 -0.1633 -0.7749 -1.1610
  580TMC3     O 8603   2.309   4.268  11.570  0.1710  0.7032  0.1542
  580TMC3     H 8604   2.246   4.129  11.372 -1.4041 -0.8095 -1.2442
  580TMC3    H1 8605   2.042   4.104  11.728  1.2046  0.0601  0.5915
  580TMC3    H2 8606   2.125   3.748  11.490  2.1460  0.0597  0.3399
  580TMC3    C7 8607   2.075   3.840  11.741  0.2665  0.1864  0.1071
  580TMC3    C8 8608   2.241   3.871  11.307  0.0679 -0.2802 -0.2823
  580TMC3    O1 8609   2.101   3.895  11.845  0.1639 -0.4445 -0.7080
  580TMC3    O2 8610   2.190   3.766  11.277 -0.2447  0.1288 -0.3148
  581MPD2     C 8611   0.131   3.663  14.648  0.5856 -0.8730  0.0961
  581MPD2    C1 8612   0.067   3.636  14.765 -0.2359 -0.3194  0.1054
  581MPD2    C2 8613   4.657   3.687  14.779 -0.3024 -0.7459  0.0241
  581MPD2    C3 8614   4.593   3.751  14.680  0.0292 -0.3585  0.2221
  581MPD2    C4 8615   4.658   3.754  14.555  0.6803 -0.9249 -0.4326
  581MPD2    C5 8616   0.064   3.713  14.539  0.0030  0.1663  0.4778
  581MPD2     H 8617   4.599   3.678  14.870 -1.9828  0.4809 -0.9247
  581MPD2    H1 8618   4.610   3.799  14.468  0.4683 -0.5556 -0.1264
  581MPD2    H2 8619   0.233   3.629  14.631 -0.2406 -2.1675 -2.2076
  581MPD2    H3 8620   0.109   3.691  14.442  0.2614 -0.4538  0.7361
  581MPD2     N 8621   4.471   3.813  14.701  0.6593 -0.5503  0.0683
  581MPD2    H5 8622   4.431   3.800  14.793  1.5183 -0.4657  0.4504
  581MPD2    N1 8623   0.139   3.553  14.858  0.3316 -0.4985  0.1652
  581MPD2    H7 8624   0.238   3.539  14.844  0.4476 -0.1740  0.6436
  582TMC3    C1 8625   0.165   3.407  15.050  0.8645 -0.4314 -0.4229
  582TMC3    C2 8626   0.283   3.465  15.109 -0.1127 -0.0519 -0.5616
  582TMC3    C3 8627   0.324   3.397  15.223  0.4062 -0.8227 -0.0917
  582TMC3    C4 8628   0.102   3.299  15.114 -0.0271 -0.0356 -0.1279
  582TMC3    C5 8629   0.155   3.243  15.223  0.5123  0.5373 -0.0019
  582TMC3    C6 8630   0.269   3.289  15.274  0.1505  0.3002 -0.3423
  582TMC3     C 8631   0.082   3.499  14.969 -0.4296  0.2287 -0.0262
  582TMC3     O 8632   4.685   3.496  14.995  0.3718 -0.0995 -0.0296
  582TMC3     H 8633   0.325   3.557  15.069  0.3555 -0.4668 -1.0069
  582TMC3    H1 8634   0.016   3.252  15.070  0.6227 -0.0121 -1.4239
  582TMC3    H2 8635   0.312   3.240  15.361  0.6278 -0.3386 -0.9425
  582TMC3    C7 8636   0.056   3.255  15.329 -0.2669 -0.5459 -0.4794
  582TMC3    C8 8637   0.445   3.440  15.286 -0.4035 -0.6163 -0.1087
  582TMC3    O1 8638   0.059   3.193  15.436 -0.0462 -0.4929 -0.8820
  582TMC3    O2 8639   0.525   3.352  15.309  0.0117  0.6381 -0.2742
  583MPD2     C 8640   0.102   0.809  16.823 -0.4246  0.4505 -0.1637
  583MPD2    C1 8641   0.068   0.921  16.752  0.9452  0.2657 -0.0971
  583MPD2    C2 8642   0.000   1.023  16.817 -0.3219 -0.4795  0.2252
  583MPD2    C3 8643   4.714   1.025  16.954  0.0280  0.4443  0.2747
  583MPD2    C4 8644   0.047   0.915  17.023 -0.6039 -0.7771 -0.0214
  583MPD2    C5 8645   0.099   0.807  16.954 -0.0006  0.3094  0.4390
  583MPD2     H 8646   4.702   1.106  16.750 -0.5399 -1.8391 -1.4044
  583MPD2    H1 8647   0.063   0.920  17.130  1.0500  1.6583 -0.3923
  583MPD2    H2 8648   0.133   0.717  16.775 -1.3519  0.3199 -0.5172
  583MPD2    H3 8649   0.132   0.718  17.007 -0.5016 -0.5577 -0.7192
  583MPD2     N 8650   4.651   1.135  17.023 -0.0831 -0.3535 -0.0253
  583MPD2    H5 8651   4.610   1.213  16.972  2.3457  0.9432  0.0045
  583MPD2    N1 8652   0.101   0.935  16.615  0.3366  0.5202  0.3414
  583MPD2    H7 8653   0.063   1.015  16.565 -1.0167  0.3315  1.0939
  584TMC3    C1 8654   4.585   1.266  17.203  1.1382 -0.2547  0.0039
  584TMC3    C2 8655   4.623   1.374  17.140  0.0811  0.6525  0.2256
  584TMC3    C3 8656   4.602   1.500  17.190  1.1413 -0.4294  0.6643
  584TMC3    C4 8657   4.533   1.282  17.331  0.5364 -0.3219 -0.2098
  584TMC3    C5 8658   4.518   1.409  17.379 -1.0875  0.1027  0.2116
  584TMC3    C6 8659   4.567   1.515  17.319  0.1203 -0.5700 -0.8594
  584TMC3     C 8660   4.614   1.134  17.154 -0.2071  0.7987 -0.0778
  584TMC3     O 8661   4.621   1.041  17.231 -1.4402  0.3402  0.3210
  584TMC3     H 8662   4.664   1.369  17.040  0.2230 -1.2104  0.3887
  584TMC3    H1 8663   4.508   1.195  17.391  1.3117 -2.1165 -2.4699
  584TMC3    H2 8664   4.563   1.615  17.361 -1.8561 -0.3674 -1.5239
  584TMC3    C7 8665   4.479   1.412  17.515  0.2929  0.5029  1.0807
  584TMC3    C8 8666   4.634   1.612  17.105 -0.4659 -0.2949  0.5635
  584TMC3    O1 8667   4.497   1.312  17.587  0.2519  0.4568 -0.2321
  584TMC3    O2 8668   4.640   1.597  16.987  0.0877 -0.0982 -0.7084
  585MPD2     C 8669   3.992   0.292   0.633 -0.1460 -0.5261 -0.4298
  585MPD2    C1 8670   3.980   0.359   0.511  0.2490  0.5508  0.6946
  585MPD2    C2 8671   4.052   0.305   0.400 -0.2999  0.5113 -0.0629
  585MPD2    C3 8672   4.139   0.200   0.416  0.0947 -1.0203 -0.4335
  585MPD2    C4 8673   4.148   0.141   0.541 -0.3843  0.3759 -0.4872
  585MPD2    C5 8674   4.084   0.186   0.645 -0.7581  0.5092 -0.0592
  585MPD2     H 8675   4.035   0.352   0.304 -0.3218  2.1896  0.7617
  585MPD2    H1 8676   4.217   0.058   0.553 -0.7828  0.0163 -0.6913
  585MPD2    H2 8677   3.930   0.321   0.717 -0.3473 -2.7317  0.1826
  585MPD2    H3 8678   4.114   0.140   0.739 -0.1138  2.4356  0.6699
  585MPD2     N 8679   4.214   0.149   0.308 -0.5659 -0.4688  0.0194
  585MPD2    H5 8680   4.275   0.070   0.331 -3.1148 -2.6077 -0.5965
  585MPD2    N1 8681   3.895   0.470   0.502 -0.0393 -0.2192  0.3696
  585MPD2    H7 8682   3.853   0.504   0.588 -0.2294 -0.6948  0.4620
  586TMC3    C1 8683   4.299   0.134   0.083  0.3484  0.3443  0.0727
  586TMC3    C2 8684   4.383   0.027   0.116  0.4855  0.6402  0.7481
  586TMC3    C3 8685   4.449   4.697   0.014 -0.6698  0.1285 -0.2031
  586TMC3    C4 8686   4.292   0.187  17.652 -0.7537 -0.6815 -0.1696
  586TMC3    C5 8687   4.370   0.139  17.548 -0.5365 -0.1787 -0.2605
  586TMC3    C6 8688   4.440   0.025  17.577 -0.2418  1.0106  0.3841
  586TMC3     C 8689   4.213   0.196   0.181 -0.4728 -0.0718 -0.2403
  586TMC3     O 8690   4.159   0.302   0.147 -0.0929  0.5814 -0.6606
  586TMC3     H 8691   4.367   4.698   0.210  1.5562 -0.5414  0.2715
  586TMC3    H1 8692   4.220   0.261  17.620 -0.1628 -0.4558 -0.9739
  586TMC3    H2 8693   4.500   4.704  17.499  2.2904  0.2095  2.7841
  586TMC3    C7 8694   4.293   0.123  17.422 -0.0729  0.1156 -0.3009
  586TMC3    C8 8695   4.444   4.549   0.020  0.2092 -0.3670  0.3981
  586TMC3    O1 8696   4.317   0.201  17.332 -0.3793 -0.0295  0.9616
  586TMC3    O2 8697   4.440   4.494   0.128 -0.2008  0.3053  0.4372
  587TMC3    C1 8698   1.388   3.066  16.390 -0.1752 -1.0149 -0.4969
  587TMC3    C2 8699   1.408   3.200  16.375  0.6416  0.1851  0.2357
  587TMC3    C3 8700   1.498   3.239  16.269  0.4920 -0.0632 -0.0680
  587TMC3    C4 8701   1.459   2.972  16.320 -0.9982  0.5934 -0.1019
  587TMC3    C5 8702   1.550   3.013  16.229 -0.7833  0.1907  0.0281
  587TMC3    C6 8703   1.568   3.145  16.202 -0.4778  0.0244 -0.0700
  587TMC3     C 8704   1.303   3.022  16.499  0.7084 -0.1638  0.2656
  587TMC3     O 8705   1.301   2.901  16.522  0.4594 -0.2812  0.2498
  587TMC3     H 8706   1.377   3.270  16.452  0.8413  0.2817  0.2288
  587TMC3    H1 8707   1.441   2.869  16.347  0.5734  0.2329 -0.4376
  587TMC3    H2 8708   1.645   3.166  16.128 -1.2329  0.0348 -0.8496
  587TMC3    C7 8709   1.640   2.921  16.170 -0.5972 -0.0022 -0.0153
  587TMC3    C8 8710   1.500   3.373  16.219  0.2369  0.3505 -0.1581
  587TMC3    O1 8711   1.755   2.953  16.148  0.1139  0.1721  0.1854
  587TMC3    O2 8712   1.562   3.406  16.121 -0.3504  0.1582 -1.0883
  588TMC3    C1 8713   4.164   1.087   9.258  0.0462  0.1093 -0.3639
  588TMC3    C2 8714   4.144   0.951   9.245 -0.4972 -0.6055 -0.0706
  588TMC3    C3 8715   4.160   0.865   9.350 -0.5664  0.7074 -0.3428
  588TMC3    C4 8716   4.200   1.144   9.379 -0.1983  0.3883  0.2036
  588TMC3    C5 8717   4.215   1.055   9.481  0.4114 -0.2458 -0.3376
  588TMC3    C6 8718   4.187   0.919   9.473  0.3977  0.4557 -0.0560
  588TMC3     C 8719   4.060   1.153   9.179  0.3950 -0.0926 -0.3984
  588TMC3     O 8720   4.035   1.105   9.072 -0.2670 -0.6379  0.6524
  588TMC3     H 8721   4.113   0.908   9.150  1.1830 -2.1945  0.1160
  588TMC3    H1 8722   4.229   1.249   9.381 -1.3819  0.6612  2.6594
  588TMC3    H2 8723   4.203   0.850   9.555 -2.2436  0.8095  0.7502
  588TMC3    C7 8724   4.160   1.095   9.613 -0.3027 -0.5336 -0.2434
  588TMC3    C8 8725   4.148   0.719   9.322  0.1141 -0.6964 -0.2785
  588TMC3    O1 8726   4.160   1.004   9.703 -0.1195  0.6064  0.0663
  588TMC3    O2 8727   4.098   0.684   9.216  1.1022 -0.1524 -0.2453
  589TMC3    C1 8728   3.074   3.183   1.652 -0.3680 -0.5881  0.3127
  589TMC3    C2 8729   3.103   3.261   1.761  0.6435 -0.4512  0.5648
  589TMC3    C3 8730   3.227   3.254   1.816 -0.5345 -0.3554  0.6810
  589TMC3    C4 8731   3.177   3.107   1.599 -0.4181  0.3574  0.2867
  589TMC3    C5 8732   3.300   3.096   1.662 -0.1302 -0.0291  0.0687
  589TMC3    C6 8733   3.319   3.162   1.775 -0.0195  0.1260 -0.1386
  589TMC3     C 8734   2.954   3.206   1.570 -0.0132  0.7157 -1.0137
  589TMC3     O 8735   2.971   3.184   1.448 -0.7244  0.8866 -0.0337
  589TMC3     H 8736   3.047   3.348   1.794  0.3060 -1.3900  2.4412
  589TMC3    H1 8737   3.158   3.059   1.504  1.1214 -1.0254  0.6793
  589TMC3    H2 8738   3.416   3.158   1.822  0.1803  1.8410 -0.3916
  589TMC3    C7 8739   3.404   3.003   1.618  0.1501  0.5240 -0.3766
  589TMC3    C8 8740   3.278   3.364   1.901 -0.6958  0.2886  1.0404
  589TMC3    O1 8741   3.498   2.973   1.689  0.3481 -0.1176 -0.2790
  589TMC3    O2 8742   3.196   3.434   1.955  0.3197  0.4252  0.2643
  590MPD2     C 8743   2.698   1.538  16.660 -0.2596 -0.5862 -1.0414
  590MPD2    C1 8744   2.612   1.571  16.563 -0.3112 -0.9151 -0.2978
  590MPD2    C2 8745   2.663   1.615  16.444 -0.0980 -0.7088  0.7901
  590MPD2    C3 8746   2.796   1.629  16.425 -0.1404 -0.2982  0.8467
  590MPD2    C4 8747   2.885   1.588  16.521  0.5818  0.3443 -0.1537
  590MPD2    C5 8748   2.835   1.540  16.640  0.2729  0.2958 -0.8731
  590MPD2     H 8749   2.592   1.640  16.365 -0.7008 -1.1626  1.1873
  590MPD2    H1 8750   2.993   1.594  16.514  0.8168 -0.5672  2.6676
  590MPD2    H2 8751   2.660   1.501  16.755  3.4055  0.9964  1.0631
  590MPD2    H3 8752   2.905   1.524  16.722 -1.3316  0.0009  0.4468
  590MPD2     N 8753   2.841   1.689  16.305 -0.0703  0.2849 -0.0765
  590MPD2    H5 8754   2.767   1.727  16.246  0.8176 -0.8522 -1.9135
  590MPD2    N1 8755   2.468   1.577  16.577  0.3910 -0.7042  0.0527
  590MPD2    H7 8756   2.416   1.589  16.490 -1.5037  0.5839  1.3566
  591TMC3    C1 8757   2.968   1.771  16.128  0.4215  0.5910  0.0066
  591TMC3    C2 8758   3.057   1.742  16.030 -0.2604 -0.3134  0.5557
  591TMC3    C3 8759   3.049   1.814  15.912  0.2566  0.0419  0.2836
  591TMC3    C4 8760   2.869   1.866  16.106  0.6630  0.1488 -0.2887
  591TMC3    C5 8761   2.879   1.947  15.998  0.0746  0.0421  0.1466
  591TMC3    C6 8762   2.961   1.917  15.899 -0.1714 -0.0491  0.0369
  591TMC3     C 8763   2.968   1.689  16.251 -0.0314  0.6302  0.4835
  591TMC3     O 8764   3.070   1.619  16.268 -0.2642  0.7563  0.7589
  591TMC3     H 8765   3.128   1.662  16.048  0.8728  0.1857 -1.7437
  591TMC3    H1 8766   2.795   1.881  16.184  1.9239  0.2484  0.9009
  591TMC3    H2 8767   2.951   1.962  15.801 -0.2762  0.1488  0.1397
  591TMC3    C7 8768   2.766   2.030  15.975  0.0101  0.3594  0.8099
  591TMC3    C8 8769   3.101   1.762  15.786 -0.4948  0.2687  0.3678
  591TMC3    O1 8770   2.662   2.014  16.038 -0.1551  0.3307 -0.1796
  591TMC3    O2 8771   3.118   1.642  15.778 -0.5145 -0.5221  0.3831
  592MPD2     C 8772   3.482   3.929  10.832 -0.0859  0.6653  0.7968
  592MPD2    C1 8773   3.518   3.901  10.962 -0.3632  0.7596 -0.8541
  592MPD2    C2 8774   3.465   3.799  11.031  0.0559  0.0931  0.5988
  592MPD2    C3 8775   3.375   3.706  10.982 -0.3217 -0.4624 -0.3976
  592MPD2    C4 8776   3.329   3.735  10.859  0.2120  0.1503  0.2133
  592MPD2    C5 8777   3.380   3.845  10.790 -0.6051 -0.3636 -0.1142
  592MPD2     H 8778   3.506   3.777  11.128 -3.2910 -1.4277  1.6491
  592MPD2    H1 8779   3.261   3.665  10.812 -0.9374  1.3041  0.1655
  592MPD2    H2 8780   3.526   4.004  10.768 -1.1303  0.0762 -0.6149
  592MPD2    H3 8781   3.344   3.864  10.690  1.1825 -1.2667 -0.9387
  592MPD2     N 8782   3.339   3.597  11.067  0.5311 -0.6247 -0.2007
  592MPD2    H5 8783   3.363   3.609  11.165  1.3670 -0.6065 -0.4045
  592MPD2    N1 8784   3.599   3.998  11.029 -0.4927  0.1006 -0.3570
  592MPD2    H7 8785   3.661   4.056  10.974 -0.7410  0.1143 -0.6253
  593TMC3    C1 8786   3.689   4.115  11.222 -0.0380 -0.0239  0.0162
  593TMC3    C2 8787   3.671   4.140  11.350 -0.1631  0.2998 -0.1659
  593TMC3    C3 8788   3.750   4.222  11.415 -0.0129 -0.2146  0.5793
  593TMC3    C4 8789   3.811   4.149  11.168  0.0769  0.1185  0.0195
  593TMC3    C5 8790   3.902   4.218  11.245  0.6665 -0.4441  0.6742
  593TMC3    C6 8791   3.864   4.266  11.363  0.3789 -0.2197 -0.0125
  593TMC3     C 8792   3.601   4.012  11.168  0.6132  0.4580 -0.7752
  593TMC3     O 8793   3.518   3.964  11.240  0.4462  0.2784 -0.0197
  593TMC3     H 8794   3.580   4.107  11.400  1.5288 -3.3541  0.5272
  593TMC3    H1 8795   3.842   4.118  11.068  0.9787 -1.1488  0.6971
  593TMC3    H2 8796   3.915   4.346  11.413  0.9294 -0.5783 -0.0014
  593TMC3    C7 8797   4.020   4.271  11.179  0.3771 -0.4599  0.0278
  593TMC3    C8 8798   3.705   4.303  11.525 -0.4488  0.7165  0.3598
  593TMC3    O1 8799   4.005   4.321  11.066 -0.6404  0.5169 -0.2296
  593TMC3    O2 8800   3.610   4.380  11.512 -0.1374 -0.1869  0.0288
  594MPD2     C 8801   1.447   2.482  13.679 -0.2892 -0.3009  0.5753
  594MPD2    C1 8802   1.456   2.432  13.805 -0.4326 -0.1046 -0.1033
  594MPD2    C2 8803   1.569   2.462  13.879  0.4070 -0.2003  0.2282
  594MPD2    C3 8804   1.675   2.533  13.829  0.8997  1.0542  0.1477
  594MPD2    C4 8805   1.659   2.583  13.699  0.6646 -0.5081 -0.4570
  594MPD2    C5 8806   1.548   2.554  13.625 -0.5864  0.2844 -0.2289
  594MPD2     H 8807   1.570   2.428  13.982  1.1103 -0.2782  0.1895
  594MPD2    H1 8808   1.727   2.655  13.654  1.3464 -0.1605  1.1333
  594MPD2    H2 8809   1.362   2.462  13.614  0.3065 -0.6790 -0.0982
  594MPD2    H3 8810   1.527   2.580  13.522  1.2219 -0.3831 -0.7657
  594MPD2     N 8811   1.786   2.563  13.910  0.5815 -0.0013  0.1783
  594MPD2    H5 8812   1.778   2.550  14.010  0.6147 -1.2958  0.0191
  594MPD2    N1 8813   1.340   2.356  13.852 -0.6010  0.0199  0.1272
  594MPD2    H7 8814   1.264   2.345  13.786  0.4931  0.9438 -1.2946
  595TMC3    C1 8815   2.188   2.725  14.060  0.7643 -0.6537  0.5366
  595TMC3    C2 8816   2.116   2.678  13.952  0.3831 -0.3595 -0.2574
  595TMC3    C3 8817   1.975   2.664  13.975  0.0582 -0.3368  0.3133
  595TMC3    C4 8818   2.132   2.759  14.177  0.2424 -0.2995  1.1716
  595TMC3    C5 8819   2.000   2.736  14.195  0.4223 -0.0080 -0.3053
  595TMC3    C6 8820   1.914   2.693  14.100  0.4479  0.3169  0.7911
  595TMC3     C 8821   2.328   2.746  14.059  0.6936  0.6429 -0.4527
  595TMC3     O 8822   2.388   2.717  14.161 -0.1235  0.4035  0.2474
  595TMC3     H 8823   2.158   2.630  13.865  0.5414  1.9777 -1.4610
  595TMC3    H1 8824   2.194   2.822  14.240 -0.7832  1.9704 -0.0770
  595TMC3    H2 8825   1.807   2.696  14.120  0.0608 -1.7719 -1.0218
  595TMC3    C7 8826   1.941   2.783  14.320 -0.0742  0.0859 -1.1483
  595TMC3    C8 8827   1.896   2.621  13.864 -0.7759 -0.0420 -0.6413
  595TMC3    O1 8828   1.824   2.812  14.311 -0.3014 -0.0285  0.2995
  595TMC3    O2 8829   1.948   2.626  13.757  0.0340  0.1481 -0.3681
  596MPD2     C 8830   0.889   0.705  16.785 -0.2673  0.2731 -0.3363
  596MPD2    C1 8831   0.875   0.820  16.712  0.6683  0.3374 -0.3944
  596MPD2    C2 8832   0.919   0.823  16.580 -0.6777  0.5232 -0.5970
  596MPD2    C3 8833   0.967   0.706  16.524 -0.2517 -0.1239 -0.7597
  596MPD2    C4 8834   0.975   0.592  16.597  0.4353 -0.6593 -0.5432
  596MPD2    C5 8835   0.939   0.595  16.726  0.9308  0.5512  0.2281
  596MPD2     H 8836   0.912   0.914  16.522 -0.0524 -0.0467 -1.5684
  596MPD2    H1 8837   0.995   0.492  16.560  1.2708 -0.0791 -1.6490
  596MPD2    H2 8838   0.854   0.707  16.888 -0.9138  0.0007 -0.5485
  596MPD2    H3 8839   0.953   0.505  16.785  1.9859 -0.6995 -1.9470
  596MPD2     N 8840   1.005   0.688  16.391  0.3947 -0.9616  0.0542
  596MPD2    H5 8841   1.048   0.599  16.368  2.4656 -0.6988  2.8512
  596MPD2    N1 8842   0.825   0.940  16.771  0.1871 -0.2858  0.1936
  596MPD2    H7 8843   0.816   1.015  16.703 -2.8235 -0.8358 -0.0193
  597TMC3    C1 8844   0.769   1.115  16.918  0.0327  0.3896 -0.3769
  597TMC3    C2 8845   0.832   1.202  16.832  0.0727 -0.0325  0.2763
  597TMC3    C3 8846   0.801   1.335  16.835  0.0777 -0.4700  0.8613
  597TMC3    C4 8847   0.673   1.162  16.999 -0.2419 -0.2587 -0.0336
  597TMC3    C5 8848   0.629   1.292  16.982 -0.0064  0.5323  0.1304
  597TMC3    C6 8849   0.694   1.385  16.900 -0.3373  0.1487 -0.6093
  597TMC3     C 8850   0.797   0.971  16.901 -0.1122 -0.3061 -0.3674
  597TMC3     O 8851   0.774   0.902  16.997  0.6890  0.4211  0.4090
  597TMC3     H 8852   0.926   1.165  16.793 -0.6561 -1.1723 -0.3846
  597TMC3    H1 8853   0.631   1.089  17.068  0.4855 -0.8310 -0.1984
  597TMC3    H2 8854   0.669   1.488  16.878  1.4160  0.9562  1.3286
  597TMC3    C7 8855   0.530   1.340  17.073 -0.1781 -0.0418 -0.7391
  597TMC3    C8 8856   0.874   1.424  16.746 -0.3539  0.2208  0.8206
  597TMC3    O1 8857   0.452   1.251  17.119  0.4540 -0.3547 -0.2092
  597TMC3    O2 8858   0.888   1.541  16.786  0.6989 -0.1643 -0.6501
  598TMC3    C1 8859   4.444   2.203  15.339  0.1836  0.0050  0.1278
  598TMC3    C2 8860   4.454   2.093  15.411 -0.1632  0.1546  0.1512
  598TMC3    C3 8861   4.355   2.067  15.508 -0.8244  0.2446  0.9502
  598TMC3    C4 8862   4.328   2.276  15.339  0.0032  0.0962  0.0249
  598TMC3    C5 8863   4.221   2.242  15.423  0.5448  0.0314 -0.2697
  598TMC3    C6 8864   4.236   2.136  15.516  0.9560 -0.5549  0.0075
  598TMC3     C 8865   4.564   2.237  15.269  0.3534 -0.3486 -0.2634
  598TMC3     O 8866   4.652   2.156  15.259  0.1551 -0.1993 -0.5199
  598TMC3     H 8867   4.539   2.026  15.407 -0.7001 -0.3321 -3.2922
  598TMC3    H1 8868   4.312   2.332  15.248  0.9494  1.1307  0.4997
  598TMC3    H2 8869   4.152   2.112  15.580  2.2500 -1.6521  1.2721
  598TMC3    C7 8870   4.090   2.292  15.371  0.4817  0.2941  0.5245
  598TMC3    C8 8871   4.361   1.952  15.605  0.2389 -0.1005  0.2355
  598TMC3    O1 8872   3.993   2.225  15.390  0.2370 -0.4464 -0.1920
  598TMC3    O2 8873   4.294   1.961  15.709  0.1399  0.2612 -0.5350
  599MPD2     C 8874   4.091   0.205  15.942 -0.0979  0.4447  0.3884
  599MPD2    C1 8875   4.051   0.070  15.935 -0.1827 -0.5856  0.4953
  599MPD2    C2 8876   3.920   0.036  15.950  0.3465 -0.3656  0.2544
  599MPD2    C3 8877   3.824   0.136  15.973  0.1658 -0.3733  0.2327
  599MPD2    C4 8878   3.861   0.272  15.972 -0.1133 -0.1340 -0.3321
  599MPD2    C5 8879   3.996   0.303  15.957 -0.1947  0.9703  0.4400
  599MPD2     H 8880   3.893   4.654  15.958 -0.8938 -0.1275 -0.7648
  599MPD2    H1 8881   3.785   0.345  15.998  1.9034  1.8845 -0.0272
  599MPD2    H2 8882   4.196   0.231  15.938  0.2641 -0.8497  1.5742
  599MPD2    H3 8883   4.029   0.406  15.967 -0.7609  1.0390  1.7047
  599MPD2     N 8884   3.686   0.104  15.990  0.6317  0.4969  0.1475
  599MPD2    H5 8885   3.613   0.175  15.985  0.2390  0.0739 -0.0759
  599MPD2    N1 8886   4.162   4.703  15.928  0.5775  0.2169  0.1047
  599MPD2    H7 8887   4.252   0.025  15.915 -1.1007  3.4625 -0.2852
  600TMC3    C1 8888   3.494   4.697  16.043  0.6816  0.3037 -0.6089
  600TMC3    C2 8889   3.446   4.574  16.062  0.5469  0.4808 -0.1980
  600TMC3    C3 8890   3.316   4.566  16.108 -0.0627  0.5659 -0.1779
  600TMC3    C4 8891   3.426   0.087  16.084  0.1719 -0.0091  0.3214
  600TMC3    C5 8892   3.301   0.076  16.142  0.4687  0.1006  0.4013
  600TMC3    C6 8893   3.247   4.672  16.158  0.2541 -0.5052 -0.9902
  600TMC3     C 8894   3.634   4.702  16.017 -0.7638 -0.3625 -1.2689
  600TMC3     O 8895   3.697   4.600  16.034 -0.1380 -0.8181  0.0376
  600TMC3     H 8896   3.492   4.481  16.033  1.0406  0.8607 -0.6256
  600TMC3    H1 8897   3.480   0.180  16.101  0.8914 -0.4410  0.3778
  600TMC3    H2 8898   3.150   4.662  16.206  1.4243 -0.6949  1.3274
  600TMC3    C7 8899   3.205   0.184  16.148  0.1313 -0.3111 -0.6243
  600TMC3    C8 8900   3.264   4.432  16.150 -0.4642  0.7977 -0.4075
  600TMC3    O1 8901   3.090   0.165  16.183  0.0990  0.3710  0.3458
  600TMC3    O2 8902   3.354   4.360  16.189 -0.5124  0.1727  0.1595
  601MPD2     C 8903   1.140   3.081   0.084 -0.2511 -0.3464 -0.1314
  601MPD2    C1 8904   1.025   3.017   0.109  0.5425 -0.2804 -0.1351
  601MPD2    C2 8905   1.021   2.878   0.121 -0.9232 -0.6269 -0.1158
  601MPD2    C3 8906   1.134   2.802   0.121  0.1586  0.5255  0.5873
  601MPD2    C4 8907   1.254   2.862   0.091 -0.6747 -0.0971 -0.0424
  601MPD2    C5 8908   1.255   3.000   0.074  0.1201  0.2275  0.8092
  601MPD2     H 8909   0.925   2.836   0.149 -0.6370 -2.5137 -2.0075
  601MPD2    H1 8910   1.340   2.800   0.068  0.1358  0.7237  0.7773
  601MPD2    H2 8911   1.146   3.188   0.073 -0.6927 -0.3189 -0.1021
  601MPD2    H3 8912   1.347   3.056   0.063 -0.5956  0.8127 -2.2800
  601MPD2     N 8913   1.119   2.659   0.128  0.0302 -0.2933  0.3157
  601MPD2    H5 8914   1.020   2.638   0.137 -0.6102  1.9619 -1.2337
  601MPD2    N1 8915   0.905   3.097   0.092  0.4937  0.1607 -0.3325
  601MPD2    H7 8916   0.909   3.197   0.105 -0.6068 -0.1691  2.5921
  602TMC3    C1 8917   0.676   3.156   0.056 -0.0304 -0.1382  0.4377
  602TMC3    C2 8918   0.701   3.288   0.044 -0.2429 -0.2833 -0.7816
  602TMC3    C3 8919   0.599   3.378   0.028 -0.2149  0.2920  0.3170
  602TMC3    C4 8920   0.554   3.110   0.053  0.4591  0.0846 -0.6687
  602TMC3    C5 8921   0.450   3.200   0.041 -0.0537 -0.7252  0.3555
  602TMC3    C6 8922   0.470   3.333   0.035  0.0332 -0.5128 -0.5536
  602TMC3     C 8923   0.777   3.048   0.067  0.0444  0.3152 -0.1438
  602TMC3     O 8924   0.732   2.931   0.054  0.5548 -0.2991 -0.4504
  602TMC3     H 8925   0.796   3.331   0.014 -2.2604  3.3187 -2.1091
  602TMC3    H1 8926   0.528   3.005   0.064 -2.0832  0.4513 -3.0129
  602TMC3    H2 8927   0.388   3.400   0.054  1.2490  0.6293  0.6996
  602TMC3    C7 8928   0.318   3.148   0.031  0.7757 -0.2145 -1.0219
  602TMC3    C8 8929   0.630   3.524   0.008 -0.0476  1.4290 -0.7721
  602TMC3    O1 8930   0.294   3.035   0.068 -0.1350 -0.2504  0.3741
  602TMC3    O2 8931   0.725   3.579   0.062 -0.0032  0.1049  0.4478
  603TMC3    C1 8932   0.046   3.418  10.638 -0.0035 -0.0030  0.0129
  603TMC3    C2 8933   0.038   3.316  10.730 -0.1338  0.0820 -0.5036
  603TMC3    C3 8934   4.633   3.285  10.767 -0.2917 -0.2451 -0.5825
  603TMC3    C4 8935   4.662   3.500  10.603 -0.0514 -0.4844  0.0373
  603TMC3    C5 8936   4.538   3.464  10.642  0.0067 -0.5058 -0.1642
  603TMC3    C6 8937   4.519   3.361  10.734  0.7174  0.3045  0.1264
  603TMC3     C 8938   0.156   3.409  10.542  0.7343 -0.3011  0.3324
  603TMC3     O 8939   0.177   3.509  10.477 -0.0263 -0.0712  0.1551
  603TMC3     H 8940   0.128   3.264  10.764 -0.2251 -0.3981 -0.9901
  603TMC3    H1 8941   4.667   3.576  10.527 -0.7382  3.0456  3.5038
  603TMC3    H2 8942   4.420   3.322  10.759  0.5032  0.5656 -0.3294
  603TMC3    C7 8943   4.429   3.522  10.568 -0.4119 -0.0712  0.3195
  603TMC3    C8 8944   4.617   3.222  10.894  0.4127 -0.5527  0.6843
  603TMC3    O1 8945   4.462   3.590  10.474  0.3837 -0.2226 -0.1065
  603TMC3    O2 8946   4.650   3.109  10.910 -0.0838  0.0168 -1.0421
  604MPD2     C 8947   4.607   1.892  16.446  0.2355  0.1312 -0.8620
  604MPD2    C1 8948   4.539   1.973  16.360  0.6225 -0.6146 -0.4622
  604MPD2    C2 8949   4.567   1.965  16.224  1.0290 -0.6693  0.4043
  604MPD2    C3 8950   4.665   1.880  16.178  0.4113  0.3012 -0.6666
  604MPD2    C4 8951   0.021   1.811  16.264  0.2389  0.4628 -0.2910
  604MPD2    C5 8952   4.702   1.812  16.397 -0.2388 -0.7456  0.5027
  604MPD2     H 8953   4.528   2.034  16.150 -0.5558 -0.7186  1.1844
  604MPD2    H1 8954   0.104   1.747  16.235  1.0746 -0.2413  3.6022
  604MPD2    H2 8955   4.586   1.885  16.552  0.1422 -2.2395 -1.0329
  604MPD2    H3 8956   0.039   1.754  16.466  1.5130 -0.4310 -0.7472
  604MPD2     N 8957   4.692   1.894  16.040  0.4000  0.3714 -0.0602
  604MPD2    H5 8958   4.628   1.960  15.997 -0.1441 -1.2706 -1.7541
  604MPD2    N1 8959   4.456   2.072  16.408  0.4362 -0.0868  0.3845
  604MPD2    H7 8960   4.438   2.056  16.507  1.5598  1.6642  0.8761
  605TMC3    C1 8961   4.315   2.256  16.412  0.1650 -0.8463 -0.3287
  605TMC3    C2 8962   4.390   2.339  16.495 -0.5190 -0.2683 -0.4184
  605TMC3    C3 8963   4.365   2.476  16.496  0.0483 -0.5429  0.7396
  605TMC3    C4 8964   4.217   2.315  16.331  0.4725 -0.0801  0.5440
  605TMC3    C5 8965   4.178   2.446  16.347  0.2575  0.0729  0.2707
  605TMC3    C6 8966   4.255   2.531  16.430 -0.4378  1.2036  0.2012
  605TMC3     C 8967   4.384   2.163  16.333 -0.2914 -0.5321 -0.9273
  605TMC3     O 8968   4.373   2.174  16.209  0.4136 -0.2201  0.2105
  605TMC3     H 8969   4.461   2.292  16.563  1.4955  0.5581 -1.9834
  605TMC3    H1 8970   4.171   2.260  16.250 -2.0297 -0.1453  2.0272
  605TMC3    H2 8971   4.210   2.624  16.462 -2.2746  0.7373 -1.0242
  605TMC3    C7 8972   4.078   2.511  16.268  0.0455 -0.1742 -0.3207
  605TMC3    C8 8973   4.416   2.546  16.607 -0.1814 -0.2634 -0.1707
  605TMC3    O1 8974   4.089   2.632  16.249  0.2325 -0.9606  0.3559
  605TMC3    O2 8975   4.349   2.632  16.665 -0.0812 -0.4488 -0.2389
  606TMC3    C1 8976   0.545   0.263   0.743  0.0927 -0.5882 -0.0843
  606TMC3    C2 8977   0.673   0.307   0.705  0.7314 -0.8675  0.0834
  606TMC3    C3 8978   0.701   0.296   0.574  0.4363  0.0588 -0.7217
  606TMC3    C4 8979   0.460   0.208   0.655  0.0486 -0.3280  0.7393
  606TMC3    C5 8980   0.492   0.193   0.522 -0.4832 -0.0555  0.7364
  606TMC3    C6 8981   0.611   0.239   0.481 -0.1752 -0.2030  0.3701
  606TMC3     C 8982   0.492   0.306   0.872 -0.3766 -0.6020  0.1941
  606TMC3     O 8983   0.376   0.281   0.880  0.1442  0.2147 -0.0072
  606TMC3     H 8984   0.732   0.366   0.774  0.2964  0.2572 -0.5049
  606TMC3    H1 8985   0.367   0.164   0.686  1.7644 -1.7755  3.8021
  606TMC3    H2 8986   0.650   0.226   0.380  0.9203  0.1562  0.7466
  606TMC3    C7 8987   0.431   0.072   0.457  0.0996 -0.0837 -0.0066
  606TMC3    C8 8988   0.827   0.357   0.527  0.0975 -0.6317  0.4599
  606TMC3    O1 8989   0.365   0.002   0.533  0.2200 -0.2700  0.4772
  606TMC3    O2 8990   0.930   0.345   0.590  0.2942  0.6122 -0.2303
  607MPD2     C 8991   3.545   3.223  11.351 -0.5812 -0.1306 -0.7353
  607MPD2    C1 8992   3.645   3.284  11.421  0.3605  0.0332 -0.6370
  607MPD2    C2 8993   3.677   3.231  11.540  1.1777 -0.0502 -0.1715
  607MPD2    C3 8994   3.603   3.126  11.597  0.3920 -0.0730  0.3676
  607MPD2    C4 8995   3.504   3.068  11.529 -0.1081  0.0087  0.4763
  607MPD2    C5 8996   3.478   3.116  11.406  0.1866 -0.7385 -0.0946
  607MPD2     H 8997   3.754   3.273  11.605  1.4445 -0.3460 -0.3006
  607MPD2    H1 8998   3.453   2.984  11.573 -4.4145  2.5593  0.3394
  607MPD2    H2 8999   3.499   3.264  11.262 -0.2512 -0.1227 -0.9019
  607MPD2    H3 9000   3.400   3.062  11.354 -1.0686  0.3823  0.6562
  607MPD2     N 9001   3.634   3.094  11.733  0.2614  0.3068  0.0876
  607MPD2    H5 9002   3.690   3.162  11.782 -1.2923  0.3942  1.7541
  607MPD2    N1 9003   3.713   3.400  11.370 -0.3192 -0.6742  0.0097
  607MPD2    H7 9004   3.791   3.431  11.427 -0.7140  1.2289 -0.4890
  608TMC3    C1 9005   3.726   3.624  11.294 -0.0258  0.1851 -0.7487
  608TMC3    C2 9006   3.746   3.678  11.421  0.0923 -0.7418 -0.0482
  608TMC3    C3 9007   3.828   3.784  11.443  0.6605 -0.1962  0.3478
  608TMC3    C4 9008   3.773   3.691  11.191 -0.6053 -0.5772  0.4068
  608TMC3    C5 9009   3.845   3.807  11.206 -0.1572 -0.3822  0.2577
  608TMC3    C6 9010   3.878   3.858  11.335  0.5739  0.0339 -0.2020
  608TMC3     C 9011   3.672   3.487  11.279 -0.4614  0.7570  0.0056
  608TMC3     O 9012   3.576   3.485  11.200  0.1409 -0.2662 -0.4717
  608TMC3     H 9013   3.699   3.629  11.506  1.3826  0.3115  1.2716
  608TMC3    H1 9014   3.738   3.658  11.094  2.2151 -2.5034  0.0407
  608TMC3    H2 9015   3.927   3.953  11.351 -1.9140  1.1084  1.0547
  608TMC3    C7 9016   3.933   3.834  11.096 -0.4879 -0.2202  0.4697
  608TMC3    C8 9017   3.891   3.801  11.576  0.1328  0.3589 -0.3056
  608TMC3    O1 9018   3.888   3.807  10.986 -0.3873 -0.3252 -0.3433
  608TMC3    O2 9019   3.927   3.915  11.608  0.4131 -0.3178 -0.2401
  609TMC3    C1 9020   2.547   1.399   8.599  0.3766  0.9421  0.5400
  609TMC3    C2 9021   2.521   1.321   8.483 -0.4945 -0.2336  0.0442
  609TMC3    C3 9022   2.576   1.201   8.461 -0.4750  0.3886  0.6054
  609TMC3    C4 9023   2.634   1.354   8.691  0.1653 -0.0056 -0.7528
  609TMC3    C5 9024   2.684   1.235   8.672  0.0639 -0.6337 -0.1956
  609TMC3    C6 9025   2.657   1.158   8.562  0.3049 -0.5421 -0.6086
  609TMC3     C 9026   2.478   1.525   8.605  0.3786 -0.0663 -0.3322
  609TMC3     O 9027   2.447   1.563   8.716  0.1384  0.0133 -0.2213
  609TMC3     H 9028   2.444   1.365   8.420 -1.2417 -1.1327  0.3244
  609TMC3    H1 9029   2.666   1.407   8.780  2.1186 -3.5705  0.6692
  609TMC3    H2 9030   2.722   1.073   8.543 -0.0583 -0.8617 -0.4249
  609TMC3    C7 9031   2.766   1.185   8.777  0.5487  0.3331 -0.2308
  609TMC3    C8 9032   2.569   1.123   8.337 -0.3313  0.1552 -0.2319
  609TMC3    O1 9033   2.811   1.253   8.870  0.3864  0.2278  0.3713
  609TMC3    O2 9034   2.616   1.011   8.348  0.5538  0.5035  0.0415
  610TMC3    C1 9035   3.612   3.301  12.564  0.7680 -0.8906  0.5079
  610TMC3    C2 9036   3.694   3.293  12.454 -0.0482 -0.3681  1.0228
  610TMC3    C3 9037   3.800   3.213  12.463  0.0038 -0.0320 -0.1258
  610TMC3    C4 9038   3.623   3.222  12.677 -0.0883  0.3390 -0.1837
  610TMC3    C5 9039   3.728   3.129  12.671  0.2679  1.0979 -0.1341
  610TMC3    C6 9040   3.822   3.132  12.569  0.5292  0.7463 -0.8046
  610TMC3     C 9041   3.507   3.395  12.553  0.1385 -0.2343 -0.1209
  610TMC3     O 9042   3.514   3.481  12.468 -0.0130  0.0210 -0.0413
  610TMC3     H 9043   3.683   3.367  12.376 -0.0842 -0.1230  1.2617
  610TMC3    H1 9044   3.582   3.255  12.772  0.7130  0.9606 -0.0549
  610TMC3    H2 9045   3.915   3.078  12.586  0.0805 -0.2696 -1.5588
  610TMC3    C7 9046   3.764   3.058  12.793 -1.2401  0.2710  0.0023
  610TMC3    C8 9047   3.914   3.261  12.386 -0.0787 -0.0432  0.0951
  610TMC3    O1 9048   3.885   3.061  12.809 -0.3930  0.0823  0.3527
  610TMC3    O2 9049   3.890   3.354  12.315  0.3493 -0.3340  0.6164
  611MPD2     C 9050   2.860   3.348  10.374 -0.0027  0.5703  0.0264
  611MPD2    C1 9051   2.918   3.234  10.341 -0.2435 -0.5894 -0.0821
  611MPD2    C2 9052   3.044   3.198  10.387  0.3654 -0.2289 -0.8646
  611MPD2    C3 9053   3.115   3.285  10.464 -0.0098  0.3148 -0.7872
  611MPD2    C4 9054   3.054   3.406  10.499  0.0783  0.2849  0.0074
  611MPD2    C5 9055   2.924   3.433  10.456  0.5155  0.2776 -0.3695
  611MPD2     H 9056   3.079   3.097  10.372  1.0618 -0.0326 -0.5638
  611MPD2    H1 9057   3.095   3.472  10.574  2.0056 -1.4535  0.4867
  611MPD2    H2 9058   2.758   3.368  10.344  0.9289  4.0202 -0.9027
  611MPD2    H3 9059   2.877   3.528  10.476 -1.3268 -0.8213  0.5041
  611MPD2     N 9060   3.244   3.258  10.511  0.6172  0.0952 -0.1653
  611MPD2    H5 9061   3.280   3.329  10.574 -1.0176  0.0842  0.7853
  611MPD2    N1 9062   2.842   3.142  10.265  0.1152 -0.0377  0.3998
  611MPD2    H7 9063   2.745   3.170  10.254  0.8143  2.1168 -0.2653
  612TMC3    C1 9064   3.432   3.149  10.573  0.8780 -0.4261  0.0265
  612TMC3    C2 9065   3.508   3.258  10.544 -0.2016 -0.5285  0.0598
  612TMC3    C3 9066   3.644   3.257  10.586  0.2046  0.3616 -0.0175
  612TMC3    C4 9067   3.481   3.053  10.655  0.5424 -0.0291 -0.6685
  612TMC3    C5 9068   3.607   3.065  10.704  0.7188  0.1753  0.0081
  612TMC3    C6 9069   3.692   3.166  10.674  0.2890 -0.1760  0.1072
  612TMC3     C 9070   3.309   3.139  10.511 -0.1147 -0.4321 -0.5121
  612TMC3     O 9071   3.269   3.031  10.480 -0.1066 -0.1364  0.0488
  612TMC3     H 9072   3.475   3.325  10.465  0.2586  0.3383  0.6070
  612TMC3    H1 9073   3.423   2.965  10.682 -0.0220  0.4901 -0.2042
  612TMC3    H2 9074   3.794   3.168  10.709  0.3147 -1.1416  0.0904
  612TMC3    C7 9075   3.660   2.944  10.766  0.0980 -0.0639 -0.1480
  612TMC3    C8 9076   3.726   3.344  10.504  0.0656 -0.1280  0.6351
  612TMC3    O1 9077   3.576   2.863  10.801 -0.4777 -0.3474  0.1109
  612TMC3    O2 9078   3.680   3.384  10.395 -0.4536 -0.4630 -0.4726
  613MPD2     C 9079   2.046   1.017  16.324 -0.0285 -1.0907 -0.0037
  613MPD2    C1 9080   1.953   0.973  16.229  0.1568  0.1095  0.2108
  613MPD2    C2 9081   1.872   0.867  16.261  0.6888 -0.0526 -0.2156
  613MPD2    C3 9082   1.903   0.782  16.369 -0.6589  0.5155 -0.3818
  613MPD2    C4 9083   2.002   0.822  16.455  0.5274  0.6984 -0.2726
  613MPD2    C5 9084   2.073   0.941  16.435 -0.4923 -0.2053  0.4615
  613MPD2     H 9085   1.780   0.859  16.204  0.7172  0.0061 -0.2702
  613MPD2    H1 9086   2.049   0.763  16.534  1.9615  1.3918 -0.5994
  613MPD2    H2 9087   2.095   1.113  16.315  1.0976 -1.6841 -0.1328
  613MPD2    H3 9088   2.143   0.978  16.509 -1.7355  1.5876  0.7524
  613MPD2     N 9089   1.860   0.647  16.385  0.2532 -0.1790 -0.1565
  613MPD2    H5 9090   1.916   0.592  16.450  1.1408 -0.1967 -0.9451
  613MPD2    N1 9091   1.937   1.049  16.107 -0.4086 -0.2469 -0.1478
  613MPD2    H7 9092   2.014   1.109  16.079  0.4028 -0.9466  0.6106
  614TMC3    C1 9093   1.902   1.076  15.888  0.3741  0.5826  0.5479
  614TMC3    C2 9094   1.974   0.964  15.865 -0.7426 -0.8699  0.5546
  614TMC3    C3 9095   1.993   0.923  15.733  0.1939  0.1599  0.4742
  614TMC3    C4 9096   1.830   1.129  15.786 -0.0959  0.5391  0.1777
  614TMC3    C5 9097   1.857   1.092  15.658  0.3500  0.0914 -0.3508
  614TMC3    C6 9098   1.940   0.993  15.628 -0.7666 -0.3632 -0.4197
  614TMC3     C 9099   1.841   1.054  16.015  0.2779 -0.6069 -0.6216
  614TMC3     O 9100   1.724   1.014  16.022  0.7799  0.0928 -0.6178
  614TMC3     H 9101   2.010   0.903  15.947 -1.5248 -0.5417  1.1438
  614TMC3    H1 9102   1.760   1.209  15.808 -0.2270  1.0471 -2.0897
  614TMC3    H2 9103   1.973   0.973  15.526 -1.0030 -0.7637 -0.4142
  614TMC3    C7 9104   1.789   1.166  15.549  0.3068  0.0033  0.3361
  614TMC3    C8 9105   2.034   0.789  15.706  0.3275 -0.4186 -0.1122
  614TMC3    O1 9106   1.749   1.283  15.563  0.2518 -0.8830  0.0352
  614TMC3    O2 9107   2.024   0.748  15.592  0.0927 -0.3965  0.4671
  615MPD2     C 9108   1.330   1.989  15.884 -0.0291 -0.5564  0.0752
  615MPD2    C1 9109   1.222   1.940  15.954 -0.0007 -0.2650 -1.2026
  615MPD2    C2 9110   1.145   1.834  15.900  0.5904 -0.0541 -0.0025
  615MPD2    C3 9111   1.178   1.779  15.776  1.0581  0.3315  0.4392
  615MPD2    C4 9112   1.288   1.835  15.712  0.0137  0.2716 -0.1252
  615MPD2    C5 9113   1.359   1.935  15.760  0.1466 -0.1697 -0.2050
  615MPD2     H 9114   1.061   1.793  15.955 -0.4843  0.5047 -1.2363
  615MPD2    H1 9115   1.321   1.798  15.616  1.6411  1.0102  0.1613
  615MPD2    H2 9116   1.394   2.066  15.927 -0.5039 -0.8044  1.2403
  615MPD2    H3 9117   1.448   1.965  15.705  0.6033  0.5282  0.9140
  615MPD2     N 9118   1.107   1.676  15.711 -0.1103 -0.6534  0.1430
  615MPD2    H5 9119   1.139   1.639  15.621 -1.5477  0.7589 -0.9371
  615MPD2    N1 9120   1.184   1.978  16.090 -0.0227  0.2075  0.0078
  615MPD2    H7 9121   1.111   1.923  16.134  0.0724  0.2096  0.1659
  616TMC3    C1 9122   1.244   2.065  16.314 -0.2729 -0.2219 -0.0237
  616TMC3    C2 9123   1.343   2.110  16.399  0.0773 -0.2177  0.2851
  616TMC3    C3 9124   1.309   2.175  16.515 -0.1829  1.0522  0.0413
  616TMC3    C4 9125   1.112   2.076  16.346  0.0751 -0.3826 -0.2654
  616TMC3    C5 9126   1.087   2.134  16.467  0.2298  0.8787 -0.2941
  616TMC3    C6 9127   1.178   2.184  16.557  0.5328  0.4016 -0.1536
  616TMC3     C 9128   1.269   2.061  16.168  0.2676 -0.5303  0.6535
  616TMC3     O 9129   1.372   2.119  16.143  0.6613 -0.1428  0.1231
  616TMC3     H 9130   1.445   2.076  16.380 -0.3197 -2.4236  2.1491
  616TMC3    H1 9131   1.032   2.034  16.286 -1.6775  2.2376  0.2125
  616TMC3    H2 9132   1.154   2.233  16.650  0.8313  1.2246 -0.5008
  616TMC3    C7 9133   0.947   2.171  16.478 -0.0030  0.1033 -0.1686
  616TMC3    C8 9134   1.411   2.224  16.609  0.4325  0.1559  0.3464
  616TMC3    O1 9135   0.858   2.096  16.438 -0.1433 -0.6234 -0.4277
  616TMC3    O2 9136   1.365   2.270  16.712 -0.5219 -0.2246 -0.2274
  617MPD2     C 9137   4.347   0.531  13.789 -0.2143 -0.6606 -0.1725
  617MPD2    C1 9138   4.391   0.406  13.840  0.1665 -0.3645 -0.1648
  617MPD2    C2 9139   4.299   0.313  13.886  0.1380  0.3382  0.6353
  617MPD2    C3 9140   4.165   0.344  13.862 -0.2436  0.7523 -0.8132
  617MPD2    C4 9141   4.123   0.453  13.795  0.1280  0.4151 -0.4205
  617MPD2    C5 9142   4.215   0.555  13.761 -0.4026  1.6715  0.0814
  617MPD2     H 9143   4.327   0.218  13.931 -0.6242 -0.2846 -0.2030
  617MPD2    H1 9144   4.019   0.462  13.764  0.1599  0.2935 -0.5607
  617MPD2    H2 9145   4.422   0.591  13.739 -2.1866  0.1367 -2.1791
  617MPD2    H3 9146   4.179   0.643  13.709  2.0501  2.6209  0.0155
  617MPD2     N 9147   4.060   0.260  13.897 -0.2607 -0.1953 -0.2156
  617MPD2    H5 9148   3.967   0.277  13.861 -1.4073 -1.9688  1.9026
  617MPD2    N1 9149   4.533   0.381  13.833  0.0957  0.3457  0.3881
  617MPD2    H7 9150   4.594   0.456  13.803  0.8110 -1.2309 -2.0317
  618TMC3    C1 9151   0.009   0.230  13.813 -0.4520  0.3880  0.1697
  618TMC3    C2 9152   0.101   0.133  13.856 -0.4805  0.5590 -0.0055
  618TMC3    C3 9153   0.226   0.126  13.796 -0.4192 -0.7726 -0.0454
  618TMC3    C4 9154   0.053   0.307  13.710  0.6360  0.5872 -0.1657
  618TMC3    C5 9155   0.179   0.295  13.652 -0.2074  0.1561  0.4414
  618TMC3    C6 9156   0.271   0.206  13.696  0.8472  0.7027 -0.2251
  618TMC3     C 9157   4.592   0.256  13.861 -0.6535  0.0024 -0.1729
  618TMC3     O 9158   4.549   0.164  13.921 -0.6874 -0.1873  0.1601
  618TMC3     H 9159   0.068   0.066  13.934  0.7705  0.5596  0.5177
  618TMC3    H1 9160   4.704   0.368  13.655 -1.2149 -1.3977  0.0270
  618TMC3    H2 9161   0.366   0.185  13.648  0.3115  0.5021 -1.2056
  618TMC3    C7 9162   0.203   0.351  13.519  0.2187 -0.3729 -0.2025
  618TMC3    C8 9163   0.303   0.003  13.825 -0.4795  0.5235  0.4449
  618TMC3    O1 9164   0.100   0.377  13.457 -0.3015 -0.3351  0.4621
  618TMC3    O2 9165   0.244   4.627  13.875  0.6342 -0.0761  0.2113
  619MPD2     C 9166   1.263   1.217  13.573  0.6070 -0.1306  0.6348
  619MPD2    C1 9167   1.175   1.196  13.468 -0.9659  0.2855 -0.7153
  619MPD2    C2 9168   1.046   1.182  13.502  0.1776  0.2269  0.0328
  619MPD2    C3 9169   1.000   1.196  13.630 -0.3049 -0.0536  0.2599
  619MPD2    C4 9170   1.096   1.223  13.728  0.2418  0.1373  0.3398
  619MPD2    C5 9171   1.224   1.230  13.701  0.1422  0.4741  0.1252
  619MPD2     H 9172   0.965   1.181  13.430  1.6036 -1.9415 -1.5374
  619MPD2    H1 9173   1.064   1.238  13.831 -0.2637 -2.4548  0.5558
  619MPD2    H2 9174   1.371   1.225  13.564  0.3584  1.4020 -0.8211
  619MPD2    H3 9175   1.297   1.251  13.778  0.8874 -4.0379  0.6683
  619MPD2     N 9176   0.857   1.205  13.665 -0.5400 -0.1276 -0.7670
  619MPD2    H5 9177   0.836   1.235  13.760  2.4847  0.6245 -0.3239
  619MPD2    N1 9178   1.212   1.224  13.328 -0.7522  0.0874  0.0052
  619MPD2    H7 9179   1.148   1.199  13.254 -0.7505  0.4137 -0.1045
  620TMC3    C1 9180   1.289   1.393  13.179  0.2941 -0.4341 -0.2547
  620TMC3    C2 9181   1.187   1.368  13.094  0.2862 -0.6112 -0.2411
  620TMC3    C3 9182   1.164   1.447  12.990 -0.1300  1.2427  0.8946
  620TMC3    C4 9183   1.372   1.500  13.148  0.7705 -0.2055 -0.0151
  620TMC3    C5 9184   1.343   1.583  13.048  0.0907  0.2953 -0.2338
  620TMC3    C6 9185   1.245   1.553  12.963 -0.0159  0.2449  0.1972
  620TMC3     C 9186   1.303   1.326  13.308  0.4164 -0.0782 -0.3606
  620TMC3     O 9187   1.374   1.377  13.393 -0.2749 -0.1175  0.1065
  620TMC3     H 9188   1.118   1.288  13.116 -2.3397  2.0546  1.1653
  620TMC3    H1 9189   1.453   1.532  13.213 -0.1062  0.7060  0.6264
  620TMC3    H2 9190   1.217   1.620  12.883 -1.2929 -0.9383 -0.3515
  620TMC3    C7 9191   1.368   1.726  13.077 -0.2223  0.4896 -0.1848
  620TMC3    C8 9192   1.028   1.485  12.984 -0.5655  0.1424  0.3165
  620TMC3    O1 9193   1.475   1.748  13.130 -0.1261  0.0552 -0.0479
  620TMC3    O2 9194   1.003   1.604  12.957 -0.3565 -0.1862  0.1488
  621MPD2     C 9195   2.262   1.737   9.238 -0.2350  0.1871  0.1625
  621MPD2    C1 9196   2.261   1.635   9.334 -0.6606  0.0610  0.2473
  621MPD2    C2 9197   2.331   1.661   9.452 -0.0397  0.1038 -0.3525
  621MPD2    C3 9198   2.397   1.779   9.479 -0.7399  0.4906 -0.1882
  621MPD2    C4 9199   2.399   1.874   9.378  0.2387  0.1762  0.0904
  621MPD2    C5 9200   2.327   1.855   9.261  0.1903  0.5261 -0.4697
  621MPD2     H 9201   2.323   1.587   9.531 -0.8662  2.2650  1.5718
  621MPD2    H1 9202   2.436   1.973   9.401 -1.2846  0.8543 -0.3870
  621MPD2    H2 9203   2.218   1.730   9.139 -1.3416 -1.4912  0.7849
  621MPD2    H3 9204   2.313   1.938   9.193 -0.7817  1.4595  0.8526
  621MPD2     N 9205   2.455   1.799   9.604  0.8049  0.1009  0.7363
  621MPD2    H5 9206   2.446   1.725   9.672  1.2827  2.0569  2.8985
  621MPD2    N1 9207   2.199   1.505   9.324 -0.1275  0.3443  0.2406
  621MPD2    H7 9208   2.226   1.444   9.401  0.8341  1.6224  0.9300
  622TMC3    C1 9209   2.076   1.317   9.255  0.5496 -0.6751  0.6899
  622TMC3    C2 9210   2.052   1.280   9.381  0.4540 -0.2266  0.5640
  622TMC3    C3 9211   2.018   1.146   9.398 -0.9645  0.6026  0.7498
  622TMC3    C4 9212   2.074   1.241   9.144  0.1342  0.5706  0.3669
  622TMC3    C5 9213   2.053   1.116   9.164  0.3604 -0.1420  0.3952
  622TMC3    C6 9214   2.021   1.063   9.290  0.1233  0.6192 -1.3509
  622TMC3     C 9215   2.125   1.454   9.227  0.0207 -0.0412  0.0468
  622TMC3     O 9216   2.086   1.517   9.133 -0.7361 -0.2244 -0.0538
  622TMC3     H 9217   2.039   1.355   9.458 -2.0050  1.6694 -1.6679
  622TMC3    H1 9218   2.105   1.284   9.050 -1.3846 -0.2904 -0.5184
  622TMC3    H2 9219   1.983   0.961   9.292  0.6489  0.4166 -1.9086
  622TMC3    C7 9220   2.049   1.025   9.054  0.7709  0.1579  0.2942
  622TMC3    C8 9221   1.929   1.101   9.507 -0.9944  0.0254 -0.3598
  622TMC3    O1 9222   2.095   0.917   9.072 -0.1942  0.1574 -0.5713
  622TMC3    O2 9223   1.875   0.992   9.508  0.1521 -0.1291  0.1674
  623MPD2     C 9224   0.198   2.139  16.146  0.3616 -0.2433  0.1180
  623MPD2    C1 9225   0.132   2.208  16.244 -0.0331  0.0290 -0.1147
  623MPD2    C2 9226   0.160   2.173  16.382  0.9069 -0.4678 -0.0358
  623MPD2    C3 9227   0.246   2.069  16.410 -0.3315  0.4619  0.2351
  623MPD2    C4 9228   0.313   2.005  16.311  0.4303  0.3416  0.2758
  623MPD2    C5 9229   0.285   2.038  16.180 -0.1893  0.0063 -1.0407
  623MPD2     H 9230   0.103   2.220  16.461  0.4538  1.6443 -1.5819
  623MPD2    H1 9231   0.402   1.944  16.321 -0.5093 -1.2402 -1.1547
  623MPD2    H2 9232   0.178   2.159  16.042  1.1085  1.2486  0.2615
  623MPD2    H3 9233   0.335   1.976  16.106  0.5742  0.7992 -1.1785
  623MPD2     N 9234   0.270   2.048  16.544 -0.0321  0.3111  0.2357
  623MPD2    H5 9235   0.239   2.123  16.605  0.2809 -0.0501  0.8481
  623MPD2    N1 9236   0.045   2.303  16.200 -0.1823 -0.0647 -0.1844
  623MPD2    H7 9237   0.052   2.326  16.102 -0.5195  0.7204 -0.0218
  624TMC3    C1 9238   0.520   2.066  16.842  0.5817 -0.4668  0.4184
  624TMC3    C2 9239   0.441   2.166  16.897  0.0682  0.4512  0.5528
  624TMC3    C3 9240   0.307   2.164  16.863 -1.0134  0.0891  0.5488
  624TMC3    C4 9241   0.464   1.967  16.765 -0.4583  0.3154 -0.6033
  624TMC3    C5 9242   0.330   1.963  16.742  1.1359  0.3224  0.3355
  624TMC3    C6 9243   0.250   2.064  16.790 -0.9457  0.9681  0.3166
  624TMC3     C 9244   0.669   2.084  16.854  0.2845 -0.5955  0.3212
  624TMC3     O 9245   0.690   2.148  16.955  0.2019 -0.2673 -0.6009
  624TMC3     H 9246   0.478   2.249  16.956  1.1409  1.6622 -1.8362
  624TMC3    H1 9247   0.532   1.890  16.731 -0.8510  0.4546 -1.7003
  624TMC3    H2 9248   0.144   2.064  16.769 -0.3686 -0.7084 -2.6463
  624TMC3    C7 9249   0.311   1.931  16.604 -0.2769 -0.7591 -0.4867
  624TMC3    C8 9250   0.240   2.277  16.806  0.0190 -0.4229  0.0207
  624TMC3    O1 9251   0.342   1.822  16.554  0.5745  0.2286 -0.3521
  624TMC3    O2 9252   0.214   2.265  16.688  0.2965  0.3155 -0.2346
  625MPD2     C 9253   0.534   3.615   0.646 -0.0489 -0.2142 -0.5881
  625MPD2    C1 9254   0.569   3.746   0.671 -0.0482 -0.3495  0.1110
  625MPD2    C2 9255   0.701   3.784   0.674  0.2849  0.0885 -0.2265
  625MPD2    C3 9256   0.798   3.688   0.684  0.0866  0.4116  0.2616
  625MPD2    C4 9257   0.764   3.558   0.668 -0.2280 -0.1075 -0.5807
  625MPD2    C5 9258   0.634   3.514   0.647 -0.1705  0.9396  0.5677
  625MPD2     H 9259   0.732   3.887   0.686  1.4985 -0.3823  0.7203
  625MPD2    H1 9260   0.839   3.479   0.668 -0.7402 -0.6002  0.5421
  625MPD2    H2 9261   0.432   3.583   0.629 -0.5682  1.8492 -1.3183
  625MPD2    H3 9262   0.623   3.414   0.608 -0.6268  0.6791  1.3539
  625MPD2     N 9263   0.932   3.731   0.685  0.5783 -0.2050 -0.8711
  625MPD2    H5 9264   0.949   3.829   0.669 -0.6094  0.0621 -0.5375
  625MPD2    N1 9265   0.477   3.852   0.659 -0.4035 -0.1694 -0.2625
  625MPD2    H7 9266   0.512   3.945   0.679 -1.8309 -0.2488  2.6457
  626TMC3    C1 9267   0.286   3.984   0.622 -0.2675  0.6386 -0.8940
  626TMC3    C2 9268   0.195   4.011   0.521  0.9237 -0.0972  0.7194
  626TMC3    C3 9269   0.130   4.130   0.518 -0.0276 -0.4539  0.0773
  626TMC3    C4 9270   0.325   4.073   0.715  0.5074  0.1731  0.5585
  626TMC3    C5 9271   0.258   4.198   0.705 -0.3496 -0.4685 -0.9241
  626TMC3    C6 9272   0.164   4.226   0.609 -0.0288  0.0385  0.3451
  626TMC3     C 9273   0.346   3.845   0.621 -0.2342 -1.2792 -0.9272
  626TMC3     O 9274   0.283   3.747   0.597  0.7343 -0.3764  0.0899
  626TMC3     H 9275   0.169   3.936   0.447 -1.2278  0.9010  0.4582
  626TMC3    H1 9276   0.384   4.045   0.801 -1.9745  0.2768  2.2803
  626TMC3    H2 9277   0.129   4.328   0.598  0.0465  0.1629  1.2686
  626TMC3    C7 9278   0.280   4.306   0.801 -0.5247  0.0407  0.0903
  626TMC3    C8 9279   0.110   4.175   0.376 -0.0411  0.1394 -0.3562
  626TMC3    O1 9280   0.202   4.398   0.802 -0.0287 -0.5316  0.2087
  626TMC3    O2 9281   0.133   4.098   0.286 -0.2613  0.1521 -0.8175
  627MPD2     C 9282   3.582   3.982  14.624  0.5518 -0.2579  0.3562
  627MPD2    C1 9283   3.681   3.906  14.679  0.4585 -0.0659  0.8780
  627MPD2    C2 9284   3.652   3.785  14.740 -0.3992  0.5846  0.1313
  627MPD2    C3 9285   3.517   3.749  14.761  0.0927  0.1317  0.1620
  627MPD2    C4 9286   3.418   3.824  14.697  0.8515 -0.2060  0.7264
  627MPD2    C5 9287   3.453   3.936  14.634 -0.1956  0.7577  0.2508
  627MPD2     H 9288   3.732   3.734  14.792 -1.5705 -0.9216  0.4321
  627MPD2    H1 9289   3.312   3.801  14.701  1.1585 -0.8794  5.1775
  627MPD2    H2 9290   3.605   4.070  14.564 -1.9425 -1.6785 -2.7025
  627MPD2    H3 9291   3.365   3.984  14.593 -1.4250 -1.5905  0.1170
  627MPD2     N 9292   3.485   3.621  14.819  0.7186  0.2971 -0.0320
  627MPD2    H5 9293   3.560   3.563  14.855  1.6104  0.3502 -1.8124
  627MPD2    N1 9294   3.815   3.956  14.651 -0.2211  0.5253 -0.8527
  627MPD2    H7 9295   3.819   4.043  14.599  2.0586  0.2195 -1.1890
  628TMC3    C1 9296   4.060   3.969  14.677  0.2893 -0.1468  0.0626
  628TMC3    C2 9297   4.179   3.898  14.693  0.2499 -0.3799  0.6945
  628TMC3    C3 9298   4.295   3.972  14.680  0.7494  0.1335 -0.7649
  628TMC3    C4 9299   4.053   4.104  14.673  0.4804 -0.4961 -1.2183
  628TMC3    C5 9300   4.172   4.174  14.661 -0.4867 -1.0548 -0.3514
  628TMC3    C6 9301   4.293   4.109  14.661  0.3122 -0.0120 -0.2987
  628TMC3     C 9302   3.934   3.899  14.696 -0.0154 -0.3853  0.9822
  628TMC3     O 9303   3.955   3.784  14.736  0.0403 -0.2849 -0.4142
  628TMC3     H 9304   4.183   3.791  14.712 -0.4031 -0.7138 -1.0487
  628TMC3    H1 9305   3.958   4.155  14.665  0.4274 -0.3965  0.1077
  628TMC3    H2 9306   4.386   4.160  14.641 -0.2982  0.8254 -0.9792
  628TMC3    C7 9307   4.172   4.315  14.674 -0.5914 -0.3555 -0.5641
  628TMC3    C8 9308   4.407   3.907  14.622 -0.1536 -0.2061 -0.3309
  628TMC3    O1 9309   4.281   4.367  14.695 -0.0442  0.1551  0.0804
  628TMC3    O2 9310   4.439   3.943  14.512 -0.0456  0.2068  0.0316
  629MPD2     C 9311   1.891   2.273  16.792  0.1192 -0.3836  0.2943
  629MPD2    C1 9312   1.903   2.257  16.659  0.6996 -0.5515 -1.1986
  629MPD2    C2 9313   1.785   2.241  16.587 -0.2390 -0.2544 -0.0451
  629MPD2    C3 9314   1.658   2.251  16.648  0.5313 -0.2382  0.2784
  629MPD2    C4 9315   1.653   2.271  16.784 -0.0844 -0.0735 -0.1860
  629MPD2    C5 9316   1.772   2.280  16.850  0.1267  0.1091  0.2237
  629MPD2     H 9317   1.792   2.215  16.482  1.2132  0.4060 -0.1150
  629MPD2    H1 9318   1.560   2.303  16.830  0.4045 -0.3715  0.9983
  629MPD2    H2 9319   1.978   2.272  16.857  0.5310 -1.5410 -0.2804
  629MPD2    H3 9320   1.766   2.291  16.958  0.3446 -1.1422  0.3650
  629MPD2     N 9321   1.544   2.221  16.567 -0.0460  0.1660  0.3766
  629MPD2    H5 9322   1.565   2.173  16.480  1.0143 -2.5555  2.1580
  629MPD2    N1 9323   2.033   2.244  16.604  0.5959  0.1450  0.0181
  629MPD2    H7 9324   2.110   2.250  16.669 -0.2949  0.1449  1.0624
  630TMC3    C1 9325   2.201   2.188  16.439  0.2811 -0.7197  1.2039
  630TMC3    C2 9326   2.218   2.192  16.303  0.0279  0.0441  0.0377
  630TMC3    C3 9327   2.348   2.218  16.265  0.5538 -0.1870  0.2334
  630TMC3    C4 9328   2.303   2.193  16.526 -0.2392  0.6881 -0.6180
  630TMC3    C5 9329   2.428   2.208  16.476 -0.5232 -0.6897 -0.6948
  630TMC3    C6 9330   2.452   2.209  16.344 -0.0967  0.0820  0.2337
  630TMC3     C 9331   2.058   2.196  16.476  0.4741 -0.1174 -0.1836
  630TMC3     O 9332   1.980   2.183  16.381 -0.7119 -0.1215 -0.4840
  630TMC3     H 9333   2.138   2.200  16.231 -0.0131 -2.6863 -0.2146
  630TMC3    H1 9334   2.281   2.202  16.632 -2.3247 -1.7496 -0.8348
  630TMC3    H2 9335   2.552   2.206  16.303  0.0965  1.7815  0.5930
  630TMC3    C7 9336   2.513   2.289  16.559 -0.3347 -0.6306  0.1154
  630TMC3    C8 9337   2.363   2.316  16.166  0.2637 -0.3064 -0.4323
  630TMC3    O1 9338   2.496   2.279  16.682 -0.3887  0.5227  0.6792
  630TMC3    O2 9339   2.455   2.393  16.190 -1.2247  0.6070  0.6810
  631MPD2     C 9340   0.478   1.939  15.024 -0.3726  0.7149  0.1282
  631MPD2    C1 9341   0.477   1.960  15.161 -0.0891 -0.4711 -0.5000
  631MPD2    C2 9342   0.529   1.858  15.239 -0.3164 -0.1743  0.3919
  631MPD2    C3 9343   0.575   1.740  15.193  0.0786  0.9114  0.4838
  631MPD2    C4 9344   0.572   1.718  15.056 -0.0598  0.5438 -0.6509
  631MPD2    C5 9345   0.514   1.816  14.973 -0.3877  0.4685  0.2511
  631MPD2     H 9346   0.527   1.880  15.346  1.0388 -1.0749  0.6006
  631MPD2    H1 9347   0.619   1.631  15.012  0.5132  0.2251  0.5929
  631MPD2    H2 9348   0.447   2.013  14.951 -1.8565  1.6329  1.7027
  631MPD2    H3 9349   0.507   1.796  14.867 -3.1737  1.8217  0.1636
  631MPD2     N 9350   0.643   1.646  15.277 -0.1191 -0.0861 -0.5117
  631MPD2    H5 9351   0.692   1.569  15.232 -2.6025 -1.1829 -1.3360
  631MPD2    N1 9352   0.442   2.085  15.203  1.3762  0.6098  0.0192
  631MPD2    H7 9353   0.424   2.157  15.134 -0.6460  0.1879  0.0803
  632TMC3    C1 9354   0.397   2.265  15.356 -0.4364  0.2231 -0.2257
  632TMC3    C2 9355   0.396   2.303  15.489  0.3812  0.5027 -0.0845
  632TMC3    C3 9356   0.446   2.431  15.517  0.1677 -0.3911 -0.7437
  632TMC3    C4 9357   0.427   2.358  15.256 -0.1268  1.0098 -0.6705
  632TMC3    C5 9358   0.466   2.486  15.293  0.3533 -0.0011  0.6153
  632TMC3    C6 9359   0.468   2.533  15.423  0.2145  0.0537  0.0369
  632TMC3     C 9360   0.434   2.125  15.334  0.0193 -0.1799 -0.5682
  632TMC3     O 9361   0.452   2.057  15.434 -0.0304 -0.1603  0.3275
  632TMC3     H 9362   0.347   2.235  15.558 -0.0855 -0.5795 -1.4822
  632TMC3    H1 9363   0.429   2.324  15.153  1.4425 -2.4982  0.5312
  632TMC3    H2 9364   0.477   2.635  15.460  1.9462 -0.5977  1.4129
  632TMC3    C7 9365   0.508   2.577  15.188  0.3729 -0.4454 -0.2080
  632TMC3    C8 9366   0.429   2.475  15.649  0.0342  0.5091  0.3515
  632TMC3    O1 9367   0.513   2.538  15.073  0.3314  0.3538  0.2613
  632TMC3    O2 9368   0.389   2.591  15.658 -0.1404 -0.5682  0.1844
  633MPD2     C 9369   0.244   0.640  17.333  0.8253  0.0255  0.3392
  633MPD2    C1 9370   0.285   0.583  17.216 -0.0803  0.4378  0.2639
  633MPD2    C2 9371   0.287   0.447  17.201  0.0554 -0.5452  0.0540
  633MPD2    C3 9372   0.237   0.366  17.302 -0.0310  0.4391  0.0430
  633MPD2    C4 9373   0.186   0.423  17.415  0.7315 -0.4232  0.0175
  633MPD2    C5 9374   0.201   0.561  17.434 -0.4570 -0.5094  0.4192
  633MPD2     H 9375   0.322   0.412  17.105  0.5568 -0.3325  0.1620
  633MPD2    H1 9376   0.137   0.358  17.486 -0.3228  2.7163  2.1991
  633MPD2    H2 9377   0.253   0.747  17.347 -0.1553  0.1229  0.2257
  633MPD2    H3 9378   0.188   0.606  17.532  2.2071  2.8175 -0.7443
  633MPD2     N 9379   0.235   0.223  17.291 -0.0154 -0.3764  0.6047
  633MPD2    H5 9380   0.195   0.166  17.365 -0.0239  0.8499  1.5452
  633MPD2    N1 9381   0.354   0.661  17.121  0.5941  0.2027 -0.2794
  633MPD2    H7 9382   0.380   0.606  17.039 -0.6551 -1.7244  0.6174
  634TMC3    C1 9383   0.429   0.831  16.984 -0.3365 -0.1612 -0.0100
  634TMC3    C2 9384   0.490   0.738  16.914 -0.2308 -0.2909 -0.5104
  634TMC3    C3 9385   0.498   0.760  16.776  0.6978 -0.3530 -0.2453
  634TMC3    C4 9386   0.398   0.955  16.936  0.1732 -0.6729  0.1534
  634TMC3    C5 9387   0.412   0.977  16.804 -0.1005  0.9840  0.1856
  634TMC3    C6 9388   0.453   0.877  16.720  0.8336 -0.0351 -0.2088
  634TMC3     C 9389   0.385   0.797  17.119 -0.0052 -1.0649 -0.1151
  634TMC3     O 9390   0.370   0.888  17.199  0.9226  0.2555  0.2226
  634TMC3     H 9391   0.538   0.655  16.966 -0.7267  0.3567  0.9844
  634TMC3    H1 9392   0.374   1.030  17.010  1.6128 -1.6738  1.6375
  634TMC3    H2 9393   0.462   0.902  16.615 -0.2886  2.0114  0.1921
  634TMC3    C7 9394   0.385   1.105  16.742  0.5892  0.2462  0.1883
  634TMC3    C8 9395   0.541   0.647  16.693  0.7476 -0.5906  0.4958
  634TMC3    O1 9396   0.427   1.109  16.622  0.7165 -0.2465  0.0724
  634TMC3    O2 9397   0.583   0.547  16.752 -0.5684 -0.2100 -0.1422
  635TMC3    C1 9398   1.341   1.716  17.130 -0.0029 -0.1888 -0.1721
  635TMC3    C2 9399   1.410   1.734  17.016  0.2366 -0.1903 -1.4709
  635TMC3    C3 9400   1.378   1.652  16.910  0.2395 -0.4907  0.1530
  635TMC3    C4 9401   1.239   1.625  17.135  0.1521 -0.1509 -0.4474
  635TMC3    C5 9402   1.199   1.560  17.022  0.3045  0.0706 -0.7831
  635TMC3    C6 9403   1.272   1.572  16.911  0.6826  0.4317  0.5929
  635TMC3     C 9404   1.349   1.811  17.237  0.4184  1.2825 -0.0483
  635TMC3     O 9405   1.243   1.837  17.293  0.0876 -0.0203 -0.1838
  635TMC3     H 9406   1.476   1.820  17.007  0.2426 -0.0543 -0.0764
  635TMC3    H1 9407   1.195   1.599  17.231  0.1324  3.1957  0.4373
  635TMC3    H2 9408   1.239   1.518  16.823 -0.4273  2.6006 -0.3299
  635TMC3    C7 9409   1.106   1.446  17.030 -0.1469 -0.4190  0.1133
  635TMC3    C8 9410   1.425   1.689  16.776  0.1495 -0.1282  0.0879
  635TMC3    O1 9411   1.123   1.347  16.959 -0.3225  0.1381 -0.2299
  635TMC3    O2 9412   1.365   1.642  16.685 -0.6207  0.0176  0.3641
  636MPD2     C 9413   1.667   0.667  15.636  0.1223 -0.7363  0.3547
  636MPD2    C1 9414   1.656   0.726  15.762 -0.1714  0.8465 -0.0024
  636MPD2    C2 9415   1.693   0.651  15.865 -0.9221 -0.2717 -0.0570
  636MPD2    C3 9416   1.738   0.519  15.851 -0.8672 -0.4646  0.4336
  636MPD2    C4 9417   1.745   0.462  15.724 -0.1739  0.0291  0.1755
  636MPD2    C5 9418   1.712   0.540  15.621 -0.2195  0.6239  0.5247
  636MPD2     H 9419   1.674   0.685  15.965 -0.5162 -1.1083  0.3106
  636MPD2    H1 9420   1.768   0.358  15.702 -1.4219 -0.2753  0.3136
  636MPD2    H2 9421   1.658   0.733  15.551  2.4699 -0.9809 -0.0778
  636MPD2    H3 9422   1.716   0.490  15.525 -2.0208  0.3481  0.5865
  636MPD2     N 9423   1.761   0.446  15.970  0.2402  0.3613 -1.0635
  636MPD2    H5 9424   1.762   0.498  16.057  1.2426  0.4276 -1.1253
  636MPD2    N1 9425   1.604   0.857  15.792  0.2029 -0.4289 -0.2803
  636MPD2    H7 9426   1.589   0.887  15.887 -1.6388  0.8535 -0.9629
  637TMC3    C1 9427   1.772   0.280  16.121  0.2191 -0.4434 -0.1335
  637TMC3    C2 9428   1.721   0.386  16.194 -0.1454 -0.7605 -0.0491
  637TMC3    C3 9429   1.796   0.444  16.290 -0.4565 -0.2461  0.2742
  637TMC3    C4 9430   1.899   0.235  16.141 -0.1374  0.3159 -0.0785
  637TMC3    C5 9431   1.975   0.299  16.236  0.6751  0.2901 -0.1949
  637TMC3    C6 9432   1.916   0.388  16.327 -0.7831  0.6901  0.1017
  637TMC3     C 9433   1.758   0.307  15.980 -0.1533 -0.3659  0.4118
  637TMC3     O 9434   1.765   0.218  15.899  0.0749  0.3206  0.2372
  637TMC3     H 9435   1.620   0.419  16.171 -0.4630 -1.1792  0.7361
  637TMC3    H1 9436   1.944   0.173  16.063  1.3070 -1.3426  2.0870
  637TMC3    H2 9437   1.985   0.435  16.396  1.4698  0.3714 -1.9298
  637TMC3    C7 9438   2.098   0.367  16.191 -0.4786  0.2925 -0.5271
  637TMC3    C8 9439   1.786   0.586  16.288 -1.1036 -0.5074  0.1476
  637TMC3    O1 9440   2.121   0.472  16.243  0.3838 -0.3613  0.5760
  637TMC3    O2 9441   1.708   0.624  16.203  0.4819  0.1582  0.1797
  638MPD2     C 9442   1.576   4.447  14.902 -0.1604 -0.1434 -0.5856
  638MPD2    C1 9443   1.600   4.328  14.835 -0.2502 -0.0670 -0.6102
  638MPD2    C2 9444   1.565   4.210  14.900  0.2709  0.0092 -0.0342
  638MPD2    C3 9445   1.497   4.202  15.017  0.0713 -0.6660 -0.3688
  638MPD2    C4 9446   1.457   4.322  15.068 -0.4753 -0.5672  0.1901
  638MPD2    C5 9447   1.494   4.443  15.013  0.0040  0.1584 -0.9830
  638MPD2     H 9448   1.582   4.114  14.852  2.1099  0.1025  0.4304
  638MPD2    H1 9449   1.398   4.336  15.158  2.2743  0.2407  1.8458
  638MPD2    H2 9450   1.610   4.547  14.877 -2.2825  0.3684 -1.4423
  638MPD2    H3 9451   1.458   4.531  15.065  0.6136 -1.4152  2.1336
  638MPD2     N 9452   1.469   4.078  15.078  0.2051  0.5418 -0.1145
  638MPD2    H5 9453   1.516   3.999  15.035  1.3102  0.9093  0.4038
  638MPD2    N1 9454   1.682   4.327  14.724 -0.3398  0.4782 -0.0234
  638MPD2    H7 9455   1.741   4.408  14.710  0.4081 -0.6351 -3.2059
  639TMC3    C1 9456   1.397   3.917  15.210  0.3900 -0.6177  0.1715
  639TMC3    C2 9457   1.284   3.837  15.212 -0.4327  0.7938  0.3234
  639TMC3    C3 9458   1.301   3.700  15.198  0.2542 -0.1397 -0.0120
  639TMC3    C4 9459   1.523   3.867  15.210 -0.1000  0.3087  0.4880
  639TMC3    C5 9460   1.539   3.731  15.190 -0.1065  0.4277  0.3657
  639TMC3    C6 9461   1.429   3.646  15.192  0.2693  0.0229 -0.0330
  639TMC3     C 9462   1.388   4.056  15.187 -0.1631 -0.2191  0.6511
  639TMC3     O 9463   1.310   4.126  15.252 -0.4405 -0.1494  0.5512
  639TMC3     H 9464   1.185   3.880  15.203 -0.7065  0.3305  1.0958
  639TMC3    H1 9465   1.608   3.932  15.223  1.2045 -1.4197  0.4997
  639TMC3    H2 9466   1.436   3.538  15.180 -0.4730  0.0166 -0.4398
  639TMC3    C7 9467   1.662   3.671  15.210  0.3386 -0.7338  0.1573
  639TMC3    C8 9468   1.217   3.638  15.096  0.0666 -0.3167  0.6204
  639TMC3    O1 9469   1.671   3.555  15.245 -0.0091 -0.0677 -1.0064
  639TMC3    O2 9470   1.280   3.607  14.994 -0.3962  0.2596 -0.4422
  640MPD2     C 9471   2.311   2.270   8.955  0.2146 -0.0734  0.2808
  640MPD2    C1 9472   2.354   2.252   9.087  0.5632  0.2246 -0.1803
  640MPD2    C2 9473   2.275   2.290   9.199  0.6643  0.7239  1.1850
  640MPD2    C3 9474   2.154   2.358   9.176 -0.1772  0.6962  0.1294
  640MPD2    C4 9475   2.120   2.392   9.047  0.4408  0.1913  0.1776
  640MPD2    C5 9476   2.200   2.347   8.942 -0.5199 -0.0774  0.4836
  640MPD2     H 9477   2.306   2.267   9.300 -1.4245 -0.0527  1.6551
  640MPD2    H1 9478   2.039   2.461   9.026 -0.7755 -1.2212  0.2054
  640MPD2    H2 9479   2.373   2.252   8.869 -0.4655 -1.1131  0.0065
  640MPD2    H3 9480   2.189   2.398   8.847  0.3660  1.4620  1.1922
  640MPD2     N 9481   2.064   2.396   9.280  0.2456  0.3142  0.2611
  640MPD2    H5 9482   1.975   2.426   9.243  0.0927 -1.1062 -0.5226
  640MPD2    N1 9483   2.483   2.200   9.100 -0.2119  0.4694  0.7219
  640MPD2    H7 9484   2.534   2.175   9.016 -1.6992 -0.1643  0.0152
  641TMC3    C1 9485   2.683   2.140   9.184  0.0032 -0.1404  0.4590
  641TMC3    C2 9486   2.734   2.046   9.271 -1.0176 -1.1640  0.6887
  641TMC3    C3 9487   2.837   1.969   9.221 -0.4912  0.4306  0.2377
  641TMC3    C4 9488   2.736   2.162   9.065 -0.1326 -0.0822 -0.3008
  641TMC3    C5 9489   2.840   2.087   9.021 -0.4631 -0.2798  0.0173
  641TMC3    C6 9490   2.887   1.980   9.088 -0.0641  0.0318  0.0855
  641TMC3     C 9491   2.555   2.193   9.218 -0.5850 -0.4728 -0.4732
  641TMC3     O 9492   2.523   2.191   9.333 -0.0639  0.0184  0.1698
  641TMC3     H 9493   2.690   2.029   9.368 -1.2236  0.7526  0.9337
  641TMC3    H1 9494   2.696   2.245   9.009  0.1514  0.7615  0.7599
  641TMC3    H2 9495   2.984   1.934   9.068 -0.2889 -1.2331  1.8938
  641TMC3    C7 9496   2.871   2.095   8.882 -0.6884  0.1944  0.0509
  641TMC3    C8 9497   2.869   1.848   9.286  0.2124 -0.4194  0.1858
  641TMC3    O1 9498   2.829   2.200   8.832  0.3924  0.4439  0.0402
  641TMC3    O2 9499   2.937   1.766   9.223  0.0585  0.4274 -0.3835
  642TMC3    C1 9500   3.465   4.279  11.877 -0.7298  0.4286 -0.1857
  642TMC3    C2 9501   3.516   4.269  12.003 -0.0786 -0.0169  0.1353
  642TMC3    C3 9502   3.599   4.163  12.034 -1.1814 -0.0201  0.1080
  642TMC3    C4 9503   3.498   4.189  11.780 -0.1504 -0.1540  0.1834
  642TMC3    C5 9504   3.587   4.091  11.810 -0.0370  0.1785  0.0372
  642TMC3    C6 9505   3.638   4.083  11.936  0.5835 -0.2796  0.4353
  642TMC3     C 9506   3.386   4.390  11.845  0.5474  0.0429 -0.3064
  642TMC3     O 9507   3.388   4.429  11.730 -0.3042  0.3031 -0.8841
  642TMC3     H 9508   3.505   4.341  12.084 -1.4799 -2.3755  2.0708
  642TMC3    H1 9509   3.454   4.190  11.681 -0.7044  0.7441  0.4361
  642TMC3    H2 9510   3.717   4.015  11.965  0.3138 -1.1967 -0.9756
  642TMC3    C7 9511   3.559   3.967  11.735 -0.6361 -0.3105 -0.5535
  642TMC3    C8 9512   3.643   4.147  12.176  0.2687  0.2244 -0.1308
  642TMC3    O1 9513   3.484   3.970  11.641  0.0146  0.2950 -0.1264
  642TMC3    O2 9514   3.755   4.105  12.196 -0.0459  0.6649  0.1139
  643TMC3    C1 9515   2.419   3.551   0.615 -0.2103  0.3143 -0.2953
  643TMC3    C2 9516   2.302   3.530   0.538  0.3644 -0.3213  0.4516
  643TMC3    C3 9517   2.305   3.537   0.403  0.0467  0.1566  0.1480
  643TMC3    C4 9518   2.537   3.556   0.553  0.0207  0.2884 -0.0864
  643TMC3    C5 9519   2.537   3.571   0.408  0.9376  0.4827 -0.4239
  643TMC3    C6 9520   2.420   3.568   0.337  0.4283  0.5603  0.1094
  643TMC3     C 9521   2.400   3.601   0.754  0.7221 -0.3636  0.4476
  643TMC3     O 9522   2.287   3.647   0.760 -0.1141  0.0625  0.0553
  643TMC3     H 9523   2.209   3.511   0.590 -1.0486  2.6567 -0.9814
  643TMC3    H1 9524   2.630   3.556   0.609  0.1365 -0.7383 -0.2740
  643TMC3    H2 9525   2.423   3.545   0.231  0.3238  1.9758 -0.2002
  643TMC3    C7 9526   2.667   3.554   0.337  0.4812 -0.2762  0.1659
  643TMC3    C8 9527   2.192   3.606   0.348  0.5706  0.5324 -0.5567
  643TMC3    O1 9528   2.752   3.481   0.376  0.5330  0.0195 -0.2769
  643TMC3    O2 9529   2.080   3.589   0.392  0.1253 -0.0373 -0.3478
  644MPD2     C 9530   2.388   2.574   8.639 -0.1652 -0.5669 -0.4490
  644MPD2    C1 9531   2.479   2.538   8.735 -0.0046 -0.8694  0.6019
  644MPD2    C2 9532   2.561   2.427   8.720  0.5356 -0.2284 -0.8256
  644MPD2    C3 9533   2.552   2.352   8.603  0.3664  0.4330 -0.0073
  644MPD2    C4 9534   2.463   2.391   8.501  0.0733 -0.0755  0.4806
  644MPD2    C5 9535   2.372   2.496   8.526 -0.3427  0.0465  0.1759
  644MPD2     H 9536   2.634   2.395   8.793  0.8963  0.0329 -1.0774
  644MPD2    H1 9537   2.452   2.336   8.408 -1.1803 -0.2000  0.6941
  644MPD2    H2 9538   2.328   2.664   8.640  1.3488  0.4457 -0.6340
  644MPD2    H3 9539   2.307   2.525   8.445  0.0117 -0.2052 -0.1957
  644MPD2     N 9540   2.630   2.233   8.602 -0.0065 -0.5230  0.4580
  644MPD2    H5 9541   2.665   2.202   8.693  0.4367 -1.0544  0.1097
  644MPD2    N1 9542   2.473   2.610   8.859 -0.6958  0.2491  0.0148
  644MPD2    H7 9543   2.393   2.672   8.874  0.4586  2.0536 -1.3133
  645TMC3    C1 9544   2.689   2.020   8.538 -0.3599  0.0751  0.0189
  645TMC3    C2 9545   2.746   1.929   8.446 -0.8828  0.2476 -0.1248
  645TMC3    C3 9546   2.791   1.810   8.496 -0.1599  0.7481 -1.0157
  645TMC3    C4 9547   2.659   1.985   8.665 -0.1317  1.0668  0.1300
  645TMC3    C5 9548   2.677   1.854   8.694 -0.2159  0.9921  0.0742
  645TMC3    C6 9549   2.744   1.762   8.619 -0.1226 -0.7854 -0.5410
  645TMC3     C 9550   2.650   2.155   8.491  0.2739 -0.9950  0.2780
  645TMC3     O 9551   2.658   2.188   8.374 -0.2419  0.8230  0.0750
  645TMC3     H 9552   2.780   1.970   8.352  1.6054 -1.3974  0.0638
  645TMC3    H1 9553   2.597   2.044   8.730  0.0628  0.3532  0.9669
  645TMC3    H2 9554   2.723   1.657   8.632  0.9721 -1.1084 -1.3842
  645TMC3    C7 9555   2.641   1.818   8.832  0.0059  0.0723  0.4135
  645TMC3    C8 9556   2.831   1.708   8.401  0.1095 -0.1151  0.4080
  645TMC3    O1 9557   2.583   1.898   8.897 -0.1095  0.0470  0.1290
  645TMC3    O2 9558   2.802   1.729   8.282  0.1384  0.2028  0.0874
  646MPD2     C 9559   1.558   2.881  14.468 -0.0282 -0.0761  0.2058
  646MPD2    C1 9560   1.486   2.911  14.579 -0.2966 -0.0710  0.7160
  646MPD2    C2 9561   1.384   3.007  14.570 -0.5486 -0.0502  0.1630
  646MPD2    C3 9562   1.356   3.065  14.448 -0.1920  0.4882  0.2877
  646MPD2    C4 9563   1.420   3.018  14.336 -0.0320  0.5349 -0.2544
  646MPD2    C5 9564   1.527   2.930  14.344  0.1049 -0.4170  0.4169
  646MPD2     H 9565   1.327   3.030  14.659 -1.2408 -1.3198  0.0536
  646MPD2    H1 9566   1.397   3.053  14.235 -0.4120  2.2015  0.4049
  646MPD2    H2 9567   1.641   2.811  14.472  1.1169  1.1729 -1.6868
  646MPD2    H3 9568   1.584   2.900  14.256 -0.5512 -1.8092  0.4719
  646MPD2     N 9569   1.255   3.166  14.435 -0.1244 -0.2042  0.4103
  646MPD2    H5 9570   1.197   3.188  14.515 -0.2102  0.1479  0.2495
  646MPD2    N1 9571   1.527   2.858  14.705  0.3254 -0.1955  0.1381
  646MPD2    H7 9572   1.599   2.788  14.717 -0.5725 -0.9966  0.8958
  647TMC3    C1 9573   1.539   2.816  14.937 -0.8403  0.2964 -0.0374
  647TMC3    C2 9574   1.468   2.778  15.049 -0.0290  0.1525  0.2806
  647TMC3    C3 9575   1.526   2.700  15.147  0.0047 -0.0597  0.4775
  647TMC3    C4 9576   1.677   2.818  14.929  0.5045  0.0654 -0.4318
  647TMC3    C5 9577   1.730   2.761  15.036  0.2446 -0.5327  0.1573
  647TMC3    C6 9578   1.664   2.690  15.138 -0.0380  0.8512  0.6850
  647TMC3     C 9579   1.465   2.880  14.827  0.1760  0.1923 -0.4022
  647TMC3     O 9580   1.365   2.942  14.856  0.4520  0.1394  0.0514
  647TMC3     H 9581   1.360   2.784  15.040 -0.1532 -1.8551  0.4614
  647TMC3    H1 9582   1.727   2.859  14.842  1.0805 -0.8546 -0.5313
  647TMC3    H2 9583   1.725   2.636  15.210  0.9733 -0.5217 -1.2026
  647TMC3    C7 9584   1.875   2.735  15.043  0.1666  0.1086 -0.0536
  647TMC3    C8 9585   1.447   2.618  15.243  0.3917  0.6230 -0.7071
  647TMC3    O1 9586   1.919   2.629  15.086  0.1328 -0.3522  0.5404
  647TMC3    O2 9587   1.332   2.649  15.263 -0.2630 -0.5835  0.6982
  648TMC3    C1 9588   0.966   0.723  16.151 -0.5594  0.2068 -0.9266
  648TMC3    C2 9589   1.050   0.633  16.110 -0.5881  0.1979  0.0106
  648TMC3    C3 9590   1.038   0.603  15.972 -0.0462 -0.7835  0.9838
  648TMC3    C4 9591   0.885   0.791  16.063 -0.4266  0.0179  0.3159
  648TMC3    C5 9592   0.898   0.768  15.928 -0.0773  0.4321 -0.0489
  648TMC3    C6 9593   0.969   0.670  15.877 -0.0758 -0.1606 -0.0046
  648TMC3     C 9594   0.961   0.774  16.291  0.1670  0.2155 -0.4767
  648TMC3     O 9595   0.903   0.882  16.299 -0.0708 -0.2114  0.1775
  648TMC3     H 9596   1.100   0.570  16.184  1.9221  0.4408 -1.4828
  648TMC3    H1 9597   0.810   0.860  16.098 -1.1263 -2.0584  2.8969
  648TMC3    H2 9598   0.958   0.633  15.776  1.2420 -0.4646 -0.0335
  648TMC3    C7 9599   0.788   0.809  15.838 -0.6312 -0.2573 -0.0470
  648TMC3    C8 9600   1.108   0.492  15.917  0.3260  0.3959  0.4244
  648TMC3    O1 9601   0.772   0.749  15.733 -0.1156  0.0801 -0.8320
  648TMC3    O2 9602   1.083   0.460  15.803 -0.6608  0.2682 -0.7347
  649TMC3    C1 9603   4.246   1.670  12.763  0.0898 -0.0007 -0.0536
  649TMC3    C2 9604   4.358   1.687  12.684 -0.9505  0.0896  0.4065
  649TMC3    C3 9605   4.482   1.651  12.734 -0.9975 -0.2753  0.0296
  649TMC3    C4 9606   4.254   1.620  12.887  0.1550  0.4726 -0.1021
  649TMC3    C5 9607   4.380   1.590  12.931 -0.4701  0.8343 -0.1914
  649TMC3    C6 9608   4.500   1.596  12.861 -0.1123 -0.6383  0.1952
  649TMC3     C 9609   4.120   1.737  12.737 -0.2461 -0.5436 -0.8555
  649TMC3     O 9610   4.045   1.760  12.830  0.9549  0.0023  0.1430
  649TMC3     H 9611   4.362   1.737  12.587 -2.1381 -1.5947 -0.5131
  649TMC3    H1 9612   4.167   1.606  12.949 -0.1037 -1.5250 -0.9021
  649TMC3    H2 9613   4.599   1.589  12.905 -1.6063  0.9770  3.8533
  649TMC3    C7 9614   4.400   1.548  13.067  1.0616  0.5964  0.2645
  649TMC3    C8 9615   4.607   1.688  12.666  0.4221 -0.9508 -0.3261
  649TMC3    O1 9616   4.321   1.604  13.140  0.1636 -0.1614 -0.3552
  649TMC3    O2 9617   4.696   1.619  12.706 -0.4749  0.1222 -0.2753
  650TMC3    C1 9618   2.589   3.496  12.495  0.4679  0.1095 -0.1936
  650TMC3    C2 9619   2.602   3.637  12.499  0.3230  0.2102  0.0112
  650TMC3    C3 9620   2.537   3.717  12.409 -0.4442  0.0567 -0.0081
  650TMC3    C4 9621   2.501   3.449  12.401  0.0135  0.0606  0.4755
  650TMC3    C5 9622   2.451   3.529  12.298  0.7296 -0.1914  0.2671
  650TMC3    C6 9623   2.476   3.662  12.300 -0.6342 -0.3434  0.8276
  650TMC3     C 9624   2.661   3.425  12.594  0.6859 -0.0547 -0.0885
  650TMC3     O 9625   2.723   3.488  12.678  1.1447 -0.1778  0.0151
  650TMC3     H 9626   2.666   3.677  12.576  1.1294  1.6375 -1.3936
  650TMC3    H1 9627   2.474   3.344  12.392  0.6032 -0.0195 -0.3660
  650TMC3    H2 9628   2.421   3.726  12.232  0.2433  1.2231  1.5984
  650TMC3    C7 9629   2.383   3.466  12.186 -0.5076 -0.2108 -0.4229
  650TMC3    C8 9630   2.537   3.859  12.434 -0.2300  0.1313  0.5582
  650TMC3    O1 9631   2.361   3.347  12.189  0.2331 -0.2791  0.6358
  650TMC3    O2 9632   2.557   3.938  12.342  0.1591 -0.1237 -0.6046
  651MPD2     C 9633   1.643   4.535  10.535  0.0043 -0.5301  0.6419
  651MPD2    C1 9634   1.610   4.665  10.503 -0.1352 -0.3734  0.1977
  651MPD2    C2 9635   1.703   0.027  10.434 -0.7414  0.4208 -0.3354
  651MPD2    C3 9636   1.824   4.698  10.393 -0.3392  1.3597  0.3599
  651MPD2    C4 9637   1.857   4.568  10.425 -0.5881  0.3056 -0.2600
  651MPD2    C5 9638   1.764   4.488  10.485 -0.2627 -0.1976 -0.3148
  651MPD2     H 9639   1.673   0.131  10.428 -0.4266  0.5759  0.6569
  651MPD2    H1 9640   1.949   4.520  10.392  0.1869  2.2477 -0.9054
  651MPD2    H2 9641   1.579   4.470  10.592 -0.0923 -0.2829  0.8155
  651MPD2    H3 9642   1.807   4.395  10.522  1.4738  0.9054  0.4686
  651MPD2     N 9643   1.909   0.056  10.309 -0.0098  0.1071 -0.8920
  651MPD2    H5 9644   1.866   0.140  10.271 -0.3273 -0.6045 -2.1099
  651MPD2    N1 9645   1.483   4.722  10.534 -0.0031 -0.1095 -0.4774
  651MPD2    H7 9646   1.477   0.100  10.533 -0.8549 -0.1456  1.6565
  652TMC3    C1 9647   2.292   0.274  10.188  0.7603  0.1444  0.1099
  652TMC3    C2 9648   2.229   0.155  10.221 -0.6356 -0.0353  0.0746
  652TMC3    C3 9649   2.094   0.144  10.204 -0.3197 -0.4086  0.0467
  652TMC3    C4 9650   2.220   0.382  10.135  0.2214  0.0513 -0.4728
  652TMC3    C5 9651   2.081   0.363  10.112  0.5598 -0.3403  0.0620
  652TMC3    C6 9652   2.025   0.245  10.148  0.6577  0.3498  0.4501
  652TMC3     C 9653   2.426   0.298  10.236 -0.0092  0.2365 -0.0333
  652TMC3     O 9654   2.469   0.211  10.309 -0.5795  0.2048  0.0696
  652TMC3     H 9655   2.275   0.078  10.282  0.0606  0.2232 -0.1239
  652TMC3    H1 9656   2.265   0.476  10.105  2.2341 -0.4106  1.1117
  652TMC3    H2 9657   1.919   0.225  10.133  0.1623  2.2378  1.4333
  652TMC3    C7 9658   1.992   0.476  10.085  0.2212 -0.3002 -0.0590
  652TMC3    C8 9659   2.042   0.029  10.278  0.0312 -1.3746 -0.4791
  652TMC3    O1 9660   1.889   0.446  10.032 -0.9629  0.0927  0.1557
  652TMC3    O2 9661   2.121   4.660  10.307 -0.6473  0.5337 -0.2332
  653MPD2     C 9662   0.065   0.927   0.069  0.2176  0.0488  0.0665
  653MPD2    C1 9663   0.012   1.018  17.672  0.9030 -0.5937 -0.0664
  653MPD2    C2 9664   4.686   0.974  17.553 -0.7005 -0.1438 -0.1888
  653MPD2    C3 9665   4.663   0.841  17.532 -0.0126  0.3035 -0.2704
  653MPD2    C4 9666   4.707   0.751  17.625  0.2862  0.4047 -0.4309
  653MPD2    C5 9667   0.046   0.796   0.044  0.1949 -0.0077 -0.2630
  653MPD2     H 9668   4.652   1.044  17.478 -0.5814  0.5639  0.4104
  653MPD2    H1 9669   4.698   0.646  17.602  1.7132  0.1550  0.1486
  653MPD2    H2 9670   0.114   0.950   0.163 -1.2208  0.0608  0.8099
  653MPD2    H3 9671   0.108   0.736   0.109 -0.6380 -0.5796  0.0003
  653MPD2     N 9672   4.598   0.807  17.409 -0.6482 -0.1095  0.0464
  653MPD2    H5 9673   4.590   0.887  17.347 -1.6374 -0.7993 -0.7207
  653MPD2    N1 9674   0.015   1.155   0.007  0.0045 -0.5013 -0.3270
  653MPD2    H7 9675   4.666   1.206  17.648  0.6255 -0.4714 -1.1729
  654TMC3    C1 9676   4.542   0.682  17.214  0.6844 -0.4474  0.0770
  654TMC3    C2 9677   4.457   0.773  17.155 -0.3563  0.2814  0.0228
  654TMC3    C3 9678   4.432   0.760  17.027 -0.0848 -0.0273  0.5594
  654TMC3    C4 9679   4.598   0.575  17.142 -1.1355  0.5590 -0.1450
  654TMC3    C5 9680   4.560   0.562  17.016 -0.1189  0.1953 -0.7800
  654TMC3    C6 9681   4.487   0.658  16.950  0.0086  0.5123  0.1369
  654TMC3     C 9682   4.571   0.686  17.357  0.2850  0.1450 -0.3819
  654TMC3     O 9683   4.585   0.573  17.405 -0.7781  0.4395  0.2801
  654TMC3     H 9684   4.405   0.856  17.202 -2.4490  0.7126 -3.0868
  654TMC3    H1 9685   4.682   0.514  17.172  0.3688  2.2460 -0.9119
  654TMC3    H2 9686   4.452   0.653  16.847 -0.7835 -3.2373  0.5967
  654TMC3    C7 9687   4.633   0.478  16.927  0.5654  0.3321 -0.6657
  654TMC3    C8 9688   4.351   0.857  16.957 -0.2771  0.5221  0.6733
  654TMC3    O1 9689   4.668   0.522  16.818  0.1327  0.2526  0.4851
  654TMC3    O2 9690   4.270   0.918  17.027 -0.2050  0.0643  0.6460
  655MPD2     C 9691   1.262   0.683  15.640  0.0739  1.3860 -0.2432
  655MPD2    C1 9692   1.154   0.739  15.577 -0.1878  0.3247  0.7037
  655MPD2    C2 9693   1.126   0.706  15.448 -0.5582  0.0317  1.0543
  655MPD2    C3 9694   1.209   0.615  15.381 -0.5945 -0.2359 -0.5154
  655MPD2    C4 9695   1.308   0.554  15.446 -0.0888 -0.3145 -0.1394
  655MPD2    C5 9696   1.334   0.592  15.570 -0.5167 -0.2274  0.0736
  655MPD2     H 9697   1.051   0.765  15.396  0.0428  0.1024  0.2718
  655MPD2    H1 9698   1.354   0.465  15.402  0.2562  0.5649 -1.5633
  655MPD2    H2 9699   1.292   0.720  15.737  2.0513 -2.2197  0.5378
  655MPD2    H3 9700   1.411   0.541  15.626 -0.9157 -2.1090 -1.0964
  655MPD2     N 9701   1.198   0.577  15.251 -0.4131 -0.1819 -1.0104
  655MPD2    H5 9702   1.263   0.513  15.208 -0.3676 -0.0393 -1.1529
  655MPD2    N1 9703   1.080   0.855  15.626  0.1974 -1.0245 -0.2318
  655MPD2    H7 9704   1.005   0.884  15.564  0.8506  1.7067  0.2141
  656TMC3    C1 9705   1.017   1.044  15.761 -0.1598 -0.4963 -0.2629
  656TMC3    C2 9706   1.026   1.101  15.888 -0.1854  0.2416  0.1223
  656TMC3    C3 9707   0.937   1.209  15.906 -0.2170  0.1870  0.0453
  656TMC3    C4 9708   0.936   1.093  15.656  0.4155  0.5738  0.9805
  656TMC3    C5 9709   0.859   1.201  15.687 -0.0621 -0.3876  0.5354
  656TMC3    C6 9710   0.851   1.250  15.814 -0.1281  0.0332  0.4288
  656TMC3     C 9711   1.101   0.928  15.743 -0.8305  0.0506  0.3604
  656TMC3     O 9712   1.181   0.898  15.834  0.3955 -0.0166  0.2689
  656TMC3     H 9713   1.076   1.054  15.972 -1.4769 -0.0158  0.7616
  656TMC3    H1 9714   0.946   1.042  15.561  1.6686 -0.9561  1.9197
  656TMC3    H2 9715   0.797   1.343  15.831  0.4379  0.4728 -0.1759
  656TMC3    C7 9716   0.748   1.204  15.600 -0.1231  0.2801 -0.5308
  656TMC3    C8 9717   0.876   1.194  16.033 -0.5381  0.4163 -0.4376
  656TMC3    O1 9718   0.751   1.143  15.493  0.0697 -0.1237  0.2785
  656TMC3    O2 9719   0.851   1.082  16.067  0.4901 -0.3728  0.5163
  657TMC3    C1 9720   0.195   0.120  14.793  0.3452  0.1156 -0.5409
  657TMC3    C2 9721   0.197   0.171  14.914  0.6572 -1.0292  0.3801
  657TMC3    C3 9722   0.113   0.278  14.946 -0.3004 -0.3077  0.2005
  657TMC3    C4 9723   0.111   0.168  14.697  0.5148  0.4004 -0.8675
  657TMC3    C5 9724   0.041   0.280  14.728  0.1629  0.4125 -0.0698
  657TMC3    C6 9725   0.037   0.338  14.851 -0.2329  0.1253 -0.9083
  657TMC3     C 9726   0.250   4.706  14.782 -0.1159 -0.3927 -0.5761
  657TMC3     O 9727   0.198   4.643  14.692 -0.2469 -0.1000 -0.3774
  657TMC3     H 9728   0.266   0.135  14.990  1.3764  3.1408  1.6962
  657TMC3    H1 9729   0.100   0.110  14.605  1.9297 -0.4650 -0.4975
  657TMC3    H2 9730   4.688   0.413  14.881  1.0231  1.7878 -2.0202
  657TMC3    C7 9731   4.679   0.333  14.615  0.0340 -0.2635  0.0067
  657TMC3    C8 9732   0.136   0.354  15.067  0.0122  0.1458 -0.1083
  657TMC3    O1 9733   4.674   0.258  14.518 -0.3439  0.8460 -0.0361
  657TMC3    O2 9734   0.107   0.472  15.081  0.2827  0.1977 -0.2193
  658MPD2     C 9735   1.554   0.217  14.609 -0.5891  0.6473  0.4831
  658MPD2    C1 9736   1.459   0.325  14.612 -0.0356  0.5430  0.1553
  658MPD2    C2 9737   1.447   0.412  14.502 -0.2106  0.1718 -0.0337
  658MPD2    C3 9738   1.535   0.392  14.397  0.3427 -0.1533 -0.4397
  658MPD2    C4 9739   1.632   0.290  14.396  0.5006 -0.1725 -0.0060
  658MPD2    C5 9740   1.634   0.204  14.498  0.7123  0.1542 -0.0660
  658MPD2     H 9741   1.365   0.481  14.492  1.7121  2.5171  0.1716
  658MPD2    H1 9742   1.696   0.259  14.314 -0.0548  2.2250 -1.3162
  658MPD2    H2 9743   1.545   0.139  14.684  1.4493 -1.0391 -1.0247
  658MPD2    H3 9744   1.702   0.120  14.484 -0.0713 -0.1701 -1.9854
  658MPD2     N 9745   1.518   0.467  14.282  0.3816  0.0941 -0.0043
  658MPD2    H5 9746   1.428   0.514  14.272 -0.1286 -1.1385 -1.2406
  658MPD2    N1 9747   1.377   0.350  14.730 -0.0739  0.0350 -0.7784
  658MPD2    H7 9748   1.367   0.272  14.794  2.3879  1.7063  1.6577
  659TMC3    C1 9749   1.214   0.459  14.857  0.1384 -0.0963 -0.9044
  659TMC3    C2 9750   1.213   0.538  14.971 -0.3851 -0.3291  0.1488
  659TMC3    C3 9751   1.106   0.574  15.028  0.0661 -0.1459  0.0094
  659TMC3    C4 9752   1.105   0.413  14.798  0.2740 -0.0434  0.0379
  659TMC3    C5 9753   0.992   0.442  14.863 -0.7414  0.1962  0.1915
  659TMC3    C6 9754   0.988   0.522  14.977  0.0935  0.0914 -0.1112
  659TMC3     C 9755   1.330   0.476  14.764  1.2730 -0.2017  0.2412
  659TMC3     O 9756   1.359   0.587  14.716  0.1052 -0.7540  0.0544
  659TMC3     H 9757   1.305   0.585  15.003 -0.4052 -0.7531  0.8195
  659TMC3    H1 9758   1.107   0.376  14.696  0.0938  1.5710 -0.5411
  659TMC3    H2 9759   0.899   0.532  15.038  1.3594 -0.9430  1.9090
  659TMC3    C7 9760   0.875   0.406  14.790  0.7417 -0.2677  0.1325
  659TMC3    C8 9761   1.103   0.626  15.165 -0.8980  0.2812 -0.3201
  659TMC3    O1 9762   0.777   0.482  14.809  0.2124  0.1189 -0.0463
  659TMC3    O2 9763   1.002   0.692  15.195  0.2374 -0.3156  0.4015
  660MPD2     C 9764   4.295   3.916  12.829  0.2616 -0.8792  0.0077
  660MPD2    C1 9765   4.176   3.965  12.789  0.0388 -0.3604 -0.3530
  660MPD2    C2 9766   4.053   3.928  12.841  0.2679  0.3765 -0.6388
  660MPD2    C3 9767   4.052   3.841  12.954 -0.2545  0.4756 -0.6582
  660MPD2    C4 9768   4.174   3.791  12.994 -0.1099 -0.3511  0.7684
  660MPD2    C5 9769   4.287   3.830  12.935 -0.3452 -0.2630 -0.1629
  660MPD2     H 9770   3.959   3.960  12.799  0.9717  0.9579 -1.7909
  660MPD2    H1 9771   4.173   3.713  13.069 -1.2392  0.8049  1.9590
  660MPD2    H2 9772   4.383   3.943  12.772  0.7475  0.8560  1.6291
  660MPD2    H3 9773   4.375   3.777  12.968 -0.6312 -0.3127  0.5215
  660MPD2     N 9774   3.934   3.791  13.025  0.3166  0.2661  0.3130
  660MPD2    H5 9775   3.936   3.748  13.117  1.0938 -0.0663  0.1414
  660MPD2    N1 9776   4.192   4.049  12.674 -0.1009  0.4757 -0.0987
  660MPD2    H7 9777   4.287   4.082  12.658 -0.0912 -0.4338 -1.9287
  661TMC3    C1 9778   4.125   4.183  12.483  0.1320  0.2168  0.9125
  661TMC3    C2 9779   4.244   4.163  12.420 -0.4814  0.1947 -0.4061
  661TMC3    C3 9780   4.267   4.215  12.294 -0.7945 -0.0340  0.6349
  661TMC3    C4 9781   4.032   4.262  12.415 -0.9025  0.4824  0.1762
  661TMC3    C5 9782   4.058   4.310  12.286 -0.5936  0.0741 -0.1549
  661TMC3    C6 9783   4.175   4.283  12.221  0.7804  0.3261 -0.1804
  661TMC3     C 9784   4.087   4.092  12.588 -0.2291  0.0181 -0.1220
  661TMC3     O 9785   3.977   4.046  12.586  0.1031  0.1955  0.3595
  661TMC3     H 9786   4.320   4.107  12.473 -0.3803  0.7451  0.0332
  661TMC3    H1 9787   3.941   4.294  12.464 -0.1780 -0.0926  1.9177
  661TMC3    H2 9788   4.208   4.314  12.122 -1.1995 -0.3719 -1.0401
  661TMC3    C7 9789   3.949   4.360  12.207 -0.0784  0.1713  0.6140
  661TMC3    C8 9790   4.402   4.209  12.238  0.5109  0.1207 -1.1100
  661TMC3    O1 9791   3.858   4.413  12.275  0.3091  0.1426 -0.8186
  661TMC3    O2 9792   4.413   4.220  12.120 -0.0936  0.2513  0.1357
  662MPD2     C 9793   4.315   4.123  17.465  0.4539  0.1042  0.3065
  662MPD2    C1 9794   4.349   4.137  17.589 -0.8294  0.3255  0.1985
  662MPD2    C2 9795   4.380   4.262  17.638  0.2620  0.6479 -0.3816
  662MPD2    C3 9796   4.396   4.363  17.546  0.6839  0.5932  0.6923
  662MPD2    C4 9797   4.361   4.347  17.417 -0.3459  0.4930  0.1094
  662MPD2    C5 9798   4.317   4.228  17.376  0.6569 -0.0829 -0.6074
  662MPD2     H 9799   4.401   4.266   0.052  0.8057 -0.1007 -0.4610
  662MPD2    H1 9800   4.378   4.425  17.345 -0.1562 -1.5758 -2.0661
  662MPD2    H2 9801   4.304   4.028  17.414  1.0055 -0.7025  1.6760
  662MPD2    H3 9802   4.299   4.211  17.270  0.2812 -0.9325 -0.4094
  662MPD2     N 9803   4.421   4.499  17.580 -0.0144 -0.4229  0.0447
  662MPD2    H5 9804   4.415   4.557  17.497  0.6726  1.7188  1.5186
  662MPD2    N1 9805   4.365   4.028  17.671 -0.1265  0.0292  0.2332
  662MPD2    H7 9806   4.385   4.052   0.075 -1.0461  2.0576 -0.0924
  663TMC3    C1 9807   4.350   3.820   0.074  0.0260  0.0569 -1.0745
  663TMC3    C2 9808   4.359   3.868   0.198  0.1428 -1.1480 -0.0276
  663TMC3    C3 9809   4.357   3.785   0.301 -0.5591  0.3847 -0.0308
  663TMC3    C4 9810   4.301   3.692   0.051 -0.5103  0.0927 -0.5816
  663TMC3    C5 9811   4.298   3.609   0.161  0.2857 -0.1169 -0.5831
  663TMC3    C6 9812   4.315   3.656   0.285  0.5394 -0.2068  0.3249
  663TMC3     C 9813   4.324   3.903  17.650  0.1935 -0.5182 -0.0413
  663TMC3     O 9814   4.310   3.844  17.541  0.6961  0.0803  0.0746
  663TMC3     H 9815   4.418   3.958   0.210  1.3213 -2.1345  1.5411
  663TMC3    H1 9816   4.296   3.659  17.641  0.5300  0.4672 -0.7623
  663TMC3    H2 9817   4.323   3.586   0.368 -2.2472 -0.5709  0.2812
  663TMC3    C7 9818   4.218   3.488   0.151 -0.4679  0.5074 -0.6994
  663TMC3    C8 9819   4.465   3.798   0.396 -0.5188  0.1352  0.1943
  663TMC3    O1 9820   4.244   3.400   0.233  0.0921  0.4150  0.3611
  663TMC3    O2 9821   4.532   3.697   0.421  0.2061 -0.5298  0.2031
  664MPD2     C 9822   2.406   2.511  17.631  0.1512  0.4368 -0.2156
  664MPD2    C1 9823   2.500   2.609  17.620  0.6852 -0.1932 -0.7480
  664MPD2    C2 9824   2.588   2.629   0.035 -0.0201 -0.7436  0.3687
  664MPD2    C3 9825   2.572   2.559   0.153  0.2594 -0.4699 -0.1743
  664MPD2    C4 9826   2.475   2.459   0.164  0.6491  0.1497 -0.1085
  664MPD2    C5 9827   2.399   2.427   0.053  0.8620 -1.1501 -0.3009
  664MPD2     H 9828   2.661   2.707   0.015 -1.5099  0.5588  0.0258
  664MPD2    H1 9829   2.461   2.400   0.254 -2.8464 -0.3412 -0.9672
  664MPD2    H2 9830   2.335   2.496  17.550  0.1546  0.1690 -0.1696
  664MPD2    H3 9831   2.318   2.356   0.049  0.7737 -0.8441 -3.7232
  664MPD2     N 9832   2.643   2.598   0.267  0.7445 -0.6180 -0.2576
  664MPD2    H5 9833   2.706   2.677   0.259 -1.2766  1.0840  0.6681
  664MPD2    N1 9834   2.527   2.691  17.508 -0.5996  0.0020  0.2347
  664MPD2    H7 9835   2.596   2.765  17.519  0.4675 -0.7409 -1.4546
  665TMC3    C1 9836   2.720   2.614   0.491  0.7544  0.8375  0.1302
  665TMC3    C2 9837   2.793   2.554   0.588  0.6333 -0.0356  0.4740
  665TMC3    C3 9838   2.803   2.629   0.705  0.0917 -0.6902  0.6477
  665TMC3    C4 9839   2.669   2.740   0.503 -0.6638 -0.0666 -0.0508
  665TMC3    C5 9840   2.695   2.816   0.617  0.2914  0.0676  0.6689
  665TMC3    C6 9841   2.770   2.764   0.718  0.2673  0.1578  0.6242
  665TMC3     C 9842   2.652   2.533   0.393  0.4422 -0.5090  0.0257
  665TMC3     O 9843   2.617   2.421   0.428 -0.0736  0.9014 -0.0510
  665TMC3     H 9844   2.801   2.446   0.583 -1.3312 -0.2714  2.7070
  665TMC3    H1 9845   2.620   2.797   0.425 -0.5329 -1.1045 -0.8855
  665TMC3    H2 9846   2.809   2.818   0.804 -0.5149 -0.4568  1.3680
  665TMC3    C7 9847   2.610   2.933   0.634  0.1097  0.4008  0.0214
  665TMC3    C8 9848   2.824   2.557   0.826 -0.5336  0.5671 -0.9012
  665TMC3    O1 9849   2.533   2.968   0.548  0.0120 -0.0591 -0.7600
  665TMC3    O2 9850   2.806   2.628   0.926 -0.6101 -0.1157 -0.1513
  666TMC3    C1 9851   2.561   1.923   9.779  0.1936  0.9740 -0.5016
  666TMC3    C2 9852   2.550   1.817   9.869  0.5831  0.2892  0.5631
  666TMC3    C3 9853   2.537   1.846  10.000  0.2778 -0.4336 -1.0813
  666TMC3    C4 9854   2.562   2.053   9.818  0.1837  0.1300 -0.4363
  666TMC3    C5 9855   2.540   2.082   9.948 -0.3005 -0.5491  0.9662
  666TMC3    C6 9856   2.516   1.978  10.036  0.1882  0.4852 -0.1791
  666TMC3     C 9857   2.540   1.901   9.636  0.5597  0.0711 -0.1921
  666TMC3     O 9858   2.587   1.988   9.562  0.2698 -0.2940  0.2182
  666TMC3     H 9859   2.567   1.713   9.842 -0.0680  0.1033  0.8428
  666TMC3    H1 9860   2.563   2.132   9.743  0.5917  1.5576  1.0905
  666TMC3    H2 9861   2.486   1.997  10.138  0.6079 -0.4095  0.1080
  666TMC3    C7 9862   2.510   2.214   9.999 -0.1594  0.1281 -0.5665
  666TMC3    C8 9863   2.508   1.745  10.099 -0.4024 -0.3623 -0.6127
  666TMC3    O1 9864   2.511   2.225  10.120  0.0851  0.2492  0.3558
  666TMC3    O2 9865   2.460   1.647  10.048 -0.1321 -0.1830 -0.8164
  667MPD2     C 9866   3.532   2.120  14.620 -0.6029 -0.8105  0.0968
  667MPD2    C1 9867   3.444   2.121  14.727 -0.3125  0.0106  0.1179
  667MPD2    C2 9868   3.358   2.014  14.734  0.1181  0.2332 -0.0985
  667MPD2    C3 9869   3.354   1.919  14.637  0.2028 -0.7414 -0.4724
  667MPD2    C4 9870   3.447   1.928  14.530 -0.2716  0.4688  0.5061
  667MPD2    C5 9871   3.530   2.027  14.518  0.2088 -0.6152 -0.2350
  667MPD2     H 9872   3.279   2.003  14.807 -0.0812 -1.5306 -0.5905
  667MPD2    H1 9873   3.450   1.847  14.457 -1.0991  0.5603  0.3772
  667MPD2    H2 9874   3.610   2.194  14.606 -0.9258 -0.1187  2.0082
  667MPD2    H3 9875   3.585   2.038  14.425  0.6885 -0.5363  0.0533
  667MPD2     N 9876   3.262   1.810  14.639 -0.2216 -0.4719 -0.1176
  667MPD2    H5 9877   3.194   1.816  14.714 -3.3426 -1.3962 -2.8642
  667MPD2    N1 9878   3.430   2.218  14.828  0.3502 -0.5236 -0.3308
  667MPD2    H7 9879   3.372   2.192  14.907  2.8531  1.4213  2.1141
  668TMC3    C1 9880   3.457   2.418  14.953  0.7205 -0.0873  0.2561
  668TMC3    C2 9881   3.540   2.521  14.982 -0.1811 -0.1228 -0.1177
  668TMC3    C3 9882   3.530   2.581  15.107 -0.0297 -0.1803 -0.3106
  668TMC3    C4 9883   3.356   2.380  15.039  0.0821 -0.2369 -0.0698
  668TMC3    C5 9884   3.358   2.435  15.168  0.0193 -0.0260 -0.0928
  668TMC3    C6 9885   3.447   2.529  15.206  0.7836 -0.2238  1.2834
  668TMC3     C 9886   3.486   2.341  14.835  0.3752 -0.2052  0.2203
  668TMC3     O 9887   3.569   2.380  14.761  0.6845  0.4952 -0.3175
  668TMC3     H 9888   3.614   2.546  14.906  0.9303 -1.5228  0.4951
  668TMC3    H1 9889   3.267   2.323  15.015 -0.7792  1.1853 -0.2358
  668TMC3    H2 9890   3.442   2.577  15.304  1.9798 -2.3339  2.3704
  668TMC3    C7 9891   3.265   2.404  15.264  0.3016 -0.0728 -0.0763
  668TMC3    C8 9892   3.599   2.704  15.142 -1.0157  0.0308 -0.4281
  668TMC3    O1 9893   3.244   2.479  15.358 -0.5920 -0.2602  0.0839
  668TMC3    O2 9894   3.615   2.733  15.261  0.0965 -0.3111 -0.4789
  669TMC3    C1 9895   1.136   2.029  14.101 -0.2265 -0.3006 -0.5960
  669TMC3    C2 9896   1.020   2.037  14.035 -0.9478  0.0060  1.0683
  669TMC3    C3 9897   1.004   2.150  13.961  0.4996  0.2516  0.0305
  669TMC3    C4 9898   1.234   2.122  14.092  0.5706 -0.6045 -0.2614
  669TMC3    C5 9899   1.213   2.229  14.010 -0.3085  0.8499 -0.8113
  669TMC3    C6 9900   1.097   2.243  13.941 -0.3459  0.3872 -0.0233
  669TMC3     C 9901   1.170   1.899  14.158 -0.0702 -0.8061 -0.2809
  669TMC3     O 9902   1.072   1.853  14.220  0.2174  0.4065  0.1643
  669TMC3     H 9903   0.941   1.964  14.040 -0.8452 -0.1942 -0.1821
  669TMC3    H1 9904   1.326   2.105  14.147  1.4585  1.6078 -1.0737
  669TMC3    H2 9905   1.080   2.332  13.881 -0.9172  0.6313  0.4987
  669TMC3    C7 9906   1.340   2.281  13.965 -0.0887  0.2032  0.3117
  669TMC3    C8 9907   0.879   2.155  13.884  1.4486  0.2682 -0.0520
  669TMC3    O1 9908   1.440   2.258  14.031  0.0455 -0.4312 -0.5492
  669TMC3    O2 9909   0.818   2.046  13.873  0.6092  0.2001 -0.0353
  670MPD2     C 9910   4.267   0.547  13.293 -0.2926  0.3374 -0.0847
  670MPD2    C1 9911   4.340   0.439  13.246 -0.0422  0.2308 -0.3958
  670MPD2    C2 9912   4.322   0.311  13.303  0.0837 -0.5354 -0.8047
  670MPD2    C3 9913   4.234   0.304  13.410  0.6944  0.1968 -0.2544
  670MPD2    C4 9914   4.173   0.414  13.464  0.1038  0.3385  0.5219
  670MPD2    C5 9915   4.181   0.538  13.398 -0.1348 -0.0169  0.3091
  670MPD2     H 9916   4.393   0.232  13.279  1.6978  0.0981  1.8872
  670MPD2    H1 9917   4.111   0.411  13.552 -1.3100  2.1942 -0.4074
  670MPD2    H2 9918   4.280   0.646  13.251 -1.3271  0.7281  0.5073
  670MPD2    H3 9919   4.124   0.625  13.429 -0.9430  0.2344 -1.8374
  670MPD2     N 9920   4.228   0.182  13.477  0.1547 -0.5447 -0.0009
  670MPD2    H5 9921   4.298   0.112  13.455 -3.6785 -2.8929 -4.4660
  670MPD2    N1 9922   4.437   0.451  13.150 -0.0896 -0.6544  0.2548
  670MPD2    H7 9923   4.481   0.364  13.121  1.5080  0.4697 -0.6702
  671TMC3    C1 9924   4.179   0.020  13.631  0.0499 -0.5319  0.1931
  671TMC3    C2 9925   4.313   0.001  13.666 -0.6499  0.1428 -0.0307
  671TMC3    C3 9926   4.335   4.646  13.778 -0.0825  0.0280 -0.3283
  671TMC3    C4 9927   4.078   4.667  13.684 -0.0684  0.0303  0.2236
  671TMC3    C5 9928   4.109   4.594  13.797 -0.4513 -0.8981 -0.8497
  671TMC3    C6 9929   4.236   4.583  13.845 -0.3789 -0.0370 -0.6156
  671TMC3     C 9930   4.134   0.145  13.566  0.4903  0.2188 -0.0833
  671TMC3     O 9931   4.015   0.177  13.561 -0.0831  0.0697  1.0564
  671TMC3     H 9932   4.386   0.073  13.631  1.0290 -1.5211  0.0685
  671TMC3    H1 9933   3.973   4.683  13.665  0.1124  0.7469 -0.1850
  671TMC3    H2 9934   4.263   4.510  13.920 -2.1618 -0.5441 -0.4534
  671TMC3    C7 9935   4.004   4.498  13.831  0.3785  0.4169  0.0777
  671TMC3    C8 9936   4.469   4.610  13.805 -0.0220  0.6101 -0.4297
  671TMC3    O1 9937   3.937   4.461  13.736  0.1809  0.2423  0.0013
  671TMC3    O2 9938   4.487   4.559  13.915 -0.2983 -0.0801 -0.5419
  672MPD2     C 9939   4.509   0.591   1.815  0.3442 -0.3968  0.6270
  672MPD2    C1 9940   4.471   0.686   1.726 -0.4907 -1.2824 -0.2011
  672MPD2    C2 9941   4.536   0.810   1.731  0.1868  0.3318  0.2070
  672MPD2    C3 9942   4.653   0.828   1.811  0.4916 -0.1793  0.6668
  672MPD2    C4 9943   4.690   0.730   1.903  0.4352 -0.0142  0.1904
  672MPD2    C5 9944   4.613   0.614   1.900 -0.2679  0.9331 -0.7832
  672MPD2     H 9945   4.504   0.886   1.661  0.1809  0.5078  0.4027
  672MPD2    H1 9946   0.052   0.737   1.970 -0.3884 -4.4500  1.6817
  672MPD2    H2 9947   4.452   0.502   1.838 -0.5021 -0.3007 -1.0533
  672MPD2    H3 9948   4.625   0.534   1.972  0.3775  1.5615 -0.1853
  672MPD2     N 9949   4.721   0.952   1.813 -0.4400  0.1023  0.2693
  672MPD2    H5 9950   0.081   0.953   1.873 -0.8976  1.1413  0.8817
  672MPD2    N1 9951   4.380   0.674   1.622 -0.7552 -0.4579  0.1223
  672MPD2    H7 9952   4.370   0.757   1.565  3.5037 -1.0330 -1.3997
  673TMC3    C1 9953   4.274   0.554   1.453 -0.1991  0.2660  0.1721
  673TMC3    C2 9954   4.340   0.461   1.366  0.3656  0.4320 -0.0004
  673TMC3    C3 9955   4.383   0.502   1.239 -0.1889 -0.2568 -0.0551
  673TMC3    C4 9956   4.223   0.669   1.399  0.2416 -0.2685 -0.3679
  673TMC3    C5 9957   4.240   0.690   1.262  0.4012  0.7417  0.3296
  673TMC3    C6 9958   4.318   0.608   1.182 -0.0756  0.4931  0.0279
  673TMC3     C 9959   4.318   0.557   1.587  0.3984 -0.2082  0.6479
  673TMC3     O 9960   4.327   0.446   1.638  0.1982  0.2742  0.4031
  673TMC3     H 9961   4.390   0.377   1.413  0.2033  1.7410  2.5596
  673TMC3    H1 9962   4.162   0.730   1.464  1.9734 -0.6413  1.6173
  673TMC3    H2 9963   4.349   0.630   1.080  0.5535  0.1587  0.1443
  673TMC3    C7 9964   4.167   0.801   1.195  0.0309  0.3758  0.1904
  673TMC3    C8 9965   4.490   0.440   1.159  0.3313 -0.3453  0.6830
  673TMC3    O1 9966   4.071   0.855   1.249 -0.1929 -0.1181 -0.0169
  673TMC3    O2 9967   4.504   0.472   1.042  0.7316  0.0743  0.4333
  674MPD2     C 9968   4.308   0.950   0.475  0.3210  0.4440  0.2603
  674MPD2    C1 9969   4.228   0.889   0.573 -0.4467 -0.1187  0.4153
  674MPD2    C2 9970   4.088   0.900   0.560  0.0892  0.5068 -0.1308
  674MPD2    C3 9971   4.031   0.969   0.450  0.0568  0.3201  0.8205
  674MPD2    C4 9972   4.113   1.030   0.355  0.6237  0.1474  0.5865
  674MPD2    C5 9973   4.249   1.013   0.367 -0.5491 -0.6070 -0.2364
  674MPD2     H 9974   4.016   0.851   0.624 -1.4347  0.2776 -2.0148
  674MPD2    H1 9975   4.069   1.065   0.262 -1.6390 -3.0232  0.4829
  674MPD2    H2 9976   4.414   0.929   0.473 -0.2444 -2.5474  1.1889
  674MPD2    H3 9977   4.312   1.039   0.283 -1.1949 -2.3841 -1.2689
  674MPD2     N 9978   3.896   0.962   0.441  0.8829 -0.4868 -0.0762
  674MPD2    H5 9979   3.852   0.915   0.519 -1.3098  0.6946 -0.5987
  674MPD2    N1 9980   4.298   0.796   0.654 -0.2436  0.4911  0.5376
  674MPD2    H7 9981   4.399   0.793   0.646 -0.0379  0.3291  3.4514
  675TMC3    C1 9982   4.323   0.575   0.751  0.1893  0.6516  0.0757
  675TMC3    C2 9983   4.269   0.483   0.830  0.3205  0.3202 -0.6636
  675TMC3    C3 9984   4.301   0.355   0.823  1.0724  0.1595  0.6946
  675TMC3    C4 9985   4.415   0.538   0.653  0.2914  0.5776  0.1670
  675TMC3    C5 9986   4.442   0.405   0.647 -0.3666  0.5627  0.0007
  675TMC3    C6 9987   4.388   0.313   0.727 -0.0493 -1.0457  0.9676
  675TMC3     C 9988   4.237   0.688   0.718  0.4374 -0.0710 -0.6637
  675TMC3     O 9989   4.114   0.675   0.731 -0.2317 -0.0768  0.1805
  675TMC3     H 9990   4.220   0.522   0.919 -0.3035  2.2647 -1.8603
  675TMC3    H1 9991   4.434   0.608   0.571 -0.5129 -0.2032 -0.6900
  675TMC3    H2 9992   4.411   0.208   0.721 -1.7928 -1.3385 -0.6449
  675TMC3    C7 9993   4.526   0.359   0.543 -0.3118 -0.6831  0.1071
  675TMC3    C8 9994   4.282   0.268   0.942  0.3942  0.0057 -0.3086
  675TMC3    O1 9995   4.605   0.271   0.577  1.0651 -0.2540 -0.4471
  675TMC3    O2 9996   4.355   0.169   0.941 -0.3505  0.8050 -0.0256
  676MPD2     C 9997   2.397   3.285  10.985  0.0891  0.2284  0.0963
  676MPD2    C1 9998   2.389   3.205  11.093  0.3843 -0.0539  0.2215
  676MPD2    C2 9999   2.424   3.072  11.094  0.2140 -1.1754  0.2093
  676MPD2    C310000   2.469   3.013  10.971 -0.2464 -0.0523 -0.0732
  676MPD2    C410001   2.474   3.093  10.856 -0.0618 -0.2614 -0.2843
  676MPD2    C510002   2.441   3.228  10.864  0.6456 -0.4001  0.4053
  676MPD2     H10003   2.422   3.013  11.185 -1.0078 -1.2527  0.1252
  676MPD2    H110004   2.503   3.054  10.759  0.4693 -0.9155  0.1375
  676MPD2    H210005   2.383   3.392  10.982 -3.0602 -0.1787  0.6600
  676MPD2    H310006   2.455   3.293  10.779  0.6193 -1.1497 -0.1812
  676MPD2     N10007   2.523   2.885  10.956  0.1923  0.2939 -0.2073
  676MPD2    H510008   2.560   2.853  10.867  1.0250  0.0514  0.2228
  676MPD2    N110009   2.347   3.256  11.223 -1.3020 -0.0185 -0.2003
  676MPD2    H710010   2.338   3.190  11.299 -0.1893  1.7527  1.4786
  677TMC3    C110011   2.298   3.411  11.403  0.7189 -0.1984 -0.1959
  677TMC3    C210012   2.298   3.301  11.478  0.2268 -0.0993 -0.0385
  677TMC3    C310013   2.332   3.312  11.617 -0.3367 -0.0794 -0.5265
  677TMC3    C410014   2.334   3.535  11.444 -0.7161 -0.2322 -0.4230
  677TMC3    C510015   2.366   3.538  11.579  0.4314  0.2348 -0.0038
  677TMC3    C610016   2.368   3.435  11.660 -0.0047 -0.6179 -0.5143
  677TMC3     C10017   2.321   3.387  11.257 -0.1995 -0.0434 -0.3216
  677TMC3     O10018   2.312   3.482  11.182 -0.4925 -0.3224 -0.4631
  677TMC3     H10019   2.265   3.206  11.437 -0.3416  0.3803 -0.6995
  677TMC3    H110020   2.344   3.615  11.372  0.6417  1.3128  1.4951
  677TMC3    H210021   2.399   3.448  11.763 -2.1570  0.2398  0.0052
  677TMC3    C710022   2.440   3.659  11.620 -0.0353  0.1767 -1.0552
  677TMC3    C810023   2.420   3.206  11.651  0.2390  0.2695 -0.6134
  677TMC3    O110024   2.447   3.696  11.738 -0.2011  0.0172 -0.1943
  677TMC3    O210025   2.392   3.128  11.741  0.0821  0.7113 -0.6502
  678MPD2     C10026   3.638   3.706   2.004  0.0635 -0.0867 -0.3008
  678MPD2    C110027   3.688   3.622   1.909  0.1804  0.2173  0.0252
  678MPD2    C210028   3.617   3.509   1.877 -0.1702 -0.1248  0.5009
  678MPD2    C310029   3.491   3.489   1.933 -0.0428  0.0831  0.4565
  678MPD2    C410030   3.445   3.569   2.030 -0.0515 -0.1050 -0.3179
  678MPD2    C510031   3.523   3.678   2.065  0.3261 -0.6819  0.1155
  678MPD2     H10032   3.645   3.442   1.796 -0.9014  0.8835 -0.5923
  678MPD2    H110033   3.344   3.561   2.071  0.5463  0.8400  1.3302
  678MPD2    H210034   3.689   3.799   2.025  2.6317 -1.5634 -0.0254
  678MPD2    H310035   3.484   3.739   2.146  0.8048  0.7204 -0.7198
  678MPD2     N10036   3.413   3.389   1.878  0.1675 -0.0004 -0.0985
  678MPD2    H510037   3.463   3.336   1.807  0.7930  2.5973 -1.6111
  678MPD2    N110038   3.804   3.650   1.828  0.5471 -0.4965 -0.1631
  678MPD2    H710039   3.828   3.585   1.753  0.3083 -0.1125 -0.5690
  679TMC3    C110040   4.197   3.587   1.773 -0.0652  0.4439  0.0005
  679TMC3    C210041   4.063   3.607   1.792  0.4734 -0.6869 -0.3711
  679TMC3    C310042   4.014   3.734   1.778 -0.0530  0.8151  0.0376
  679TMC3    C410043   4.287   3.681   1.752 -0.2375  0.1347  0.4571
  679TMC3    C510044   4.236   3.811   1.745 -0.0815 -0.2706  0.3535
  679TMC3    C610045   4.100   3.838   1.750  0.9057  0.3557 -0.0599
  679TMC3     C10046   4.253   3.455   1.747 -0.5695 -0.1457  0.8072
  679TMC3     O10047   4.369   3.443   1.715 -0.3761  0.2216  0.3091
  679TMC3     H10048   4.002   3.534   1.843 -1.8570  0.4933 -1.4921
  679TMC3    H110049   4.387   3.661   1.715  0.2844 -1.3687  2.7185
  679TMC3    H210050   4.065   3.939   1.769  0.4004 -0.3745  2.8502
  679TMC3    C710051   4.307   3.917   1.673 -0.1309  0.0622  0.8021
  679TMC3    C810052   3.887   3.761   1.835 -0.4340 -0.2649 -0.1996
  679TMC3    O110053   4.239   4.016   1.641  0.2421  0.5944  0.4578
  679TMC3    O210054   3.881   3.861   1.905 -0.1325 -0.2142 -0.1728
  680MPD2     C10055   3.844   1.651  13.589 -0.4708 -0.3385  0.5348
  680MPD2    C110056   3.928   1.603  13.690 -0.2560  0.2468 -0.8406
  680MPD2    C210057   3.987   1.694  13.769 -0.5897 -0.2673 -0.3405
  680MPD2    C310058   3.970   1.831  13.747 -0.0815  0.0555  0.0785
  680MPD2    C410059   3.889   1.875  13.650  0.0569  0.5344 -0.8868
  680MPD2    C510060   3.835   1.783  13.566 -0.4910 -0.7555  0.3576
  680MPD2     H10061   4.048   1.656  13.850  0.4520 -0.4799 -1.2274
  680MPD2    H110062   3.886   1.981  13.624  1.2879  0.8293  0.1690
  680MPD2    H210063   3.793   1.572  13.534 -1.1017  0.1065  0.4825
  680MPD2    H310064   3.783   1.818  13.477 -0.3183 -0.1251  0.5044
  680MPD2     N10065   4.047   1.928  13.817  0.1907 -0.0035 -0.0757
  680MPD2    H510066   4.012   2.023  13.806 -1.4589 -0.6684 -0.5673
  680MPD2    N110067   3.947   1.469  13.720 -0.1630  0.1155 -0.0820
  680MPD2    H710068   4.008   1.452  13.800 -1.6372 -1.6164  0.6805
  681TMC3    C110069   4.026   1.260  13.689 -0.1125  0.2598  0.3033
  681TMC3    C210070   4.018   1.256  13.828  0.2108  0.3496  0.6297
  681TMC3    C310071   4.127   1.287  13.901 -0.1880  0.8072  0.4137
  681TMC3    C410072   4.148   1.270  13.625  0.1696  0.1968 -0.7650
  681TMC3    C510073   4.259   1.268  13.703 -1.0030  0.0041 -0.3818
  681TMC3    C610074   4.253   1.287  13.838  0.4866 -0.0703  0.2238
  681TMC3     C10075   3.924   1.362  13.641  0.1159 -0.3308 -0.1451
  681TMC3     O10076   3.876   1.354  13.528 -0.2147 -0.7297 -0.2849
  681TMC3     H10077   3.919   1.264  13.872 -0.4048  2.1802 -1.0719
  681TMC3    H110078   4.151   1.266  13.517  1.4164  1.9561 -0.7854
  681TMC3    H210079   4.343   1.332  13.878 -0.5933  1.9724  0.3469
  681TMC3    C710080   4.388   1.267  13.645  0.0495  0.3579  0.0120
  681TMC3    C810081   4.101   1.388  14.001 -0.2287 -0.1875  0.5839
  681TMC3    O110082   4.472   1.193  13.696  0.3300  0.2771 -0.1111
  681TMC3    O210083   3.986   1.433  13.998  0.0876  0.2193  0.0958
  682MPD2     C10084   1.778   3.212  10.667 -0.0727 -0.4005 -0.2629
  682MPD2    C110085   1.767   3.085  10.723 -0.4447 -0.2272  0.3833
  682MPD2    C210086   1.710   3.068  10.851  0.0129 -0.2944  0.2803
  682MPD2    C310087   1.652   3.173  10.915  0.1357 -0.0316  0.6881
  682MPD2    C410088   1.654   3.294  10.855  0.3579 -0.8738  0.7530
  682MPD2    C510089   1.715   3.317  10.738  0.0314 -0.3593  0.3368
  682MPD2     H10090   1.721   2.971  10.898 -0.1729 -0.8522 -0.8205
  682MPD2    H110091   1.611   3.372  10.918 -0.3352  0.1338 -0.9815
  682MPD2    H210092   1.829   3.233  10.574  0.1860  2.1198  0.4449
  682MPD2    H310093   1.712   3.419  10.702 -1.8814  0.5796  3.1033
  682MPD2     N10094   1.580   3.160  11.030 -0.1032  0.3203  0.2251
  682MPD2    H510095   1.528   3.238  11.068 -1.6657 -0.4134 -0.3811
  682MPD2    N110096   1.843   2.969  10.672 -0.4961  0.0047  0.0732
  682MPD2    H710097   1.848   2.887  10.731  0.8221 -1.2648 -1.8168
  683TMC3    C110098   1.415   3.166  11.405 -0.2999 -0.2939 -0.0989
  683TMC3    C210099   1.351   3.051  11.448 -0.3343  0.1220 -0.5505
  683TMC3    C310100   1.358   2.941  11.371  0.0583 -0.4874 -0.2566
  683TMC3    C410101   1.481   3.163  11.288  0.5262 -0.5326 -0.5712
  683TMC3    C510102   1.496   3.046  11.217  0.0862 -0.1537 -0.1975
  683TMC3    C610103   1.436   2.928  11.256 -0.1930  0.7181 -0.2637
  683TMC3     C10104   1.455   3.265  11.503 -0.0329  0.0493 -0.3353
  683TMC3     O10105   1.468   3.380  11.458  0.3520  0.3975 -0.2824
  683TMC3     H10106   1.298   3.051  11.543  0.4861 -1.4188 -0.0947
  683TMC3    H110107   1.531   3.256  11.265  0.5233 -0.0038  1.5240
  683TMC3    H210108   1.452   2.831  11.210 -0.1539  1.3815 -1.6386
  683TMC3    C710109   1.585   3.040  11.107  0.1450 -0.2969  0.3535
  683TMC3    C810110   1.296   2.815  11.412  0.0894  0.0459  0.4202
  683TMC3    O110111   1.652   2.938  11.102  0.1871 -0.1702 -0.0827
  683TMC3    O210112   1.346   2.712  11.363  0.3551 -0.1043  0.3230
  684MPD2     C10113   4.111   2.940  16.324 -0.6707 -0.6251  0.0749
  684MPD2    C110114   4.251   2.936  16.311  0.4961 -0.0780  0.1344
  684MPD2    C210115   4.327   3.054  16.325 -0.3408 -0.6942  0.4870
  684MPD2    C310116   4.261   3.168  16.354 -0.5642  0.6655  0.5507
  684MPD2    C410117   4.128   3.174  16.373 -0.6042  0.3467  0.5202
  684MPD2    C510118   4.056   3.059  16.358 -0.3276  0.2054 -0.0537
  684MPD2     H10119   4.435   3.050  16.316 -0.3398  0.7428 -0.0329
  684MPD2    H110120   4.072   3.266  16.384  0.0544  0.7014  0.9429
  684MPD2    H210121   4.044   2.855  16.320 -0.6005 -0.6728 -0.0742
  684MPD2    H310122   3.952   3.078  16.336 -0.0961  1.3006 -0.1877
  684MPD2     N10123   4.330   3.295  16.373 -0.8911 -0.1589  0.2619
  684MPD2    H510124   4.287   3.365  16.432 -1.5728 -1.7821  1.6982
  684MPD2    N110125   4.316   2.818  16.273  0.8367 -1.3283 -0.7450
  684MPD2    H710126   4.257   2.737  16.255 -2.7140  1.4155 -1.3609
  685TMC3    C110127   4.486   2.676  16.199  0.2949 -0.3229  0.4340
  685TMC3    C210128   4.400   2.631  16.099  0.3862 -0.4483 -0.3636
  685TMC3    C310129   4.431   2.511  16.048  0.4972  0.2299 -0.2672
  685TMC3    C410130   4.581   2.602  16.256 -0.2647 -0.1246  0.0061
  685TMC3    C510131   4.612   2.478  16.199 -1.5138 -0.1039  0.4725
  685TMC3    C610132   4.539   2.430  16.098  0.3693 -0.4041  0.3438
  685TMC3     C10133   4.453   2.798  16.267  0.4796 -0.1206 -0.2175
  685TMC3     O10134   4.540   2.852  16.331  1.1007 -0.1177 -0.1798
  685TMC3     H10135   4.327   2.701  16.058  0.5548  0.3572  0.7141
  685TMC3    H110136   4.640   2.643  16.337  0.6407 -0.4662 -0.4781
  685TMC3    H210137   4.547   2.324  16.075  1.3930 -0.1684 -0.3568
  685TMC3    C710138   4.688   2.382  16.278  0.4501  0.5459  0.1473
  685TMC3    C810139   4.349   2.452  15.942  0.3571 -0.5564 -0.0389
  685TMC3    O110140   4.692   2.393  16.400  0.3200 -0.1495  0.0223
  685TMC3    O210141   4.366   2.332  15.915  0.3614  0.2003 -0.0435
  686MPD2     C10142   0.994   1.743  15.020  0.0530 -0.3380  0.1779
  686MPD2    C110143   1.039   1.730  15.145 -0.0029 -0.5873  0.1084
  686MPD2    C210144   1.049   1.611  15.207 -0.4539 -0.0912 -0.1604
  686MPD2    C310145   1.002   1.498  15.144  0.6418 -0.4188  0.2110
  686MPD2    C410146   0.948   1.507  15.017 -0.5498 -0.2357 -0.3460
  686MPD2    C510147   0.953   1.633  14.954  0.2329  0.0941 -0.6236
  686MPD2     H10148   1.102   1.604  15.301  0.9740  3.4862 -0.7103
  686MPD2    H110149   0.916   1.423  14.957  1.2743 -1.2961  0.1578
  686MPD2    H210150   0.990   1.835  14.963 -1.0835 -0.2777  0.3636
  686MPD2    H310151   0.927   1.647  14.849  2.2526  1.5907 -0.9307
  686MPD2     N10152   1.016   1.375  15.202 -0.1340  0.2153  0.3187
  686MPD2    H510153   1.021   1.292  15.143  3.6246  0.5467  0.1671
  686MPD2    N110154   1.064   1.853  15.220  0.0580  0.4193  0.2740
  686MPD2    H710155   1.042   1.940  15.171  0.6461  0.1838 -0.4135
  687TMC3    C110156   0.935   1.425  15.431  0.7545  0.3819  0.3227
  687TMC3    C210157   0.814   1.472  15.387  1.1848 -0.1642 -0.5283
  687TMC3    C310158   0.750   1.562  15.462  0.2732  0.3534  0.5433
  687TMC3    C410159   0.993   1.469  15.549  0.4010 -0.8631 -0.1827
  687TMC3    C510160   0.919   1.554  15.629 -0.2010 -0.0334 -0.3487
  687TMC3    C610161   0.797   1.600  15.584 -0.3364  0.0493 -0.1843
  687TMC3     C10162   1.029   1.347  15.337  0.0246  0.1513  0.3029
  687TMC3     O10163   1.079   1.250  15.399  0.8365 -0.5563 -0.0355
  687TMC3     H10164   0.778   1.432  15.292  2.0551 -1.1536 -0.4428
  687TMC3    H110165   1.091   1.445  15.588  0.1936 -1.6898 -0.1716
  687TMC3    H210166   0.745   1.678  15.638 -0.9497  0.2797 -1.1176
  687TMC3    C710167   0.981   1.639  15.737 -0.0836  0.3732  0.0275
  687TMC3    C810168   0.645   1.647  15.412  0.6512 -0.0453  0.2019
  687TMC3    O110169   0.912   1.669  15.832 -0.2327  0.0956 -0.5964
  687TMC3    O210170   0.593   1.719  15.496  0.2270 -0.2272 -0.0539
  688MPD2     C10171   0.280   1.724  17.298 -0.4094  0.1890  0.8366
  688MPD2    C110172   0.265   1.586  17.323 -0.3827  0.1951 -0.2902
  688MPD2    C210173   0.347   1.502  17.241  0.6196 -0.3647  0.4617
  688MPD2    C310174   0.426   1.549  17.141 -0.2567  0.0256 -0.1398
  688MPD2    C410175   0.420   1.679  17.111 -0.8438 -0.0796  0.0881
  688MPD2    C510176   0.349   1.766  17.187 -1.1168 -0.0533  0.4243
  688MPD2     H10177   0.339   1.397  17.266 -0.8871 -0.7612 -1.6975
  688MPD2    H110178   0.476   1.722  17.029 -1.5949  1.5459  0.4230
  688MPD2    H210179   0.233   1.799  17.360 -0.2397 -0.2040  1.4418
  688MPD2    H310180   0.358   1.871  17.165 -0.8118 -0.1149  0.2593
  688MPD2     N10181   0.509   1.474  17.058 -0.8933 -0.0974  0.0817
  688MPD2    H510182   0.562   1.537  16.999 -1.7284  0.7847  0.2764
  688MPD2    N110183   0.192   1.533  17.427  0.5138 -0.2228  0.7664
  688MPD2    H710184   0.206   1.437  17.458 -0.5645 -0.2282  1.2502
  689TMC3    C110185   0.083   1.544  17.635  0.7207 -0.3957 -0.4774
  689TMC3    C210186   0.073   1.629   0.050  0.7423  0.1037 -0.3158
  689TMC3    C310187   0.062   1.574   0.176 -0.0769  0.3592 -0.4499
  689TMC3    C410188   0.069   1.408  17.642  0.3665  0.1090  0.4737
  689TMC3    C510189   0.059   1.358   0.079 -0.2623 -0.2990  0.9898
  689TMC3    C610190   0.049   1.440   0.187 -0.3377 -0.2553 -0.5780
  689TMC3     C10191   0.106   1.607  17.506  0.2628  1.1464  0.3351
  689TMC3     O10192   0.045   1.706  17.471  0.0012  0.2914 -0.3728
  689TMC3     H10193   0.068   1.737   0.037 -1.4908 -0.0709 -0.9265
  689TMC3    H110194   0.074   1.347  17.553 -0.5671  0.4123  0.2151
  689TMC3    H210195   0.041   1.400   0.287 -1.3420  3.2606  0.7810
  689TMC3    C710196   0.086   1.222   0.096 -0.4190 -0.2654  0.0130
  689TMC3    C810197   0.021   1.650   0.291  0.0428  0.2960  0.1988
  689TMC3    O110198   0.158   1.183   0.188  0.4171 -0.2198  0.6550
  689TMC3    O210199   0.054   1.601   0.396  0.4575  0.3844  0.6007
  690MPD2     C10200   2.596   3.350  15.573  0.1971  0.5629  0.1639
  690MPD2    C110201   2.592   3.270  15.460  0.1956  0.1907  0.4331
  690MPD2    C210202   2.675   3.311  15.356  0.1683  0.2720 -0.0231
  690MPD2    C310203   2.760   3.421  15.358  0.5880 -0.6366  0.2788
  690MPD2    C410204   2.766   3.494  15.480  0.1605  0.0934  0.1172
  690MPD2    C510205   2.687   3.456  15.586  0.0996  0.3507  0.9982
  690MPD2     H10206   2.679   3.258  15.261  0.6290  1.7392 -0.8176
  690MPD2    H110207   2.825   3.585  15.481  0.9524 -0.4137 -0.2147
  690MPD2    H210208   2.537   3.333  15.663 -0.1467  3.7262  0.5630
  690MPD2    H310209   2.678   3.520  15.673 -0.6686  1.9212 -0.2386
  690MPD2     N10210   2.832   3.460  15.248 -0.3327 -0.0674  0.0618
  690MPD2    H510211   2.804   3.420  15.159 -2.0343  2.0840 -0.3483
  690MPD2    N110212   2.517   3.153  15.444 -0.3461 -0.4279  0.2185
  690MPD2    H710213   2.550   3.097  15.365 -0.7819  0.6708 -0.7438
  691TMC3    C110214   2.323   3.014  15.471 -0.1482 -0.2947  0.1189
  691TMC3    C210215   2.190   3.010  15.486  0.0500  0.4528 -0.0377
  691TMC3    C310216   2.126   2.887  15.489 -0.3394 -0.0593 -0.0925
  691TMC3    C410217   2.393   2.895  15.444  0.1021  0.5718 -0.4590
  691TMC3    C510218   2.324   2.778  15.436  0.3946  0.0144  0.0241
  691TMC3    C610219   2.193   2.771  15.457  1.1906 -0.2312  0.2282
  691TMC3     C10220   2.396   3.136  15.507 -0.1874 -0.2284 -0.6942
  691TMC3     O10221   2.343   3.217  15.577 -0.0024  0.5013 -0.2883
  691TMC3     H10222   2.133   3.101  15.496  1.8320  1.2675  2.9537
  691TMC3    H110223   2.501   2.897  15.435  0.2328  0.2359  1.0481
  691TMC3    H210224   2.134   2.680  15.453 -0.2126  0.7319 -1.0508
  691TMC3    C710225   2.387   2.655  15.437  0.1721  0.2075  0.4190
  691TMC3    C810226   1.995   2.873  15.542  0.4938 -0.0744 -0.4562
  691TMC3    O110227   2.499   2.670  15.486  0.3847 -0.3251 -0.1407
  691TMC3    O210228   1.954   2.757  15.547  0.0518 -0.0207 -0.3683
  692TMC3    C110229   4.277   4.503  15.911  0.2468 -0.3715 -0.5495
  692TMC3    C210230   4.385   4.561  15.977 -0.2336  0.3753  0.7060
  692TMC3    C310231   4.514   4.514  15.951  0.3874  0.0962  0.2442
  692TMC3    C410232   4.285   4.390  15.834  0.9106  0.0342 -0.3122
  692TMC3    C510233   4.413   4.347  15.818  0.3019 -0.0410 -0.1803
  692TMC3    C610234   4.523   4.411  15.858  0.0512 -0.1304  0.2484
  692TMC3     C10235   4.150   4.567  15.908  0.3134 -0.4378  0.5055
  692TMC3     O10236   4.051   4.510  15.864  0.5658  0.0991  0.1905
  692TMC3     H10237   4.372   4.635  16.055 -0.7464  1.7897 -0.7119
  692TMC3    H110238   4.196   4.335  15.807  0.8259  1.1835 -2.3756
  692TMC3    H210239   4.620   4.364  15.846 -0.1606 -0.7831  1.0532
  692TMC3    C710240   4.422   4.211  15.770 -0.0701 -0.2033 -0.8922
  692TMC3    C810241   4.583   4.470  16.065  0.0338 -0.2615 -0.7893
  692TMC3    O110242   4.351   4.186  15.672  0.5249 -0.5523  0.2837
  692TMC3    O210243   4.589   4.350  16.080 -0.7431  0.2440 -0.1131
  693MPD2     C10244   3.586   2.193  10.862 -0.0608 -0.3347 -0.0951
  693MPD2    C110245   3.581   2.075  10.795 -0.5946 -0.0040 -0.2979
  693MPD2    C210246   3.693   2.041  10.726 -0.8518  0.2185  0.5896
  693MPD2    C310247   3.809   2.120  10.735 -0.5472 -0.0238 -0.4796
  693MPD2    C410248   3.818   2.227  10.818 -0.0334 -0.1803 -0.0174
  693MPD2    C510249   3.701   2.264  10.883 -0.2792  0.3785  0.4872
  693MPD2     H10250   3.686   1.944  10.679  0.0306 -0.0530  1.0001
  693MPD2    H110251   3.906   2.286  10.840 -1.3489  1.5585  0.5937
  693MPD2    H210252   3.500   2.213  10.925  0.5542 -1.2939  1.0520
  693MPD2    H310253   3.703   2.351  10.948  1.0796  0.7936 -0.1217
  693MPD2     N10254   3.934   2.070  10.681 -0.1061 -0.2702  0.0487
  693MPD2    H510255   4.020   2.119  10.700  0.8858 -1.5299 -1.2217
  693MPD2    N110256   3.470   1.988  10.815  0.3970  0.4889 -0.2499
  693MPD2    H710257   3.411   2.011  10.894  1.0850  1.1189  0.0896
  694TMC3    C110258   3.324   1.810  10.764 -0.2274 -0.1760  0.2057
  694TMC3    C210259   3.228   1.769  10.674 -0.1264  0.2249 -0.1642
  694TMC3    C310260   3.125   1.690  10.718 -0.4180 -0.2221 -0.1657
  694TMC3    C410261   3.304   1.785  10.898 -0.4822  0.0831 -0.6043
  694TMC3    C510262   3.195   1.710  10.936  0.1933  0.0925 -0.3807
  694TMC3    C610263   3.101   1.658  10.851  0.4484  0.5070 -0.3227
  694TMC3     C10264   3.436   1.896  10.721 -0.5367  0.2605  0.1182
  694TMC3     O10265   3.467   1.896  10.603  0.1663  0.1343  0.5420
  694TMC3     H10266   3.234   1.800  10.570 -2.7671 -0.5087 -0.5340
  694TMC3    H110267   3.372   1.824  10.973  1.0404 -3.9170  0.0999
  694TMC3    H210268   3.015   1.601  10.884  2.0084 -1.4540  0.4197
  694TMC3    C710269   3.190   1.693  11.084  0.2390 -0.1192 -0.0352
  694TMC3    C810270   3.045   1.609  10.629 -0.2275  0.1505  0.6966
  694TMC3    O110271   3.287   1.726  11.152 -0.1912  0.5036  0.0707
  694TMC3    O210272   2.986   1.512  10.679  0.5053 -0.2672 -0.3786
  695MPD2     C10273   4.416   3.625  13.565 -0.8095  0.5735  0.3810
  695MPD2    C110274   4.392   3.725  13.656 -0.0908  0.0179  1.0515
  695MPD2    C210275   4.276   3.798  13.651 -0.2945  0.2352  0.2108
  695MPD2    C310276   4.187   3.787  13.551 -1.7669 -0.0512 -0.1390
  695MPD2    C410277   4.207   3.683  13.467  0.2891  0.0511  0.6851
  695MPD2    C510278   4.313   3.598  13.481  0.2173 -0.1098  0.1246
  695MPD2     H10279   4.258   3.877  13.723  0.6471  0.8640 -0.2385
  695MPD2    H110280   4.134   3.650  13.394  0.1884  2.7786 -0.4461
  695MPD2    H210281   4.508   3.569  13.565  0.0522  1.9816  0.4623
  695MPD2    H310282   4.321   3.518  13.409 -0.6261  0.1844 -0.3021
  695MPD2     N10283   4.066   3.865  13.554  0.2041 -0.5408 -0.1454
  695MPD2    H510284   4.056   3.929  13.632 -1.3429  0.1079 -0.8643
  695MPD2    N110285   4.484   3.757  13.754  0.1171  0.4068  0.4040
  695MPD2    H710286   4.442   3.819  13.822  0.7740  2.1317 -0.7657
  696TMC3    C110287   3.836   3.891  13.497  0.6647  0.6345  0.6398
  696TMC3    C210288   3.801   3.899  13.638 -0.4569  0.3171 -0.1832
  696TMC3    C310289   3.685   3.970  13.670  0.1472  0.3647 -0.7582
  696TMC3    C410290   3.758   3.955  13.402  0.6439  0.5020 -0.2386
  696TMC3    C510291   3.651   4.027  13.440 -0.3061 -0.5880 -0.2813
  696TMC3    C610292   3.603   4.015  13.563  0.2811 -0.3787 -0.0938
  696TMC3     C10293   3.971   3.849  13.459 -0.3237  0.4565  0.2579
  696TMC3     O10294   3.978   3.809  13.342  0.3550  0.1842  0.0585
  696TMC3     H10295   3.886   3.882  13.703 -1.2739 -0.8418  0.5806
  696TMC3    H110296   3.810   3.981  13.311  0.8273  0.8033 -0.0494
  696TMC3    H210297   3.510   4.065  13.588  1.1905  2.2843 -2.0494
  696TMC3    C710298   3.638   4.156  13.377 -0.2581  0.1992  0.1431
  696TMC3    C810299   3.702   4.068  13.777  0.0039 -0.0824 -0.0041
  696TMC3    O110300   3.675   4.161  13.257  0.0248  0.1240 -0.0456
  696TMC3    O210301   3.639   4.176  13.770 -0.5412 -0.1728 -0.7543
  697MPD2     C10302   3.791   1.166  15.698 -0.5419 -0.2977  0.9092
  697MPD2    C110303   3.837   1.107  15.583 -0.2360 -0.6235 -0.0954
  697MPD2    C210304   3.897   1.184  15.487  0.3800  0.0009  0.1469
  697MPD2    C310305   3.902   1.317  15.501  0.5125 -0.1622  0.7624
  697MPD2    C410306   3.858   1.381  15.612 -0.3579  0.7063 -0.4073
  697MPD2    C510307   3.800   1.305  15.711 -0.4354 -0.3189  0.2694
  697MPD2     H10308   3.924   1.147  15.389  3.7052  1.4967  0.4965
  697MPD2    H110309   3.854   1.488  15.626  2.6449  0.7474  0.1145
  697MPD2    H210310   3.749   1.113  15.783 -0.6400  0.0270  1.0638
  697MPD2    H310311   3.757   1.347  15.801 -1.5457 -2.6055  0.8068
  697MPD2     N10312   3.967   1.389  15.396 -0.4949  0.0407 -0.0379
  697MPD2    H510313   4.008   1.333  15.322  0.5469  1.9610 -0.9177
  697MPD2    N110314   3.846   0.963  15.577 -0.0089  0.0988 -0.1279
  697MPD2    H710315   3.881   0.928  15.488 -2.0542  1.5176 -1.4799
  698TMC3    C110316   4.047   1.575  15.266 -0.0956  0.4508  0.4490
  698TMC3    C210317   4.095   1.703  15.269  0.4132 -0.4648 -0.3500
  698TMC3    C310318   4.150   1.750  15.155 -0.0877  0.0180 -0.7207
  698TMC3    C410319   4.062   1.498  15.156  0.4156  0.1279  0.4782
  698TMC3    C510320   4.115   1.559  15.042  0.8278 -0.3152  0.2455
  698TMC3    C610321   4.147   1.685  15.035  0.3710 -0.0029  0.1577
  698TMC3     C10322   3.973   1.528  15.382 -0.0804  0.5187 -0.0160
  698TMC3     O10323   3.923   1.615  15.450 -0.1116  0.3436 -0.4856
  698TMC3     H10324   4.075   1.764  15.356 -0.2305 -0.7852 -0.2736
  698TMC3    H110325   4.007   1.407  15.138  3.3801 -0.8515 -3.5163
  698TMC3    H210326   4.176   1.727  14.939 -2.0691  3.6437  1.0627
  698TMC3    C710327   4.113   1.488  14.918  0.0822  0.1314  0.8259
  698TMC3    C810328   4.183   1.892  15.152 -0.5707  0.2109  0.0480
  698TMC3    O110329   4.024   1.401  14.917  0.2139  0.5885 -0.0373
  698TMC3    O210330   4.136   1.974  15.230 -0.0192  0.1886 -0.0697
  699TMC3    C110331   3.703   3.787  13.074 -0.0183 -0.5952  0.1244
  699TMC3    C210332   3.729   3.690  13.175  0.0580  0.5966  0.6130
  699TMC3    C310333   3.618   3.675  13.252 -0.3269 -0.2026  0.3532
  699TMC3    C410334   3.585   3.856  13.059  0.3005 -0.0824 -0.4016
  699TMC3    C510335   3.484   3.834  13.148 -0.4481  0.0451  0.0175
  699TMC3    C610336   3.497   3.740  13.250 -0.3870  0.4247  0.0529
  699TMC3     C10337   3.806   3.824  12.983  0.4582  0.4031 -0.3653
  699TMC3     O10338   3.766   3.902  12.897  0.6518  0.4505  0.1150
  699TMC3     H10339   3.823   3.636  13.170 -1.5681 -2.0212 -1.7469
  699TMC3    H110340   3.556   3.918  12.975  1.5936  0.2134 -0.6306
  699TMC3    H210341   3.414   3.719  13.317 -0.6563  0.6579 -0.2120
  699TMC3    C710342   3.388   3.939  13.172  0.5149  0.4906  0.2916
  699TMC3    C810343   3.623   3.587  13.364  0.0602  0.1555 -0.4393
  699TMC3    O110344   3.353   3.945  13.288  0.1127  0.5880  0.1107
  699TMC3    O210345   3.515   3.552  13.408 -0.3089  0.7230 -0.1204
  700TMC3    C110346   2.788   1.908  16.668 -0.1041  0.1959 -0.1634
  700TMC3    C210347   2.912   1.861  16.683 -0.1150  0.4670 -0.5561
  700TMC3    C310348   2.969   1.857  16.807  0.0410 -0.0769  0.1363
  700TMC3    C410349   2.725   1.960  16.777  0.0147  0.1040  0.6958
  700TMC3    C510350   2.785   1.947  16.902 -0.1292  0.1388  0.3373
  700TMC3    C610351   2.902   1.885  16.919 -0.7790  0.3318 -0.2976
  700TMC3     C10352   2.761   1.984  16.553  0.6772  0.0235 -0.2858
  700TMC3     O10353   2.675   1.953  16.469 -0.0469 -0.5118  0.1084
  700TMC3     H10354   2.971   1.842  16.594  1.6826 -0.9365  0.9265
  700TMC3    H110355   2.626   2.005  16.771 -0.5411 -1.4218 -1.3985
  700TMC3    H210356   2.941   1.880  17.020 -0.5815 -1.2745 -0.4489
  700TMC3    C710357   2.743   2.022  17.015 -0.3625 -0.1597 -0.1933
  700TMC3    C810358   3.086   1.765  16.812 -0.1692  0.6133 -0.0593
  700TMC3    O110359   2.824   2.043  17.102  0.2222 -0.6021  0.0425
  700TMC3    O210360   3.093   1.679  16.723 -0.2054  0.4908  0.4092
  701TMC3    C110361   3.292   0.302  15.228 -0.3013 -0.2825 -0.1626
  701TMC3    C210362   3.269   0.341  15.101 -0.4776 -0.2766  0.6023
  701TMC3    C310363   3.344   0.441  15.045  0.2547 -0.3666  0.7849
  701TMC3    C410364   3.397   0.342  15.302  0.4158 -0.4831  0.2502
  701TMC3    C510365   3.470   0.445  15.243  0.1937  0.0834 -0.3588
  701TMC3    C610366   3.442   0.495  15.118 -0.2940 -0.1332  0.6414
  701TMC3     C10367   3.206   0.199  15.288  0.9060  0.1695 -0.2248
  701TMC3     O10368   3.091   0.209  15.253  0.1842  0.2858  0.4824
  701TMC3     H10369   3.184   0.304  15.046 -0.0220  1.4883 -1.3239
  701TMC3    H110370   3.409   0.314  15.406 -1.6604  0.0432  0.6297
  701TMC3    H210371   3.498   0.578  15.076 -1.9387  0.5625 -0.2047
  701TMC3    C710372   3.529   0.547  15.327 -0.5527 -0.7053  0.1170
  701TMC3    C810373   3.299   0.508  14.922  0.3472 -0.5438  0.0226
  701TMC3    O110374   3.622   0.615  15.283  0.3705  0.4921 -0.3214
  701TMC3    O210375   3.339   0.620  14.899 -0.1636 -0.4339 -0.3419
  702MPD2     C10376   2.936   2.358  10.489  0.5806  0.1255 -0.1120
  702MPD2    C110377   2.811   2.421  10.511 -0.3902 -0.1770  0.0101
  702MPD2    C210378   2.741   2.486  10.409 -0.6980 -0.6823 -1.4485
  702MPD2    C310379   2.793   2.471  10.284 -0.2291 -0.3581 -0.2614
  702MPD2    C410380   2.910   2.406  10.257  0.7329 -0.0407  0.2596
  702MPD2    C510381   2.982   2.348  10.359 -0.1026  0.2404 -0.5810
  702MPD2     H10382   2.648   2.540  10.420  0.1846  0.8706 -1.6163
  702MPD2    H110383   2.943   2.406  10.153 -1.5148 -2.1787 -0.4409
  702MPD2    H210384   2.990   2.315  10.573  0.8410  0.8901  0.1172
  702MPD2    H310385   3.080   2.303  10.347 -0.1128 -0.2128  1.0265
  702MPD2     N10386   2.723   2.553  10.187  0.1178 -0.0038  0.3501
  702MPD2    H510387   2.642   2.605  10.219 -0.0362  1.0104 -1.7446
  702MPD2    N110388   2.771   2.437  10.642 -0.2633  0.4420 -0.2217
  702MPD2    H710389   2.835   2.403  10.713  0.8041  1.3491 -0.7489
  703TMC3    C110390   2.728   2.739  10.056 -0.2092 -0.2046  0.6106
  703TMC3    C210391   2.601   2.762  10.095 -1.1158 -0.4729 -0.2175
  703TMC3    C310392   2.561   2.873  10.162  0.0020 -0.5459  0.1039
  703TMC3    C410393   2.824   2.837  10.080  0.7859 -0.0711 -0.2697
  703TMC3    C510394   2.786   2.954  10.137 -0.6512  0.1037  0.3517
  703TMC3    C610395   2.654   2.972  10.185  0.8666 -0.0012  0.5106
  703TMC3     C10396   2.778   2.607  10.073  0.2450 -0.3598 -0.4606
  703TMC3     O10397   2.877   2.570  10.016  0.3844  0.1783  0.4441
  703TMC3     H10398   2.531   2.679  10.093 -1.9590  0.1817  1.5514
  703TMC3    H110399   2.928   2.806  10.078  0.6396 -0.6493  0.7706
  703TMC3    H210400   2.626   3.042  10.263  0.0249 -0.7353  0.8591
  703TMC3    C710401   2.894   3.035  10.191 -0.0717  0.0879 -0.0855
  703TMC3    C810402   2.496   2.830  10.283 -0.1694  0.4501 -0.6085
  703TMC3    O110403   3.011   3.001  10.172  0.2511 -0.4594 -0.9349
  703TMC3    O210404   2.507   2.710  10.304 -1.1852 -0.2278 -0.2819
  704TMC3    C110405   4.542   0.954  11.883  0.4268 -0.0625 -0.0952
  704TMC3    C210406   4.674   0.985  11.891 -0.0256  0.8345 -0.1703
  704TMC3    C310407   0.020   0.969  12.007  0.4445  0.5831  0.3128
  704TMC3    C410408   4.489   0.883  11.985  0.1287 -0.3257  0.0920
  704TMC3    C510409   4.560   0.857  12.098 -0.0950  0.5828 -0.3181
  704TMC3    C610410   4.683   0.915  12.121 -0.4941 -0.0954  0.0068
  704TMC3     C10411   4.500   0.904  11.755 -0.2378 -0.3139 -0.2515
  704TMC3     O10412   4.379   0.904  11.721 -0.2146  0.3465  0.1261
  704TMC3     H10413   4.721   1.030  11.804  1.6549 -2.5526 -1.0245
  704TMC3    H110414   4.400   0.820  11.977  0.0376 -0.0645 -0.9959
  704TMC3    H210415   0.018   0.886  12.209 -0.2812  0.2006 -0.0373
  704TMC3    C710416   4.533   0.724  12.150  0.1721 -0.0092  0.2194
  704TMC3    C810417   0.165   1.004  11.998  0.1838  0.3382 -0.5014
  704TMC3    O110418   4.414   0.695  12.173  0.2053  0.2527 -0.1106
  704TMC3    O210419   0.203   1.016  11.882 -0.6295  0.1897  0.2894
  705MPD2     C10420   0.218   4.068  16.560 -0.3248  0.4684 -0.3113
  705MPD2    C110421   0.127   4.016  16.473  0.5846  0.6224 -0.3216
  705MPD2    C210422   4.714   4.016  16.499  0.2595 -0.0391 -0.0409
  705MPD2    C310423   4.663   4.081  16.610  0.4693  0.2432 -0.0517
  705MPD2    C410424   0.025   4.153  16.686 -0.4586 -0.9283  0.4152
  705MPD2    C510425   0.162   4.147  16.661  0.1376  0.2980 -0.1693
  705MPD2     H10426   4.657   3.971  16.418  0.7049  0.1125 -0.4345
  705MPD2    H110427   4.709   4.211  16.769 -0.2298  0.5388 -0.5019
  705MPD2    H210428   0.325   4.076  16.541 -0.4391  0.6619 -0.8705
  705MPD2    H310429   0.231   4.173  16.739  0.5909  1.2630 -0.8909
  705MPD2     N10430   4.531   4.086  16.637 -0.3373  0.3194 -0.2845
  705MPD2    H510431   4.500   4.129  16.724  0.2912  0.4771 -0.1328
  705MPD2    N110432   0.160   3.970  16.344  0.6248  0.5673 -1.2981
  705MPD2    H710433   0.079   3.944  16.289 -0.7057 -0.8612  1.2975
  706TMC3    C110434   0.386   3.926  15.938 -0.8406  0.8344  0.3367
  706TMC3    C210435   0.304   4.014  15.873 -0.5207  0.5113 -0.4922
  706TMC3    C310436   0.202   4.064  15.943 -0.2735  0.4937  0.4854
  706TMC3    C410437   0.373   3.888  16.073  0.6588  0.0033  0.0744
  706TMC3    C510438   0.268   3.939  16.135 -0.5229 -0.0322 -0.0800
  706TMC3    C610439   0.179   4.026  16.076  0.1317  0.2216  0.0224
  706TMC3     C10440   0.493   3.872  15.863 -0.7361 -0.2302  0.3456
  706TMC3     O10441   0.589   3.830  15.928  0.5033  0.7838 -0.3174
  706TMC3     H10442   0.330   4.049  15.774 -0.4925  0.3937 -0.5266
  706TMC3    H110443   0.433   3.818  16.130  1.2028  1.2279  1.0129
  706TMC3    H210444   0.098   4.077  16.126  1.5931  0.7198  1.8934
  706TMC3    C710445   0.284   3.952  16.282 -0.2508  0.5318  0.1705
  706TMC3    C810446   0.177   4.202  15.921  0.0754 -0.9764 -0.3526
  706TMC3    O110447   0.396   3.931  16.330  0.1828 -0.0784 -0.5659
  706TMC3    O210448   0.182   4.241  15.804 -0.1549  0.2726 -0.7028
  707TMC3    C110449   1.969   3.013   1.413 -0.0348 -0.2161 -1.1280
  707TMC3    C210450   2.014   2.930   1.510 -0.1409  0.0445  0.1334
  707TMC3    C310451   1.951   2.952   1.631 -0.0761  0.1061 -0.4025
  707TMC3    C410452   1.875   3.112   1.429 -0.1227  0.2734  0.2818
  707TMC3    C510453   1.809   3.115   1.549  0.4398 -0.0060  0.0110
  707TMC3    C610454   1.845   3.040   1.656  0.4938  0.0823 -1.4709
  707TMC3     C10455   2.013   2.976   1.284 -0.2984 -0.3337 -0.2212
  707TMC3     O10456   2.058   2.861   1.267 -0.5770  0.1225  0.1938
  707TMC3     H10457   2.094   2.860   1.493 -2.2884 -2.3093 -0.2733
  707TMC3    H110458   1.826   3.165   1.348 -0.2672  0.0816  0.2434
  707TMC3    H210459   1.806   3.056   1.756 -2.7615 -1.4190 -2.5124
  707TMC3    C710460   1.720   3.225   1.570 -0.2793  0.1506 -0.1780
  707TMC3    C810461   1.977   2.852   1.735 -0.7345  0.2685  0.4009
  707TMC3    O110462   1.747   3.330   1.514  0.0630  0.3387  0.4373
  707TMC3    O210463   1.887   2.839   1.817  0.4962  0.2678 -0.5061
  708MPD2     C10464   2.974   2.392  13.705 -0.5339 -0.0627  0.5556
  708MPD2    C110465   2.892   2.337  13.804  0.7591  0.3769  0.2026
  708MPD2    C210466   2.947   2.246  13.896  0.5894 -0.3675 -0.1058
  708MPD2    C310467   3.083   2.208  13.887  0.2289  0.5124  0.3617
  708MPD2    C410468   3.163   2.269  13.790  0.0190  0.3490  0.6781
  708MPD2    C510469   3.100   2.348  13.695  0.1696  0.0356  0.3837
  708MPD2     H10470   2.882   2.207  13.973  1.2439 -3.2832 -1.0360
  708MPD2    H110471   3.268   2.253  13.770 -0.4973 -1.4770 -0.4952
  708MPD2    H210472   2.922   2.441  13.623  2.2985  0.4559 -0.9383
  708MPD2    H310473   3.153   2.379  13.605  2.0578 -0.3330  1.3625
  708MPD2     N10474   3.148   2.104  13.964 -0.2320  0.7380  0.8368
  708MPD2    H510475   3.247   2.093  13.945 -0.3658 -0.9649  1.1206
  708MPD2    N110476   2.757   2.383  13.826 -0.0694  0.0966  0.2047
  708MPD2    H710477   2.703   2.340  13.900 -0.2617  0.0244  0.0228
  709TMC3    C110478   2.551   2.491  13.795 -0.1486 -0.1903  1.2196
  709TMC3    C210479   2.459   2.458  13.697  0.3410  0.8216 -0.8383
  709TMC3    C310480   2.377   2.353  13.721  0.9669 -0.3104 -0.5367
  709TMC3    C410481   2.539   2.443  13.919 -0.2967 -0.3570 -0.7914
  709TMC3    C510482   2.441   2.356  13.949 -0.4742  0.0134 -0.8582
  709TMC3    C610483   2.359   2.302  13.850  0.3039  0.2133  0.4995
  709TMC3     C10484   2.686   2.466  13.744  1.1781 -0.3734  0.2166
  709TMC3     O10485   2.709   2.518  13.636 -0.1521  0.4113  0.2068
  709TMC3     H10486   2.463   2.504  13.599 -0.3354 -1.5566 -1.9906
  709TMC3    H110487   2.611   2.475  13.995  1.5817 -1.3238 -2.1729
  709TMC3    H210488   2.296   2.216  13.867 -1.4539  1.5144  0.5794
  709TMC3    C710489   2.506   2.250  14.021 -0.4699  0.0465  0.2479
  709TMC3    C810490   2.311   2.283  13.611 -0.5674 -0.0538 -0.8730
  709TMC3    O110491   2.611   2.218  13.963  0.1193 -0.0788 -0.0548
  709TMC3    O210492   2.237   2.195  13.642 -0.3739  0.7669  0.0377
  710TMC3    C110493   4.233   4.523   1.055  0.4082  0.1344 -0.3933
  710TMC3    C210494   4.291   4.476   0.942  0.0018  0.0293 -0.6153
  710TMC3    C310495   4.396   4.379   0.955  0.7904  0.1571  0.0856
  710TMC3    C410496   4.269   4.478   1.179  0.6317  0.6953  0.5389
  710TMC3    C510497   4.366   4.382   1.186 -0.0942 -0.1904  0.5227
  710TMC3    C610498   4.439   4.336   1.080 -0.1881 -0.1131 -0.0432
  710TMC3     C10499   4.126   4.616   1.027 -0.1309  0.1288  0.1442
  710TMC3     O10500   4.107   4.648   0.909 -0.4139  0.1515 -0.1993
  710TMC3     H10501   4.252   4.494   0.843 -1.6004 -1.4700 -0.2724
  710TMC3    H110502   4.215   4.510   1.267 -1.7819 -0.7295 -0.4127
  710TMC3    H210503   4.496   4.244   1.093  0.5726  0.3731  0.0308
  710TMC3    C710504   4.396   4.324   1.318 -0.2333 -0.9917 -0.5242
  710TMC3    C810505   4.431   4.306   0.831  0.2427 -0.1459 -0.5183
  710TMC3    O110506   4.317   4.336   1.407  0.6003 -0.1976  0.0232
  710TMC3    O210507   4.359   4.321   0.734  0.3595 -0.1818 -0.6284
  711TMC3    C110508   3.675   0.151  14.846 -0.4463  0.1802  0.7196
  711TMC3    C210509   3.700   0.218  14.962  0.1671 -0.2346  0.1363
  711TMC3    C310510   3.817   0.199  15.024 -0.2752 -0.6961 -0.0141
  711TMC3    C410511   3.762   0.049  14.806  0.1432 -0.3261  1.1693
  711TMC3    C510512   3.878   0.029  14.875 -0.0004 -0.5782  0.1983
  711TMC3    C610513   3.915   0.121  14.967  1.1601  0.0880 -0.2210
  711TMC3     C10514   3.567   0.199  14.762 -0.0682  0.0088 -0.9277
  711TMC3     O10515   3.524   0.313  14.785  0.1460 -0.0951  0.2520
  711TMC3     H10516   3.626   0.285  15.004  0.3391 -0.4164  0.7427
  711TMC3    H110517   3.730   4.721  14.716  1.7397  1.6569 -0.4951
  711TMC3    H210518   4.012   0.112  15.013  0.7933 -1.8316  0.1871
  711TMC3    C710519   3.909   4.616  14.919 -0.6983 -0.5068 -1.0245
  711TMC3    C810520   3.822   0.220  15.172  0.0271  0.6524  0.1740
  711TMC3    O110521   3.981   4.609  15.018 -0.0506 -0.0293  0.0950
  711TMC3    O210522   3.720   0.226  15.245  0.0274 -0.4491 -0.7389
  712MPD2     C10523   0.122   0.800  13.149 -0.6546 -0.1007 -0.6440
  712MPD2    C110524   0.066   0.829  13.270 -0.1586 -0.5723  0.7867
  712MPD2    C210525   0.136   0.913  13.352 -0.0217 -1.1748  0.6169
  712MPD2    C310526   0.268   0.931  13.342  0.0293 -0.1088  1.3575
  712MPD2    C410527   0.333   0.887  13.226  0.5260 -0.0986  0.0915
  712MPD2    C510528   0.259   0.823  13.127 -0.0454 -0.0577 -0.4930
  712MPD2     H10529   0.079   0.954  13.434  0.1452 -1.2617  0.7754
  712MPD2    H110530   0.438   0.900  13.202  0.7624 -0.9793  0.6667
  712MPD2    H210531   0.059   0.756  13.072 -0.0647 -1.1882 -0.4992
  712MPD2    H310532   0.308   0.804  13.033  3.0809  2.0476  0.7092
  712MPD2     N10533   0.345   1.002  13.436 -0.2491 -0.1451  0.4858
  712MPD2    H510534   0.442   1.022  13.417 -0.3357 -0.1915 -0.0100
  712MPD2    N110535   4.650   0.796  13.297 -0.3482 -0.0227 -0.0671
  712MPD2    H710536   4.599   0.741  13.229 -2.6476  1.6913  0.2863
  713TMC3    C110537   0.399   1.123  13.630  0.4098 -0.4287  0.6269
  713TMC3    C210538   0.526   1.092  13.600 -0.4768  0.2579 -1.2096
  713TMC3    C310539   0.618   1.184  13.643 -0.4000 -0.3726  0.2383
  713TMC3    C410540   0.358   1.246  13.684 -0.1489  0.8645  0.3413
  713TMC3    C510541   0.460   1.331  13.715  0.8287 -0.2320  0.7794
  713TMC3    C610542   0.589   1.300  13.700  0.1666  0.2106 -0.8380
  713TMC3     C10543   0.295   1.066  13.549  0.7047  0.2427  0.3337
  713TMC3     O10544   0.178   1.102  13.574  0.7111 -0.8049 -0.3779
  713TMC3     H10545   0.564   1.002  13.552 -2.5486 -1.5640  0.5884
  713TMC3    H110546   0.257   1.259  13.721 -0.1131  0.7308  0.4866
  713TMC3    H210547   0.668   1.374  13.715 -0.2948  0.1965  1.7463
  713TMC3    C710548   0.433   1.472  13.760  0.4972 -0.2229 -0.4695
  713TMC3    C810549   0.752   1.169  13.583 -0.4159  0.1151 -0.8571
  713TMC3    O110550   0.531   1.512  13.823  0.4029  0.0206  0.2419
  713TMC3    O210551   0.760   1.101  13.483  0.3264  0.5089 -0.5075
  714MPD2     C10552   2.227   4.535   1.155 -0.3251 -0.1038 -0.2686
  714MPD2    C110553   2.183   4.409   1.196  0.1546 -0.8909  0.2759
  714MPD2    C210554   2.117   4.327   1.107  0.2488  0.4061  0.6230
  714MPD2    C310555   2.096   4.360   0.972  0.9027  0.1038  0.1508
  714MPD2    C410556   2.145   4.482   0.936 -1.0743  0.5980  0.2100
  714MPD2    C510557   2.203   4.570   1.022  0.0430 -0.3040 -0.0313
  714MPD2     H10558   2.079   4.233   1.145  1.4164 -1.3573 -2.5144
  714MPD2    H110559   2.117   4.519   0.838 -1.6778  0.3835  0.3012
  714MPD2    H210560   2.287   4.601   1.217  2.0973 -1.2719 -1.3339
  714MPD2    H310561   2.235   4.667   0.988  0.4935 -0.8754 -1.2438
  714MPD2     N10562   2.024   4.271   0.890 -0.1578  0.0181  0.2754
  714MPD2    H510563   1.957   4.207   0.932  2.0197 -2.2591  0.2342
  714MPD2    N110564   2.212   4.380   1.333  1.0316  0.1379  0.2531
  714MPD2    H710565   2.266   4.447   1.387 -1.0296  2.9689 -1.1797
  715TMC3    C110566   2.235   4.244   1.527 -0.5735  0.3594  0.0829
  715TMC3    C210567   2.238   4.119   1.581 -0.2416 -0.7478  0.8571
  715TMC3    C310568   2.265   4.110   1.712  0.6926 -0.2741  0.4412
  715TMC3    C410569   2.223   4.354   1.599  0.0626 -0.5519 -0.4515
  715TMC3    C510570   2.242   4.341   1.736  0.3094  0.7914  0.4629
  715TMC3    C610571   2.275   4.222   1.789 -0.6747  0.6427  0.1140
  715TMC3     C10572   2.206   4.250   1.379  0.8904 -0.0017  0.1464
  715TMC3     O10573   2.188   4.150   1.315 -0.7050  0.2503 -0.2918
  715TMC3     H10574   2.245   4.031   1.519 -1.8846 -0.7023  0.6190
  715TMC3    H110575   2.194   4.448   1.553 -1.5742 -0.4249  0.8291
  715TMC3    H210576   2.309   4.209   1.892  1.1939  1.7397 -0.3657
  715TMC3    C710577   2.272   4.455   1.820  0.6713  0.2004  0.1695
  715TMC3    C810578   2.351   3.994   1.753 -0.0606  0.2864 -0.2084
  715TMC3    O110579   2.288   4.439   1.940  0.5891  0.5082 -0.3869
  715TMC3    O210580   2.362   3.911   1.665  0.0114  0.3028  0.1834
  716MPD2     C10581   2.863   1.771   9.646 -0.0901  0.1869  0.9941
  716MPD2    C110582   2.875   1.741   9.509  0.9563 -0.5044  0.1391
  716MPD2    C210583   2.930   1.617   9.472 -0.2365 -0.2999 -0.4824
  716MPD2    C310584   2.977   1.526   9.566 -0.9151  0.8217 -0.1629
  716MPD2    C410585   2.971   1.569   9.699  0.6057  0.1287 -0.2753
  716MPD2    C510586   2.910   1.687   9.740  0.4751  0.2049  0.0360
  716MPD2     H10587   2.938   1.589   9.367  0.7324  0.9115 -0.7331
  716MPD2    H110588   3.013   1.507   9.778  1.5901 -0.9616 -1.6544
  716MPD2    H210589   2.832   1.869   9.681  0.2640  0.3098  0.9694
  716MPD2    H310590   2.915   1.705   9.847 -0.5657 -0.4184  0.1837
  716MPD2     N10591   3.025   1.403   9.529  0.0958 -0.5941  0.1536
  716MPD2    H510592   3.035   1.384   9.429 -0.4909  2.7940 -0.5540
  716MPD2    N110593   2.845   1.849   9.420 -0.4795  0.0213  0.0185
  716MPD2    H710594   2.806   1.936   9.456 -1.0145  0.0243 -0.5798
  717TMC3    C110595   3.101   1.184   9.537  0.4145 -0.2550  0.0307
  717TMC3    C210596   3.144   1.191   9.410 -0.4875  0.3847  0.1824
  717TMC3    C310597   3.139   1.067   9.351  0.2333  0.6200 -0.5728
  717TMC3    C410598   3.108   1.065   9.601 -0.3648 -0.1880 -0.5209
  717TMC3    C510599   3.148   0.948   9.547  0.0249  0.1004  0.8173
  717TMC3    C610600   3.157   0.944   9.410  0.4399 -0.0467 -0.4805
  717TMC3     C10601   3.067   1.301   9.615  0.5172 -0.8649 -0.0482
  717TMC3     O10602   3.077   1.302   9.733 -0.1507  0.2792  0.1875
  717TMC3     H10603   3.126   1.278   9.347 -1.4030  0.7912  1.0036
  717TMC3    H110604   3.069   1.057   9.701 -0.7408 -1.6692 -0.7897
  717TMC3    H210605   3.170   0.853   9.353  2.7057 -0.2343  0.3327
  717TMC3    C710606   3.177   0.818   9.619  0.2556  0.6209  0.2408
  717TMC3    C810607   3.094   1.063   9.209 -0.2416  0.6000  0.2885
  717TMC3    O110608   3.165   0.716   9.555 -0.0411  0.9132  0.3403
  717TMC3    O210609   3.106   1.158   9.130  0.0733  0.3356  0.3702
  718MPD2     C10610   1.603   2.099  12.610 -0.5328 -0.6815 -0.1912
  718MPD2    C110611   1.595   2.035  12.486 -0.2900  0.9903  0.4162
  718MPD2    C210612   1.491   1.947  12.464  0.2843  0.1449 -0.8109
  718MPD2    C310613   1.400   1.920  12.567 -0.1431 -0.9632  0.9720
  718MPD2    C410614   1.409   1.993  12.689  0.1705  0.2751  0.2180
  718MPD2    C510615   1.515   2.070  12.711 -0.7148  0.1134  0.8307
  718MPD2     H10616   1.473   1.898  12.369 -0.5967 -1.1154  0.0047
  718MPD2    H110617   1.338   1.979  12.770 -0.0441  0.5851  0.0824
  718MPD2    H210618   1.693   2.158  12.627 -0.5831 -0.8577  0.6639
  718MPD2    H310619   1.539   2.108  12.810  0.3975 -3.5246  1.9483
  718MPD2     N10620   1.307   1.820  12.536  0.1596 -0.2273  0.1770
  718MPD2    H510621   1.322   1.762  12.454  1.9074  0.1753  0.2079
  718MPD2    N110622   1.680   2.057  12.378  0.2715  0.2454  0.0630
  718MPD2    H710623   1.672   1.988  12.304 -2.5044 -0.2171  0.7805
  719TMC3    C110624   1.842   2.124  12.239  0.4822 -0.3731  0.5240
  719TMC3    C210625   1.766   2.112  12.130 -0.0367  0.9606 -0.1745
  719TMC3    C310626   1.792   2.032  12.028  0.1475 -0.0211  0.2254
  719TMC3    C410627   1.953   2.052  12.258  0.4551 -0.2983 -0.3608
  719TMC3    C510628   1.981   1.976  12.150 -0.1353  0.0365  0.0180
  719TMC3    C610629   1.910   1.967  12.030  0.5194  0.2842 -0.0041
  719TMC3     C10630   1.774   2.150  12.363 -0.6153  0.4636 -0.1295
  719TMC3     O10631   1.826   2.239  12.430  0.7478 -0.1317  0.2528
  719TMC3     H10632   1.667   2.155  12.125 -0.4105  0.0142 -0.8333
  719TMC3    H110633   2.012   2.057  12.348  1.7301  1.4498 -1.2995
  719TMC3    H210634   1.927   1.893  11.952 -1.2101  0.0071 -0.1139
  719TMC3    C710635   2.096   1.891  12.151  0.3958  0.8884  0.1161
  719TMC3    C810636   1.694   1.926  12.038  0.3384  0.2561 -0.2055
  719TMC3    O110637   2.161   1.877  12.048 -0.0527 -0.6144 -0.7457
  719TMC3    O210638   1.664   1.888  12.152  0.2141 -0.0908 -0.4512
  720MPD2     C10639   4.691   2.923  14.141  0.2678  0.2514 -0.0941
  720MPD2    C110640   0.056   3.023  14.096 -0.2569  0.6298  0.3732
  720MPD2    C210641   0.176   3.042  14.160  0.3668 -0.0927 -0.6883
  720MPD2    C310642   0.213   2.969  14.272 -0.6400  0.1441 -0.0865
  720MPD2    C410643   0.125   2.877  14.319  0.3646 -0.2732 -0.0733
  720MPD2    C510644   0.001   2.854  14.251  0.2065  0.0495 -0.8402
  720MPD2     H10645   0.239   3.115  14.112  0.8927 -0.9249 -1.2612
  720MPD2    H110646   0.144   2.833  14.416 -0.5129 -0.7875 -0.1340
  720MPD2    H210647   4.601   2.894  14.087 -0.5014  1.2400  0.6774
  720MPD2    H310648   4.644   2.797  14.298  0.5604 -0.1443 -0.4685
  720MPD2     N10649   0.335   2.999  14.342  0.5400 -0.2190 -0.5711
  720MPD2    H510650   0.398   3.065  14.297  0.3180  0.0674 -0.4676
  720MPD2    N110651   0.036   3.094  13.970  0.1839 -1.0443 -0.1158
  720MPD2    H710652   0.121   3.145  13.947 -0.3314  0.6715  1.7174
  721TMC3    C110653   0.512   2.999  14.501 -0.0624  0.4977 -0.3115
  721TMC3    C210654   0.548   3.004  14.632 -0.1772  0.0613 -0.0838
  721TMC3    C310655   0.671   3.045  14.662  0.5825  0.9240  0.2880
  721TMC3    C410656   0.598   3.039  14.403  0.1533 -0.0001  1.0706
  721TMC3    C510657   0.722   3.084  14.439  0.5224  0.0669  0.2607
  721TMC3    C610658   0.762   3.090  14.569  0.4344  0.1327  0.6258
  721TMC3     C10659   0.378   2.957  14.470  0.1655  0.4620 -0.2080
  721TMC3     O10660   0.312   2.890  14.550  0.5979  0.5245  0.0663
  721TMC3     H10661   0.482   2.965  14.708  0.6623 -2.3629 -0.5943
  721TMC3    H110662   0.575   3.036  14.298  0.3322  1.5076  0.9823
  721TMC3    H210663   0.851   3.142  14.602  1.6964 -0.1780 -2.3774
  721TMC3    C710664   0.813   3.099  14.331  0.0916 -0.1193 -0.0837
  721TMC3    C810665   0.731   3.040  14.789 -0.1204 -0.2738  0.8023
  721TMC3    O110666   0.924   3.048  14.338 -0.8585  0.0700 -0.1015
  721TMC3    O210667   0.807   3.136  14.817 -0.6466  0.0227 -0.2820
  722MPD2     C10668   4.103   1.504  13.316 -0.4894 -0.1863  0.4187
  722MPD2    C110669   4.057   1.640  13.322  0.5302 -0.2728  0.2679
  722MPD2    C210670   3.936   1.668  13.255 -1.1794 -0.6452 -0.3640
  722MPD2    C310671   3.866   1.570  13.187  0.7260  0.5495 -1.0819
  722MPD2    C410672   3.922   1.444  13.181  0.2400 -0.1378  0.0217
  722MPD2    C510673   4.034   1.403  13.252 -0.2791  0.3381 -0.5144
  722MPD2     H10674   3.904   1.771  13.266  1.4458  0.0435  0.8200
  722MPD2    H110675   3.876   1.369  13.117 -0.9831  1.5759 -1.1043
  722MPD2    H210676   4.191   1.478  13.375 -0.1752  0.0234  0.0395
  722MPD2    H310677   4.063   1.299  13.252 -0.5613  0.2552  1.4930
  722MPD2     N10678   3.735   1.600  13.141  0.0989  0.1391  0.3897
  722MPD2    H510679   3.707   1.697  13.130  0.0820  0.2504  1.3498
  722MPD2    N110680   4.130   1.740  13.389 -0.0624 -0.6062 -0.6501
  722MPD2    H710681   4.091   1.834  13.389  0.6882 -0.2947 -0.9437
  723TMC3    C110682   3.525   1.546  13.048 -0.6187 -0.7261  0.2268
  723TMC3    C210683   3.444   1.443  13.009  0.2616 -0.6144 -0.8474
  723TMC3    C310684   3.362   1.463  12.902 -0.1696 -0.3325  0.1334
  723TMC3    C410685   3.512   1.672  12.999  0.3541  0.2011  0.2588
  723TMC3    C510686   3.410   1.699  12.908 -0.2081 -0.0748  0.1298
  723TMC3    C610687   3.344   1.588  12.851 -0.5035 -0.3427  0.0154
  723TMC3     C10688   3.643   1.503  13.120 -0.6686  0.7713  0.2855
  723TMC3     O10689   3.640   1.384  13.147 -0.3636  0.3673 -0.0099
  723TMC3     H10690   3.456   1.342  13.046 -0.2023 -0.3145  0.1415
  723TMC3    H110691   3.562   1.755  13.048 -0.1508  0.7523 -0.1695
  723TMC3    H210692   3.268   1.602  12.775  0.0071  0.0161 -0.4294
  723TMC3    C710693   3.425   1.808  12.812 -0.7821  1.2455  0.3365
  723TMC3    C810694   3.346   1.340  12.817  0.8404  0.3630  0.2540
  723TMC3    O110695   3.393   1.788  12.695 -0.2501 -0.1455 -0.1220
  723TMC3    O210696   3.385   1.233  12.867 -0.7182  0.3141  0.6233
  724TMC3    C110697   4.556   4.280   9.709 -0.1880 -0.7991 -0.6547
  724TMC3    C210698   4.512   4.342   9.598 -0.7728 -0.0424 -0.1653
  724TMC3    C310699   4.603   4.404   9.517  0.4335 -0.1391  1.2313
  724TMC3    C410700   4.693   4.252   9.719  0.0276 -0.4918 -0.2920
  724TMC3    C510701   0.059   4.326   9.643 -0.6535 -0.7229 -0.5786
  724TMC3    C610702   0.012   4.413   9.542  0.0682  0.2184  0.4871
  724TMC3     C10703   4.466   4.232   9.802  0.3229  0.0439  0.5273
  724TMC3     O10704   4.514   4.148   9.878  0.2847  0.1471 -0.3901
  724TMC3     H10705   4.406   4.349   9.578 -0.9426 -2.0648  0.0318
  724TMC3    H110706   0.004   4.178   9.791 -1.1017 -0.8457 -0.1331
  724TMC3    H210707   0.087   4.458   9.479 -1.4886  1.0235 -0.7766
  724TMC3    C710708   0.199   4.347   9.693  0.1863 -0.1536 -0.4084
  724TMC3    C810709   4.536   4.487   9.419  0.2896  0.3451 -0.4962
  724TMC3    O110710   0.241   4.464   9.694 -0.1409 -0.2049 -0.0555
  724TMC3    O210711   4.426   4.453   9.379 -0.7158 -0.2417  0.0044
  725TMC3    C110712   0.761   3.410  12.527 -0.2581 -0.9351  0.3873
  725TMC3    C210713   0.816   3.400  12.399 -0.5323  0.1192  0.2974
  725TMC3    C310714   0.788   3.289  12.315  0.1874  0.9086 -0.3457
  725TMC3    C410715   0.665   3.316  12.563 -0.0190  0.2140  0.2296
  725TMC3    C510716   0.631   3.210  12.475 -0.4678 -0.1685  0.0238
  725TMC3    C610717   0.689   3.192  12.350  0.5596  0.6567 -0.2830
  725TMC3     C10718   0.832   3.483  12.636 -0.0572 -0.3191 -0.1919
  725TMC3     O10719   0.895   3.584  12.610 -0.1877 -0.4153 -0.5337
  725TMC3     H10720   0.905   3.459  12.379 -0.9324  1.2972  2.0224
  725TMC3    H110721   0.615   3.334  12.657  2.4740 -1.1610  1.8062
  725TMC3    H210722   0.664   3.109  12.286 -0.9948  1.2905 -0.4855
  725TMC3    C710723   0.579   3.090  12.543 -0.4963 -0.5944  0.6144
  725TMC3    C810724   0.876   3.249  12.208 -0.2545  0.2152  0.1056
  725TMC3    O110725   0.509   3.112  12.642  0.5262 -0.5548  0.0670
  725TMC3    O210726   0.894   3.130  12.202  0.2721  0.0625 -0.3188
  726MPD2     C10727   4.474   4.471  10.654  0.3108 -0.1980  0.0878
  726MPD2    C110728   4.443   4.529  10.531 -0.2874  0.3800  0.4788
  726MPD2    C210729   4.312   4.549  10.496 -0.0841  0.3159 -0.8013
  726MPD2    C310730   4.210   4.511  10.582  0.2676  0.1390 -0.2728
  726MPD2    C410731   4.240   4.458  10.706  0.1979 -0.2912  0.2164
  726MPD2    C510732   4.370   4.440  10.736  0.4106 -0.0483  0.0021
  726MPD2     H10733   4.291   4.606  10.407 -1.8080  1.3515  0.2622
  726MPD2    H110734   4.159   4.436  10.774 -0.7386 -0.3451 -0.9235
  726MPD2    H210735   4.575   4.457  10.691 -0.0860  0.5422  1.4026
  726MPD2    H310736   4.388   4.400  10.835 -2.6285  1.0501  1.0314
  726MPD2     N10737   4.074   4.536  10.550  0.2251 -0.0795  0.4420
  726MPD2    H510738   4.008   4.516  10.625  0.9328  1.3210  1.4355
  726MPD2    N110739   4.553   4.576  10.447 -0.2840 -0.0604  0.3710
  726MPD2    H710740   4.533   4.616  10.356 -1.3865 -1.8270 -0.1377
  727TMC3    C110741   0.032   4.643  10.372  0.4916 -0.4667  0.1944
  727TMC3    C210742   0.169   4.622  10.365 -0.1559  0.3330 -1.2440
  727TMC3    C310743   0.239   4.688  10.264 -0.1378  0.5901  0.0948
  727TMC3    C410744   4.685   0.011  10.294  0.6381 -0.0375  0.5015
  727TMC3    C510745   0.033   0.078  10.204 -0.1269  0.1021  0.4866
  727TMC3    C610746   0.169   0.054  10.183 -0.5575 -0.5670 -0.1780
  727TMC3     C10747   4.684   4.566  10.473 -0.4820 -0.2472  0.0194
  727TMC3     O10748   0.025   4.496  10.545 -0.2000 -0.4557  0.2724
  727TMC3     H10749   0.224   4.551  10.425 -0.6510  2.1586  1.3433
  727TMC3    H110750   4.580   0.035  10.302  0.8793  1.0168  0.4789
  727TMC3    H210751   0.221   0.102  10.101  2.0582  1.2247  2.4973
  727TMC3    C710752   4.707   0.186  10.125  0.3115  0.1287  0.5116
  727TMC3    C810753   0.382   4.696  10.245  0.5275 -0.2729  0.3457
  727TMC3    O110754   0.050   0.206  10.025  0.3219  0.4750  0.5190
  727TMC3    O210755   0.425   4.714  10.132  0.3031 -0.5918  0.9776
  728TMC3    C110756   3.014   3.568  15.130 -0.0901  0.4537 -0.4364
  728TMC3    C210757   3.138   3.624  15.142  0.1911  1.0247  0.0266
  728TMC3    C310758   3.178   3.711  15.038 -0.0091  0.6571 -0.0915
  728TMC3    C410759   2.931   3.599  15.019  0.4514 -0.1027 -0.2742
  728TMC3    C510760   2.977   3.684  14.920  0.1487  0.2380 -0.1671
  728TMC3    C610761   3.108   3.735  14.923  0.0567  0.0668 -0.8553
  728TMC3     C10762   2.952   3.533  15.258 -0.0069 -0.0091  0.4841
  728TMC3     O10763   3.020   3.567  15.355 -0.3608  0.1364  0.4484
  728TMC3     H10764   3.195   3.587  15.226  0.3616  0.9181 -0.1337
  728TMC3    H110765   2.830   3.561  15.019  0.2342  0.4370  2.5668
  728TMC3    H210766   3.150   3.792  14.842  1.2509 -1.3762 -1.2535
  728TMC3    C710767   2.889   3.709  14.803 -0.3154 -0.6138  0.2408
  728TMC3    C810768   3.296   3.792  15.069 -0.2334 -0.7438  0.1872
  728TMC3    O110769   2.783   3.650  14.808  0.3323 -0.5241  0.5280
  728TMC3    O210770   3.369   3.728  15.138  0.3155 -0.2983  0.7377
  729MPD2     C10771   0.494   4.492  16.482  0.3498  0.1769  0.2323
  729MPD2    C110772   0.593   4.520  16.578 -0.5039 -0.0340 -0.0012
  729MPD2    C210773   0.566   4.521  16.713 -0.1133  0.6496 -0.0417
  729MPD2    C310774   0.434   4.489  16.753 -0.7973 -0.1608  0.4371
  729MPD2    C410775   0.345   4.454  16.661  0.7173  0.1314  0.0850
  729MPD2    C510776   0.374   4.451  16.524 -0.5555  0.1062 -0.2456
  729MPD2     H10777   0.637   4.563  16.783  2.0735 -0.5693 -1.5154
  729MPD2    H110778   0.249   4.414  16.690 -0.2209  2.5310  0.2987
  729MPD2    H210779   0.510   4.492  16.375 -0.4303  1.1389  0.1140
  729MPD2    H310780   0.295   4.427  16.454 -0.6440 -0.2238 -0.0332
  729MPD2     N10781   0.385   4.495  16.887  0.2176 -0.2860 -0.3833
  729MPD2    H510782   0.292   4.461  16.907  0.0259 -0.4041 -1.4661
  729MPD2    N110783   0.719   4.566  16.525 -0.3023 -0.3404  0.6687
  729MPD2    H710784   0.723   4.578  16.424  0.1734 -0.3945  0.6800
  730TMC3    C110785   0.390   4.549  17.114  0.3029  0.1715 -0.0226
  730TMC3    C210786   0.443   4.514  17.240  0.3964 -0.2842  0.1061
  730TMC3    C310787   0.411   4.586  17.352  0.3668  0.3460 -0.1400
  730TMC3    C410788   0.318   4.662  17.108  0.1008  0.0854  0.0264
  730TMC3    C510789   0.294   0.014  17.219  0.4911 -0.6687 -0.1598
  730TMC3    C610790   0.336   4.699  17.349 -0.3023 -0.2497  0.7384
  730TMC3     C10791   0.470   4.510  16.995  0.2810 -0.4533 -0.4680
  730TMC3     O10792   0.584   4.540  16.996 -0.3184 -0.1509  0.0348
  730TMC3     H10793   0.503   4.424  17.256 -1.2871 -1.1381  1.5175
  730TMC3    H110794   0.290   4.697  17.009  0.2100  2.9109  1.0044
  730TMC3    H210795   0.309   0.038  17.434  0.1182 -1.7561  1.9649
  730TMC3    C710796   0.284   0.155  17.188  1.0095 -0.6491 -0.1564
  730TMC3    C810797   0.428   4.520  17.481  0.1674 -0.1928 -0.2272
  730TMC3    O110798   0.321   0.187  17.076 -0.5700  0.2678  0.1996
  730TMC3    O210799   0.453   4.401  17.483  0.3720  0.2034 -0.1581
  731MPD2     C10800   0.491   2.461  12.495 -0.8939  0.8437  0.7136
  731MPD2    C110801   0.476   2.323  12.485 -0.0897  0.0654  0.7052
  731MPD2    C210802   0.379   2.261  12.563 -0.3925  0.4311  0.1999
  731MPD2    C310803   0.298   2.322  12.646  0.0200 -0.7381  0.3954
  731MPD2    C410804   0.307   2.456  12.654  0.5581  0.2264 -0.3023
  731MPD2    C510805   0.400   2.521  12.570  0.2627 -0.0220  0.0678
  731MPD2     H10806   0.369   2.153  12.561  2.0262  0.2393 -1.1109
  731MPD2    H110807   0.241   2.515  12.716 -0.7251 -1.8742  0.3181
  731MPD2    H210808   0.555   2.515  12.426  3.4891 -1.9375  2.6183
  731MPD2    H310809   0.413   2.629  12.575  3.2481 -0.4586  1.4825
  731MPD2     N10810   0.214   2.245  12.729 -0.1015  0.0786  0.2183
  731MPD2    H510811   0.234   2.146  12.739  0.1986  0.1085 -0.1056
  731MPD2    N110812   0.559   2.254  12.392 -0.4446  0.3128  0.1672
  731MPD2    H710813   0.620   2.315  12.339  0.1146 -1.0574 -0.7450
  732TMC3    C110814   0.599   2.096  12.218 -0.2724 -0.7311 -0.2307
  732TMC3    C210815   0.523   2.005  12.139 -0.2757  0.1030 -1.0143
  732TMC3    C310816   0.540   2.006  12.001 -0.4574  0.0017 -0.4968
  732TMC3    C410817   0.693   2.188  12.163 -0.4636 -0.3369  0.0300
  732TMC3    C510818   0.709   2.175  12.024 -0.1414  0.1072  0.2281
  732TMC3    C610819   0.637   2.085  11.946 -0.0737 -0.3827  0.3513
  732TMC3     C10820   0.543   2.123  12.352 -0.4224 -0.3930  0.6257
  732TMC3     O10821   0.476   2.033  12.407 -0.0076 -0.6489  0.1498
  732TMC3     H10822   0.446   1.944  12.185 -1.4008 -0.2284 -3.3457
  732TMC3    H110823   0.752   2.258  12.221  2.0244 -2.2277 -0.2435
  732TMC3    H210824   0.637   2.082  11.837  1.0860 -2.8264  0.4024
  732TMC3    C710825   0.807   2.263  11.957  0.4432 -0.6191 -0.3555
  732TMC3    C810826   0.415   1.993  11.924 -0.3227 -0.9444  0.2997
  732TMC3    O110827   0.772   2.325  11.860 -0.0621 -0.3034  0.5534
  732TMC3    O210828   0.421   2.005  11.804  0.2447 -0.1804 -0.1580
  733TMC3    C110829   1.002   1.483  12.487 -0.4427  0.4950  0.4480
  733TMC3    C210830   1.055   1.579  12.574  0.2339 -0.2177  0.1431
  733TMC3    C310831   1.124   1.684  12.527 -0.6608 -0.2160 -0.0293
  733TMC3    C410832   1.010   1.504  12.351  0.2036 -0.0321  1.2453
  733TMC3    C510833   1.073   1.617  12.307  0.6389  0.2941  0.9093
  733TMC3    C610834   1.138   1.704  12.393 -0.0531  0.4456  0.3650
  733TMC3     C10835   0.931   1.371  12.535 -0.5707  0.2771 -0.2689
  733TMC3     O10836   0.993   1.276  12.579  0.5127 -0.4508  0.0995
  733TMC3     H10837   1.056   1.577  12.682 -2.7591  1.9288  0.1975
  733TMC3    H110838   0.975   1.431  12.278 -0.3076  0.2401  1.2199
  733TMC3    H210839   1.179   1.796  12.354 -1.3659  1.4455  1.3526
  733TMC3    C710840   1.113   1.631  12.165 -0.3102  0.1409 -0.2354
  733TMC3    C810841   1.203   1.773  12.607  0.1198  0.2674 -0.3560
  733TMC3    O110842   1.032   1.591  12.084  0.6860  0.5105  0.0307
  733TMC3    O210843   1.156   1.804  12.710  0.0033 -0.5431 -0.1746
  734MPD2     C10844   4.000   3.605  12.037 -0.6600  0.1899 -0.5507
  734MPD2    C110845   3.949   3.500  11.959  0.0133  0.3082 -1.0713
  734MPD2    C210846   3.918   3.528  11.822 -0.3349 -0.4914  0.2679
  734MPD2    C310847   3.939   3.653  11.774 -0.0793 -0.9036  0.3856
  734MPD2    C410848   3.989   3.757  11.859  0.1822 -0.0762 -0.1130
  734MPD2    C510849   4.032   3.727  11.987 -0.5220  0.2622  0.1788
  734MPD2     H10850   3.878   3.452  11.757 -1.0926  1.2382 -1.2921
  734MPD2    H110851   4.002   3.859  11.823 -0.5876 -0.2622 -0.9209
  734MPD2    H210852   4.031   3.590  12.140  2.2653  2.1541 -1.1451
  734MPD2    H310853   4.093   3.791  12.050  0.1808 -0.3722  0.1502
  734MPD2     N10854   3.897   3.679  11.642 -0.0768  0.4137 -0.1409
  734MPD2    H510855   3.852   3.595  11.606 -0.5907  1.2427 -1.4397
  734MPD2    N110856   3.920   3.375  12.022 -0.3621  0.5659  0.1738
  734MPD2    H710857   3.913   3.381  12.124 -0.3989 -2.9784  0.3739
  735TMC3    C110858   3.792   3.172  12.031  0.0920  0.0359 -0.5675
  735TMC3    C210859   3.670   3.127  11.975  0.1660 -0.1328 -0.5859
  735TMC3    C310860   3.650   2.997  11.943  0.4610 -0.4959 -0.2047
  735TMC3    C410861   3.883   3.084  12.074  0.3119  0.4797  0.2542
  735TMC3    C510862   3.853   2.952  12.071  0.2156  0.7617  0.1514
  735TMC3    C610863   3.739   2.905  11.997 -0.4655 -0.0868 -0.5327
  735TMC3     C10864   3.848   3.282  11.951  0.5180  0.0424  0.4647
  735TMC3     O10865   3.823   3.257  11.836  0.5753 -0.0749 -0.0241
  735TMC3     H10866   3.588   3.195  11.958  0.9173  0.8932 -0.1555
  735TMC3    H110867   3.980   3.111  12.115  1.0270  0.9327 -1.7843
  735TMC3    H210868   3.722   2.805  11.960  3.8430 -0.7417 -0.7819
  735TMC3    C710869   3.971   2.866  12.057 -0.1115 -0.2587 -0.1522
  735TMC3    C810870   3.607   2.977  11.801 -0.1687 -0.1959 -0.0456
  735TMC3    O110871   4.077   2.913  12.017 -0.3711 -0.3644 -0.3480
  735TMC3    O210872   3.572   2.867  11.756 -0.2542  0.2693 -0.1851
  736MPD2     C10873   3.956   2.495  12.039 -0.1022  0.0289 -0.0001
  736MPD2    C110874   3.997   2.622  11.996  0.0974  0.6882  0.5964
  736MPD2    C210875   4.087   2.641  11.896  0.5646  0.0022  0.5575
  736MPD2    C310876   4.160   2.532  11.842 -0.9221  0.1132  0.2387
  736MPD2    C410877   4.138   2.411  11.906  0.4875 -0.6647  0.5677
  736MPD2    C510878   4.036   2.393  11.996  1.0045  0.4719  0.2420
  736MPD2     H10879   4.127   2.738  11.870 -0.0788  0.6129  1.8726
  736MPD2    H110880   4.194   2.321  11.886  0.3535 -0.0987 -2.4061
  736MPD2    H210881   3.874   2.472  12.107 -0.4521  0.1412 -0.3857
  736MPD2    H310882   4.010   2.295  12.035 -0.9607  0.1613 -1.8482
  736MPD2     N10883   4.259   2.544  11.738 -0.0278 -0.0651  0.5439
  736MPD2    H510884   4.309   2.459  11.713  2.1041  0.7883  1.9779
  736MPD2    N110885   3.933   2.734  12.055  0.0971  0.6449  0.7301
  736MPD2    H710886   3.845   2.714  12.102 -0.1679 -0.2032 -0.1187
  737TMC3    C110887   4.373   2.640  11.544 -0.6822  0.8607 -0.0275
  737TMC3    C210888   4.379   2.739  11.453 -0.0482 -0.2717 -0.2965
  737TMC3    C310889   4.490   2.750  11.382  0.4796  0.1671 -0.3148
  737TMC3    C410890   4.451   2.527  11.549 -0.1507  0.2232 -0.1090
  737TMC3    C510891   4.550   2.536  11.461 -0.4741 -0.1024  0.2296
  737TMC3    C610892   4.576   2.643  11.374 -0.3100  0.2381  0.1899
  737TMC3     C10893   4.274   2.647  11.644  0.8066 -0.0720 -0.8740
  737TMC3     O10894   4.215   2.753  11.658 -0.2787  0.3290  0.1899
  737TMC3     H10895   4.298   2.812  11.447 -0.1661 -0.3253  0.7170
  737TMC3    H110896   4.423   2.432  11.593 -0.0583 -0.7255 -2.0558
  737TMC3    H210897   4.653   2.639  11.298  0.6481 -1.8684  1.2690
  737TMC3    C710898   4.639   2.416  11.453 -0.8022 -0.5674  0.1845
  737TMC3    C810899   4.516   2.858  11.293 -0.2305 -0.1064 -0.4831
  737TMC3    O110900   4.584   2.315  11.492 -0.1826 -0.4235  0.5400
  737TMC3    O210901   4.584   2.841  11.197 -0.2195  0.6401  0.2881
  738MPD2     C10902   4.230   2.168  15.033 -0.0752  0.1304  0.0145
  738MPD2    C110903   4.306   2.060  15.002 -1.0402 -0.8008  0.1629
  738MPD2    C210904   4.428   2.072  14.935  0.0183 -0.6062  0.0786
  738MPD2    C310905   4.475   2.196  14.900  0.6013  0.2764  0.1116
  738MPD2    C410906   4.391   2.305  14.917  0.1465  0.0590  0.2171
  738MPD2    C510907   4.267   2.289  14.982 -0.0320 -0.1086 -0.0947
  738MPD2     H10908   4.479   1.979  14.911  3.4530  1.8770 -2.2715
  738MPD2    H110909   4.416   2.404  14.880 -2.0548  0.0430 -1.2612
  738MPD2    H210910   4.131   2.173  15.077 -0.0565 -0.6855  0.1612
  738MPD2    H310911   4.197   2.372  14.989  0.3507  0.2022  0.0650
  738MPD2     N10912   4.592   2.216  14.838  0.5172  0.0387  0.5226
  738MPD2    H510913   4.615   2.310  14.805  1.6739  0.2680  2.0004
  738MPD2    N110914   4.275   1.925  15.048 -0.4372  0.1535  0.3698
  738MPD2    H710915   4.322   1.845  15.007  1.6860  1.7303 -0.2550
  739TMC3    C110916   0.064   2.162  14.723  0.0474 -0.3656  0.1490
  739TMC3    C210917   0.098   2.072  14.630 -0.3916  0.2477  0.2682
  739TMC3    C310918   0.214   2.083  14.560  0.0174  0.3049  0.1982
  739TMC3    C410919   0.163   2.248  14.775  0.2850  0.2147 -0.2105
  739TMC3    C510920   0.287   2.234  14.724  0.5636 -0.0030 -0.1163
  739TMC3    C610921   0.311   2.162  14.606 -0.3989 -0.5377 -0.4413
  739TMC3     C10922   4.683   2.116  14.808  0.2680  0.5999  0.2472
  739TMC3     O10923   4.673   1.998  14.825 -0.1310  0.5821  0.0662
  739TMC3     H10924   0.024   1.998  14.603 -0.7763  0.6950  0.1057
  739TMC3    H110925   0.143   2.290  14.873  0.4455 -1.3827  0.5178
  739TMC3    H210926   0.399   2.190  14.548 -1.1078 -0.4223 -1.4586
  739TMC3    C710927   0.395   2.231  14.822 -0.1362 -0.1554 -0.2334
  739TMC3    C810928   0.200   2.039  14.425  0.3274  0.0844 -0.2534
  739TMC3    O110929   0.370   2.271  14.939  0.2109  0.0019 -0.3211
  739TMC3    O210930   0.119   1.949  14.406 -0.2008  0.2121 -0.3542
  740TMC3    C110931   0.057   3.395  14.325  0.5492 -0.6435 -0.1881
  740TMC3    C210932   0.071   3.354  14.460  1.0541  0.3767  0.1672
  740TMC3    C310933   0.193   3.314  14.498  0.1498  0.5282 -0.2492
  740TMC3    C410934   0.160   3.407  14.240 -0.6406  0.5685 -0.3122
  740TMC3    C510935   0.276   3.345  14.283  0.4571 -0.3391 -0.6414
  740TMC3    C610936   0.293   3.294  14.413 -0.4486 -0.2389 -0.1284
  740TMC3     C10937   4.656   3.466  14.304  0.2911  0.9400 -0.2660
  740TMC3     O10938   4.647   3.573  14.242 -0.0509 -0.6969 -0.0718
  740TMC3     H10939   4.719   3.343  14.538  2.5222 -1.8563  1.2517
  740TMC3    H110940   0.141   3.440  14.138 -0.0298 -1.8348 -1.2098
  740TMC3    H210941   0.386   3.249  14.445 -0.9755 -0.7534  0.6575
  740TMC3    C710942   0.386   3.314  14.192 -0.0802 -0.1824  0.5031
  740TMC3    C810943   0.191   3.240  14.626  0.3793 -0.1781  0.4006
  740TMC3    O110944   0.468   3.223  14.227  0.1760 -0.1477 -0.0016
  740TMC3    O210945   0.094   3.170  14.637 -0.4076 -0.3022  0.4277
  741TMC3    C110946   0.212   2.697  13.986  0.1019 -0.3365  0.4133
  741TMC3    C210947   0.088   2.637  14.007  0.5212 -0.2649  0.3136
  741TMC3    C310948   0.079   2.552  14.118 -0.3326  0.4539 -0.2054
  741TMC3    C410949   0.306   2.691  14.085  0.2198  0.1824  0.7643
  741TMC3    C510950   0.295   2.606  14.193 -0.4896  0.3565  0.0778
  741TMC3    C610951   0.184   2.532  14.205  0.7575  0.5383 -0.7070
  741TMC3     C10952   0.249   2.775  13.872  0.2757  0.6672  0.3495
  741TMC3     O10953   0.359   2.821  13.868  0.1122 -0.0234  0.3083
  741TMC3     H10954   0.001   2.646  13.943  0.3083 -3.7698  0.1242
  741TMC3    H110955   0.397   2.749  14.074 -1.0054  2.0148  0.2580
  741TMC3    H210956   0.179   2.447  14.272  1.1060  1.7388  0.8363
  741TMC3    C710957   0.420   2.586  14.261 -0.1650 -0.3907  0.0945
  741TMC3    C810958   4.671   2.502  14.160  0.1645 -0.0456 -0.0893
  741TMC3    O110959   0.525   2.610  14.199 -0.2239  0.2272 -0.6117
  741TMC3    O210960   4.578   2.506  14.080  0.4665 -0.2350 -0.0155
  742TMC3    C110961   4.291   1.165  15.089 -0.4340  0.3456  0.5311
  742TMC3    C210962   4.204   1.137  14.990 -0.1261  0.0663  0.0034
  742TMC3    C310963   4.257   1.123  14.863  0.5647  0.5679  0.5577
  742TMC3    C410964   4.428   1.159  15.065 -0.0230 -0.2357 -0.5116
  742TMC3    C510965   4.485   1.138  14.941  0.4567 -0.1842  0.6174
  742TMC3    C610966   4.394   1.113  14.841 -0.1745 -0.0369  0.1697
  742TMC3     C10967   4.238   1.152  15.224  0.0868  0.7109  0.9198
  742TMC3     O10968   4.136   1.214  15.246 -0.3057  0.5195  0.0067
  742TMC3     H10969   4.097   1.145  15.003 -0.7946 -2.8418 -3.7063
  742TMC3    H110970   4.492   1.177  15.151  0.7056 -1.4320 -0.8068
  742TMC3    H210971   4.435   1.085  14.745 -0.0978 -0.6433  0.3821
  742TMC3    C710972   4.601   1.055  14.946 -0.0118 -0.6039 -0.2320
  742TMC3    C810973   4.173   1.089  14.751 -0.2888  0.7227 -0.1710
  742TMC3    O110974   4.601   0.960  14.869  0.3793  0.9216 -0.1958
  742TMC3    O210975   4.221   1.019  14.661  0.4314 -0.4156  0.2657
  743MPD2     C10976   2.818   2.212   2.148  0.0541  0.1726  0.3040
  743MPD2    C110977   2.903   2.201   2.039  0.1240 -0.2587  0.8204
  743MPD2    C210978   3.022   2.122   2.058  0.0037  0.3667  0.0807
  743MPD2    C310979   3.038   2.052   2.179  0.4467 -0.4844 -0.2408
  743MPD2    C410980   2.938   2.057   2.276  0.5799 -0.3576  0.2203
  743MPD2    C510981   2.834   2.139   2.261  0.4573 -0.1877 -0.7079
  743MPD2     H10982   3.096   2.124   1.979  0.1578 -0.2671  0.2056
  743MPD2    H110983   2.941   2.019   2.378  2.0163  0.8060  0.6102
  743MPD2    H210984   2.736   2.283   2.141 -0.1693 -0.4881 -3.6389
  743MPD2    H310985   2.767   2.146   2.346  0.2213 -0.4847 -0.8726
  743MPD2     N10986   3.163   1.988   2.196 -0.5343 -0.2733 -0.5130
  743MPD2    H510987   3.227   2.004   2.120 -0.2675 -2.5430 -0.7705
  743MPD2    N110988   2.863   2.276   1.928 -0.8889 -0.3624  0.2991
  743MPD2    H710989   2.776   2.323   1.949 -0.0056  1.9347 -1.1925
  744TMC3    C110990   2.843   2.342   1.708 -0.1099 -0.6302 -0.6866
  744TMC3    C210991   2.737   2.421   1.746  0.1936  0.0206  0.4140
  744TMC3    C310992   2.672   2.486   1.651  0.6154 -0.2126  0.0304
  744TMC3    C410993   2.883   2.340   1.578  0.5454  0.4223 -0.3259
  744TMC3    C510994   2.821   2.425   1.490  0.1386 -0.2508 -0.3737
  744TMC3    C610995   2.716   2.505   1.524  0.0883  0.0777 -0.6122
  744TMC3     C10996   2.912   2.259   1.800 -0.5794 -0.1298  0.3349
  744TMC3     O10997   3.009   2.196   1.760  0.6341  0.1129  0.1088
  744TMC3     H10998   2.703   2.437   1.847 -1.2243  0.3374 -0.1134
  744TMC3    H110999   2.965   2.279   1.541 -0.3516 -0.7626 -0.3798
  744TMC3    H211000   2.658   2.565   1.454 -1.8940 -1.5207 -0.3502
  744TMC3    C711001   2.848   2.423   1.348  0.2751  0.3666 -0.2717
  744TMC3    C811002   2.552   2.559   1.697  1.1138 -0.2116  0.4178
  744TMC3    O111003   2.805   2.519   1.290 -0.1627 -0.2799 -0.0042
  744TMC3    O211004   2.515   2.633   1.609  0.0871  0.4217 -0.1277
  745TMC3    C111005   4.436   0.823  13.394 -0.2793 -0.6423  0.0127
  745TMC3    C211006   4.376   0.806  13.515 -0.0288  0.3369  0.4472
  745TMC3    C311007   4.280   0.899  13.545 -0.4686  0.6324 -0.0451
  745TMC3    C411008   4.400   0.916  13.299 -0.1452  0.6430  0.1133
  745TMC3    C511009   4.294   0.992  13.336 -0.0843 -0.5964  0.0566
  745TMC3    C611010   4.238   0.995  13.462 -0.9237  0.0914 -0.6847
  745TMC3     C11011   4.581   0.820  13.414 -0.5524 -0.0165  0.5545
  745TMC3     O11012   4.613   0.835  13.532 -0.0136 -0.0429 -0.1539
  745TMC3     H11013   4.393   0.718  13.577 -1.6775 -0.0134  0.3921
  745TMC3    H111014   4.439   0.911  13.198  0.6551  1.6248  0.3735
  745TMC3    H211015   4.165   1.070  13.492  2.9288  3.1297  1.0332
  745TMC3    C711016   4.216   1.051  13.232 -0.0217 -0.4627  0.4820
  745TMC3    C811017   4.287   0.929  13.683  0.2361  0.5040  0.5869
  745TMC3    O111018   4.092   1.061  13.249  0.8210  0.4646 -1.0069
  745TMC3    O211019   4.180   0.917  13.745 -0.0309 -0.1646  0.2801
  746TMC3    C111020   2.569   2.662  10.996  0.7165  0.2367  0.4327
  746TMC3    C211021   2.619   2.657  10.868  0.1559  0.4307  0.4577
  746TMC3    C311022   2.675   2.542  10.832 -0.2142  0.7860  0.2676
  746TMC3    C411023   2.569   2.555  11.077 -0.1897  0.1926 -0.2814
  746TMC3    C511024   2.630   2.439  11.033 -0.7908  0.0769  0.1050
  746TMC3    C611025   2.685   2.434  10.910  0.1885  0.1114  0.6635
  746TMC3     C11026   2.511   2.788  11.047 -0.1050  0.1290 -0.3212
  746TMC3     O11027   2.424   2.787  11.136  0.6032 -0.3895  0.0295
  746TMC3     H11028   2.610   2.734  10.793  0.1800  1.1281  1.1757
  746TMC3    H111029   2.516   2.564  11.170  0.3880  0.6581  0.0079
  746TMC3    H211030   2.743   2.349  10.876  0.9911  1.6400 -1.8420
  746TMC3    C711031   2.606   2.311  11.094 -0.9007 -0.1039  0.1243
  746TMC3    C811032   2.675   2.524  10.686 -0.1038  0.2607 -0.2536
  746TMC3    O111033   2.666   2.213  11.052  0.4955  0.9185  0.3831
  746TMC3    O211034   2.605   2.596  10.624  0.0259  0.3439 -0.3310
  747TMC3    C111035   0.923   2.363  11.137 -0.0564 -0.3119  0.4868
  747TMC3    C211036   0.831   2.286  11.202 -0.0056 -0.3667  0.6125
  747TMC3    C311037   0.729   2.351  11.262  0.0922 -0.1097  0.0812
  747TMC3    C411038   0.942   2.496  11.164 -0.1333  0.7012  0.1621
  747TMC3    C511039   0.839   2.560  11.229 -0.1918 -0.0755 -0.3707
  747TMC3    C611040   0.731   2.489  11.276  0.2817 -0.5649  0.4791
  747TMC3     C11041   1.015   2.305  11.037  0.3999  0.4297 -0.9455
  747TMC3     O11042   1.124   2.356  11.010  0.1051 -0.0614 -0.0496
  747TMC3     H11043   0.813   2.182  11.176 -2.4299  0.3868 -0.6957
  747TMC3    H111044   1.022   2.550  11.115  0.6626 -0.6895 -0.0692
  747TMC3    H211045   0.660   2.540  11.340  0.1770  0.4292 -0.4382
  747TMC3    C711046   0.833   2.705  11.250 -0.0771  0.3484 -0.2681
  747TMC3    C811047   0.627   2.276  11.331  0.8089 -0.2437 -0.1075
  747TMC3    O111048   0.734   2.742  11.312 -0.1842  0.0751  0.8285
  747TMC3    O211049   0.637   2.156  11.347  0.3290  0.5679 -0.6832
  748MPD2     C11050   1.132   4.152   2.011  0.0280 -0.6505 -0.5289
  748MPD2    C111051   1.126   4.011   2.015  0.0167  0.0605  0.4523
  748MPD2    C211052   1.231   3.933   1.956 -0.5115  0.0365  0.4087
  748MPD2    C311053   1.335   4.002   1.888 -0.4067  0.1768 -0.3059
  748MPD2    C411054   1.344   4.140   1.902  0.1738  0.1141 -1.1278
  748MPD2    C511055   1.240   4.217   1.957 -0.1902  0.0364  0.1125
  748MPD2     H11056   1.232   3.825   1.960  1.3052 -0.0319 -2.3449
  748MPD2    H111057   1.425   4.203   1.865  0.2645  1.2781  1.0292
  748MPD2    H211058   1.051   4.213   2.049 -0.4113 -1.2583 -0.4893
  748MPD2    H311059   1.251   4.324   1.973 -0.5511 -0.2231  2.0923
  748MPD2     N11060   1.425   3.916   1.821  0.7169 -0.8124  0.2671
  748MPD2    H511061   1.404   3.817   1.819  1.2761 -0.8975 -1.9118
  748MPD2    N111062   1.015   3.962   2.075 -0.5107 -0.6632 -0.1096
  748MPD2    H711063   0.947   4.031   2.105  1.3072  0.7813  0.7474
  749TMC3    C111064   1.617   3.854   1.704  0.0304 -0.0751  0.3828
  749TMC3    C211065   1.627   3.733   1.774  0.6099  0.2892  0.2109
  749TMC3    C311066   1.693   3.632   1.713 -0.0091 -0.1714 -0.4053
  749TMC3    C411067   1.678   3.873   1.580  0.3457  0.0584  0.0806
  749TMC3    C511068   1.739   3.766   1.529  0.4379  0.4475  1.0203
  749TMC3    C611069   1.748   3.647   1.586  0.5530  0.2321  0.2316
  749TMC3     C11070   1.533   3.963   1.753 -0.0892 -0.7606  0.5276
  749TMC3     O11071   1.563   4.077   1.714  0.1279 -0.2216  0.1970
  749TMC3     H11072   1.585   3.732   1.873  2.1162 -1.6517  0.8307
  749TMC3    H111073   1.683   3.968   1.529  2.1803  1.0554  2.1146
  749TMC3    H211074   1.818   3.576   1.544  0.5672  0.1291  0.4277
  749TMC3    C711075   1.836   3.797   1.429 -0.1041 -0.7644  0.7803
  749TMC3    C811076   1.757   3.548   1.808 -0.7024 -1.0554  0.7557
  749TMC3    O111077   1.901   3.902   1.437 -0.1441 -0.0038 -0.5767
  749TMC3    O211078   1.730   3.561   1.927  0.0097  0.0068 -0.1849
  750MPD2     C11079   3.226   4.600  11.150  0.1694  0.1702  0.2160
  750MPD2    C111080   3.116   4.529  11.193  0.2615  0.1440  0.0548
  750MPD2    C211081   3.036   4.458  11.106  0.0311  0.8035  0.1616
  750MPD2    C311082   3.062   4.463  10.967  0.6088  0.7484 -0.7280
  750MPD2    C411083   3.170   4.542  10.929 -0.0945 -0.4260  0.5503
  750MPD2    C511084   3.248   4.607  11.016 -0.0234 -0.3793 -0.5055
  750MPD2     H11085   2.962   4.391  11.147 -1.6299  3.0257  0.8267
  750MPD2    H111086   3.196   4.551  10.824  2.1612 -1.1774  1.0495
  750MPD2    H211087   3.300   4.654  11.209 -0.3125  0.4732  0.5449
  750MPD2    H311088   3.339   4.652  10.978  0.2892  2.2652  3.4412
  750MPD2     N11089   2.984   4.393  10.873 -0.2395 -0.3677 -0.3500
  750MPD2    H511090   3.022   4.393  10.779 -0.4261  1.3068 -0.4317
  750MPD2    N111091   3.085   4.531  11.334 -0.1626 -0.5656  0.4583
  750MPD2    H711092   3.144   4.593  11.389 -1.5647  0.8350  0.4266
  751TMC3    C111093   2.800   4.264  10.788 -1.6876 -0.1141  0.6898
  751TMC3    C211094   2.670   4.230  10.795 -0.1876  0.8816 -0.0258
  751TMC3    C311095   2.625   4.133  10.708 -0.1550 -0.4237 -0.0217
  751TMC3    C411096   2.885   4.212  10.691 -0.2794 -0.7011  0.2370
  751TMC3    C511097   2.832   4.116  10.613  0.2567 -0.0537 -0.0887
  751TMC3    C611098   2.703   4.072  10.614 -0.3575  0.0146  0.7054
  751TMC3     C11099   2.861   4.337  10.898 -0.0773  0.5997  0.2005
  751TMC3     O11100   2.787   4.351  10.996  0.1699  0.2912  0.3703
  751TMC3     H11101   2.608   4.278  10.870 -0.1196  1.5023 -0.3637
  751TMC3    H111102   2.992   4.229  10.687 -0.0502 -2.2477 -0.3141
  751TMC3    H211103   2.674   3.987  10.553  0.1979 -0.7382  1.4852
  751TMC3    C711104   2.921   4.076  10.504 -0.1295 -0.6933 -0.2561
  751TMC3    C811105   2.487   4.092  10.712  0.0103  0.0169 -0.4584
  751TMC3    O111106   3.022   4.148  10.487 -0.1807  0.0007 -0.2515
  751TMC3    O211107   2.465   3.994  10.643  0.1108  0.3739 -0.6008
  752TMC3    C111108   1.713   4.645  17.224  0.5921  0.0596  0.3344
  752TMC3    C211109   1.634   0.017  17.274  0.6747 -0.9122  0.0477
  752TMC3    C311110   1.642   0.041  17.408  0.4599 -0.0052 -0.2421
  752TMC3    C411111   1.804   4.578  17.306 -0.0396  0.6293  0.0293
  752TMC3    C511112   1.818   4.619  17.437  0.5015 -0.1447 -0.1413
  752TMC3    C611113   1.741   4.720  17.489 -0.6773  0.1918  0.8449
  752TMC3     C11114   1.686   4.587  17.094  0.1098 -0.3214 -0.4560
  752TMC3     O11115   1.757   4.495  17.060  0.5951 -0.0343  0.0352
  752TMC3     H11116   1.553   0.054  17.212  2.2193  1.5169 -0.5045
  752TMC3    H111117   1.867   4.504  17.257 -0.5441  1.7796 -2.3379
  752TMC3    H211118   1.753   0.043  17.586  0.7871  1.3607  0.1293
  752TMC3    C711119   1.895   4.534  17.526 -0.1273 -0.1757  0.4541
  752TMC3    C811120   1.528   0.100  17.477  0.1825  0.9233 -0.2612
  752TMC3    O111121   1.897   4.417  17.488 -0.6554 -0.3790  0.0641
  752TMC3    O211122   1.539   0.081  17.596  0.3338  0.2980 -0.0960
  753TMC3    C111123   3.144   1.241  13.196 -0.2809  0.0710  0.0367
  753TMC3    C211124   3.205   1.182  13.300 -0.5589  0.4440  0.5037
  753TMC3    C311125   3.195   1.045  13.299  0.1763 -0.1683 -0.1135
  753TMC3    C411126   3.095   1.168  13.086  0.5403  0.5001 -0.6154
  753TMC3    C511127   3.081   1.033  13.094 -0.4327  0.5820  0.1934
  753TMC3    C611128   3.124   0.972  13.208 -0.5682 -0.0419  0.1021
  753TMC3     C11129   3.145   1.380  13.176  0.3321  0.0626  0.1059
  753TMC3     O11130   3.064   1.432  13.100 -0.2341 -0.0273 -0.5814
  753TMC3     H11131   3.265   1.240  13.370 -1.6598  1.2691  0.7664
  753TMC3    H111132   3.056   1.224  13.002 -1.1646 -1.7590 -1.2952
  753TMC3    H211133   3.103   0.866  13.218 -0.6711 -0.1837 -1.6157
  753TMC3    C711134   3.010   0.958  12.984  0.1992 -0.1191 -0.5079
  753TMC3    C811135   3.253   0.963  13.409  0.0164  0.3378  0.4251
  753TMC3    O111136   2.944   0.857  13.005  0.0931 -0.2639 -0.6647
  753TMC3    O211137   3.244   0.841  13.403  0.1060 -0.0551 -0.1146
  754MPD2     C11138   2.164   3.871  12.922  0.6443  0.3923 -0.0103
  754MPD2    C111139   2.072   3.767  12.927  0.1090  0.4111 -0.3886
  754MPD2    C211140   1.934   3.786  12.917 -0.2331 -0.1481  0.5356
  754MPD2    C311141   1.879   3.912  12.903 -0.7102  0.6063  0.3941
  754MPD2    C411142   1.973   4.021  12.902  0.1235  0.6959  0.6081
  754MPD2    C511143   2.114   3.998  12.897 -0.3450  0.5114 -0.1252
  754MPD2     H11144   1.879   3.693  12.920  0.6811 -0.6822  0.5498
  754MPD2    H111145   1.937   4.123  12.896  0.7858  0.8633 -0.5750
  754MPD2    H211146   2.270   3.862  12.943  0.6409  0.2932 -0.0333
  754MPD2    H311147   2.175   4.087  12.905  0.5687 -0.1176 -0.1810
  754MPD2     N11148   1.744   3.947  12.929 -0.5629  0.5525  0.4840
  754MPD2    H511149   1.718   4.044  12.939 -1.4424  0.4283 -0.4920
  754MPD2    N111150   2.121   3.633  12.934 -0.6120  0.5282  0.2021
  754MPD2    H711151   2.214   3.628  12.974 -1.2851  0.2994  1.7607
  755MPD2     C11152   1.466   4.626  13.306  0.1473  0.3212  0.2478
  755MPD2    C111153   1.385   4.544  13.375  0.8617 -0.5257 -0.1221
  755MPD2    C211154   1.352   4.412  13.333 -0.0296  0.5183  0.2748
  755MPD2    C311155   1.427   4.367  13.223  0.6480 -0.1702 -0.0878
  755MPD2    C411156   1.510   4.447  13.147 -0.4832 -0.7808  0.3831
  755MPD2    C511157   1.534   4.577  13.194 -0.5528 -0.1455  0.0164
  755MPD2     H11158   1.298   4.349  13.403 -2.3195  2.1873  0.0083
  755MPD2    H111159   1.568   4.414  13.061  0.3155  0.3441  0.4952
  755MPD2    H211160   1.503   4.720  13.344  0.4311  0.8166 -1.2839
  755MPD2    H311161   1.605   4.641  13.144  0.9008 -0.2580  1.8852
  755MPD2     N11162   1.424   4.235  13.172  0.2970 -0.0194 -0.7799
  755MPD2    H511163   1.476   4.218  13.086  0.3972 -0.6265 -0.5980
  755MPD2    N111164   1.324   4.589  13.498 -0.2081 -0.3307  0.5534
  755MPD2    H711165   1.261   4.527  13.548  2.1472 -1.4347  2.1589
  756MPD2     C11166   2.912   0.041   9.296 -0.2026  0.4985 -0.1421
  756MPD2    C111167   2.887   4.624   9.326 -0.0466  0.1876 -0.2684
  756MPD2    C211168   2.758   4.577   9.321 -0.4483  0.0404  0.0545
  756MPD2    C311169   2.649   4.660   9.290  0.3548 -0.4287  0.2615
  756MPD2    C411170   2.671   0.069   9.277  0.5675  0.0162 -0.3039
  756MPD2    C511171   2.799   0.120   9.279  0.0965 -0.8000  0.0855
  756MPD2     H11172   2.751   4.470   9.333  1.2314 -0.2149 -1.2335
  756MPD2    H111173   2.589   0.134   9.247 -0.2512 -0.9750 -0.2298
  756MPD2    H211174   3.009   0.085   9.278  0.7189 -1.5068 -0.0918
  756MPD2    H311175   2.828   0.223   9.264 -2.1332 -0.3671 -1.3547
  756MPD2     N11176   2.517   4.601   9.283  0.0741  0.2407  0.4206
  756MPD2    H511177   2.525   4.502   9.306 -0.6559 -0.3720 -2.0225
  756MPD2    N111178   2.991   4.535   9.367 -0.0866  0.1022 -0.6012
  756MPD2    H711179   2.958   4.439   9.371  1.6097 -0.4299  0.6331
  757MPD2     C11180   1.447   4.575   9.288  0.5538 -0.2046 -0.4756
  757MPD2    C111181   1.498   4.448   9.292  1.0703 -0.1072  0.6331
  757MPD2    C211182   1.633   4.437   9.280  0.1868 -0.0998 -0.4360
  757MPD2    C311183   1.716   4.541   9.248 -0.6370 -0.1337  0.0209
  757MPD2    C411184   1.660   4.672   9.235  0.7045 -0.2493  0.2610
  757MPD2    C511185   1.528   4.683   9.264  0.1262  0.2946 -0.1037
  757MPD2     H11186   1.677   4.338   9.292  2.8248  1.2786  1.2155
  757MPD2    H111187   1.715   0.043   9.236 -1.5795  1.0802  0.4917
  757MPD2    H211188   1.340   4.587   9.300  0.8530 -2.3347  4.2709
  757MPD2    H311189   1.479   0.057   9.262  0.1759  0.3233  0.0092
  757MPD2     N11190   1.851   4.517   9.242  0.0769 -0.4600  0.0300
  757MPD2    H511191   1.877   4.419   9.248  3.7293  0.4386 -1.3098
  757MPD2    N111192   1.411   4.341   9.327 -0.3897  0.0069 -0.7612
  757MPD2    H711193   1.315   4.371   9.344 -0.6495 -1.4726  0.3557
  758MPD2     C11194   1.939   3.978  15.829 -0.1997 -0.0688 -0.4553
  758MPD2    C111195   2.032   3.964  15.928 -0.1100 -0.2165  0.0236
  758MPD2    C211196   2.003   3.998  16.057  0.1179  0.1393 -0.1885
  758MPD2    C311197   1.886   4.077  16.086  0.4961  0.1228 -0.0705
  758MPD2    C411198   1.793   4.082  15.984  0.0415  0.0423 -0.4284
  758MPD2    C511199   1.822   4.032  15.859 -0.4293  0.1004  0.5953
  758MPD2     H11200   2.074   3.982  16.138  0.3725 -0.7733 -0.5962
  758MPD2    H111201   1.698   4.134  15.992 -1.0662 -2.3239  1.7413
  758MPD2    H211202   1.952   3.951  15.725  0.9761 -0.1829 -0.2687
  758MPD2    H311203   1.745   4.041  15.783 -0.9908  0.8159  1.2481
  758MPD2     N11204   1.856   4.136  16.210 -0.0924  0.1258  0.1424
  758MPD2    H511205   1.776   4.198  16.218  0.8845  1.4033  0.0926
  758MPD2    N111206   2.158   3.910  15.895 -0.0057  0.0905  0.2897
  758MPD2    H711207   2.171   3.886  15.797  1.4961  4.1866 -0.5244
  759MPD2     C11208   1.979   1.984   9.510  0.2785  0.4242  0.0533
  759MPD2    C111209   1.848   1.999   9.469 -0.3969 -0.5519 -0.6375
  759MPD2    C211210   1.824   2.021   9.336 -0.3757 -0.4474 -0.4515
  759MPD2    C311211   1.929   2.041   9.244 -0.2280  0.1656  0.4688
  759MPD2    C411212   2.061   2.027   9.292 -0.1395  0.1176 -0.3239
  759MPD2    C511213   2.083   2.003   9.424  0.4457  0.2552 -0.4763
  759MPD2     H11214   1.724   2.030   9.297 -0.9367  1.1866  1.3872
  759MPD2    H111215   2.145   2.056   9.231  0.3613 -1.7160 -0.4925
  759MPD2    H211216   2.009   1.989   9.615  2.5612  0.1346 -0.5732
  759MPD2    H311217   2.188   1.998   9.453  0.2735 -0.6049  0.0088
  759MPD2     N11218   1.902   2.060   9.102  0.0070  0.1143  0.0843
  759MPD2    H511219   1.802   2.069   9.092 -0.1753 -2.1589 -0.0261
  759MPD2    N111220   1.738   1.976   9.554 -0.5214 -0.0150  0.2063
  759MPD2    H711221   1.647   1.965   9.510 -0.3913 -0.4272  0.0419
  760MPD2     C11222   0.853   4.316  12.025  0.5402  0.3401 -0.3755
  760MPD2    C111223   0.923   4.361  11.914 -0.6396 -1.0083 -0.3591
  760MPD2    C211224   0.991   4.267  11.839 -0.5847 -0.2779  0.7109
  760MPD2    C311225   0.986   4.131  11.863 -0.0217  0.2583 -0.5813
  760MPD2    C411226   0.909   4.084  11.976 -0.3154 -0.5122  0.8054
  760MPD2    C511227   0.849   4.182  12.054 -0.0576 -0.1565  0.4217
  760MPD2     H11228   1.046   4.315  11.759  0.9144 -3.1462  0.0485
  760MPD2    H111229   0.887   3.981  12.001 -0.2122 -0.2594  1.9408
  760MPD2    H211230   0.815   4.384  12.101  0.1497 -1.0573  0.6773
  760MPD2    H311231   0.782   4.150  12.132 -0.9153 -1.2907 -0.7704
  760MPD2     N11232   1.059   4.041  11.781  0.2958 -0.1752  0.2506
  760MPD2    H511233   1.046   3.945  11.811 -2.0977  0.5424  1.6175
  760MPD2    N111234   0.948   4.497  11.886  0.4969 -0.6064 -0.0298
  760MPD2    H711235   1.007   4.522  11.807  1.4342  0.4817  1.0173
  761MPD2     C11236   2.010   4.054  10.900  0.4072 -0.7943  0.2860
  761MPD2    C111237   2.088   3.975  10.821  0.3475 -0.5736  0.3893
  761MPD2    C211238   2.209   4.012  10.786 -1.1232  0.6451 -0.6710
  761MPD2    C311239   2.259   4.139  10.817  0.3370 -0.0975  0.4401
  761MPD2    C411240   2.179   4.220  10.894 -0.2037 -0.5946  0.1980
  761MPD2    C511241   2.053   4.177  10.930  0.1571  0.2971  0.1420
  761MPD2     H11242   2.272   3.939  10.737  0.8548  2.1496 -0.3607
  761MPD2    H111243   2.208   4.319  10.929 -2.3656  0.7001 -1.5959
  761MPD2    H211244   1.912   4.028  10.939 -0.1162  0.0400 -0.4704
  761MPD2    H311245   1.989   4.242  10.989  0.4092  1.4838 -0.9003
  761MPD2     N11246   2.399   4.170  10.786  0.1589  0.1512 -0.1448
  761MPD2    H511247   2.436   4.256  10.827 -1.1753  0.5385  0.2250
  761MPD2    N111248   2.041   3.842  10.812  0.0392  0.0791  0.4119
  761MPD2    H711249   1.954   3.817  10.858 -1.4625  3.1832 -0.7051
  762MPD2     C11250   2.239   2.925  10.716 -0.5822  0.4416 -0.5552
  762MPD2    C111251   2.224   3.033  10.637 -0.0087  0.0355  0.3163
  762MPD2    C211252   2.298   3.034  10.517 -0.1493 -0.4593 -0.1726
  762MPD2    C311253   2.356   2.920  10.465 -0.0175  0.3817  0.0640
  762MPD2    C411254   2.369   2.811  10.549  0.4253 -0.0113  0.5898
  762MPD2    C511255   2.314   2.815  10.669  0.0891 -0.2727  0.0084
  762MPD2     H11256   2.312   3.119  10.451 -1.0597 -0.9799 -1.0237
  762MPD2    H111257   2.413   2.716  10.524  1.4126  0.9490 -1.3620
  762MPD2    H211258   2.210   2.916  10.820 -1.0843 -2.0285 -0.9119
  762MPD2    H311259   2.332   2.734  10.739 -1.1794  0.0497  0.7108
  762MPD2     N11260   2.422   2.927  10.342  0.2663 -0.2694  0.3027
  762MPD2    H511261   2.421   3.012  10.286  0.2025 -0.0696  0.6031
  762MPD2    N111262   2.158   3.146  10.694 -0.4907  0.1582 -0.2626
  762MPD2    H711263   2.099   3.137  10.777  1.9960  2.5963  1.7625
  763MPD2     C11264   4.351   4.050  16.161 -0.3674  0.5554  0.2969
  763MPD2    C111265   4.232   4.113  16.128  0.0914  0.0798  0.1034
  763MPD2    C211266   4.208   4.234  16.181 -0.1393  0.1001  0.4225
  763MPD2    C311267   4.297   4.291  16.273 -0.4170  0.1016 -0.4715
  763MPD2    C411268   4.409   4.222  16.315 -0.1840 -0.0116  0.0014
  763MPD2    C511269   4.441   4.101  16.248  0.2529 -0.6624  0.3192
  763MPD2     H11270   4.113   4.283  16.162 -0.5205 -1.3170 -1.3608
  763MPD2    H111271   4.481   4.267  16.382  0.4519 -1.6625  0.4178
  763MPD2    H211272   4.375   3.952  16.121  0.8509  0.8375  0.3543
  763MPD2    H311273   4.520   4.039  16.289  0.0944 -0.0829  1.4948
  763MPD2     N11274   4.278   4.414  16.335  0.0583  0.1726  0.3269
  763MPD2    H511275   4.337   4.447  16.410 -0.6227 -0.8605  1.3220
  763MPD2    N111276   4.148   4.062  16.026  0.0532 -0.1944  0.0350
  763MPD2    H711277   4.070   4.120  15.995 -0.7651 -0.8630  0.8443
  764MPD2     C11278   1.551   0.600  17.227  0.2159  0.2231  0.4057
  764MPD2    C111279   1.463   0.639  17.318  0.4001 -0.9969 -1.4910
  764MPD2    C211280   1.487   0.597  17.446  0.7114 -0.3115 -0.1892
  764MPD2    C311281   1.583   0.510  17.480 -0.0216  0.6124  0.4702
  764MPD2    C411282   1.672   0.466  17.385  0.4230  0.4848  0.3665
  764MPD2    C511283   1.656   0.522  17.262  0.7342  0.1595 -0.0028
  764MPD2     H11284   1.414   0.630  17.519 -0.9474  0.2925 -2.1205
  764MPD2    H111285   1.765   0.414  17.406 -0.8481 -1.1964  1.7862
  764MPD2    H211286   1.535   0.632  17.125  2.4198 -0.2416 -0.0852
  764MPD2    H311287   1.722   0.497  17.180  0.5358 -0.4022  0.0064
  764MPD2     N11288   1.586   0.475  17.617 -0.1613 -0.0859 -0.9293
  764MPD2    H511289   1.508   0.510  17.672 -0.0163 -1.4917  0.1493
  764MPD2    N111290   1.361   0.726  17.292  0.1450  0.2367 -0.1573
  764MPD2    H711291   1.343   0.739  17.193  0.1977 -1.2210 -0.3567
  765MPD2     C11292   1.570   2.970  15.804  0.3828  0.0591  0.4337
  765MPD2    C111293   1.631   3.088  15.785 -0.0384  0.3200  0.0754
  765MPD2    C211294   1.755   3.089  15.727  0.3082 -0.5571 -0.1674
  765MPD2    C311295   1.817   2.977  15.687 -0.4220  0.3800 -0.1570
  765MPD2    C411296   1.753   2.855  15.709 -0.1722 -0.0826  0.9346
  765MPD2    C511297   1.635   2.852  15.772 -0.6642 -0.4870 -0.2778
  765MPD2     H11298   1.807   3.184  15.722 -0.7194  0.1163  1.7430
  765MPD2    H111299   1.804   2.760  15.705  0.9181  0.4684  1.6200
  765MPD2    H211300   1.480   2.963  15.863 -0.9718 -1.5407 -1.8009
  765MPD2    H311301   1.583   2.761  15.799 -1.1788 -0.3804 -0.9277
  765MPD2     N11302   1.934   2.984  15.598 -0.4167  0.4728  0.8275
  765MPD2    H511303   1.988   3.070  15.592  2.9830 -1.6545  0.8863
  765MPD2    N111304   1.554   3.195  15.829  0.1805 -0.0003 -0.0112
  765MPD2    H711305   1.463   3.181  15.872  0.5145 -1.8969  0.0648
  766MPD2     C11306   0.988   3.347  15.439  0.4536  0.4259 -0.7997
  766MPD2    C111307   1.126   3.364  15.442  0.5459 -0.9692 -0.6996
  766MPD2    C211308   1.201   3.325  15.336 -0.0391  0.3010  0.1697
  766MPD2    C311309   1.137   3.288  15.217  0.0013 -0.1480 -0.3344
  766MPD2    C411310   0.999   3.286  15.213 -0.1072  0.2713  0.2494
  766MPD2    C511311   0.920   3.316  15.321  0.3481 -0.6067  0.4850
  766MPD2     H11312   1.309   3.330  15.345 -0.1056 -0.3348  1.2874
  766MPD2    H111313   0.948   3.255  15.122 -2.6411 -0.1641  1.8330
  766MPD2    H211314   0.920   3.365  15.522  0.6687 -0.5619 -0.4064
  766MPD2    H311315   0.813   3.325  15.308  0.6609 -0.9494 -2.2417
  766MPD2     N11316   1.207   3.255  15.093 -0.0413  0.2787  0.0541
  766MPD2    H511317   1.146   3.230  15.016 -1.5470 -1.6324  1.8558
  766MPD2    N111318   1.205   3.398  15.551 -0.7407  0.0916 -0.3607
  766MPD2    H711319   1.305   3.385  15.550 -0.8456 -0.7943  1.8318
  767MPD2     C11320   0.866   3.553  15.092  0.0333  0.2342 -0.1751
  767MPD2    C111321   0.987   3.557  15.043 -0.5969 -0.3297 -0.1030
  767MPD2    C211322   1.015   3.541  14.913  0.5467  0.2187  0.8432
  767MPD2    C311323   0.916   3.496  14.830  0.3022 -0.0390  1.0158
  767MPD2    C411324   0.784   3.479  14.873 -0.2864  0.1172  0.6690
  767MPD2    C511325   0.763   3.511  15.009  0.3709  0.4375  0.1316
  767MPD2     H11326   1.116   3.541  14.875  0.2886  0.6791  0.1609
  767MPD2    H111327   0.708   3.436  14.810 -1.0747  1.0247  0.9902
  767MPD2    H211328   0.846   3.586  15.193  1.6938 -1.1442  0.5928
  767MPD2    H311329   0.667   3.508  15.059  0.4286 -0.6132  0.1877
  767MPD2     N11330   0.945   3.468  14.691  0.5363  0.4926 -0.0789
  767MPD2    H511331   1.044   3.468  14.670  0.7313  0.6900  0.8489
  767MPD2    N111332   1.081   3.613  15.131 -0.0889 -0.0692 -0.0363
  767MPD2    H711333   1.061   3.653  15.222 -0.2873  4.0217 -1.9020
  768MPD2     C11334   2.645   1.975  10.616  0.1365 -0.2280 -0.2096
  768MPD2    C111335   2.627   1.919  10.739  0.1902 -0.5193  0.1319
  768MPD2    C211336   2.735   1.928  10.835  0.5572 -0.0276  0.9360
  768MPD2    C311337   2.859   1.989  10.792  0.1446 -0.0089 -0.3536
  768MPD2    C411338   2.873   2.032  10.663  0.0966 -0.0482  0.8564
  768MPD2    C511339   2.765   2.018  10.578  0.4456 -0.7860 -0.2830
  768MPD2     H11340   2.711   1.883  10.931 -1.3448  1.2276  1.0406
  768MPD2    H111341   2.960   2.085  10.625 -1.2584  1.4827 -0.0820
  768MPD2    H211342   2.564   1.976  10.544 -1.2861  0.0157  1.3925
  768MPD2    H311343   2.772   2.067  10.482 -0.6494  1.7397  0.9269
  768MPD2     N11344   2.964   2.010  10.885 -0.4358 -0.7512 -0.6322
  768MPD2    H511345   3.042   2.063  10.847  0.7390 -0.9280  1.5627
  768MPD2    N111346   2.499   1.862  10.762  0.0233 -0.5623 -0.1105
  768MPD2    H711347   2.439   1.859  10.680  0.0673 -0.5664 -0.1428
  769MPD2     C11348   2.968   0.586  14.546  0.0625  0.2725  0.6351
  769MPD2    C111349   2.958   0.458  14.591  0.7762 -0.0227 -0.4880
  769MPD2    C211350   3.037   0.409  14.689  0.0070  0.2258  0.1425
  769MPD2    C311351   3.142   0.484  14.735  0.2360  0.6395  0.2329
  769MPD2    C411352   3.159   0.611  14.683  0.2367 -0.8205  0.2734
  769MPD2    C511353   3.071   0.662  14.590 -0.5042  0.2754 -0.4221
  769MPD2     H11354   3.019   0.313  14.737  3.4306 -0.0683  0.8487
  769MPD2    H111355   3.240   0.678  14.711  0.7284 -0.7495 -1.3314
  769MPD2    H211356   2.902   0.636  14.476 -1.4406 -1.8781  0.5112
  769MPD2    H311357   3.099   0.756  14.545  1.6453 -0.1197  0.0652
  769MPD2     N11358   3.217   0.436  14.843  0.4553  0.1731  0.2210
  769MPD2    H511359   3.207   0.339  14.872  0.1465  0.6578  1.7612
  769MPD2    N111360   2.846   0.382  14.551 -0.6884  0.2960  0.5487
  769MPD2    H711361   2.784   0.425  14.484 -0.0083 -0.1083 -0.3352
  770MPD2     C11362   2.198   4.482  14.939  0.5986  0.2195 -0.4748
  770MPD2    C111363   2.310   4.441  14.875  0.2668  0.4645 -0.3348
  770MPD2    C211364   2.395   4.542  14.828 -0.9219 -0.5528  0.5598
  770MPD2    C311365   2.351   4.671  14.811 -0.0080  1.2317 -0.2577
  770MPD2    C411366   2.231   4.711  14.865 -0.4656 -0.3283  0.4579
  770MPD2    C511367   2.165   4.612  14.940 -0.3790 -0.4061  0.3135
  770MPD2     H11368   2.496   4.513  14.803 -1.2148  2.1016 -3.7881
  770MPD2    H111369   2.189   0.088  14.865 -0.7845 -0.4635  0.4353
  770MPD2    H211370   2.137   4.410  14.991  0.1515 -0.5916 -2.1412
  770MPD2    H311371   2.078   4.639  14.999 -0.6105 -1.5345  0.4909
  770MPD2     N11372   2.429   0.030  14.735  0.5180  0.3630  0.2977
  770MPD2    H511373   2.515   4.716  14.695 -1.1448 -1.9458 -1.2101
  770MPD2    N111374   2.354   4.307  14.896  0.1255  0.2603 -0.2370
  770MPD2    H711375   2.287   4.237  14.926  0.9108 -0.7800 -0.9188
  771MPD2     C11376   3.157   2.824  13.790 -0.2548  0.1729  0.1777
  771MPD2    C111377   3.211   2.937  13.738 -0.2668  0.5614  0.2813
  771MPD2    C211378   3.240   2.929  13.605 -0.0320 -0.0460  0.3588
  771MPD2    C311379   3.210   2.822  13.521 -0.4086 -0.1461 -0.2416
  771MPD2    C411380   3.149   2.714  13.574  0.2803  0.1007 -0.0445
  771MPD2    C511381   3.125   2.719  13.708  0.1241  0.5760 -0.1225
  771MPD2     H11382   3.292   3.009  13.554 -0.5136  0.2541  0.3297
  771MPD2    H111383   3.115   2.632  13.512 -0.7513 -1.6133  2.7664
  771MPD2    H211384   3.136   2.819  13.897  1.2995  1.1475  0.5447
  771MPD2    H311385   3.071   2.639  13.757  0.4041 -1.0621 -2.4819
  771MPD2     N11386   3.230   2.832  13.380 -0.1916  0.0246  0.1121
  771MPD2    H511387   3.242   2.926  13.345 -0.4207 -0.2418 -0.6995
  771MPD2    N111388   3.263   3.041  13.822 -0.5655  0.7084 -0.7839
  771MPD2    H711389   3.320   3.111  13.774 -1.4854  2.6884  0.9914
  772MPD2     C11390   3.061   3.393  14.553  0.5662 -0.1575 -0.1566
  772MPD2    C111391   3.012   3.367  14.428 -0.0253  0.4899  0.8047
  772MPD2    C211392   2.877   3.343  14.419 -0.4783 -0.4458  0.0472
  772MPD2    C311393   2.792   3.360  14.523  0.1190  0.4949 -0.0742
  772MPD2    C411394   2.837   3.400  14.641  0.0587 -0.0150  0.9944
  772MPD2    C511395   2.972   3.419  14.655 -0.2757  0.2727  0.0146
  772MPD2     H11396   2.846   3.302  14.324  0.5740 -0.7631 -0.1594
  772MPD2    H111397   2.782   3.419  14.733 -0.9970 -1.0884  0.5871
  772MPD2    H211398   3.163   3.417  14.578  0.3308  0.9535 -0.2748
  772MPD2    H311399   3.009   3.460  14.748 -1.6031 -0.4971  0.8800
  772MPD2     N11400   2.649   3.323  14.521 -0.8389 -0.6096 -0.5065
  772MPD2    H511401   2.590   3.353  14.598 -0.1595 -0.1805 -0.1516
  772MPD2    N111402   3.100   3.320  14.326 -0.5473  0.0939 -0.2868
  772MPD2    H711403   3.061   3.296  14.235 -0.8328 -0.0673 -0.1199
  773MPD2     C11404   2.904   4.263  17.508  0.2142 -0.0997  0.3478
  773MPD2    C111405   2.797   4.254  17.602 -0.0972 -0.0802 -0.1041
  773MPD2    C211406   2.826   4.261   0.046  0.4019  0.1735  0.8108
  773MPD2    C311407   2.960   4.280   0.081 -0.5390  0.0184  0.1913
  773MPD2    C411408   3.061   4.282  17.678  0.1241 -0.0519 -0.7396
  773MPD2    C511409   3.039   4.268  17.549 -0.4301  0.7231 -0.8272
  773MPD2     H11410   2.747   4.247   0.118  0.7290 -0.6427  1.0100
  773MPD2    H111411   3.167   4.294   0.005  0.1439 -1.3438 -0.0804
  773MPD2    H211412   2.888   4.294  17.406  0.3235 -1.7908 -0.1705
  773MPD2    H311413   3.108   4.277  17.465  0.4550 -0.0568 -0.1832
  773MPD2     N11414   2.995   4.294   0.220 -0.4383 -0.5616 -0.3294
  773MPD2    H511415   2.917   4.299   0.285 -1.7621 -0.7550 -1.8974
  773MPD2    N111416   2.659   4.244  17.557  0.0447 -1.4681 -0.6609
  773MPD2    H711417   2.588   4.222  17.626  0.2546  1.2521  0.4317
  774MPD2     C11418   1.389   2.938  13.232 -0.1473  0.5159  0.7379
  774MPD2    C111419   1.474   2.934  13.344  0.0891  0.1206 -0.1215
  774MPD2    C211420   1.596   2.998  13.332  1.1624  0.0344  0.3966
  774MPD2    C311421   1.638   3.045  13.210 -0.2475  0.2554 -0.6508
  774MPD2    C411422   1.554   3.037  13.098 -0.1906 -0.1923  0.3809
  774MPD2    C511423   1.422   2.989  13.112 -0.7233  0.4751 -0.3037
  774MPD2     H11424   1.659   3.014  13.419  1.7051  0.5802 -0.0942
  774MPD2    H111425   1.578   3.078  13.001 -3.6121  0.3327 -0.2399
  774MPD2    H211426   1.288   2.901  13.243 -0.0514  0.1135  0.2459
  774MPD2    H311427   1.355   2.994  13.027 -0.9952 -0.1970 -0.1269
  774MPD2     N11428   1.757   3.124  13.215  0.1092 -0.3147  0.5435
  774MPD2    H511429   1.798   3.136  13.307 -3.0648 -1.5695  2.0850
  774MPD2    N111430   1.420   2.891  13.467 -0.1223  0.2392 -0.6386
  774MPD2    H711431   1.321   2.871  13.470  0.5173 -2.6574  1.3221
  775MPD2     C11432   3.413   4.691  15.722 -0.6534 -0.1772  0.2193
  775MPD2    C111433   3.353   0.097  15.724 -0.4259 -0.5318  0.2273
  775MPD2    C211434   3.434   0.200  15.691  0.4517 -0.7051  0.7013
  775MPD2    C311435   3.564   0.188  15.653  0.0046  0.1851 -0.0455
  775MPD2    C411436   3.617   0.059  15.647  0.0424 -0.2495 -0.0081
  775MPD2    C511437   3.543   4.674  15.680  0.9478  0.2763  0.0418
  775MPD2     H11438   3.384   0.297  15.698 -0.0616 -1.0930  2.3430
  775MPD2    H111439   3.717   0.029  15.620  0.5255  0.2114  1.2543
  775MPD2    H211440   3.350   4.603  15.730  0.5701 -1.3274 -2.8798
  775MPD2    H311441   3.589   4.577  15.689 -0.1730 -0.1295  1.4317
  775MPD2     N11442   3.646   0.297  15.624 -0.0442 -0.4837  0.0695
  775MPD2    H511443   3.737   0.271  15.586  1.2963  2.3517  1.3297
  775MPD2    N111444   3.215   0.102  15.769 -0.4166  0.2005  0.5246
  775MPD2    H711445   3.177   0.010  15.785  0.7716 -0.5217 -0.7270
  776MPD2     C11446   2.818   0.388  11.679 -0.5323  0.0522 -0.1219
  776MPD2    C111447   2.879   0.314  11.580 -0.3760  0.2089 -0.4778
  776MPD2    C211448   2.929   0.371  11.466  0.0194 -0.0793 -0.3057
  776MPD2    C311449   2.918   0.511  11.450 -0.0496  0.5611 -0.7992
  776MPD2    C411450   2.862   0.585  11.551 -0.2691  0.5665  0.3861
  776MPD2    C511451   2.825   0.527  11.666 -0.2126 -0.5910  0.2288
  776MPD2     H11452   2.979   0.311  11.390  2.1778  0.8562  0.3822
  776MPD2    H111453   2.857   0.693  11.543  0.9531  0.7078  1.4458
  776MPD2    H211454   2.787   0.357  11.778 -0.6418  1.2050  0.2107
  776MPD2    H311455   2.799   0.589  11.751  0.5929 -0.6455  0.5225
  776MPD2     N11456   2.966   0.590  11.339 -0.0034  0.0405 -0.4364
  776MPD2    H511457   2.963   0.691  11.348 -1.0635  0.2831 -3.7426
  776MPD2    N111458   2.911   0.177  11.597  0.0987  0.0837 -0.5554
  776MPD2    H711459   2.968   0.133  11.525 -0.0036 -1.1142  0.0837
  777MPD2     C11460   2.391   3.242   0.981 -0.2158 -0.3214 -0.7773
  777MPD2    C111461   2.466   3.148   1.042 -0.1910  0.0787 -0.3026
  777MPD2    C211462   2.546   3.071   0.962 -0.0569 -0.5075 -0.4437
  777MPD2    C311463   2.555   3.081   0.828 -0.5500 -0.4274  0.2298
  777MPD2    C411464   2.478   3.179   0.763  0.0882  0.2342 -0.2894
  777MPD2    C511465   2.392   3.255   0.842 -0.1868  0.3825 -0.4531
  777MPD2     H11466   2.611   2.991   0.994 -1.0116 -0.4332  1.7345
  777MPD2    H111467   2.483   3.190   0.655 -2.0001  0.1753 -0.3925
  777MPD2    H211468   2.319   3.296   1.042  1.4239  0.3866  0.5581
  777MPD2    H311469   2.326   3.326   0.793 -1.7232  1.0914  2.6447
  777MPD2     N11470   2.622   2.978   0.765  0.4743  0.3796  0.1237
  777MPD2    H511471   2.670   2.917   0.830 -3.5654 -1.4416  1.3623
  777MPD2    N111472   2.455   3.132   1.181  0.4371 -0.0179  0.0538
  777MPD2    H711473   2.389   3.190   1.232 -0.4337 -1.2343  0.2967
  778MPD2     C11474   3.706   2.998  15.143 -0.0240  0.1105 -0.2325
  778MPD2    C111475   3.671   2.923  15.027 -0.0110 -0.0268 -0.6066
  778MPD2    C211476   3.671   2.992  14.906  0.2715  0.0955  0.0955
  778MPD2    C311477   3.702   3.130  14.896  0.4824  0.0861 -0.3270
  778MPD2    C411478   3.722   3.204  15.012 -0.0581  0.1031 -1.0914
  778MPD2    C511479   3.723   3.137  15.133 -0.7478 -0.0445 -0.6102
  778MPD2     H11480   3.634   2.945  14.816  0.0365 -0.9678  0.7486
  778MPD2    H111481   3.729   3.312  15.019 -0.8227  0.0823 -0.0543
  778MPD2    H211482   3.705   2.951  15.241 -0.9524  2.0041  0.6822
  778MPD2    H311483   3.743   3.187  15.228 -2.0534 -1.4074  0.3795
  778MPD2     N11484   3.713   3.188  14.767  0.7175 -0.3155  0.0902
  778MPD2    H511485   3.703   3.129  14.685  0.2983  0.7569 -0.6332
  778MPD2    N111486   3.621   2.784  15.028  0.0800 -0.4849  0.3105
  778MPD2    H711487   3.561   2.761  14.950 -0.3903 -1.9917  1.1089
  779MPD2     C11488   3.705   1.805  13.984  0.0285  0.6619 -0.0307
  779MPD2    C111489   3.709   1.774  14.120 -0.0507 -0.2947 -0.3194
  779MPD2    C211490   3.747   1.875  14.210  0.3764  0.2573 -0.0946
  779MPD2    C311491   3.757   2.006  14.165  0.2687  0.5443 -0.4837
  779MPD2    C411492   3.746   2.031  14.030  0.2016 -0.0210  0.3879
  779MPD2    C511493   3.720   1.932  13.938  0.3187  0.5692 -0.3664
  779MPD2     H11494   3.755   1.849  14.315  0.7625 -1.5860 -0.5848
  779MPD2    H111495   3.753   2.130  13.987 -2.5406 -0.5229 -1.1962
  779MPD2    H211496   3.683   1.731  13.908  1.0200  0.7679 -0.4245
  779MPD2    H311497   3.713   1.966  13.835 -2.1499 -0.8675 -0.6628
  779MPD2     N11498   3.776   2.112  14.260 -0.8263 -0.1398 -0.2356
  779MPD2    H511499   3.808   2.081  14.351  2.1920 -0.5698 -1.4325
  779MPD2    N111500   3.709   1.646  14.164 -0.2650  0.7187  0.6106
  779MPD2    H711501   3.745   1.631  14.258 -0.1616 -1.0735  0.2829
  780MPD2     C11502   2.159   1.775   0.362  0.1567 -0.7938  0.0100
  780MPD2    C111503   2.190   1.681   0.266  1.0837 -0.0045  0.2304
  780MPD2    C211504   2.242   1.713   0.140  0.0587  0.1873  0.8118
  780MPD2    C311505   2.264   1.843   0.106 -0.4636 -0.3078 -0.3453
  780MPD2    C411506   2.227   1.938   0.197  0.8281  0.2511  0.0479
  780MPD2    C511507   2.178   1.903   0.322 -0.2048 -0.2630 -0.4030
  780MPD2     H11508   2.267   1.637   0.068  2.5755  2.3302 -0.5505
  780MPD2    H111509   2.232   2.045   0.178 -1.7838  0.5778  1.2080
  780MPD2    H211510   2.115   1.751   0.458 -0.3400  1.9936  0.4810
  780MPD2    H311511   2.150   1.979   0.393 -0.1998  0.9742 -1.7332
  780MPD2     N11512   2.335   1.867  17.675  0.4692 -0.0663 -0.2477
  780MPD2    H511513   2.358   1.784  17.621  0.8176 -1.1565  1.6014
  780MPD2    N111514   2.170   1.549   0.311  0.4383 -0.0984  0.6178
  780MPD2    H711515   2.140   1.540   0.407 -2.3673 -0.6430 -0.3214
  781MPD2     C11516   0.325   2.813  11.963 -1.4114  0.1170 -0.4854
  781MPD2    C111517   0.341   2.920  12.046 -0.0607  0.4095 -0.8072
  781MPD2    C211518   0.438   3.007  12.007  0.4246 -0.4421 -0.3826
  781MPD2    C311519   0.509   3.007  11.885 -0.6890  0.5821 -0.7264
  781MPD2    C411520   0.487   2.895  11.806 -0.4387  0.0239 -0.2612
  781MPD2    C511521   0.397   2.799  11.848 -0.1742 -0.4325  0.3598
  781MPD2     H11522   0.462   3.097  12.064  1.2492 -0.4571 -0.6967
  781MPD2    H111523   0.522   2.885  11.704 -0.2271  0.9071 -0.2742
  781MPD2    H211524   0.250   2.738  11.985  0.1912 -0.9457  1.3841
  781MPD2    H311525   0.379   2.717  11.778  0.0232  0.2951 -0.5483
  781MPD2     N11526   0.591   3.109  11.831 -0.2225  0.5888  0.4077
  781MPD2    H511527   0.632   3.094  11.739 -0.5253  3.0926 -0.1186
  781MPD2    N111528   0.262   2.943  12.160 -0.5335  0.5675 -0.1469
  781MPD2    H711529   0.170   2.901  12.168 -0.3086 -0.4776 -3.3808
  782MPD2     C11530   3.331   0.053   9.785  0.2164  0.1781  0.5123
  782MPD2    C111531   3.294   4.657   9.841 -0.1796  0.3435 -0.4799
  782MPD2    C211532   3.357   4.620   9.955  0.7044 -0.0069 -0.6393
  782MPD2    C311533   3.465   4.686  10.004  0.3126  0.4111  0.6495
  782MPD2    C411534   3.505   0.078   9.939  0.0712 -0.6851  0.6179
  782MPD2    C511535   3.437   0.123   9.833 -0.3470  0.2560  1.2978
  782MPD2     H11536   3.314   4.541  10.015 -1.2563  1.8118  0.3698
  782MPD2    H111537   3.588   0.140   9.971 -0.5717  0.3866  0.2080
  782MPD2    H211538   3.269   0.103   9.711 -0.4407  0.3449  1.1743
  782MPD2    H311539   3.468   0.223   9.805 -0.1986 -0.1464  0.0236
  782MPD2     N11540   3.528   4.634  10.121  0.0085  0.1252  0.2427
  782MPD2    H511541   3.490   4.549  10.161  0.1002  1.9865  4.2640
  782MPD2    N111542   3.185   4.581   9.785 -0.4920 -0.1926 -0.5322
  782MPD2    H711543   3.124   4.628   9.719 -0.5958 -0.0179 -0.3077
  783MPD2     C11544   2.944   3.778  10.316  0.4459  0.1805  0.7022
  783MPD2    C111545   2.938   3.915  10.325 -0.0361  0.0365 -0.5526
  783MPD2    C211546   2.999   4.001  10.238  0.9080  0.0641 -0.2124
  783MPD2    C311547   3.081   3.947  10.145  0.4200 -0.9847  0.3421
  783MPD2    C411548   3.097   3.807  10.136  0.0758 -0.1028  0.5166
  783MPD2    C511549   3.017   3.728  10.212  0.3272  0.0359  0.5603
  783MPD2     H11550   2.982   4.108  10.239  0.0035 -0.0912  1.1179
  783MPD2    H111551   3.155   3.763  10.055 -1.2856  0.1700 -0.6135
  783MPD2    H211552   2.887   3.713  10.381 -1.1226  2.5870  1.6960
  783MPD2    H311553   3.001   3.622  10.193 -2.4952  0.8898 -1.7715
  783MPD2     N11554   3.142   4.040  10.061  0.1197 -0.4334  0.1685
  783MPD2    H511555   3.112   4.137  10.063 -2.3174 -1.2151  1.2090
  783MPD2    N111556   2.877   3.968  10.436  0.3445 -0.0963  0.3232
  783MPD2    H711557   2.823   3.902  10.491 -0.6328  2.1041  2.0261
  784MPD2     C11558   0.163   0.141   1.088  0.0513 -0.0511  0.6406
  784MPD2    C111559   0.156   0.174   1.220  0.4467 -0.5121 -0.2748
  784MPD2    C211560   0.041   0.232   1.272 -0.3355  0.3573 -0.5543
  784MPD2    C311561   4.680   0.287   1.179 -0.4445 -0.5454  0.7335
  784MPD2    C411562   4.697   0.264   1.048 -0.5230 -0.0017  0.0880
  784MPD2    C511563   0.071   0.186   1.001  0.3673 -0.7424  0.3706
  784MPD2     H11564   0.027   0.258   1.377  1.2786 -1.2082  0.0423
  784MPD2    H111565   4.629   0.299   0.972  0.9961  1.1050 -0.7445
  784MPD2    H211566   0.248   0.084   1.053  0.6092  0.3200  1.3880
  784MPD2    H311567   0.077   0.170   0.894  0.7521  0.7582  0.1617
  784MPD2     N11568   4.572   0.363   1.235 -0.0807  0.2984 -0.3329
  784MPD2    H511569   4.556   0.361   1.335 -0.9559 -0.4242 -0.4805
  784MPD2    N111570   0.260   0.150   1.314 -0.0413  0.4283 -0.5872
  784MPD2    H711571   0.230   0.159   1.410 -1.5274 -2.5438 -0.7712
  785MPD2     C11572   1.408   2.106   9.877  0.3540 -0.1348 -0.4629
  785MPD2    C111573   1.298   2.069   9.956  0.1084  0.0451  0.2592
  785MPD2    C211574   1.175   2.036   9.895  0.4758  0.0600  0.3395
  785MPD2    C311575   1.160   2.079   9.766  0.6009  0.2231 -0.8616
  785MPD2    C411576   1.256   2.147   9.695 -0.2558 -0.1504  0.0766
  785MPD2    C511577   1.384   2.147   9.745 -0.5605  0.2598 -0.8705
  785MPD2     H11578   1.101   1.993   9.962 -0.6625  1.1539 -0.2236
  785MPD2    H111579   1.253   2.184   9.593 -0.4812 -0.7525 -0.1299
  785MPD2    H211580   1.511   2.130   9.904 -0.2688  1.2524  0.7201
  785MPD2    H311581   1.463   2.201   9.695  0.8972 -1.1118 -0.0757
  785MPD2     N11582   1.029   2.066   9.710  0.4738 -0.6926  0.6764
  785MPD2    H511583   0.958   2.031   9.774 -0.9197 -0.2989 -0.6544
  785MPD2    N111584   1.313   2.047  10.093  0.3050  0.4098  0.3142
  785MPD2    H711585   1.230   2.016  10.142 -0.1711 -0.9471 -1.3903
  786MPD2     C11586   3.705   1.026  14.533 -0.0686  0.7386 -0.0273
  786MPD2    C111587   3.828   0.974  14.500 -0.2553  0.6749 -0.2311
  786MPD2    C211588   3.936   1.005  14.576  0.5942 -0.2429 -0.9223
  786MPD2    C311589   3.933   1.083  14.690 -0.4998 -0.2348 -0.2421
  786MPD2    C411590   3.806   1.128  14.725  0.0495  0.6623  0.1911
  786MPD2    C511591   3.692   1.097  14.655  0.2371  0.0640  0.0215
  786MPD2     H11592   4.034   0.976  14.539  0.2091 -0.9046 -1.4007
  786MPD2    H111593   3.797   1.186  14.816  1.8813  1.3499 -0.0827
  786MPD2    H211594   3.615   0.998  14.479 -0.3353  0.9877  0.2836
  786MPD2    H311595   3.594   1.137  14.679  0.3756  0.0036  0.7005
  786MPD2     N11596   4.046   1.120  14.768  0.3848 -0.2285  0.0101
  786MPD2    H511597   4.035   1.188  14.842 -1.2936 -1.4797  0.9139
  786MPD2    N111598   3.856   0.880  14.401  0.1537 -0.4899 -0.2813
  786MPD2    H711599   3.949   0.840  14.394  1.0335  1.4003  0.6840
  787MPD2     C11600   4.225   0.522  14.622  0.4809 -0.0558 -0.5744
  787MPD2    C111601   4.179   0.442  14.516 -0.9676  0.6016 -0.3724
  787MPD2    C211602   4.220   0.317  14.517  0.5875 -0.3799  0.2063
  787MPD2    C311603   4.309   0.259  14.609 -0.1567 -0.0529 -0.0601
  787MPD2    C411604   4.352   0.335  14.717 -0.0167 -0.2098  0.4180
  787MPD2    C511605   4.308   0.465  14.718 -0.1338  0.3705  0.1770
  787MPD2     H11606   4.191   0.260  14.429 -0.6898  1.1909 -0.4030
  787MPD2    H111607   4.422   0.304  14.793  0.6140  0.0977 -0.0323
  787MPD2    H211608   4.201   0.628  14.625 -2.4784 -0.6936 -1.3027
  787MPD2    H311609   4.336   0.524  14.805 -2.3749 -0.7222  1.6464
  787MPD2     N11610   4.366   0.135  14.570 -0.0636  0.0725  0.2799
  787MPD2    H511611   4.340   0.109  14.476  0.3552  0.3978  0.0718
  787MPD2    N111612   4.083   0.496  14.422 -0.0171 -0.0905 -0.1565
  787MPD2    H711613   4.074   0.596  14.432  2.4381  0.0663  0.4065
  788MPD2     C11614   1.583   4.269   0.754 -0.1604 -0.0853  0.3021
  788MPD2    C111615   1.469   4.228   0.702  0.6022  0.8441  0.2479
  788MPD2    C211616   1.405   4.315   0.611  0.2022  0.4875  0.1250
  788MPD2    C311617   1.462   4.443   0.587  0.8203 -0.0430 -0.6554
  788MPD2    C411618   1.575   4.490   0.660 -0.7066  0.1258 -0.6676
  788MPD2    C511619   1.640   4.395   0.737  0.1161  0.2189 -0.4307
  788MPD2     H11620   1.309   4.287   0.570 -0.6926  0.5540  2.1820
  788MPD2    H111621   1.613   4.592   0.652 -2.1150  0.5731 -1.5575
  788MPD2    H211622   1.635   4.198   0.818  0.0039  0.2514  0.5413
  788MPD2    H311623   1.725   4.428   0.796 -0.6730  1.3728  0.0602
  788MPD2     N11624   1.400   4.544   0.503 -0.6084 -0.0130 -0.4975
  788MPD2    H511625   1.436   4.639   0.500 -0.0721 -0.1935  0.0987
  788MPD2    N111626   1.424   4.096   0.729 -0.0684 -0.0737 -0.4030
  788MPD2    H711627   1.486   4.038   0.785  1.6969 -0.1493 -2.4407
  789MPD2     C11628   1.454   3.665  16.166  0.1085 -0.0338 -0.1867
  789MPD2    C111629   1.418   3.599  16.284 -1.0585 -0.3427  0.4024
  789MPD2    C211630   1.359   3.678  16.381 -0.9709 -0.0381 -0.2665
  789MPD2    C311631   1.329   3.811  16.359  0.6155 -0.3538  0.1119
  789MPD2    C411632   1.370   3.866  16.241 -0.5369  0.1618  0.9805
  789MPD2    C511633   1.434   3.800  16.144 -0.1614 -0.7786  0.9676
  789MPD2     H11634   1.350   3.628  16.477  0.2996  0.6105  0.1924
  789MPD2    H111635   1.353   3.971  16.220 -1.5790 -0.2456 -0.2114
  789MPD2    H211636   1.504   3.621  16.081  2.5336  1.1442  0.6247
  789MPD2    H311637   1.460   3.846  16.049  0.4752 -1.5129  0.7888
  789MPD2     N11638   1.262   3.897  16.450 -0.2368  0.2831  1.1372
  789MPD2    H511639   1.246   3.993  16.423 -0.2010  0.7390  2.7367
  789MPD2    N111640   1.437   3.461  16.303 -0.7137  0.3633 -0.4044
  789MPD2    H711641   1.400   3.429  16.392  1.3651 -0.7916  0.0493
  790MPD2     C11642   2.762   1.276  13.170 -0.5465 -0.3208 -0.0042
  790MPD2    C111643   2.763   1.152  13.236  0.2953 -0.1760  0.4457
  790MPD2    C211644   2.706   1.041  13.177  0.1746  0.0524 -0.3446
  790MPD2    C311645   2.639   1.057  13.055 -0.0049  0.5407  0.6264
  790MPD2    C411646   2.632   1.183  12.996  0.2522 -0.5602  0.5375
  790MPD2    C511647   2.691   1.289  13.052 -0.3342  0.0892 -0.4939
  790MPD2     H11648   2.705   0.946  13.230  0.9120  0.1707 -0.1132
  790MPD2    H111649   2.580   1.189  12.901 -0.2146 -0.2254  0.8197
  790MPD2    H211650   2.821   1.361  13.204  0.5455 -1.1053  0.0667
  790MPD2    H311651   2.693   1.381  12.994  1.9054 -0.7069 -1.6774
  790MPD2     N11652   2.566   0.949  13.006 -0.2187 -0.5131  0.2686
  790MPD2    H511653   2.601   0.858  13.034  0.4441  0.1603  1.6232
  790MPD2    N111654   2.823   1.145  13.370  0.7642  0.4946  0.2243
  790MPD2    H711655   2.855   1.232  13.412  0.3824  1.4639 -1.5272
  791MPD2     C11656   1.899   0.805  12.631  0.4820  0.1520 -0.5028
  791MPD2    C111657   1.974   0.691  12.647  0.1639  0.1870 -0.0652
  791MPD2    C211658   1.897   0.573  12.625  0.0532  0.9521 -0.7784
  791MPD2    C311659   1.758   0.574  12.599  1.1594  0.1447 -0.5957
  791MPD2    C411660   1.695   0.693  12.593  0.0899  0.6976  0.0961
  791MPD2    C511661   1.765   0.806  12.606  0.1020 -0.3036  0.2822
  791MPD2     H11662   1.940   0.473  12.632 -0.0566  0.8611 -1.4373
  791MPD2    H111663   1.589   0.695  12.567  0.1257  0.1116 -0.0981
  791MPD2    H211664   1.947   0.902  12.629 -1.1800  0.9541 -1.0278
  791MPD2    H311665   1.705   0.897  12.598  0.8397  0.3682  2.3965
  791MPD2     N11666   1.697   0.451  12.575 -0.0938  0.2201  0.2952
  791MPD2    H511667   1.750   0.370  12.603  0.0236 -0.0350 -0.6665
  791MPD2    N111668   2.113   0.697  12.678 -0.0174  0.4668  0.0193
  791MPD2    H711669   2.160   0.786  12.688 -0.7294  0.9127 -0.6546
  792MPD2     C11670   2.608   4.578  10.727  0.0355  0.4305  0.6375
  792MPD2    C111671   2.704   4.556  10.633  0.5192 -0.5959 -0.2156
  792MPD2    C211672   2.681   4.480  10.523 -0.4645  0.0559  0.4948
  792MPD2    C311673   2.559   4.417  10.514  0.4801  0.0369  0.3264
  792MPD2    C411674   2.458   4.448  10.605  0.2132 -0.1920  0.3795
  792MPD2    C511675   2.483   4.519  10.722  0.4211  0.2568 -0.4127
  792MPD2     H11676   2.764   4.475  10.453 -0.0410 -0.0176  0.9918
  792MPD2    H111677   2.366   4.392  10.592  0.7898 -0.6207 -1.6553
  792MPD2    H211678   2.626   4.642  10.813  1.4192  0.6314  0.1997
  792MPD2    H311679   2.406   4.538  10.796  0.2065  1.0328 -0.8351
  792MPD2     N11680   2.533   4.322  10.413 -0.0289  0.3407  0.0199
  792MPD2    H511681   2.446   4.270  10.422  0.9955 -1.1626  1.3172
  792MPD2    N111682   2.824   4.634  10.635 -0.3603 -0.5349  0.4997
  792MPD2    H711683   2.892   4.610  10.564 -1.5368 -0.0907 -0.7699
  793MPD2     C11684   3.080   3.876   9.657 -0.5547  0.3671 -0.6294
  793MPD2    C111685   3.056   4.008   9.683  0.2149  0.5671 -0.3845
  793MPD2    C211686   2.960   4.039   9.772  0.6452  0.1372  0.0937
  793MPD2    C311687   2.890   3.943   9.841  0.1942  0.3219  0.3500
  793MPD2    C411688   2.918   3.811   9.818  0.3474  0.0783 -0.1200
  793MPD2    C511689   3.016   3.782   9.729  0.0025 -0.0736  1.0158
  793MPD2     H11690   2.947   4.144   9.793 -1.6752 -0.1038 -0.2084
  793MPD2    H111691   2.889   3.733   9.887  0.3305  0.8905  0.7989
  793MPD2    H211692   3.167   3.846   9.599 -1.2990 -0.7783 -1.1453
  793MPD2    H311693   3.044   3.677   9.717 -0.7461 -0.2347  0.6525
  793MPD2     N11694   2.798   3.987   9.947 -0.3973  0.3342  0.0774
  793MPD2    H511695   2.803   4.086   9.968  0.2088  0.6532 -1.5286
  793MPD2    N111696   3.118   4.114   9.613 -0.5648 -0.0825  0.1381
  793MPD2    H711697   3.076   4.206   9.629 -0.2653  0.6984 -3.5137
  794MPD2     C11698   2.119   0.109  17.370 -0.8402 -0.0567  0.5091
  794MPD2    C111699   2.106   0.007  17.278  0.6850 -0.2717 -0.6313
  794MPD2    C211700   2.036   0.039  17.162 -0.1052  0.0367  0.9402
  794MPD2    C311701   1.997   0.168  17.131 -0.5187  0.6194  0.0565
  794MPD2    C411702   2.012   0.262  17.222 -0.1966 -0.1079 -0.2590
  794MPD2    C511703   2.079   0.233  17.345 -0.0307 -0.0142  0.0020
  794MPD2     H11704   2.035   4.687  17.083  2.0933  1.0904 -0.1091
  794MPD2    H111705   1.993   0.368  17.205 -2.7028 -0.5927 -0.5705
  794MPD2    H211706   2.173   0.089  17.462  0.0682  1.4382  0.2859
  794MPD2    H311707   2.085   0.305  17.426 -2.1071 -1.2538  1.2636
  794MPD2     N11708   1.945   0.205  17.012  0.2649 -0.1146  0.3725
  794MPD2    H511709   1.923   0.304  17.003  4.6259  0.7172 -1.2233
  794MPD2    N111710   2.158   4.595  17.294  0.1672  0.8451 -1.1378
  794MPD2    H711711   2.131   4.526  17.225  0.2291  1.0613 -1.3775
  795MPD2     C11712   0.147   1.902  13.812  0.7451  1.3378  0.5526
  795MPD2    C111713   0.087   1.818  13.719 -0.8383  0.0023  0.1443
  795MPD2    C211714   0.147   1.699  13.695 -0.2777 -0.8734  0.1174
  795MPD2    C311715   0.268   1.661  13.753 -0.2878 -0.2396  0.0200
  795MPD2    C411716   0.328   1.752  13.844  0.4013 -0.2146  0.3879
  795MPD2    C511717   0.267   1.873  13.867  0.1091  0.2174  0.0080
  795MPD2     H11718   0.098   1.632  13.626 -1.9020  0.4948 -0.0583
  795MPD2    H111719   0.419   1.720  13.893  0.0742  1.7274  2.2533
  795MPD2    H211720   0.119   2.003  13.841 -3.3576  0.8382 -1.6343
  795MPD2    H311721   0.322   1.944  13.927 -1.7270  1.7328 -0.1259
  795MPD2     N11722   0.312   1.530  13.725 -0.4943 -0.4094 -0.6939
  795MPD2    H511723   0.253   1.467  13.671 -0.7058 -1.5530  0.8770
  795MPD2    N111724   4.681   1.843  13.657 -0.6164  0.2053  0.2479
  795MPD2    H711725   4.637   1.769  13.602 -0.9893 -0.2781  1.1864
  796MPD2     C11726   4.555   3.722  15.797  0.6245 -0.7805  0.1419
  796MPD2    C111727   4.582   3.775  15.919 -0.2355  0.0606 -0.1468
  796MPD2    C211728   4.587   3.920  15.929  0.2777 -0.2620  0.6397
  796MPD2    C311729   4.540   4.001  15.826 -0.7952 -0.3917  0.3842
  796MPD2    C411730   4.522   3.943  15.701 -0.7682 -0.6179 -0.6097
  796MPD2    C511731   4.544   3.806  15.685 -0.0050  0.7983  0.0498
  796MPD2     H11732   4.592   3.967  16.026  4.2594 -1.2466  0.9148
  796MPD2    H111733   4.491   4.003  15.617 -0.5150  0.5216  0.1009
  796MPD2    H211734   4.557   3.615  15.778 -1.2685 -1.3384  3.0331
  796MPD2    H311735   4.536   3.766  15.584  1.5326 -1.1708  0.7099
  796MPD2     N11736   4.509   4.137  15.849 -0.7979  0.2268  0.1801
  796MPD2    H511737   4.532   4.185  15.935  0.9570  0.9074 -0.6712
  796MPD2    N111738   4.605   3.693  16.026 -0.6574  0.4302 -0.3878
  796MPD2    H711739   4.608   3.593  16.006  2.2371  0.1571  1.4450
  797MPD2     C11740   0.001   3.170  17.670  0.0500 -0.4923 -0.2258
  797MPD2    C111741   0.108   3.253  17.635  0.9401 -0.0377  0.1018
  797MPD2    C211742   0.081   3.368  17.566  0.1193  0.1496 -0.3936
  797MPD2    C311743   4.677   3.422  17.541  0.8469  0.2512  0.7506
  797MPD2    C411744   4.575   3.334  17.569  0.3376  0.7102  0.5031
  797MPD2    C511745   4.597   3.210  17.627 -0.0823 -0.8723  0.1039
  797MPD2     H11746   0.167   3.432  17.548 -0.4230  0.6141 -1.3257
  797MPD2    H111747   4.476   3.375  17.554  0.0776 -0.3506 -0.7066
  797MPD2    H211748   0.014   3.071   0.021  0.9992 -0.1673  0.2304
  797MPD2    H311749   4.510   3.147  17.646  0.8535 -1.9918  0.6765
  797MPD2     N11750   4.666   3.550  17.477 -0.0354  0.3881  0.1550
  797MPD2    H511751   0.028   3.591  17.439  0.1411 -0.5306 -0.4498
  797MPD2    N111752   0.243   3.235  17.656  0.0319  0.0240  0.6170
  797MPD2    H711753   0.299   3.310  17.617  0.4510 -0.5453  0.1085
  798MPD2     C11754   0.364   3.963  17.654 -0.5893  0.3766 -0.2083
  798MPD2    C111755   0.304   3.860  17.591  0.3528 -0.7872 -0.0581
  798MPD2    C211756   0.362   3.738  17.583 -0.5335 -0.6108 -0.4150
  798MPD2    C311757   0.486   3.713  17.636 -0.5279  0.2356  0.6002
  798MPD2    C411758   0.557   3.824  17.686 -0.5827 -0.2538 -0.7426
  798MPD2    C511759   0.495   3.946  17.691  0.3961 -0.0620  0.3422
  798MPD2     H11760   0.315   3.657  17.529  1.4104 -0.8311 -1.7782
  798MPD2    H111761   0.658   3.809   0.031 -1.4031 -0.2537  1.4100
  798MPD2    H211762   0.325   4.064  17.661  1.0541  0.8250  2.4162
  798MPD2    H311763   0.554   4.027   0.038  0.2923 -0.8536  2.1393
  798MPD2     N11764   0.526   3.580  17.640  0.1063  0.6092  0.1916
  798MPD2    H511765   0.467   3.506  17.603  0.1843  0.7618 -0.2405
  798MPD2    N111766   0.180   3.872  17.529 -0.1802 -0.5151  0.1091
  798MPD2    H711767   0.149   3.787  17.483 -1.2392 -0.3625  0.5463
  799MPD2     C11768   4.113   4.596  14.678 -0.2769  0.6488 -0.4728
  799MPD2    C111769   4.042   4.505  14.608  0.3925  0.0274 -0.2334
  799MPD2    C211770   3.957   4.547  14.511  0.0342  0.7151  0.5319
  799MPD2    C311771   3.928   4.677  14.496  0.1074 -0.1785  0.1125
  799MPD2    C411772   3.996   0.046  14.575 -0.4546  0.2229 -0.0242
  799MPD2    C511773   4.092   0.007  14.662 -0.8420 -0.8901 -0.2912
  799MPD2     H11774   3.909   4.467  14.455 -1.4462  0.8310  1.6591
  799MPD2    H111775   3.975   0.152  14.568  0.8120  0.3280 -2.0302
  799MPD2    H211776   4.184   4.567  14.755 -2.5783 -1.2718  0.9276
  799MPD2    H311777   4.136   0.086  14.722 -1.8374 -0.7183  0.2147
  799MPD2     N11778   3.862   0.004  14.380 -0.4061 -0.8789 -0.7667
  799MPD2    H511779   3.879   0.101  14.357 -0.1434 -1.1947 -1.9161
  799MPD2    N111780   4.056   4.364  14.625  0.7429 -0.2090  0.5472
  799MPD2    H711781   3.993   4.299  14.580 -1.0951  1.8644  0.1090
  800MPD2     C11782   4.547   0.969  14.124  0.7922 -0.3114  0.4130
  800MPD2    C111783   4.635   0.927  14.025  0.0901 -0.1747 -0.2485
  800MPD2    C211784   4.591   0.907  13.897  0.6761  0.0881  0.3603
  800MPD2    C311785   4.454   0.930  13.866 -0.4699 -0.0891 -0.0779
  800MPD2    C411786   4.370   0.975  13.970 -0.0790 -0.0188  0.4594
  800MPD2    C511787   4.412   0.990  14.094  0.4680  0.8751  0.5360
  800MPD2     H11788   4.654   0.896  13.810  1.0334  1.2195  0.4838
  800MPD2    H111789   4.269   0.999  13.938  0.2144  0.9312  0.2748
  800MPD2    H211790   4.589   1.019  14.211  2.6882 -0.2777 -0.5039
  800MPD2    H311791   4.352   1.032  14.174  0.5677  1.6365  0.2112
  800MPD2     N11792   4.413   0.910  13.734 -0.3980 -0.6638 -0.1449
  800MPD2    H511793   4.484   0.898  13.662 -1.0009  0.0478 -0.8670
  800MPD2    N111794   0.051   0.938  14.058  0.2649 -0.2094 -0.0882
  800MPD2    H711795   0.077   0.948  14.156  0.9565  0.0436 -0.2938
  801MPD2     C11796   0.456   1.522  14.171  0.3288  0.1906  0.9467
  801MPD2    C111797   0.385   1.426  14.243 -0.2881 -0.2024  0.2094
  801MPD2    C211798   0.301   1.465  14.346 -0.3598  0.2910 -0.2708
  801MPD2    C311799   0.271   1.596  14.364  0.0924  0.0870 -0.3302
  801MPD2    C411800   0.330   1.685  14.284 -0.1198  0.2633  0.8142
  801MPD2    C511801   0.422   1.655  14.186 -0.5764 -0.3540 -0.6676
  801MPD2     H11802   0.260   1.386  14.407 -0.7719  1.0004  0.3602
  801MPD2    H111803   0.309   1.790  14.300 -0.1169  0.3824  0.0210
  801MPD2    H211804   0.537   1.498  14.103  1.6469 -0.5845  2.8074
  801MPD2    H311805   0.469   1.729  14.123  0.2947  0.0587  0.4655
  801MPD2     N11806   0.182   1.643  14.465  0.1631 -0.2717 -0.5414
  801MPD2    H511807   0.159   1.742  14.463  3.0328  0.4420  2.0261
  801MPD2    N111808   0.395   1.289  14.222 -0.4784  0.0617  0.3598
  801MPD2    H711809   0.332   1.239  14.283 -1.6101 -0.5877 -1.3531
  802MPD2     C11810   3.648   1.721  16.520  0.3426 -0.9110  0.2970
  802MPD2    C111811   3.695   1.795  16.624  0.2169 -0.6521 -0.7232
  802MPD2    C211812   3.826   1.768  16.664  0.1180 -0.3612  0.6772
  802MPD2    C311813   3.907   1.672  16.609 -0.3086  0.3136  0.6747
  802MPD2    C411814   3.853   1.599  16.501  0.1715  0.2514  0.2896
  802MPD2    C511815   3.721   1.619  16.468  0.4919 -0.1316 -0.3054
  802MPD2     H11816   3.857   1.835  16.744 -1.9374  1.4081 -0.0098
  802MPD2    H111817   3.905   1.518  16.451  0.2339  2.7709 -3.7465
  802MPD2    H211818   3.544   1.729  16.492  1.0316  0.3662 -1.8371
  802MPD2    H311819   3.674   1.559  16.391 -0.7878 -0.9311  1.1006
  802MPD2     N11820   4.046   1.671  16.658 -0.1817  0.0389 -0.0422
  802MPD2    H511821   4.060   1.722  16.744 -0.9521  0.3405 -0.0978
  802MPD2    N111822   3.617   1.891  16.691  0.4544  0.1710 -0.6916
  802MPD2    H711823   3.675   1.941  16.757  1.3360 -1.0435 -0.5540
  803MPD2     C11824   0.748   0.431  11.550  0.2742  0.3563 -0.2873
  803MPD2    C111825   0.759   0.483  11.677 -0.4069  0.0090  0.5060
  803MPD2    C211826   0.709   0.412  11.788  0.0777  0.1337 -0.3004
  803MPD2    C311827   0.637   0.297  11.764  0.3203 -0.1899  0.2684
  803MPD2    C411828   0.616   0.259  11.639  0.0996 -0.3078 -0.1523
  803MPD2    C511829   0.672   0.317  11.532 -0.3456  0.4747  0.5159
  803MPD2     H11830   0.730   0.437  11.892 -0.5965  0.9605 -0.3676
  803MPD2    H111831   0.546   0.179  11.623 -0.2566 -0.0011 -0.1308
  803MPD2    H211832   0.778   0.482  11.458  1.2981 -0.9359 -0.6688
  803MPD2    H311833   0.656   0.271  11.435  0.7803  1.1006  0.0318
  803MPD2     N11834   0.585   0.218  11.869  0.9718 -0.2522  0.0235
  803MPD2    H511835   0.519   0.143  11.849  0.8528  0.5301 -2.4905
  803MPD2    N111836   0.825   0.604  11.702 -0.4956  0.0948  0.0691
  803MPD2    H711837   0.836   0.622  11.801 -1.2090  1.3133 -0.0717
  804MPD2     C11838   4.678   1.898  17.017  0.4901 -0.0873  0.0262
  804MPD2    C111839   4.692   1.857  17.145 -0.5284  0.2839  0.2116
  804MPD2    C211840   0.026   1.945  17.231 -0.6140 -0.0160  0.2086
  804MPD2    C311841   0.061   2.070  17.195  0.3641  0.1518  0.1870
  804MPD2    C411842   0.022   2.120  17.075  0.1033 -0.9651  0.0776
  804MPD2    C511843   4.693   2.030  16.984  0.3063  0.1080  0.5354
  804MPD2     H11844   0.034   1.909  17.333  0.0519  0.5926  0.3725
  804MPD2    H111845   0.046   2.219  17.038 -2.2829 -0.0473  1.0179
  804MPD2    H211846   4.635   1.829  16.945 -0.4130  1.0093 -0.4795
  804MPD2    H311847   4.671   2.058  16.882 -0.4714  1.0942  0.9695
  804MPD2     N11848   0.147   2.141  17.283  0.1930  0.1103  0.2991
  804MPD2    H511849   0.179   2.087  17.363  0.3778 -0.0230  0.1369
  804MPD2    N111850   4.670   1.721  17.182 -0.4085  0.1566  0.0945
  804MPD2    H711851   4.686   1.710  17.281 -0.6254 -1.9576 -0.1081
  805MPD2     C11852   3.930   0.129  15.453  0.8207  0.0328  0.3133
  805MPD2    C111853   4.003   0.173  15.346 -0.0804  0.4272 -0.3753
  805MPD2    C211854   4.141   0.176  15.363 -0.7785  0.1119 -0.5968
  805MPD2    C311855   4.203   0.135  15.479  0.4974  0.4940  0.2123
  805MPD2    C411856   4.128   0.103  15.590 -0.5662  0.7134  0.1457
  805MPD2    C511857   3.991   0.101  15.580  0.2375  0.3948 -0.2262
  805MPD2     H11858   4.202   0.199  15.277  1.2730 -0.2332  0.7762
  805MPD2    H111859   4.172   0.065  15.682 -2.3059 -1.7999 -0.0512
  805MPD2    H211860   3.822   0.122  15.450  0.8560 -0.8010  1.1176
  805MPD2    H311861   3.931   0.062  15.661  1.0018 -1.5628 -0.5936
  805MPD2     N11862   4.344   0.130  15.482  0.3286  0.3546  0.3469
  805MPD2    H511863   4.400   0.165  15.404 -0.9437  0.1781 -0.6512
  805MPD2    N111864   3.952   0.201  15.222 -0.0379 -0.2178  0.1877
  805MPD2    H711865   4.027   0.199  15.153 -0.2043  0.6969 -0.0291
  806MPD2     C11866   4.184   0.170   1.439 -0.2042  0.1347  0.4087
  806MPD2    C111867   4.285   0.121   1.358  0.1567 -0.5134  0.6199
  806MPD2    C211868   4.290   0.159   1.227 -0.2768  0.1935 -0.3245
  806MPD2    C311869   4.193   0.243   1.171 -1.0562  0.3385 -0.0565
  806MPD2    C411870   4.080   0.265   1.249  0.0689  0.0613 -0.0595
  806MPD2    C511871   4.082   0.245   1.387  0.3696  0.9751 -1.0078
  806MPD2     H11872   4.378   0.131   1.169 -1.4044 -1.7867 -1.0826
  806MPD2    H111873   3.996   0.314   1.201  0.8884  1.2089 -0.3381
  806MPD2    H211874   4.193   0.130   1.540 -1.0427  1.8116  1.1489
  806MPD2    H311875   3.999   0.272   1.452 -0.4494 -1.1755 -1.1665
  806MPD2     N11876   4.202   0.306   1.042  0.4008 -0.4651  0.0645
  806MPD2    H511877   4.134   0.379   1.024 -0.3663 -1.0853  0.4619
  806MPD2    N111878   4.388   0.043   1.418  0.4283 -0.7381 -0.0214
  806MPD2    H711879   4.386   0.035   1.519  2.5021  0.6649  0.1316
  807MPD2     C11880   4.709   4.091   1.868 -0.0243  0.5833 -0.2514
  807MPD2    C111881   4.613   4.186   1.849 -0.3114 -0.1768  0.7923
  807MPD2    C211882   4.483   4.168   1.903 -0.1070  0.3101 -0.0066
  807MPD2    C311883   4.464   4.056   1.974 -0.3653  0.1568  0.3652
  807MPD2    C411884   4.558   3.957   1.988 -0.6064 -0.3688  0.0792
  807MPD2    C511885   4.680   3.972   1.926 -0.4384 -0.5798  0.2612
  807MPD2     H11886   4.398   4.234   1.888  1.4088  1.9908 -1.0885
  807MPD2    H111887   4.532   3.872   2.050  0.1080  1.1930  2.5534
  807MPD2    H211888   0.089   4.101   1.832  0.5151  0.9333  1.3770
  807MPD2    H311889   0.030   3.892   1.935  0.3588  0.0602 -0.5289
  807MPD2     N11890   4.341   4.019   2.032  0.1191  0.2013 -0.4214
  807MPD2    H511891   4.336   3.928   2.076  1.8850 -0.0230 -0.6860
  807MPD2    N111892   4.650   4.297   1.758  0.0893  0.3730  0.3463
  807MPD2    H711893   0.021   4.313   1.722 -0.4951 -0.1818 -1.4281
  808MPD2     C11894   0.271   0.918   8.829 -0.3200 -0.0509  0.5199
  808MPD2    C111895   0.290   0.950   8.963  0.1388  0.1307 -0.3813
  808MPD2    C211896   0.372   1.056   8.992 -0.2476 -0.6993 -0.0771
  808MPD2    C311897   0.448   1.130   8.899  0.1681 -0.0350 -0.7167
  808MPD2    C411898   0.428   1.095   8.769  0.3691  0.0623 -0.2876
  808MPD2    C511899   0.350   0.991   8.733 -0.1189  0.2669  0.0865
  808MPD2     H11900   0.392   1.073   9.097 -0.8876 -0.0255 -0.0668
  808MPD2    H111901   0.483   1.147   8.691 -1.7352  2.1077 -0.4020
  808MPD2    H211902   0.209   0.840   8.787 -1.9216  0.8353  1.2245
  808MPD2    H311903   0.343   0.955   8.631 -0.0867  1.9405 -0.5134
  808MPD2     N11904   0.531   1.244   8.927 -0.2581  0.4223 -0.1451
  808MPD2    H511905   0.582   1.284   8.850 -0.7190  1.7469  0.2319
  808MPD2    N111906   0.237   0.878   9.077  0.3758  0.7106  0.1317
  808MPD2    H711907   0.283   0.901   9.165 -0.1772  1.7334  0.1501
  809MPD2     C11908   1.035   1.552   8.381  0.6125  0.3055 -0.4472
  809MPD2    C111909   1.100   1.476   8.477  1.2959 -0.2731 -0.3820
  809MPD2    C211910   1.042   1.474   8.603 -0.4302  0.2373  0.1091
  809MPD2    C311911   0.924   1.546   8.630  0.2120 -0.2521  0.1170
  809MPD2    C411912   0.859   1.599   8.523 -0.4794  0.2266 -0.5736
  809MPD2    C511913   0.910   1.606   8.403  0.2906 -0.0802  0.0496
  809MPD2     H11914   1.079   1.408   8.681  0.2900 -0.2299 -0.6272
  809MPD2    H111915   0.770   1.658   8.543 -1.5304 -1.6254  0.1999
  809MPD2    H211916   1.083   1.555   8.284  1.9077  0.6930  0.2117
  809MPD2    H311917   0.868   1.665   8.323 -1.4840 -1.4633 -0.0385
  809MPD2     N11918   0.859   1.547   8.754 -0.0812 -0.6107  0.0811
  809MPD2    H511919   0.760   1.565   8.753 -0.0179 -0.4754 -2.7877
  809MPD2    N111920   1.210   1.398   8.454 -0.2492  0.3764  0.0710
  809MPD2    H711921   1.230   1.325   8.522 -0.9089 -1.0663 -1.2810
  810MPD2     C11922   0.457   0.340   9.461 -0.6330  0.3027  0.2786
  810MPD2    C111923   0.444   0.290   9.587 -0.2408 -0.1120 -0.0834
  810MPD2    C211924   0.551   0.284   9.674 -0.4787 -0.2316 -0.2063
  810MPD2    C311925   0.671   0.345   9.644  0.5578 -0.1150  0.5488
  810MPD2    C411926   0.686   0.394   9.516  0.3977 -0.3317  0.1073
  810MPD2    C511927   0.580   0.381   9.425  0.0616 -0.4883  0.4139
  810MPD2     H11928   0.547   0.237   9.772  0.7258 -0.1459 -0.1155
  810MPD2    H111929   0.776   0.448   9.490  0.8328 -1.6705 -1.1592
  810MPD2    H211930   0.377   0.342   9.388 -0.4669 -2.2986  0.0422
  810MPD2    H311931   0.588   0.416   9.322  0.3279 -1.0116  0.2570
  810MPD2     N11932   0.771   0.369   9.734  0.6474 -0.2895 -0.1049
  810MPD2    H511933   0.851   0.424   9.703  1.6002  0.1356  3.0615
  810MPD2    N111934   0.311   0.253   9.618 -0.2179  0.6973 -0.2763
  810MPD2    H711935   0.243   0.259   9.543 -1.0664  1.9614  0.5998
  811MPD2     C11936   4.240   0.213   9.409  0.4656 -0.1514 -0.3702
  811MPD2    C111937   4.328   0.282   9.486  0.0595  0.2774 -0.4703
  811MPD2    C211938   4.307   0.423   9.488  0.2099  0.4324  0.3253
  811MPD2    C311939   4.213   0.494   9.416 -0.8252 -0.2412  0.3975
  811MPD2    C411940   4.125   0.414   9.342  0.7788 -0.3681 -0.0629
  811MPD2    C511941   4.139   0.274   9.339 -0.6780  0.2925  0.0801
  811MPD2     H11942   4.370   0.487   9.549  0.1786  0.1382  0.6661
  811MPD2    H111943   4.051   0.457   9.276  1.7165  2.0354  0.4622
  811MPD2    H211944   4.249   0.105   9.412 -1.0612 -0.2813 -0.6643
  811MPD2    H311945   4.066   0.221   9.278 -0.7753 -0.4584  0.8462
  811MPD2     N11946   4.216   0.636   9.408  0.7199  0.1418 -0.1755
  811MPD2    H511947   4.259   0.684   9.486 -1.1583 -0.3737  1.1922
  811MPD2    N111948   4.427   0.216   9.560  0.0083  0.1407 -0.3664
  811MPD2    H711949   4.443   0.116   9.553  0.4371  0.0591  1.5578
  812MPD2     C11950   3.490   0.265  12.021 -0.5199 -0.1538  0.3786
  812MPD2    C111951   3.389   0.304  12.103  0.8414  0.0544 -0.5488
  812MPD2    C211952   3.345   0.222  12.206 -0.0128 -0.1275 -0.1456
  812MPD2    C311953   3.391   0.094  12.224  0.3903 -0.0168 -0.4380
  812MPD2    C411954   3.495   0.053  12.142  0.2296  0.7882  0.0122
  812MPD2    C511955   3.539   0.141  12.042 -0.5065  0.6217  0.6228
  812MPD2     H11956   3.275   0.263  12.277  1.9069  1.5547  0.8009
  812MPD2    H111957   3.535   4.678  12.168  0.1383  0.3597 -1.4797
  812MPD2    H211958   3.538   0.315  11.938 -0.8463 -1.3688 -0.5516
  812MPD2    H311959   3.624   0.117  11.979 -1.0649 -0.2411  0.1986
  812MPD2     N11960   3.336   0.012  12.322 -0.1580  0.0814 -0.2445
  812MPD2    H511961   3.256   0.046  12.376  1.0234  1.1230  0.8779
  812MPD2    N111962   3.354   0.440  12.087 -0.5191  0.0641 -0.0401
  812MPD2    H711963   3.387   0.498  12.011  3.2304 -1.1102  0.6837
  813MPD2     C11964   2.077   2.731  12.610  0.3000 -0.0043 -1.2876
  813MPD2    C111965   2.125   2.630  12.686  0.8957  1.0566 -0.3400
  813MPD2    C211966   2.066   2.606  12.810 -0.5796  0.3010  1.0484
  813MPD2    C311967   1.962   2.678  12.863  0.8248 -0.1281 -0.2093
  813MPD2    C411968   1.912   2.787  12.794 -0.5649 -0.5521 -0.7211
  813MPD2    C511969   1.976   2.808  12.672 -0.7924  0.1420 -0.0715
  813MPD2     H11970   2.089   2.521  12.872 -3.3723 -0.8978  0.4611
  813MPD2    H111971   1.831   2.852  12.823  0.8239  2.3206 -3.2951
  813MPD2    H211972   2.114   2.744  12.509 -2.0934  0.3164 -2.1243
  813MPD2    H311973   1.945   2.891  12.610  2.1323 -0.0549 -1.8120
  813MPD2     N11974   1.906   2.627  12.981 -0.0427  0.1920  0.0817
  813MPD2    H511975   1.963   2.557  13.026 -0.8595 -0.5818 -0.0859
  813MPD2    N111976   2.236   2.562  12.646 -0.2672 -0.2798  0.1177
  813MPD2    H711977   2.288   2.590  12.564 -1.6140 -0.3808 -0.7800
  814MPD2     C11978   3.480   3.458  11.783 -0.7087  0.0114 -0.2100
  814MPD2    C111979   3.449   3.545  11.679 -0.2995  0.1330 -0.0169
  814MPD2    C211980   3.495   3.672  11.683 -0.0083 -0.0820  0.0683
  814MPD2    C311981   3.569   3.722  11.792  0.3957 -0.0534 -0.3818
  814MPD2    C411982   3.606   3.639  11.897 -0.6622  0.2048 -0.7044
  814MPD2    C511983   3.556   3.509  11.887  0.5692 -0.0541 -0.1269
  814MPD2     H11984   3.457   3.739  11.607  0.3008  0.0927  0.0640
  814MPD2    H111985   3.669   3.659  11.983 -0.3880  1.1135 -1.1207
  814MPD2    H211986   3.437   3.361  11.806  1.0085 -0.3240  1.5398
  814MPD2    H311987   3.581   3.449  11.974 -0.8212 -0.4683 -0.0064
  814MPD2     N11988   3.604   3.858  11.811  0.0815  0.1231 -0.0813
  814MPD2    H511989   3.659   3.875  11.895 -0.4851  1.7248 -0.0263
  814MPD2    N111990   3.369   3.510  11.559  0.4688 -0.1008 -0.0395
  814MPD2    H711991   3.369   3.576  11.482  0.6003 -2.2459 -1.8873
  815MPD2     C11992   3.447   1.212  11.810 -0.4846  0.6110 -0.0082
  815MPD2    C111993   3.358   1.194  11.704 -0.9314  0.3074  0.7199
  815MPD2    C211994   3.227   1.181  11.736  0.4345  0.4124 -0.0096
  815MPD2    C311995   3.180   1.201  11.861 -0.7721  0.5712  0.0901
  815MPD2    C411996   3.269   1.208  11.966  0.0729 -0.3012  0.7315
  815MPD2    C511997   3.402   1.220  11.938 -0.4649  0.5002  0.4509
  815MPD2     H11998   3.154   1.192  11.656 -1.1079 -0.0513  1.3411
  815MPD2    H111999   3.243   1.220  12.071  0.5735  1.1928  0.6845
  815MPD2    H212000   3.552   1.234  11.797 -0.3307  0.3837  0.8708
  815MPD2    H312001   3.471   1.242  12.018  0.6361 -2.2584  0.2533
  815MPD2     N12002   3.044   1.235  11.873  0.3632  0.5810  0.8793
  815MPD2    H512003   2.987   1.244  11.789 -0.5052 -0.4587  1.3449
  815MPD2    N112004   3.404   1.204  11.571 -0.4518 -0.2728 -0.6686
  815MPD2    H712005   3.506   1.203  11.566 -0.3548  0.5786  1.1635
  816MPD2     C12006   3.340   1.794  17.063  0.5122  0.0077  0.0559
  816MPD2    C112007   3.278   1.739  16.954  0.2847 -0.4249  0.2576
  816MPD2    C212008   3.346   1.655  16.868 -0.7081 -0.2913 -0.1112
  816MPD2    C312009   3.479   1.631  16.889  0.2896  0.5541  0.1071
  816MPD2    C412010   3.544   1.693  16.993  1.2979 -0.5979 -0.0293
  816MPD2    C512011   3.472   1.774  17.082  0.1501  0.1554  0.4602
  816MPD2     H12012   3.294   1.612  16.783  2.7073 -1.4544 -1.6150
  816MPD2    H112013   3.650   1.679  17.012  1.2270 -1.7241 -0.4044
  816MPD2    H212014   3.296   1.865  17.132 -0.3419  0.1247 -0.6143
  816MPD2    H312015   3.534   1.826  17.153  0.4130 -0.4165  0.6547
  816MPD2     N12016   3.544   1.534  16.805  0.0959 -0.0551  0.1471
  816MPD2    H512017   3.492   1.505  16.723  0.3261 -0.0719  0.0078
  816MPD2    N112018   3.154   1.788  16.927 -0.6293 -0.1882 -0.5703
  816MPD2    H712019   3.119   1.864  16.983 -1.9156 -0.9532 -0.3409
  817MPD2     C12020   2.810   2.313   9.719  0.2573 -0.5559  0.1196
  817MPD2    C112021   2.834   2.290   9.586  0.4913 -0.2742 -0.5186
  817MPD2    C212022   2.763   2.367   9.495  0.3413 -0.0758 -0.3389
  817MPD2    C312023   2.674   2.465   9.534  0.3359 -0.7568  0.1343
  817MPD2    C412024   2.657   2.493   9.671  0.1932  0.1190  0.5280
  817MPD2    C512025   2.727   2.417   9.763  0.7556 -0.5396  0.0270
  817MPD2     H12026   2.780   2.360   9.388 -0.8943 -2.3162 -0.3925
  817MPD2    H112027   2.590   2.572   9.704 -1.3608 -0.4584 -1.2228
  817MPD2    H212028   2.858   2.259   9.799 -1.0382  1.2611  2.1438
  817MPD2    H312029   2.715   2.421   9.871 -2.6474  0.1351 -0.3809
  817MPD2     N12030   2.604   2.521   9.430 -0.1780 -0.6777 -0.1271
  817MPD2    H512031   2.633   2.496   9.336  2.4362  1.6730  0.0556
  817MPD2    N112032   2.930   2.202   9.533  0.7297 -0.6118  0.6062
  817MPD2    H712033   2.950   2.205   9.434  3.7362  0.9435  1.2713
  818MPD2     C12034   2.247   2.656   9.946  0.0898  0.0576 -0.2693
  818MPD2    C112035   2.276   2.585  10.060 -0.5637  0.4086 -0.6781
  818MPD2    C212036   2.345   2.464  10.047 -0.5971  0.1908 -0.0677
  818MPD2    C312037   2.385   2.418   9.922 -0.8756 -0.1179  0.3633
  818MPD2    C412038   2.355   2.489   9.810 -0.5011 -0.0837  0.0187
  818MPD2    C512039   2.288   2.608   9.823  0.0911  0.0617  0.1340
  818MPD2     H12040   2.365   2.394  10.127  0.7873  3.9355  2.8453
  818MPD2    H112041   2.380   2.465   9.708 -0.4886 -0.3940  0.0954
  818MPD2    H212042   2.199   2.752   9.936  0.1149  0.2053  1.1066
  818MPD2    H312043   2.267   2.665   9.733  1.3032  0.1869 -0.0695
  818MPD2     N12044   2.450   2.295   9.900  0.7799  0.0188  0.3343
  818MPD2    H512045   2.455   2.263   9.804  0.1622  1.7063 -0.2536
  818MPD2    N112046   2.217   2.616  10.186 -1.2575  0.1300 -0.3243
  818MPD2    H712047   2.238   2.558  10.266  0.4393  0.1871 -0.7208
  819MPD2     C12048   4.617   4.560  15.373  0.2215 -0.3860  0.0632
  819MPD2    C112049   4.628   4.432  15.413 -0.2743  0.3688 -0.2307
  819MPD2    C212050   0.014   4.402  15.497 -0.6605 -0.4159  0.5805
  819MPD2    C312051   0.117   4.494  15.521 -0.0504  0.3738 -0.2109
  819MPD2    C412052   0.109   4.617  15.467 -0.5434 -0.1661 -0.2879
  819MPD2    C512053   4.721   4.654  15.394  0.4490 -0.1929 -0.0285
  819MPD2     H12054   0.023   4.307  15.549  1.9611 -0.9832 -0.8943
  819MPD2    H112055   0.193   4.686  15.472 -0.8663  0.2269 -0.3019
  819MPD2    H212056   4.527   4.581  15.316  1.2944  3.6600 -0.1208
  819MPD2    H312057   0.003   0.024  15.339  2.6545  0.2199  0.8363
  819MPD2     N12058   0.228   4.447  15.599 -0.1599 -0.0143  0.2328
  819MPD2    H512059   0.237   4.350  15.629  1.3663 -0.0568 -0.3727
  819MPD2    N112060   4.533   4.334  15.374 -0.2529 -0.1664 -0.2178
  819MPD2    H712061   4.458   4.373  15.317  0.1821 -1.4561 -1.6612
  820MPD2     C12062   3.722   4.309  14.861  0.4434 -1.0407  0.0037
  820MPD2    C112063   3.821   4.389  14.901  0.0180  0.2123 -0.5939
  820MPD2    C212064   3.921   4.325  14.976  0.5058 -0.4239  0.2488
  820MPD2    C312065   3.918   4.188  15.015  0.9697  0.1094 -0.9170
  820MPD2    C412066   3.810   4.117  14.977  0.6027  0.5680 -0.1269
  820MPD2    C512067   3.715   4.176  14.899  0.2040 -0.1484 -0.1145
  820MPD2     H12068   4.007   4.381  15.012 -0.5377 -1.1467  3.9475
  820MPD2    H112069   3.797   4.011  14.998 -0.8237  1.1982  2.1985
  820MPD2    H212070   3.651   4.348  14.789 -1.0708 -0.9578  1.5483
  820MPD2    H312071   3.636   4.114  14.858 -0.2463 -1.4665  2.6982
  820MPD2     N12072   4.026   4.118  15.083 -0.2374  0.4445  0.0314
  820MPD2    H512073   4.003   4.026  15.117  1.4296  0.4276  1.0536
  820MPD2    N112074   3.825   4.524  14.861 -0.7147  0.4539  0.7465
  820MPD2    H712075   3.759   4.548  14.788 -0.4862 -2.9783 -0.5770
  821MPD2     C12076   4.136   1.204  12.993 -0.0788 -0.2462  0.3943
  821MPD2    C112077   4.263   1.174  13.016  0.0230 -0.1866  0.0529
  821MPD2    C212078   4.364   1.208  12.926  0.5332 -0.3547 -0.4121
  821MPD2    C312079   4.339   1.268  12.808  1.0359  0.3798 -0.8066
  821MPD2    C412080   4.203   1.317  12.794 -0.1916 -0.0639 -0.1927
  821MPD2    C512081   4.109   1.286  12.888  0.0243 -0.1689  0.0661
  821MPD2     H12082   4.464   1.175  12.950  0.8008  1.0083  0.4094
  821MPD2    H112083   4.184   1.385  12.711 -1.6764 -1.3275 -0.8932
  821MPD2    H212084   4.051   1.163  13.045  0.3936  0.6123  1.8424
  821MPD2    H312085   4.009   1.323  12.870  1.3850  2.8113 -1.4956
  821MPD2     N12086   4.444   1.293  12.713  0.0268  0.2964  0.2181
  821MPD2    H512087   4.418   1.326  12.621  0.9857  0.4878  0.0168
  821MPD2    N112088   4.300   1.104  13.134  0.6879  0.4103  0.1273
  821MPD2    H712089   4.399   1.083  13.145  0.4544 -0.7574 -0.0006
  822MPD2     C12090   0.537   0.902  15.720 -0.0933  0.2171 -0.3992
  822MPD2    C112091   0.603   0.975  15.813 -0.4999 -0.3156 -0.2217
  822MPD2    C212092   0.552   1.080  15.874 -0.6607  0.6341 -0.1613
  822MPD2    C312093   0.417   1.123  15.856  0.4791 -0.4077  0.3847
  822MPD2    C412094   0.345   1.049  15.761  0.2333 -0.2308  0.3755
  822MPD2    C512095   0.409   0.943  15.707  0.2788 -0.1927 -0.5506
  822MPD2     H12096   0.603   1.140  15.949 -3.0170  2.2188  0.1602
  822MPD2    H112097   0.240   1.068  15.740  0.5519  1.6920  0.5261
  822MPD2    H212098   0.565   0.813  15.666  1.4199  0.5914 -0.2417
  822MPD2    H312099   0.352   0.889  15.632 -0.0788  0.3639 -0.6762
  822MPD2     N12100   0.356   1.242  15.908 -0.1193  0.6734  0.7016
  822MPD2    H512101   0.255   1.256  15.899  0.2322  2.8304  0.1565
  822MPD2    N112102   0.724   0.923  15.876 -0.6478 -0.2712  0.2780
  822MPD2    H712103   0.756   0.968  15.961  0.7866  2.3751 -1.6500
  823MPD2     C12104   0.217   1.581  16.694  0.6675  0.5032 -0.0128
  823MPD2    C112105   0.252   1.489  16.598 -0.7972  0.3852 -0.1432
  823MPD2    C212106   0.282   1.365  16.641  0.0486 -0.0951  0.0308
  823MPD2    C312107   0.292   1.327  16.778 -0.2053  0.2605  0.0302
  823MPD2    C412108   0.248   1.426  16.870 -0.5203 -0.4122  0.6522
  823MPD2    C512109   0.203   1.546  16.825 -0.3957  0.3915 -0.2273
  823MPD2     H12110   0.325   1.297  16.569 -0.6156 -0.7293  0.2319
  823MPD2    H112111   0.250   1.411  16.977  1.4952 -1.4216  0.4723
  823MPD2    H212112   0.194   1.686  16.677 -3.3855 -0.1248  1.8172
  823MPD2    H312113   0.178   1.618  16.903 -2.0204 -2.6204  2.0323
  823MPD2     N12114   0.348   1.206  16.824 -0.1471  0.5767 -0.2943
  823MPD2    H512115   0.367   1.203  16.923 -0.6668 -0.4799 -0.2271
  823MPD2    N112116   0.233   1.528  16.462 -0.0452 -0.6004 -0.0693
  823MPD2    H712117   0.231   1.629  16.454  0.9131 -0.5039  0.9327
  824MPD2     C12118   1.337   0.282  16.103 -0.2408 -0.3965 -0.1731
  824MPD2    C112119   1.272   0.324  15.989  0.7557  0.1528 -0.3469
  824MPD2    C212120   1.289   0.268  15.867  0.4794 -0.1669  0.0289
  824MPD2    C312121   1.365   0.154  15.860 -0.0059  0.5428 -0.2339
  824MPD2    C412122   1.430   0.106  15.973  0.0882 -0.5237 -0.1688
  824MPD2    C512123   1.426   0.178  16.090 -0.3794  0.2817 -0.1086
  824MPD2     H12124   1.231   0.289  15.778  0.4123  0.5650  0.2427
  824MPD2    H112125   1.491   0.016  15.972  0.0243 -0.5730  0.0917
  824MPD2    H212126   1.314   0.325  16.199 -0.5280  1.9065 -1.2692
  824MPD2    H312127   1.480   0.139  16.175 -0.7696 -0.5229 -0.2285
  824MPD2     N12128   1.369   0.076  15.742 -1.0571  0.1352  0.1155
  824MPD2    H512129   1.334   0.121  15.658  3.3632  1.8105 -0.8299
  824MPD2    N112130   1.190   0.433  16.008  0.1024  0.1093  0.6982
  824MPD2    H712131   1.203   0.487  16.093 -0.1577 -0.0415  0.8341
  825MPD2     C12132   1.790   4.712  15.008 -0.2171 -0.7279  0.3943
  825MPD2    C112133   1.706   0.064  15.085  0.1227  0.2046  0.7277
  825MPD2    C212134   1.678   0.195  15.047 -0.0253  0.8194 -0.0953
  825MPD2    C312135   1.753   0.252  14.947 -0.3544  0.0857 -0.2807
  825MPD2    C412136   1.842   0.182  14.884 -0.2662  0.7291  0.1678
  825MPD2    C512137   1.865   0.056  14.911  0.0008  0.8063 -0.0906
  825MPD2     H12138   1.602   0.259  15.090 -0.7983  1.0407 -1.8312
  825MPD2    H112139   1.882   0.219  14.790 -1.6400  0.4439 -0.5352
  825MPD2    H212140   1.804   4.606  15.025 -1.7579 -1.1400 -0.9235
  825MPD2    H312141   1.924   0.005  14.837 -1.6701 -0.4995 -0.5161
  825MPD2     N12142   1.732   0.384  14.895  0.4324 -0.3714 -0.1064
  825MPD2    H512143   1.801   0.407  14.825 -0.5703 -3.1859 -2.0286
  825MPD2    N112144   1.637   0.002  15.193  1.4535  0.4121 -0.5480
  825MPD2    H712145   1.677   4.637  15.224  0.9384  0.0482 -0.9193
  826MPD2     C12146   2.024   0.307  13.370 -0.3458 -0.0820 -0.8145
  826MPD2    C112147   1.946   0.204  13.312  0.3435  0.1920 -0.6529
  826MPD2    C212148   1.814   0.226  13.283  0.1687  0.2843 -0.6492
  826MPD2    C312149   1.760   0.356  13.298  0.1576 -0.1622  0.0156
  826MPD2    C412150   1.837   0.460  13.343  0.6089 -0.3234  0.0851
  826MPD2    C512151   1.966   0.432  13.387  0.0057 -0.3081 -0.0205
  826MPD2     H12152   1.754   0.144  13.244 -2.3963  1.4181  0.9551
  826MPD2    H112153   1.804   0.563  13.356  2.3939  0.3228 -0.4500
  826MPD2    H212154   2.128   0.294  13.398 -0.8584 -1.6596  0.3835
  826MPD2    H312155   2.039   0.504  13.422  0.0551 -0.4617  0.1944
  826MPD2     N12156   1.625   0.386  13.266 -0.7478  0.3604 -0.1618
  826MPD2    H512157   1.588   0.474  13.300  1.1873  1.8045 -1.7750
  826MPD2    N112158   2.011   0.078  13.294 -1.0422  0.0420  0.5619
  826MPD2    H712159   2.111   0.080  13.307 -1.0974  1.8870  0.6635
  827MPD2     C12160   2.522   1.152   9.756 -0.5942  0.7536 -1.1465
  827MPD2    C112161   2.458   1.056   9.834 -0.0245  0.1810 -0.0952
  827MPD2    C212162   2.401   0.947   9.786 -0.2496  0.2095  0.7575
  827MPD2    C312163   2.383   0.927   9.644 -0.1732 -0.9116  0.5916
  827MPD2    C412164   2.431   1.029   9.567 -0.8022  0.5266  0.0371
  827MPD2    C512165   2.510   1.133   9.620 -0.2724 -0.5656  0.8143
  827MPD2     H12166   2.365   0.869   9.850 -0.9312 -0.2541 -0.1946
  827MPD2    H112167   2.427   1.023   9.459  0.2898  2.3973 -0.1048
  827MPD2    H212168   2.569   1.242   9.794  2.7370 -1.0486 -1.0630
  827MPD2    H312169   2.543   1.212   9.553 -3.5112 -0.2117 -0.3723
  827MPD2     N12170   2.315   0.810   9.607  0.1057  0.2969 -0.3006
  827MPD2    H512171   2.263   0.758   9.678 -2.7210  0.2274 -2.4191
  827MPD2    N112172   2.474   1.066   9.975  0.5158  0.1978  0.2521
  827MPD2    H712173   2.517   1.151  10.010 -0.4293  1.0620 -0.7395
  828MPD2     C12174   0.471   1.558  12.164  0.2012 -0.0699 -0.6537
  828MPD2    C112175   0.466   1.476  12.055  0.2400 -1.1577  0.2993
  828MPD2    C212176   0.586   1.434  11.993 -1.3087 -0.5328  0.2265
  828MPD2    C312177   0.706   1.489  12.035  0.8880 -0.0462 -0.1676
  828MPD2    C412178   0.714   1.573  12.152 -0.0762  0.1975 -0.6503
  828MPD2    C512179   0.595   1.600  12.216  0.1010  0.0720  0.2226
  828MPD2     H12180   0.576   1.370  11.906  1.4536  1.4112 -1.5002
  828MPD2    H112181   0.807   1.621  12.182 -0.6875  3.2119 -3.6615
  828MPD2    H212182   0.385   1.597  12.218  0.3018 -1.5596  0.5684
  828MPD2    H312183   0.604   1.650  12.312  2.0406  0.2496 -0.0656
  828MPD2     N12184   0.826   1.470  11.963  0.2029  0.2937  0.7873
  828MPD2    H512185   0.913   1.513  11.993 -1.0038  4.5812 -1.7275
  828MPD2    N112186   0.350   1.429  11.986 -0.3552 -0.2513 -0.0608
  828MPD2    H712187   0.357   1.365  11.907 -1.2309  1.2552 -1.3596
  829MPD2     C12188   0.321   1.103  11.205  0.2433 -0.4529 -0.0176
  829MPD2    C112189   0.186   1.119  11.221  0.0873  0.4096 -0.1042
  829MPD2    C212190   0.124   1.168  11.332  0.0231  0.0452 -0.3041
  829MPD2    C312191   0.211   1.212  11.434  0.3315  0.0321  0.3564
  829MPD2    C412192   0.352   1.206  11.419 -0.1872  0.7045 -0.0541
  829MPD2    C512193   0.410   1.151  11.299  0.0841 -0.2565 -0.3497
  829MPD2     H12194   0.019   1.194  11.334 -0.6613 -2.8220  1.9850
  829MPD2    H112195   0.417   1.233  11.502  0.7270 -2.9554  0.4357
  829MPD2    H212196   0.361   1.058  11.115  0.7775 -1.2511  0.6261
  829MPD2    H312197   0.514   1.140  11.275  0.2125 -0.1075  0.1294
  829MPD2     N12198   0.168   1.270  11.559  0.1668 -0.0296 -1.1784
  829MPD2    H512199   0.233   1.259  11.635  0.4697  0.6194 -1.3454
  829MPD2    N112200   0.113   1.088  11.106  1.0664 -0.3496 -0.5738
  829MPD2    H712201   0.167   1.067  11.023  1.5906 -0.2768 -0.2549
  830MPD2     C12202   0.967   4.043  15.669 -0.0643 -0.0814 -0.3340
  830MPD2    C112203   0.890   4.144  15.622  0.0192 -0.2603  0.1036
  830MPD2    C212204   0.921   4.197  15.499  0.1134 -0.4469 -0.2697
  830MPD2    C312205   1.031   4.160  15.427  1.0216  0.2155 -0.9724
  830MPD2    C412206   1.096   4.049  15.476 -0.1351 -0.8608 -0.4018
  830MPD2    C512207   1.063   3.996  15.593 -0.7617 -0.9119  0.3875
  830MPD2     H12208   0.868   4.283  15.458  0.9755  0.5757  0.7500
  830MPD2    H112209   1.190   4.016  15.432  0.5009  1.4779 -0.8330
  830MPD2    H212210   0.941   3.989  15.760  1.7222 -0.1737  0.1183
  830MPD2    H312211   1.119   3.907  15.620  0.4872 -0.6264 -1.2071
  830MPD2     N12212   1.055   4.223  15.302 -0.1206 -0.0687 -0.2629
  830MPD2    H512213   1.148   4.203  15.266  0.3382 -0.0619  0.8863
  830MPD2    N112214   0.778   4.180  15.700  0.6373 -0.2117  0.4576
  830MPD2    H712215   0.767   4.134  15.789  3.8084 -1.0008  0.4411
  831MPD2     C12216   0.758   1.430  16.280 -0.4313  0.3227 -0.7500
  831MPD2    C112217   0.748   1.322  16.201  0.0415 -0.5473 -0.3088
  831MPD2    C212218   0.644   1.235  16.211  0.1208  0.0411  0.0894
  831MPD2    C312219   0.544   1.247  16.299 -0.1117  0.1442  1.2269
  831MPD2    C412220   0.543   1.362  16.374  1.0764 -0.3995  0.3385
  831MPD2    C512221   0.646   1.458  16.362  0.1770 -0.2539 -0.1417
  831MPD2     H12222   0.646   1.145  16.150 -0.7870  0.1405 -0.0986
  831MPD2    H112223   0.470   1.390  16.449  1.8445 -0.9068  1.2800
  831MPD2    H212224   0.834   1.507  16.276 -0.6331  0.7167  3.4957
  831MPD2    H312225   0.641   1.545  16.426 -0.1616  1.5841 -2.6918
  831MPD2     N12226   0.430   1.167  16.310 -0.0100  0.5618  0.1487
  831MPD2    H512227   0.353   1.207  16.363 -1.0943 -1.1661 -0.1236
  831MPD2    N112228   0.836   1.312  16.093 -0.4924 -0.3530  0.4246
  831MPD2    H712229   0.896   1.393  16.080 -2.5683  1.3808  1.5463
  832MPD2     C12230   3.445   2.904  17.227 -0.7450 -0.3610  0.7363
  832MPD2    C112231   3.421   3.006  17.146 -0.1199 -0.2695  0.6245
  832MPD2    C212232   3.377   2.987  17.016  0.1477  0.6054  0.0162
  832MPD2    C312233   3.339   2.863  16.971 -0.2428 -0.2855  0.1698
  832MPD2    C412234   3.370   2.755  17.051 -0.3805 -0.0986 -0.1894
  832MPD2    C512235   3.429   2.775  17.176  0.4845  0.6769  0.2324
  832MPD2     H12236   3.364   3.078  16.958  0.5920  0.9067  0.3917
  832MPD2    H112237   3.352   2.652  17.022  0.2620 -0.2522 -0.0515
  832MPD2    H212238   3.500   2.922  17.319 -0.3943  1.9043  0.0821
  832MPD2    H312239   3.445   2.693  17.245  2.2277  0.3961 -0.4913
  832MPD2     N12240   3.289   2.840  16.841 -0.8191 -0.1035 -0.5541
  832MPD2    H512241   3.280   2.743  16.815  0.8121  0.0187 -1.6018
  832MPD2    N112242   3.468   3.128  17.201  0.3249 -0.0825  0.3458
  832MPD2    H712243   3.500   3.127  17.298  0.4866  1.5390  0.3025
  833MPD2     C12244   1.594   3.962  12.596 -0.5436  0.5483 -0.3917
  833MPD2    C112245   1.573   4.066  12.511 -0.0266  0.1112  0.3246
  833MPD2    C212246   1.666   4.089  12.413 -0.0854 -0.1061  0.1114
  833MPD2    C312247   1.759   3.996  12.386 -0.2217  0.2154 -0.0347
  833MPD2    C412248   1.784   3.893  12.473  1.0027 -0.0303  0.3080
  833MPD2    C512249   1.700   3.881  12.580 -0.6350 -0.2120  0.1533
  833MPD2     H12250   1.655   4.172  12.344  1.3468  0.1148  0.1598
  833MPD2    H112251   1.855   3.812  12.465  1.6100  0.4590  0.7880
  833MPD2    H212252   1.525   3.947  12.678  1.0564 -0.1251  0.8222
  833MPD2    H312253   1.711   3.797  12.648  0.8598 -0.4129 -0.3629
  833MPD2     N12254   1.829   3.994  12.265  0.2545  0.4616  0.4619
  833MPD2    H512255   1.880   3.910  12.242  2.0685  1.5670  0.5070
  833MPD2    N112256   1.453   4.143  12.518 -0.2278 -0.1120  0.4683
  833MPD2    H712257   1.385   4.102  12.582 -0.5261  0.1961  0.3497
  834MPD2     C12258   1.576   3.176  11.840 -0.8184  0.3920 -0.1985
  834MPD2    C112259   1.537   3.262  11.742 -1.2736 -0.9680 -0.2806
  834MPD2    C212260   1.562   3.401  11.753 -0.0836  0.1824  0.1767
  834MPD2    C312261   1.633   3.451  11.859 -0.6196  0.0962  0.4426
  834MPD2    C412262   1.664   3.361  11.962  0.3026 -0.4388 -0.2414
  834MPD2    C512263   1.634   3.227  11.953 -0.4438  0.2315 -0.3814
  834MPD2     H12264   1.525   3.468  11.677 -0.4625 -1.6903 -1.3085
  834MPD2    H112265   1.706   3.397  12.055 -1.4387  1.6885 -0.2512
  834MPD2    H212266   1.533   3.076  11.837 -4.6075  2.0586 -1.4164
  834MPD2    H312267   1.665   3.161  12.034  1.8460  1.1620 -0.4801
  834MPD2     N12268   1.660   3.589  11.860  0.1271 -0.0430  0.5865
  834MPD2    H512269   1.662   3.650  11.779 -1.4370  0.9263  1.2688
  834MPD2    N112270   1.483   3.201  11.625  0.7019 -0.2510  0.4699
  834MPD2    H712271   1.480   3.100  11.639  1.1984 -0.4667 -1.0158
  835MPD2     C12272   1.298   1.196  10.506  0.0262  0.4327  0.9763
  835MPD2    C112273   1.166   1.213  10.523 -0.0178  0.3441 -0.2239
  835MPD2    C212274   1.109   1.213  10.649 -0.7673  0.3338  0.4655
  835MPD2    C312275   1.191   1.210  10.758 -0.0689 -0.1714 -0.0804
  835MPD2    C412276   1.323   1.194  10.741 -0.4009 -0.0381  0.3201
  835MPD2    C512277   1.376   1.187  10.617 -0.2862  0.0092  0.1833
  835MPD2     H12278   1.001   1.216  10.661 -0.6756  1.3394  1.1084
  835MPD2    H112279   1.382   1.169  10.829  0.0719 -1.6189 -0.4437
  835MPD2    H212280   1.346   1.194  10.409 -3.1507  1.0312 -0.6042
  835MPD2    H312281   1.477   1.153  10.597 -0.5081 -0.8141  0.4653
  835MPD2     N12282   1.141   1.227  10.891 -0.4290  0.1976 -0.0271
  835MPD2    H512283   1.211   1.234  10.965 -0.3630 -1.8601  0.1086
  835MPD2    N112284   1.067   1.198  10.414 -0.7232  0.7130  0.3739
  835MPD2    H712285   0.969   1.199  10.440 -0.6325 -3.7592  0.7981
  836MPD2     C12286   0.423   1.340  10.948  1.1200 -0.4493  0.4625
  836MPD2    C112287   0.472   1.389  11.069  0.5342 -0.4542 -0.6252
  836MPD2    C212288   0.379   1.449  11.143  0.1171  0.9648 -0.3859
  836MPD2    C312289   0.242   1.461  11.115  0.1169 -0.6575 -0.2850
  836MPD2    C412290   0.196   1.410  10.996  0.2067 -0.6331 -0.4384
  836MPD2    C512291   0.291   1.350  10.908 -0.0580 -0.0353  0.1799
  836MPD2     H12292   0.414   1.495  11.234 -1.5562 -1.8547  1.6597
  836MPD2    H112293   0.092   1.419  10.966 -0.0585  0.5620  0.8281
  836MPD2    H212294   0.497   1.299  10.879  0.5367 -2.3246  0.9628
  836MPD2    H312295   0.262   1.310  10.812 -0.4304  0.2430  0.1767
  836MPD2     N12296   0.155   1.536  11.196 -0.0048 -0.2950 -0.6664
  836MPD2    H512297   0.058   1.528  11.166  0.5726 -0.7357 -2.4071
  836MPD2    N112298   0.607   1.361  11.085  0.1186  0.3549  0.6734
  836MPD2    H712299   0.659   1.329  11.003  0.4177 -0.2828  1.1092
  837MPD2     C12300   4.020   1.238   9.841  0.0022  0.2840  0.1276
  837MPD2    C112301   4.040   1.288   9.718 -0.7538 -0.0931 -0.0913
  837MPD2    C212302   3.983   1.407   9.685 -0.4563 -0.8546 -0.1853
  837MPD2    C312303   3.906   1.476   9.774 -1.2261 -0.0233 -0.3306
  837MPD2    C412304   3.897   1.438   9.907  0.6663  1.1537 -0.0476
  837MPD2    C512305   3.957   1.319   9.934  0.3417  0.3701 -0.5923
  837MPD2     H12306   3.993   1.438   9.582  1.3528 -1.0803 -0.0732
  837MPD2    H112307   3.850   1.499   9.984 -0.9650 -1.4152  0.9713
  837MPD2    H212308   4.047   1.137   9.873 -0.7155 -0.0371 -0.2721
  837MPD2    H312309   3.946   1.287  10.037 -0.9606 -1.7691 -1.4099
  837MPD2     N12310   3.854   1.598   9.729  0.3959 -0.1386 -0.2177
  837MPD2    H512311   3.892   1.633   9.641 -1.4334 -2.1326 -1.8052
  837MPD2    N112312   4.115   1.227   9.611 -0.2585 -0.0602 -0.0039
  837MPD2    H712313   4.132   1.276   9.524  1.7412 -0.7996 -0.0338
  838MPD2     C12314   2.579   3.820  10.932 -0.1313 -0.1500  0.4194
  838MPD2    C112315   2.631   3.896  11.028  0.7225  0.0264 -0.5066
  838MPD2    C212316   2.558   3.946  11.133  0.3036  0.3489  0.4182
  838MPD2    C312317   2.430   3.903  11.152  0.4952 -0.2188  0.0846
  838MPD2    C412318   2.377   3.838  11.040 -0.1335 -0.9946  0.2320
  838MPD2    C512319   2.449   3.797  10.935 -0.0667 -0.2083  0.0842
  838MPD2     H12320   2.604   4.007  11.209  1.8715 -0.8002  0.3867
  838MPD2    H112321   2.271   3.812  11.043  0.1512 -2.2130 -0.1215
  838MPD2    H212322   2.634   3.779  10.847  1.3609  0.6073  1.0201
  838MPD2    H312323   2.398   3.738  10.860  1.1840 -0.0266 -0.9220
  838MPD2     N12324   2.357   3.931  11.268 -0.5524  0.4071 -0.0791
  838MPD2    H512325   2.401   3.994  11.335  0.1144  0.1500 -0.2678
  838MPD2    N112326   2.774   3.934  11.024 -0.0608  0.3201 -0.7958
  838MPD2    H712327   2.809   3.963  11.115 -0.0491 -0.1042 -0.6664
  839MPD2     C12328   2.637   3.889  11.658 -0.0637  0.2571  0.2218
  839MPD2    C112329   2.621   3.814  11.543 -0.9668  0.8390  0.1261
  839MPD2    C212330   2.712   3.830  11.435 -0.3381  0.4788  0.0621
  839MPD2    C312331   2.823   3.908  11.447 -0.3578 -0.8957  0.1021
  839MPD2    C412332   2.829   3.990  11.553 -0.2309  0.3264 -0.7333
  839MPD2    C512333   2.741   3.979  11.653  0.7471  0.3930  0.5283
  839MPD2     H12334   2.713   3.765  11.348 -0.0033  0.4096  0.1164
  839MPD2    H112335   2.913   4.053  11.579 -0.6795  0.6398 -0.0373
  839MPD2    H212336   2.571   3.888  11.743 -0.8337  4.2514 -0.3589
  839MPD2    H312337   2.755   4.022  11.751  1.4752 -0.3404  0.7455
  839MPD2     N12338   2.923   3.893  11.350  0.5464 -0.4323  0.2535
  839MPD2    H512339   2.896   3.839  11.268 -1.2179 -1.9903  1.8637
  839MPD2    N112340   2.523   3.712  11.528  0.3494 -0.2391 -0.3263
  839MPD2    H712341   2.516   3.668  11.437  1.8816 -1.8529  0.3447
  840MPD2     C12342   2.882   1.478  10.154 -0.3061 -0.2313 -0.3139
  840MPD2    C112343   2.851   1.422  10.276  0.0089 -0.1455 -0.3837
  840MPD2    C212344   2.913   1.472  10.393 -0.6563 -0.3447 -0.2948
  840MPD2    C312345   3.004   1.572  10.386 -0.2481 -0.0842  0.1222
  840MPD2    C412346   3.040   1.628  10.260 -0.2747  0.7759  0.3732
  840MPD2    C512347   2.978   1.579  10.141 -0.0245  0.4342  0.0753
  840MPD2     H12348   2.873   1.432  10.485 -2.0374  0.0347 -0.7220
  840MPD2    H112349   3.117   1.703  10.246  0.3277 -0.1082 -1.0307
  840MPD2    H212350   2.838   1.438  10.064 -0.9469  0.7238 -0.4260
  840MPD2    H312351   3.003   1.610  10.041  0.8247 -2.9241 -0.7578
  840MPD2     N12352   3.067   1.637  10.494  0.2131  0.1981  0.2712
  840MPD2    H512353   3.130   1.710  10.463 -1.1482  1.1021 -0.3528
  840MPD2    N112354   2.740   1.331  10.272 -0.3225  0.6130 -0.0587
  840MPD2    H712355   2.702   1.319  10.178 -2.0491  4.6123  0.1039
  841MPD2     C12356   2.337   1.636  14.355  0.5248  0.0262  0.4915
  841MPD2    C112357   2.362   1.512  14.412  0.4889  0.3612  0.2120
  841MPD2    C212358   2.493   1.483  14.449 -0.5671 -1.1184  0.2124
  841MPD2    C312359   2.588   1.579  14.438  0.1762 -0.6614  0.0871
  841MPD2    C412360   2.553   1.701  14.388  0.4250 -0.2381 -0.4567
  841MPD2    C512361   2.428   1.732  14.346 -0.3264 -0.3560  0.0078
  841MPD2     H12362   2.517   1.387  14.492 -0.9232 -0.4357  1.9102
  841MPD2    H112363   2.625   1.780  14.370  2.3184 -2.3224 -2.0621
  841MPD2    H212364   2.241   1.669  14.317  0.7853 -0.5423 -0.6732
  841MPD2    H312365   2.402   1.831  14.312  0.5805 -0.7523 -1.8957
  841MPD2     N12366   2.714   1.550  14.480 -0.2770 -0.0248  0.2535
  841MPD2    H512367   2.724   1.460  14.526 -1.0241 -0.6238 -0.7537
  841MPD2    N112368   2.268   1.411  14.423  0.2899  0.2340  0.1363
  841MPD2    H712369   2.300   1.322  14.458  1.1390 -0.3627 -2.1418
  842MPD2     C12370   2.652   2.601  16.446 -0.0069  0.0913 -0.6208
  842MPD2    C112371   2.629   2.505  16.536 -0.8949  1.2426 -0.0870
  842MPD2    C212372   2.636   2.540  16.670  0.1843  0.1946 -0.4121
  842MPD2    C312373   2.662   2.669  16.705  0.0806  0.9088  0.8896
  842MPD2    C412374   2.707   2.761  16.612 -0.1204 -0.0474 -0.4988
  842MPD2    C512375   2.711   2.719  16.478 -0.9169 -0.1831 -0.5823
  842MPD2     H12376   2.605   2.469  16.746 -2.1286  0.4890 -1.0847
  842MPD2    H112377   2.740   2.862  16.637 -0.1384  0.0091 -0.7029
  842MPD2    H212378   2.636   2.587  16.340 -1.2806 -0.2079 -0.3902
  842MPD2    H312379   2.740   2.790  16.402  1.5407 -1.8654 -1.2130
  842MPD2     N12380   2.651   2.715  16.839  0.5191 -0.0884 -0.0987
  842MPD2    H512381   2.661   2.815  16.856 -4.5486  0.6711 -1.4755
  842MPD2    N112382   2.569   2.390  16.485  0.4653 -0.5621 -0.5390
  842MPD2    H712383   2.560   2.376  16.385 -1.9623  2.2190 -0.6874
  843MPD2     C12384   4.694   3.502   0.177  0.0842  0.2882  0.2622
  843MPD2    C112385   0.076   3.440   0.252 -0.0962 -0.0927  0.3057
  843MPD2    C212386   0.194   3.506   0.270  0.1924  0.1326  0.0479
  843MPD2    C312387   0.210   3.636   0.229  0.7970  0.1641 -0.3255
  843MPD2    C412388   0.108   3.700   0.166 -0.1403 -0.5107  1.0039
  843MPD2    C512389   4.715   3.634   0.139 -0.2518  0.1538  0.1244
  843MPD2     H12390   0.271   3.456   0.328  0.7937 -0.0956 -0.9539
  843MPD2    H112391   0.120   3.801   0.129  1.5360 -0.5185  1.4891
  843MPD2    H212392   4.602   3.449   0.156  2.2860 -3.1101 -0.8086
  843MPD2    H312393   4.631   3.687   0.095 -0.3871 -0.9605 -0.9752
  843MPD2     N12394   0.325   3.707   0.241  0.1720  0.2330  0.3586
  843MPD2    H512395   0.340   3.797   0.198  2.8387 -0.1233  0.5379
  843MPD2    N112396   0.051   3.307   0.312  0.0559 -0.0156  0.5499
  843MPD2    H712397   4.675   3.284   0.302 -0.3703  2.3186 -0.7411
  844MPD2     C12398   3.310   2.144  16.364 -0.3703 -0.0556  0.2377
  844MPD2    C112399   3.428   2.145  16.293 -0.3020 -0.1923 -0.2759
  844MPD2    C212400   3.528   2.236  16.327 -0.4958 -0.2931  0.8757
  844MPD2    C312401   3.515   2.325  16.428  0.5398  0.2963  0.1985
  844MPD2    C412402   3.399   2.328  16.496  0.3126  0.4428 -0.0246
  844MPD2    C512403   3.297   2.234  16.463  0.4679  0.3335 -0.0499
  844MPD2     H12404   3.627   2.236  16.281 -0.3614 -0.0222  1.1677
  844MPD2    H112405   3.380   2.402  16.573  0.6613  1.0848 -0.5601
  844MPD2    H212406   3.222   2.080  16.362 -0.4545  0.0283  1.1415
  844MPD2    H312407   3.204   2.233  16.518 -0.4682  0.3871 -1.6424
  844MPD2     N12408   3.627   2.401  16.450  0.2666  0.3768  0.1837
  844MPD2    H512409   3.714   2.375  16.404 -0.2686  1.3253 -1.3594
  844MPD2    N112410   3.452   2.064  16.185  0.2644 -0.3100 -0.1834
  844MPD2    H712411   3.543   2.082  16.145 -0.0304  0.5331 -0.4817
  845MPD2     C12412   3.701   3.272  16.870 -0.6989 -0.1433  0.6780
  845MPD2    C112413   3.626   3.241  16.757  0.2379  0.1542  1.0540
  845MPD2    C212414   3.675   3.137  16.674 -0.3020  0.0571  0.0901
  845MPD2    C312415   3.790   3.070  16.706 -0.9030  0.2398 -0.2738
  845MPD2    C412416   3.866   3.118  16.809 -0.4689 -0.0892  0.8091
  845MPD2    C512417   3.821   3.210  16.894 -0.2752 -0.7456  0.1011
  845MPD2     H12418   3.613   3.102  16.593 -2.2923  0.0696  1.6122
  845MPD2    H112419   3.955   3.064  16.838  0.8630  1.8152  0.2811
  845MPD2    H212420   3.679   3.356  16.935 -1.1241 -0.2629  0.6867
  845MPD2    H312421   3.888   3.242  16.973  0.8679 -2.5994 -0.1236
  845MPD2     N12422   3.827   2.957  16.628 -0.3502  0.0344 -0.5036
  845MPD2    H512423   3.760   2.943  16.552 -1.9414 -0.4727  0.9939
  845MPD2    N112424   3.496   3.294  16.742 -0.6808  0.0617 -0.1564
  845MPD2    H712425   3.458   3.335  16.827  0.2911  2.0287 -0.6643
  846MPD2     C12426   0.513   3.198  13.705 -0.5999 -0.4809  0.1082
  846MPD2    C112427   0.479   3.329  13.720 -0.0942 -0.0630  0.3544
  846MPD2    C212428   0.440   3.382  13.835  0.8558 -0.0113  0.5719
  846MPD2    C312429   0.424   3.307  13.948  0.1598 -0.9252  0.3601
  846MPD2    C412430   0.449   3.172  13.937  0.0234  0.2879  0.8822
  846MPD2    C512431   0.492   3.122  13.817  0.1007 -0.0156  0.2580
  846MPD2     H12432   0.404   3.484  13.831  1.4294  0.1902  0.4674
  846MPD2    H112433   0.457   3.103  14.020  1.5673  0.2554  0.6990
  846MPD2    H212434   0.566   3.160  13.618 -1.2853  0.3157 -0.6562
  846MPD2    H312435   0.517   3.017  13.802  0.5444 -0.0325  1.1572
  846MPD2     N12436   0.380   3.369  14.063  0.4791  0.1174  0.0056
  846MPD2    H512437   0.332   3.457  14.051 -0.5040 -0.2841  1.0535
  846MPD2    N112438   0.493   3.419  13.609 -0.0040  0.6935  0.2346
  846MPD2    H712439   0.470   3.517  13.624  0.4153  1.0169 -1.2591
  847MPD2     C12440   0.743   4.056  14.187  0.4023  0.6618  1.3085
  847MPD2    C112441   0.851   4.137  14.212 -0.5465 -0.0551  0.2172
  847MPD2    C212442   0.954   4.088  14.295 -0.3972 -0.0606  0.3532
  847MPD2    C312443   0.943   3.969  14.357 -0.0921  0.2860 -0.4636
  847MPD2    C412444   0.825   3.898  14.350 -0.2999  0.1007 -0.6172
  847MPD2    C512445   0.729   3.936  14.253  0.7357 -0.8059 -0.2805
  847MPD2     H12446   1.052   4.134  14.302 -0.5462  0.4406 -0.9699
  847MPD2    H112447   0.808   3.806  14.404 -0.7709  1.7871  2.1093
  847MPD2    H212448   0.666   4.081  14.115  0.3969 -0.8332  0.7880
  847MPD2    H312449   0.653   3.866  14.221  0.8240 -0.7918 -0.5223
  847MPD2     N12450   1.049   3.930  14.446  0.6888 -0.5401 -0.1468
  847MPD2    H512451   1.115   4.005  14.464  1.4289 -0.8253 -1.6100
  847MPD2    N112452   0.862   4.264  14.153 -0.0850  0.0055 -0.0611
  847MPD2    H712453   0.952   4.312  14.158  0.3183 -0.7598  0.1298
  848MPD2     C12454   3.302   3.025  16.001  0.6119  0.7548  0.2553
  848MPD2    C112455   3.183   2.971  16.060  0.5581 -0.0111  0.0602
  848MPD2    C212456   3.064   2.965  15.992  0.2208 -0.0635  0.5332
  848MPD2    C312457   3.053   2.992  15.858 -0.1045  0.3088  0.6998
  848MPD2    C412458   3.166   3.048  15.809  0.2051 -0.8683 -0.3559
  848MPD2    C512459   3.284   3.068  15.871 -0.3430 -0.3358 -0.0178
  848MPD2     H12460   2.975   2.925  16.041 -0.2530  0.4871  0.1122
  848MPD2    H112461   3.166   3.084  15.707  2.8250  2.1517  0.6993
  848MPD2    H212462   3.401   3.028  16.044  0.6047 -0.5402  0.3628
  848MPD2    H312463   3.365   3.112  15.814  0.0103 -0.4239  0.4076
  848MPD2     N12464   2.934   2.981  15.783 -0.5043  0.4450  0.3481
  848MPD2    H512465   2.928   3.040  15.700 -2.8963  0.6271  0.6595
  848MPD2    N112466   3.185   2.911  16.185 -0.6687  0.1053  0.2780
  848MPD2    H712467   3.102   2.858  16.212  0.9071 -2.4231  0.1550
  849MPD2     C12468   2.468   2.152  14.392  0.3936 -0.5328 -0.4476
  849MPD2    C112469   2.522   2.160  14.260  0.1791  0.0712 -0.3004
  849MPD2    C212470   2.645   2.103  14.245  0.4256  0.1605  0.1730
  849MPD2    C312471   2.719   2.061  14.360 -0.1749  0.2808 -0.0878
  849MPD2    C412472   2.663   2.070  14.491  0.7850 -0.1966 -0.3709
  849MPD2    C512473   2.537   2.109  14.503  0.5528 -0.7401 -0.1922
  849MPD2     H12474   2.691   2.090  14.148 -2.2192 -0.8202 -0.9379
  849MPD2    H112475   2.717   2.027  14.574 -1.1409 -2.0535 -0.0974
  849MPD2    H212476   2.372   2.199  14.409  1.3929  1.0867  0.7182
  849MPD2    H312477   2.492   2.120  14.601 -1.7046  0.4680 -1.3416
  849MPD2     N12478   2.849   2.030  14.337  0.4607 -0.0360  0.3509
  849MPD2    H512479   2.874   2.043  14.239 -1.1324  2.3200  0.2584
  849MPD2    N112480   2.457   2.229  14.151  0.1556 -0.0813 -0.2040
  849MPD2    H712481   2.368   2.276  14.166  0.5202  1.3389 -2.4329
  850MPD2     C12482   0.574   0.113  14.503  0.5815 -0.9133  0.0895
  850MPD2    C112483   0.556   0.239  14.550  0.3935 -0.2796  0.3012
  850MPD2    C212484   0.666   0.304  14.607  0.0222  0.2084 -0.2987
  850MPD2    C312485   0.788   0.238  14.634  0.5306 -1.1061  0.5365
  850MPD2    C412486   0.805   0.112  14.585  0.3783 -0.0906  0.9363
  850MPD2    C512487   0.697   0.056  14.515 -0.3718  0.3576  0.4956
  850MPD2     H12488   0.653   0.405  14.644  0.4917 -0.7850  2.5151
  850MPD2    H112489   0.896   0.054  14.595 -0.8335 -1.7447  2.3410
  850MPD2    H212490   0.498   0.054  14.451  1.5179 -0.0249 -2.2894
  850MPD2    H312491   0.710   4.679  14.474 -1.7887  0.7730 -0.9899
  850MPD2     N12492   0.883   0.284  14.725  0.0937  0.0976 -0.0632
  850MPD2    H512493   0.959   0.219  14.743 -0.9870 -0.8617  1.0891
  850MPD2    N112494   0.428   0.301  14.532  0.1915 -0.2993 -0.6961
  850MPD2    H712495   0.371   0.272  14.454  0.5608  1.2957 -1.5636
  851MPD2     C12496   0.920   0.312  15.194  0.1161 -0.2322  0.7889
  851MPD2    C112497   0.841   0.245  15.105 -0.4755 -0.0009  0.9197
  851MPD2    C212498   0.898   0.136  15.031  0.2420 -0.3490  0.0565
  851MPD2    C312499   1.028   0.100  15.051 -0.2928 -0.1953 -0.1292
  851MPD2    C412500   1.105   0.166  15.145 -0.5062 -0.5236  0.6437
  851MPD2    C512501   1.044   0.263  15.222 -0.2349 -0.0648 -0.1962
  851MPD2     H12502   0.836   0.084  14.960 -0.7709  0.8768  0.0324
  851MPD2    H112503   1.209   0.143  15.164 -0.4493  1.6681  2.8939
  851MPD2    H212504   0.883   0.396  15.252  2.8349  1.1235  0.5528
  851MPD2    H312505   1.107   0.302  15.301 -0.8350  1.1753 -0.3184
  851MPD2     N12506   1.066   4.703  15.001 -0.2339 -0.0355 -0.0925
  851MPD2    H512507   0.997   4.654  14.945  0.0383 -1.4501  0.8055
  851MPD2    N112508   0.712   0.297  15.076  0.5537  0.1362 -0.4352
  851MPD2    H712509   0.690   0.385  15.121  0.2576  0.6064 -1.5042
  852MPD2     C12510   0.666   2.669   9.530  0.3088  0.3135 -0.5973
  852MPD2    C112511   0.743   2.602   9.619 -0.2795  0.6352  0.6886
  852MPD2    C212512   0.833   2.672   9.704 -0.5160 -0.3777 -0.4187
  852MPD2    C312513   0.839   2.806   9.695  0.5475 -0.2024 -0.8414
  852MPD2    C412514   0.758   2.879   9.611 -0.2609 -0.0589  0.3382
  852MPD2    C512515   0.664   2.810   9.531 -0.6366 -0.2537 -0.0625
  852MPD2     H12516   0.904   2.621   9.768 -0.9029 -1.8865 -1.1814
  852MPD2    H112517   0.749   2.987   9.609  2.4919  0.1631 -0.7627
  852MPD2    H212518   0.605   2.621   9.455 -1.9608  0.2017  1.3042
  852MPD2    H312519   0.608   2.865   9.456 -0.6991 -0.1566  0.0559
  852MPD2     N12520   0.924   2.873   9.788  0.2418  0.3751  0.0497
  852MPD2    H512521   0.969   2.808   9.853 -3.8754 -1.3410  1.1560
  852MPD2    N112522   0.748   2.462   9.623  0.3995  0.1073 -0.6780
  852MPD2    H712523   0.824   2.415   9.672 -1.0001 -0.4271  0.9773
  853MPD2     C12524   2.522   2.776  12.336  0.5162 -0.7048  0.2527
  853MPD2    C112525   2.413   2.847  12.308  0.2127  0.9089  0.8314
  853MPD2    C212526   2.354   2.823  12.185  0.0285  0.0402 -0.5749
  853MPD2    C312527   2.425   2.754  12.088 -0.1681  0.2292 -0.2402
  853MPD2    C412528   2.540   2.690  12.120  0.3520  0.0725 -0.4698
  853MPD2    C512529   2.590   2.698  12.246 -0.0599 -0.1253  0.7090
  853MPD2     H12530   2.260   2.868  12.153 -1.0667 -2.3460 -0.6721
  853MPD2    H112531   2.588   2.626  12.047 -1.5783 -1.0304 -0.7906
  853MPD2    H212532   2.567   2.781  12.434 -0.9654 -0.1613  0.8947
  853MPD2    H312533   2.682   2.648  12.272  0.8704  1.7181  0.8575
  853MPD2     N12534   2.392   2.746  11.948  0.2542 -0.0116  0.2538
  853MPD2    H512535   2.459   2.696  11.891  1.0648  1.7727 -0.3428
  853MPD2    N112536   2.362   2.933  12.405  0.2693 -0.0820  0.0599
  853MPD2    H712537   2.396   2.928  12.501 -0.2426 -2.6148  0.1206
  854MPD2     C12538   3.564   2.978  13.105  0.1328  0.2003  0.5249
  854MPD2    C112539   3.670   2.987  13.014 -0.4820  0.0220 -0.6845
  854MPD2    C212540   3.790   2.932  13.061 -1.0362  0.4275 -0.5663
  854MPD2    C312541   3.809   2.889  13.192 -0.2784  0.0782 -0.2836
  854MPD2    C412542   3.708   2.897  13.282  0.0885 -0.8854 -0.1330
  854MPD2    C512543   3.586   2.936  13.234  0.1285 -0.5673 -0.6777
  854MPD2     H12544   3.863   2.903  12.987  1.8278  1.8440  1.7178
  854MPD2    H112545   3.713   2.855  13.382 -1.3718  3.4390  1.7625
  854MPD2    H212546   3.466   3.016  13.078 -0.3770 -0.8963  0.8155
  854MPD2    H312547   3.502   2.943  13.302 -0.5963  0.8909 -1.7443
  854MPD2     N12548   3.932   2.838  13.244 -0.0334 -0.5013  0.0415
  854MPD2    H512549   3.938   2.839  13.345 -1.5047  2.1802  0.1284
  854MPD2    N112550   3.657   3.038  12.880 -0.2800  0.7192 -0.7781
  854MPD2    H712551   3.565   3.072  12.856 -0.7324  0.4808  0.5758
  855MPD2     C12552   4.073   2.659  13.945  0.6620 -0.1324  0.5588
  855MPD2    C112553   4.173   2.595  13.883  0.3650  0.0041 -0.2496
  855MPD2    C212554   4.234   2.666  13.786  0.5821 -0.1531  0.2109
  855MPD2    C312555   4.186   2.784  13.736 -0.2726 -0.4037  0.2526
  855MPD2    C412556   4.084   2.841  13.803 -0.4331 -0.1888  0.7725
  855MPD2    C512557   4.029   2.779  13.911 -0.4917  0.3340  0.0493
  855MPD2     H12558   4.309   2.616  13.726  1.3922  0.2701  0.8792
  855MPD2    H112559   4.047   2.939  13.777 -1.6883 -0.1876  2.5806
  855MPD2    H212560   4.026   2.615  14.032  0.6874 -1.0459  0.1175
  855MPD2    H312561   3.945   2.816  13.967 -1.4778  1.0273 -1.8809
  855MPD2     N12562   4.220   2.843  13.618  1.2443 -0.0735  0.0757
  855MPD2    H512563   4.153   2.910  13.581  1.3102 -0.7373 -1.2489
  855MPD2    N112564   4.234   2.476  13.918  0.4328 -0.7735 -0.3210
  855MPD2    H712565   4.316   2.442  13.869  0.2885 -0.3924 -0.8252
  856MPD2     C12566   1.437   3.465  13.894  0.7763  0.1606  0.5497
  856MPD2    C112567   1.534   3.565  13.916  0.2773 -0.4263 -0.5771
  856MPD2    C212568   1.494   3.698  13.935 -0.3044  0.0427 -0.8141
  856MPD2    C312569   1.362   3.735  13.928 -0.3830  0.3468 -0.4253
  856MPD2    C412570   1.271   3.643  13.887  0.0524  0.4158 -0.3985
  856MPD2    C512571   1.308   3.510  13.874 -0.6734 -0.6601 -0.0412
  856MPD2     H12572   1.580   3.763  13.931  0.5458 -1.0428 -0.1303
  856MPD2    H112573   1.166   3.665  13.874  0.0978  2.4222  2.6000
  856MPD2    H212574   1.470   3.362  13.893  3.0024  0.8648  1.9726
  856MPD2    H312575   1.224   3.442  13.865  0.2702 -1.9711  1.1864
  856MPD2     N12576   1.310   3.867  13.924 -0.1006 -0.3338  0.0462
  856MPD2    H512577   1.214   3.877  13.891 -0.4513  0.1111  1.2299
  856MPD2    N112578   1.673   3.545  13.913 -0.3556  0.6312  0.4565
  856MPD2    H712579   1.732   3.623  13.941  0.1069  0.6787 -0.6421
  857MPD2     C12580   3.313   1.120  12.360  0.9537  0.5990  0.1996
  857MPD2    C112581   3.339   1.058  12.482  0.7668  0.3997  0.2118
  857MPD2    C212582   3.334   1.131  12.595 -0.4640 -0.0744 -0.5548
  857MPD2    C312583   3.300   1.268  12.585 -0.1078  0.5660  0.1703
  857MPD2    C412584   3.270   1.323  12.469 -0.0676  1.0146 -0.8723
  857MPD2    C512585   3.287   1.251  12.356  0.2499  0.4553  0.1611
  857MPD2     H12586   3.352   1.096  12.696 -0.0884  0.4150 -0.4493
  857MPD2    H112587   3.248   1.429  12.460 -0.7370  0.9344 -0.2141
  857MPD2    H212588   3.306   1.065  12.267  2.5666  0.0868  0.3775
  857MPD2    H312589   3.282   1.299  12.259  0.4122  1.3805  0.6094
  857MPD2     N12590   3.300   1.363  12.688  0.8678  0.4137  0.3667
  857MPD2    H512591   3.286   1.457  12.654  1.7494  0.7524  0.9322
  857MPD2    N112592   3.359   0.915  12.496  0.0480 -0.4337  0.7073
  857MPD2    H712593   3.349   0.870  12.587  0.1855 -0.4190  0.7285
  858MPD2     C12594   3.769   0.311  16.321  0.0517  0.5905  0.4941
  858MPD2    C112595   3.899   0.346  16.357  0.0788  0.4846  0.2826
  858MPD2    C212596   3.925   0.465  16.416  0.5844  0.4722 -0.0448
  858MPD2    C312597   3.824   0.556  16.445 -0.5953  1.0261 -0.5092
  858MPD2    C412598   3.695   0.522  16.395  0.5867 -0.0942  0.1627
  858MPD2    C512599   3.672   0.404  16.337 -0.5423 -0.3865  0.4276
  858MPD2     H12600   4.027   0.488  16.445  1.0567  0.2225 -1.5303
  858MPD2    H112601   3.611   0.589  16.414  2.3503  1.7585  1.4004
  858MPD2    H212602   3.757   0.213  16.276 -0.8458  1.6518 -1.6090
  858MPD2    H312603   3.578   0.385  16.287  0.0365  0.7491 -1.1221
  858MPD2     N12604   3.838   0.663  16.538  0.0653 -0.0341 -0.1138
  858MPD2    H512605   3.749   0.695  16.575 -0.8329 -1.8241 -0.7287
  858MPD2    N112606   3.995   0.241  16.350 -0.5126 -0.5217 -0.2785
  858MPD2    H712607   3.961   0.150  16.319  3.0937 -1.8732 -0.1905
  859MPD2     C12608   2.220   1.987  15.184  0.2469 -0.1545 -0.3472
  859MPD2    C112609   2.357   1.998  15.211 -0.7834  0.4494  0.0395
  859MPD2    C212610   2.420   1.909  15.293 -0.1891  0.2683  0.7154
  859MPD2    C312611   2.349   1.800  15.339 -0.8431 -0.0389 -0.3406
  859MPD2    C412612   2.214   1.791  15.326  0.1761 -0.3636  0.5424
  859MPD2    C512613   2.149   1.882  15.246  0.5611  0.2913  0.3106
  859MPD2     H12614   2.525   1.911  15.320  0.3638 -0.4506 -1.3719
  859MPD2    H112615   2.153   1.712  15.368 -1.9950  0.3621 -1.2315
  859MPD2    H212616   2.168   2.050  15.112 -0.8704 -1.3716 -0.6074
  859MPD2    H312617   2.040   1.888  15.240  0.6182  1.2060  0.1577
  859MPD2     N12618   2.417   1.706  15.423  0.3319 -0.0578  0.3232
  859MPD2    H512619   2.518   1.718  15.429  0.6601 -1.5403 -1.9030
  859MPD2    N112620   2.420   2.110  15.155  0.3647  0.4071 -0.4071
  859MPD2    H712621   2.368   2.180  15.104 -1.0969 -0.2546  0.1611
  860MPD2     C12622   0.133   2.018  11.827 -0.3297  0.3178  0.2817
  860MPD2    C112623   0.176   2.055  11.958  0.7655  0.7761 -0.0310
  860MPD2    C212624   0.077   2.095  12.049  0.0002 -0.5500  0.3319
  860MPD2    C312625   4.670   2.108  12.013  0.6176  0.3701 -0.0616
  860MPD2    C412626   4.637   2.072  11.885  0.2163 -0.1253  0.2426
  860MPD2    C512627   0.002   2.021  11.794  0.0457 -0.8441 -0.9495
  860MPD2     H12628   0.104   2.112  12.152 -0.8467  0.8283  0.3352
  860MPD2    H112629   4.535   2.081  11.849  0.7035  1.7152 -0.6873
  860MPD2    H212630   0.202   1.989  11.749 -1.7888  0.0968 -0.9019
  860MPD2    H312631   4.700   2.004  11.690 -0.1046  1.2094 -1.2620
  860MPD2     N12632   4.574   2.123  12.123 -0.5753  0.3625 -0.0474
  860MPD2    H512633   4.613   2.131  12.216 -1.2548 -1.3312  0.3724
  860MPD2    N112634   0.311   2.032  12.006  0.6389  0.2043  0.1475
  860MPD2    H712635   0.329   2.065  12.100  0.5304 -0.0372  0.2528
  861MPD2     C12636   4.165   0.473  10.605 -0.2945 -0.5649 -0.0436
  861MPD2    C112637   4.045   0.491  10.666  0.1649  0.3333  0.0398
  861MPD2    C212638   3.943   0.542  10.592 -0.1494  0.2356  0.3840
  861MPD2    C312639   3.962   0.576  10.462  0.1658  0.0267 -0.4972
  861MPD2    C412640   4.088   0.580  10.409  0.0897  0.3615 -0.1983
  861MPD2    C512641   4.187   0.531  10.489 -0.6445 -0.4036 -0.4204
  861MPD2     H12642   3.846   0.543  10.639 -0.4508  0.3887 -0.2364
  861MPD2    H112643   4.120   0.611  10.310  0.7978 -0.3478 -0.1909
  861MPD2    H212644   4.249   0.428  10.657 -0.1146  1.0529  1.0920
  861MPD2    H312645   4.289   0.535  10.453  0.3896 -0.7154  2.4964
  861MPD2     N12646   3.854   0.597  10.372  0.7015 -0.2849  0.1169
  861MPD2    H512647   3.880   0.610  10.275  0.1579 -3.4748 -0.4537
  861MPD2    N112648   4.029   0.438  10.798 -0.5151  0.3682  0.0421
  861MPD2    H712649   3.942   0.450  10.850 -1.0339 -3.3540  0.0785
  862MPD2     C12650   3.617   0.595   9.687 -0.0151  0.3232 -0.1135
  862MPD2    C112651   3.655   0.535   9.806  0.1082  0.3202  0.0801
  862MPD2    C212652   3.752   0.442   9.801  0.0652 -0.2760 -0.7539
  862MPD2    C312653   3.813   0.406   9.682 -0.1523 -0.0542  0.3342
  862MPD2    C412654   3.755   0.442   9.561  0.0602 -0.2576  0.2733
  862MPD2    C512655   3.658   0.538   9.568  0.4971  0.2767 -0.2920
  862MPD2     H12656   3.781   0.390   9.891 -1.5707 -0.7835 -0.5262
  862MPD2    H112657   3.792   0.409   9.464  0.9343 -0.8746  0.8134
  862MPD2    H212658   3.537   0.668   9.680 -0.0744  0.1220 -1.5616
  862MPD2    H312659   3.623   0.573   9.471  0.1201 -1.7477 -0.8948
  862MPD2     N12660   3.937   0.347   9.672 -0.1711  0.4431  1.0269
  862MPD2    H512661   3.975   0.324   9.581 -2.0609 -0.4861  0.4578
  862MPD2    N112662   3.618   0.587   9.931 -0.6256 -0.0141  0.7306
  862MPD2    H712663   3.647   0.526  10.006 -0.2354  2.3307  2.4859
  863MPD2     C12664   1.920   4.030  17.100  0.3084  0.9410  0.0663
  863MPD2    C112665   1.999   4.085  17.005  0.4274 -0.3378 -0.5929
  863MPD2    C212666   2.140   4.088  17.021 -0.0575  0.5334 -0.2082
  863MPD2    C312667   2.198   4.013  17.116  0.1348 -1.1668  0.1546
  863MPD2    C412668   2.121   3.955  17.214 -0.4252  0.0692  0.4867
  863MPD2    C512669   1.983   3.963  17.197  0.3054 -0.5359  0.2779
  863MPD2     H12670   2.199   4.147  16.952 -0.9145  0.7297 -0.7678
  863MPD2    H112671   2.157   3.892  17.295 -2.2733  0.8740  1.9543
  863MPD2    H212672   1.812   4.021  17.090  0.4823  1.1475 -1.9936
  863MPD2    H312673   1.923   3.909  17.269  0.5042 -2.0667 -0.6831
  863MPD2     N12674   2.334   3.987  17.123 -0.1482 -0.0224 -0.5929
  863MPD2    H512675   2.358   3.920  17.196 -1.7267 -1.4493 -1.3995
  863MPD2    N112676   1.933   4.132  16.891 -0.1753  0.3414  0.0411
  863MPD2    H712677   1.832   4.125  16.883 -0.3314  2.3165  0.5068
  864MPD2     C12678   2.354   0.631  16.853  0.2251  0.3880 -0.2656
  864MPD2    C112679   2.346   0.519  16.772  0.1325  0.3230 -0.1042
  864MPD2    C212680   2.360   0.527  16.631  0.0114 -0.4905 -0.0690
  864MPD2    C312681   2.389   0.651  16.580 -0.6001 -0.2453 -0.0554
  864MPD2    C412682   2.389   0.765  16.659  0.4293  0.0921  0.1296
  864MPD2    C512683   2.375   0.755  16.796 -0.5459 -0.4992  0.3766
  864MPD2     H12684   2.353   0.440  16.567  2.8450 -1.3323  0.7801
  864MPD2    H112685   2.408   0.863  16.618  0.1517 -1.0667 -2.8513
  864MPD2    H212686   2.348   0.624  16.961  2.5315 -1.2844 -0.2298
  864MPD2    H312687   2.380   0.841  16.862 -2.8957  0.4547 -0.6935
  864MPD2     N12688   2.404   0.669  16.446 -1.1258 -0.6987 -0.2959
  864MPD2    H512689   2.412   0.761  16.404  0.9638 -0.7738 -0.0795
  864MPD2    N112690   2.318   0.395  16.842 -0.0822  0.4159  0.0888
  864MPD2    H712691   2.336   0.398  16.942  0.0835 -0.7211  0.0870
  865MPD2     C12692   2.662   0.642  15.599  0.0081  0.0148  0.7245
  865MPD2    C112693   2.632   0.578  15.716  0.2410 -0.6797 -0.2061
  865MPD2    C212694   2.533   0.637  15.795  0.8221 -0.2092  0.4334
  865MPD2    C312695   2.480   0.762  15.763 -0.4688  0.5098 -0.1592
  865MPD2    C412696   2.503   0.811  15.638  0.0838  0.0470 -0.4418
  865MPD2    C512697   2.599   0.750  15.559  0.4353  0.0230 -0.4112
  865MPD2     H12698   2.504   0.577  15.880  0.0379 -0.4021  0.0372
  865MPD2    H112699   2.464   0.904  15.597 -2.5377 -2.3518 -3.4099
  865MPD2    H212700   2.736   0.606  15.528  2.4962  0.9741  2.8050
  865MPD2    H312701   2.614   0.789  15.459 -0.1901 -0.3621 -0.6583
  865MPD2     N12702   2.390   0.838  15.837  0.2869  0.4441 -0.1129
  865MPD2    H512703   2.342   0.912  15.787  1.3746  0.9421 -0.4353
  865MPD2    N112704   2.710   0.462  15.741  0.3239  0.0146  0.0195
  865MPD2    H712705   2.764   0.431  15.661  1.7598 -1.9483  1.7499
  866MPD2     C12706   4.594   0.503  10.878 -0.6984  0.0575  0.0154
  866MPD2    C112707   4.557   0.547  10.752  0.0083 -0.2674  0.3262
  866MPD2    C212708   4.449   0.643  10.752 -0.3651 -0.3304  0.5204
  866MPD2    C312709   4.399   0.690  10.871 -0.9782 -0.1500 -0.1482
  866MPD2    C412710   4.448   0.652  10.994 -0.2976 -0.5532 -0.4005
  866MPD2    C512711   4.537   0.548  10.993 -0.2623  0.2538 -0.2370
  866MPD2     H12712   4.418   0.678  10.654  2.7274 -0.3395 -0.4373
  866MPD2    H112713   4.405   0.689  11.086  0.0464  0.6322 -0.7067
  866MPD2    H212714   4.677   0.437  10.901  0.0860  1.4396  1.1193
  866MPD2    H312715   4.571   0.516  11.091 -0.7995  3.3023  0.9309
  866MPD2     N12716   4.298   0.789  10.863 -0.5549  0.4767  0.1873
  866MPD2    H512717   4.267   0.818  10.955 -1.3055  1.2678 -0.3077
  866MPD2    N112718   4.636   0.500  10.644  0.1052  0.6752  0.2157
  866MPD2    H712719   4.715   0.442  10.671 -0.5292  1.2685  3.3914
  867MPD2     C12720   1.465   0.712  16.509 -0.1602  0.9470 -0.0707
  867MPD2    C112721   1.486   0.649  16.631 -0.0524  0.1074 -0.4769
  867MPD2    C212722   1.424   0.704  16.742  0.8962  0.1066  0.1867
  867MPD2    C312723   1.341   0.817  16.726  0.7637 -0.1757  0.3430
  867MPD2    C412724   1.334   0.880  16.607  0.6710  0.4739  0.5717
  867MPD2    C512725   1.390   0.826  16.496  0.5541  0.5751  0.2038
  867MPD2     H12726   1.452   0.664  16.839  0.6131 -1.0672 -0.2164
  867MPD2    H112727   1.275   0.970  16.592 -0.5803 -0.4975 -0.2893
  867MPD2    H212728   1.508   0.673  16.417 -0.8169 -1.0426  0.4552
  867MPD2    H312729   1.380   0.884  16.405 -0.8747  2.1058  1.3374
  867MPD2     N12730   1.276   0.887  16.839  0.2259 -0.4071 -0.1459
  867MPD2    H512731   1.243   0.982  16.822  2.6252  0.7676  1.7249
  867MPD2    N112732   1.571   0.534  16.636  0.1026  0.4562 -1.0281
  867MPD2    H712733   1.604   0.510  16.543  0.7245  0.1926 -0.7347
  868MPD2     C12734   3.227   4.182  12.947  0.5708  0.1001  0.0614
  868MPD2    C112735   3.255   4.125  13.069  0.0941  0.2382  0.1541
  868MPD2    C212736   3.200   4.178  13.188  0.6477  0.3964 -0.0018
  868MPD2    C312737   3.107   4.285  13.179 -0.4832  0.8002 -0.4660
  868MPD2    C412738   3.081   4.335  13.054 -0.5583 -0.7561 -0.1009
  868MPD2    C512739   3.130   4.274  12.940  0.3336  0.1700 -0.1513
  868MPD2     H12740   3.223   4.138  13.286  0.0579  2.7360  1.0964
  868MPD2    H112741   3.001   4.405  13.030 -0.5424 -0.7462 -0.1256
  868MPD2    H212742   3.262   4.156  12.847  0.0703 -0.1135 -0.0594
  868MPD2    H312743   3.100   4.316  12.845 -2.7076 -1.0254  0.2823
  868MPD2     N12744   3.053   4.336  13.298  0.0116  0.1256 -0.3054
  868MPD2    H512745   3.086   4.292  13.384  1.7741 -1.2523 -1.7056
  868MPD2    N112746   3.333   4.004  13.064  0.1493  0.4518  0.6224
  868MPD2    H712747   3.364   3.969  12.973 -0.0460  0.6249  0.4906
  869MPD2     C12748   4.483   2.135   1.817 -0.2315 -0.3041 -0.3565
  869MPD2    C112749   4.602   2.194   1.855 -0.2004  0.6585 -0.1248
  869MPD2    C212750   4.637   2.317   1.790 -0.2966 -0.3315 -0.6731
  869MPD2    C312751   4.551   2.357   1.685  0.5915  0.0246  0.0216
  869MPD2    C412752   4.426   2.296   1.656  0.1559  0.1885 -0.2492
  869MPD2    C512753   4.394   2.184   1.722  0.4786 -0.1369 -0.4277
  869MPD2     H12754   0.013   2.361   1.803 -0.4011 -0.1949 -0.3380
  869MPD2    H112755   4.366   2.341   1.579  1.1777  1.5409 -0.2655
  869MPD2    H212756   4.454   2.044   1.867 -0.5976  0.7422  1.3256
  869MPD2    H312757   4.304   2.130   1.695  0.9490 -0.0096 -2.2847
  869MPD2     N12758   4.573   2.470   1.606  0.0027  0.2182 -0.5709
  869MPD2    H512759   4.506   2.505   1.538  1.4328 -0.0203 -2.1105
  869MPD2    N112760   4.672   2.127   1.958  0.4739  0.4442  0.1217
  869MPD2    H712761   4.618   2.058   2.010 -0.0555  1.4399  0.8983
  870MPD2     C12762   3.847   1.376   1.930 -0.1439 -0.4054 -0.1666
  870MPD2    C112763   3.966   1.408   1.871 -0.8826  1.0090  0.4166
  870MPD2    C212764   3.967   1.498   1.767  0.2626 -0.7992 -0.9491
  870MPD2    C312765   3.850   1.539   1.704  0.3153  0.1407 -0.2413
  870MPD2    C412766   3.731   1.498   1.760  0.5781 -0.5733 -0.4024
  870MPD2    C512767   3.731   1.415   1.874 -0.2495 -0.5565 -0.4347
  870MPD2     H12768   4.052   1.524   1.705  0.0636  0.3736 -0.7309
  870MPD2    H112769   3.637   1.523   1.712 -0.4168  0.2916  2.0244
  870MPD2    H212770   3.839   1.314   2.019 -3.1678  0.3587  0.0916
  870MPD2    H312771   3.638   1.372   1.908 -0.4413  0.5599  0.4451
  870MPD2     N12772   3.858   1.625   1.593 -0.4064 -0.2518 -1.2898
  870MPD2    H512773   3.951   1.645   1.558 -0.0588  0.4974  0.0296
  870MPD2    N112774   4.089   1.349   1.913  0.3195 -0.4024 -0.4695
  870MPD2    H712775   4.091   1.291   1.997  0.2420  0.6551  0.2641
  871MPD2     C12776   0.589   0.637  16.325  0.4470  0.3858  0.1551
  871MPD2    C112777   0.594   0.600  16.457  0.6209  0.3062  0.1235
  871MPD2    C212778   0.675   0.486  16.480 -0.9735  0.2086 -0.0869
  871MPD2    C312779   0.748   0.422  16.383 -0.5702 -0.0857 -0.1208
  871MPD2    C412780   0.723   0.451  16.250 -0.3243 -0.5404  0.5042
  871MPD2    C512781   0.645   0.562  16.226 -0.5808 -0.3921  0.0893
  871MPD2     H12782   0.693   0.455  16.583  0.9542  0.7488 -0.2529
  871MPD2    H112783   0.758   0.384  16.172 -1.2882  1.5998 -1.7603
  871MPD2    H212784   0.527   0.723  16.302 -2.0574 -1.7991 -1.3291
  871MPD2    H312785   0.622   0.583  16.122  0.4021 -0.6059 -0.1745
  871MPD2     N12786   0.833   0.313  16.415 -0.1422  0.1638  0.0890
  871MPD2    H512787   0.836   0.282  16.512  3.0825 -0.0381 -0.0845
  871MPD2    N112788   0.538   0.680  16.559  0.3543  0.1664  0.2293
  871MPD2    H712789   0.493   0.769  16.538  0.2399  0.2641  0.8925
  872MPD2     C12790   0.923   3.294  13.872  0.2357 -0.3067  0.2945
  872MPD2    C112791   0.992   3.211  13.958 -0.5367 -0.3845  0.5110
  872MPD2    C212792   0.946   3.177  14.079  0.5078 -0.6218 -0.7828
  872MPD2    C312793   0.811   3.207  14.107  0.0595  0.5737  0.2944
  872MPD2    C412794   0.746   3.301  14.034 -0.2636  0.5355  0.8008
  872MPD2    C512795   0.802   3.344  13.919  0.1457  0.2837 -0.0686
  872MPD2     H12796   1.000   3.114  14.149  1.2911 -0.4173 -1.2115
  872MPD2    H112797   0.651   3.349  14.052 -0.4208  1.5635 -2.7192
  872MPD2    H212798   0.950   3.331  13.774  1.4116  1.1360  1.1614
  872MPD2    H312799   0.762   3.420  13.854  1.3690  1.3254  0.3920
  872MPD2     N12800   0.754   3.175  14.227 -0.1411  0.0104  0.6913
  872MPD2    H512801   0.657   3.201  14.239 -0.7236 -1.5652 -0.7031
  872MPD2    N112802   1.117   3.147  13.926  0.5074 -0.3593 -0.5063
  872MPD2    H712803   1.165   3.105  14.005  0.2238  0.7129  0.2302
  873MPD2     C12804   3.480   2.933   1.267  0.1312  0.2375 -0.1552
  873MPD2    C112805   3.486   2.914   1.405  0.5003 -0.1653 -0.8136
  873MPD2    C212806   3.584   2.825   1.450  0.0628 -0.2715  0.1668
  873MPD2    C312807   3.668   2.760   1.359  0.2444  0.7815  0.8312
  873MPD2    C412808   3.652   2.785   1.224 -0.3805  0.6707 -0.5201
  873MPD2    C512809   3.561   2.871   1.178 -0.3963  0.2451  0.3497
  873MPD2     H12810   3.599   2.803   1.555  0.0456 -0.0719  0.2093
  873MPD2    H112811   3.713   2.730   1.154 -0.1943  0.4902 -0.2195
  873MPD2    H212812   3.405   3.001   1.228  0.0128  1.2682  1.8573
  873MPD2    H312813   3.556   2.890   1.071  2.7093 -0.0829  0.1618
  873MPD2     N12814   3.772   2.666   1.393 -0.0974 -0.0549  0.4913
  873MPD2    H512815   3.834   2.620   1.328  1.2158  2.1349  0.1966
  873MPD2    N112816   3.403   2.993   1.479  0.3026 -0.0887 -0.3297
  873MPD2    H712817   3.331   3.046   1.430 -2.3225 -0.6768  2.8721
  874MPD2     C12818   2.119   2.392  15.884  0.5807 -0.1066  0.3404
  874MPD2    C112819   2.222   2.415  15.975 -0.0712  0.2430  0.2115
  874MPD2    C212820   2.290   2.535  15.973 -0.4886 -0.3143 -0.0068
  874MPD2    C312821   2.268   2.625  15.872  0.2162 -0.3377 -0.2601
  874MPD2    C412822   2.166   2.595  15.784 -0.2335 -0.0752 -0.3099
  874MPD2    C512823   2.086   2.484  15.792 -0.0230 -0.4453 -0.0528
  874MPD2     H12824   2.373   2.554  16.039 -1.4675  0.1307  1.0956
  874MPD2    H112825   2.138   2.666  15.707 -0.1296 -0.5973 -0.8298
  874MPD2    H212826   2.068   2.297  15.886 -2.8663  1.7529  0.1767
  874MPD2    H312827   2.002   2.467  15.725 -1.3454 -0.0244  1.5213
  874MPD2     N12828   2.365   2.734  15.871  0.6160 -0.0409  0.0499
  874MPD2    H512829   2.435   2.737  15.944  1.5498 -0.0434 -0.8323
  874MPD2    N112830   2.260   2.316  16.069  0.1811  0.4484 -0.4928
  874MPD2    H712831   2.198   2.236  16.066  0.8092 -0.1364  1.6775
  875MPD2     C12832   4.269   1.353  14.463  0.2345 -0.3406  0.1198
  875MPD2    C112833   4.138   1.356  14.519  0.0747 -0.1474  0.9809
  875MPD2    C212834   4.120   1.411  14.648  0.0581  0.2847 -0.4206
  875MPD2    C312835   4.234   1.448  14.719 -0.0650  0.6982 -0.9604
  875MPD2    C412836   4.361   1.429  14.664  0.4690 -0.5032  0.2078
  875MPD2    C512837   4.378   1.375  14.546 -0.2601  0.0707  0.1044
  875MPD2     H12838   4.019   1.431  14.683  1.9874  3.2723  3.3684
  875MPD2    H112839   4.444   1.438  14.733  1.3789  2.6582 -1.3016
  875MPD2    H212840   4.292   1.314  14.365 -0.3016 -0.3432 -0.0086
  875MPD2    H312841   4.477   1.384  14.504 -0.1214  0.1848  0.4628
  875MPD2     N12842   4.229   1.504  14.844  0.1011 -0.1150  0.2170
  875MPD2    H512843   4.312   1.551  14.879 -0.2426  1.2814 -0.8524
  875MPD2    N112844   4.019   1.339  14.435 -0.4087 -0.8515 -0.3711
  875MPD2    H712845   3.928   1.342  14.479  0.9187 -0.1409  2.3587
  876MPD2     C12846   2.558   2.455  15.756 -0.5168 -0.7573  0.0293
  876MPD2    C112847   2.694   2.460  15.732 -0.8747 -0.0538  0.7829
  876MPD2    C212848   2.765   2.346  15.774 -0.1959 -0.4614 -0.8139
  876MPD2    C312849   2.707   2.233  15.837  0.0239 -0.1066  1.1423
  876MPD2    C412850   2.575   2.246  15.877 -0.2405 -0.0246 -0.2438
  876MPD2    C512851   2.499   2.346  15.817  0.2638 -0.2356  0.1505
  876MPD2     H12852   2.870   2.345  15.748  0.1800 -0.5623  0.7125
  876MPD2    H112853   2.525   2.174  15.940  0.0031 -1.5692 -1.8035
  876MPD2    H212854   2.501   2.528  15.699 -0.3980 -1.9083 -1.5819
  876MPD2    H312855   2.391   2.345  15.825  0.2559 -1.4302 -0.0891
  876MPD2     N12856   2.798   2.132  15.881  0.1447  0.0540 -0.0604
  876MPD2    H512857   2.895   2.137  15.853  0.4501 -0.8178  0.8707
  876MPD2    N112858   2.740   2.565  15.647 -0.0530  0.2511  0.0513
  876MPD2    H712859   2.671   2.614  15.591  0.5134 -0.3929 -1.2041
  877MPD2     C12860   2.659   3.045  15.048  0.0127 -0.5232 -0.3250
  877MPD2    C112861   2.788   3.005  15.047 -0.1769 -0.5207  0.3702
  877MPD2    C212862   2.863   3.011  14.929 -0.6645  0.3000 -0.0588
  877MPD2    C312863   2.804   3.053  14.807 -0.0444  0.1886 -0.0498
  877MPD2    C412864   2.672   3.084  14.809  0.3669  0.2916 -0.4044
  877MPD2    C512865   2.598   3.077  14.929  0.7442 -0.1825  0.1180
  877MPD2     H12866   2.968   2.986  14.924 -1.0843 -1.4485 -0.1087
  877MPD2    H112867   2.610   3.102  14.722 -0.0538 -0.5744 -0.2828
  877MPD2    H212868   2.597   3.048  15.137  0.7295  0.7874  0.1268
  877MPD2    H312869   2.493   3.101  14.938  0.4304 -0.9938 -1.4228
  877MPD2     N12870   2.861   3.056  14.684  0.0948 -0.2281 -0.9085
  877MPD2    H512871   2.800   3.052  14.604 -3.0848 -1.1325  1.5505
  877MPD2    N112872   2.847   2.954  15.160  0.2049 -0.1501  0.8991
  877MPD2    H712873   2.946   2.932  15.158  0.0952 -0.4258 -1.1475
  878MPD2     C12874   2.225   2.290  13.109 -0.1573 -0.3890  0.0969
  878MPD2    C112875   2.354   2.331  13.134  0.4544 -0.4734 -0.3889
  878MPD2    C212876   2.405   2.335  13.258 -0.8505  0.5340 -0.2825
  878MPD2    C312877   2.323   2.290  13.363 -0.3571  0.1252 -0.2042
  878MPD2    C412878   2.192   2.251  13.341  0.4800 -0.0453 -0.3474
  878MPD2    C512879   2.146   2.248  13.212  0.1909  0.5134  0.4698
  878MPD2     H12880   2.501   2.380  13.278 -0.1712 -0.4396 -1.3939
  878MPD2    H112881   2.126   2.206  13.415  1.0112 -1.4183 -0.7040
  878MPD2    H212882   2.186   2.281  13.008 -1.3231  1.3737  0.3871
  878MPD2    H312883   2.054   2.196  13.187  1.9884 -2.2125 -0.5254
  878MPD2     N12884   2.368   2.323  13.490 -0.0788  0.5663 -0.1299
  878MPD2    H512885   2.459   2.369  13.494 -0.0357  0.4297  0.5009
  878MPD2    N112886   2.419   2.382  13.021 -0.0901  0.0217  0.5146
  878MPD2    H712887   2.364   2.372  12.936  1.4885 -0.0542 -0.4871
  879MPD2     C12888   3.704   3.721  16.959  0.1623  0.1724 -0.7723
  879MPD2    C112889   3.613   3.783  17.054  0.0006 -0.2757  0.4366
  879MPD2    C212890   3.475   3.776  17.034  0.5644 -0.0598 -0.1452
  879MPD2    C312891   3.436   3.704  16.926  0.5294 -0.3359 -0.6496
  879MPD2    C412892   3.524   3.640  16.835  0.1374 -0.4120  0.1146
  879MPD2    C512893   3.667   3.649  16.850  0.5679 -0.2757 -0.5033
  879MPD2     H12894   3.404   3.810  17.110  1.8464 -2.4736  2.1240
  879MPD2    H112895   3.484   3.585  16.750  2.1966 -2.0857  0.2134
  879MPD2    H212896   3.811   3.735  16.971  0.3784 -0.4080 -2.0373
  879MPD2    H312897   3.733   3.598  16.780  0.3169 -0.1425 -0.8388
  879MPD2     N12898   3.300   3.702  16.894  0.2276  0.0118 -0.7398
  879MPD2    H512899   3.281   3.662  16.802  0.6223 -1.6654 -0.0962
  879MPD2    N112900   3.670   3.853  17.164 -0.1238 -0.0319  0.1999
  879MPD2    H712901   3.771   3.856  17.167 -0.0492 -2.7421  0.6003
  880MPD2     C12902   4.142   1.174   0.855 -0.0097 -0.3740 -0.0439
  880MPD2    C112903   4.258   1.105   0.833  0.6764 -0.1930  0.2698
  880MPD2    C212904   4.298   1.001   0.916  0.1957 -0.4763  0.7337
  880MPD2    C312905   4.207   0.957   1.010 -0.7064  0.1315 -0.2910
  880MPD2    C412906   4.082   1.013   1.022 -0.4132 -0.0581  0.1447
  880MPD2    C512907   4.052   1.130   0.950  0.0953 -0.0599 -0.3070
  880MPD2     H12908   4.392   0.947   0.911 -0.0431 -1.0770  2.7697
  880MPD2    H112909   4.007   1.000   1.099 -0.1778  1.7055  0.6902
  880MPD2    H212910   4.112   1.263   0.802  0.0255  0.5314  1.4405
  880MPD2    H312911   3.974   1.199   0.980  0.1099  0.2010 -0.8521
  880MPD2     N12912   4.238   0.848   1.085  1.0460  0.0103 -0.0617
  880MPD2    H512913   4.332   0.812   1.072  0.5175 -1.4047 -0.0155
  880MPD2    N112914   4.341   1.164   0.740  0.2530 -0.3048 -0.5231
  880MPD2    H712915   4.304   1.246   0.692  0.1601  0.1883  0.4000
  881MPD2     C12916   4.253   1.660  17.658 -1.0766  0.2539  0.2221
  881MPD2    C112917   4.338   1.556  17.665  0.4424  0.6366 -0.0222
  881MPD2    C212918   4.384   1.515   0.101  0.0553  0.8426 -0.2692
  881MPD2    C312919   4.330   1.562   0.217  0.4158  0.2973  0.4061
  881MPD2    C412920   4.242   1.673   0.205  0.3864  0.0288 -0.0358
  881MPD2    C512921   4.206   1.721   0.080 -0.0317 -0.3675 -0.5627
  881MPD2     H12922   4.472   1.453   0.107  1.0952  2.2526 -0.9136
  881MPD2    H112923   4.211   1.727   0.294  1.6096  1.6609 -0.6040
  881MPD2    H212924   4.206   1.691  17.565  0.5904  0.7618 -0.4556
  881MPD2    H312925   4.140   1.807   0.074 -1.0419 -0.9910  1.5954
  881MPD2     N12926   4.365   1.513   0.343  0.1260  0.1137 -0.1093
  881MPD2    H512927   4.332   1.566   0.423  2.5840  1.2474  0.1558
  881MPD2    N112928   4.409   1.529  17.542  0.1714 -0.1742  0.2060
  881MPD2    H712929   4.399   1.592  17.464  1.0679  0.3691  0.5265
  882MPD2     C12930   2.776   2.918  13.861 -0.2645 -0.3209 -0.5557
  882MPD2    C112931   2.727   2.904  13.993  1.1720  0.2643 -0.0392
  882MPD2    C212932   2.600   2.852  14.018 -0.4498  0.5662  0.3471
  882MPD2    C312933   2.521   2.818  13.914 -0.2788  0.5236  0.6336
  882MPD2    C412934   2.556   2.839  13.785 -0.5250 -0.3002  0.1079
  882MPD2    C512935   2.687   2.889  13.759 -0.3841 -0.6946 -0.2028
  882MPD2     H12936   2.547   2.872  14.111 -0.0045  0.0719  0.7072
  882MPD2    H112937   2.484   2.821  13.706  1.3375 -0.7198 -1.5033
  882MPD2    H212938   2.867   2.954  13.816 -0.2280  0.0385 -0.1941
  882MPD2    H312939   2.715   2.887  13.654 -1.5645  1.4603 -0.5609
  882MPD2     N12940   2.383   2.772  13.935 -0.1398 -0.3934 -0.4609
  882MPD2    H512941   2.318   2.757  13.858 -1.0946 -1.0120  0.4589
  882MPD2    N112942   2.819   2.944  14.092 -0.0602 -0.0513  0.1562
  882MPD2    H712943   2.910   2.967  14.055 -0.7892  0.2165 -1.4584
  883MPD2     C12944   0.210   3.444  16.313  0.0837 -0.0086  0.0220
  883MPD2    C112945   0.265   3.339  16.389 -0.3156 -0.6744  0.2476
  883MPD2    C212946   0.353   3.371  16.492 -0.1463  0.8379 -0.3163
  883MPD2    C312947   0.398   3.497  16.518  0.2105  0.5598 -0.0591
  883MPD2    C412948   0.347   3.599  16.441  0.9239  0.2241 -0.3689
  883MPD2    C512949   0.250   3.566  16.348  0.1707  0.0740 -0.0372
  883MPD2     H12950   0.388   3.294  16.560 -1.0835  1.6402  1.0575
  883MPD2    H112951   0.379   3.697  16.475  0.2050  0.6995 -1.0471
  883MPD2    H212952   0.136   3.440  16.234 -0.3423 -0.1534  0.4300
  883MPD2    H312953   0.209   3.651  16.294  0.8926  1.3368  1.3888
  883MPD2     N12954   0.474   3.506  16.638  0.3033 -0.2992  0.2263
  883MPD2    H512955   0.509   3.424  16.687 -0.6487 -0.5280  0.5058
  883MPD2    N112956   0.223   3.203  16.371  0.0725  0.0565  0.9680
  883MPD2    H712957   0.247   3.138  16.445  2.7545  0.1271  0.1465
  884MPD2     C12958   2.168   3.727  15.269 -0.1775  0.0718  0.4136
  884MPD2    C112959   2.123   3.787  15.154  0.2194  0.3583  0.5905
  884MPD2    C212960   1.992   3.799  15.129  0.2123 -0.5508 -0.0496
  884MPD2    C312961   1.898   3.731  15.201 -0.6487 -0.6365  0.3662
  884MPD2    C412962   1.940   3.659  15.313 -0.0521  0.4849 -0.8497
  884MPD2    C512963   2.076   3.656  15.348 -0.3262 -0.2424 -0.1052
  884MPD2     H12964   1.956   3.858  15.046 -0.7541 -1.5551 -0.3469
  884MPD2    H112965   1.866   3.614  15.377  2.7175 -0.8027  1.4588
  884MPD2    H212966   2.274   3.721  15.290 -0.3271  1.1291  1.4865
  884MPD2    H312967   2.108   3.602  15.437  1.1359 -0.0334 -0.5051
  884MPD2     N12968   1.763   3.755  15.169  0.1840 -0.4913  0.3126
  884MPD2    H512969   1.733   3.830  15.108  2.0484  1.0170  1.2303
  884MPD2    N112970   2.211   3.833  15.055 -0.0546  0.4038 -0.1290
  884MPD2    H712971   2.175   3.858  14.963  0.5998 -0.9741 -0.7709
  885MPD2     C12972   0.086   4.513   0.269  0.4218  0.1244  0.6158
  885MPD2    C112973   0.075   4.380   0.248 -0.0902  0.2123 -0.4758
  885MPD2    C212974   0.076   4.328   0.117 -0.6722 -0.1555 -0.7763
  885MPD2    C312975   0.070   4.415   0.008  0.5422 -0.2377 -0.1060
  885MPD2    C412976   0.068   4.552   0.035 -0.3470  0.1304 -0.0122
  885MPD2    C512977   0.078   4.597   0.163 -0.0259  0.8579  0.4668
  885MPD2     H12978   0.074   4.220   0.107 -1.3839 -0.0204 -2.0301
  885MPD2    H112979   0.058   4.627  17.650  0.8864 -1.3905 -1.6327
  885MPD2    H212980   0.087   4.561   0.366  1.2585  0.3007  0.5207
  885MPD2    H312981   0.081   4.704   0.180 -0.9556  1.1411 -1.1578
  885MPD2     N12982   0.077   4.369  17.565 -0.2440 -0.4696  0.2323
  885MPD2    H512983   0.102   4.271  17.551  1.4303  0.2871 -2.1375
  885MPD2    N112984   0.082   4.310   0.366 -0.0551 -0.2731  0.0274
  885MPD2    H712985   0.073   4.353   0.458  0.0892 -1.6570  0.6963
  886MPD2     C12986   1.466   2.271  15.631 -0.3100  0.1501  0.1515
  886MPD2    C112987   1.581   2.266  15.561  0.4605 -0.2627  0.4008
  886MPD2    C212988   1.591   2.341  15.440 -0.3978  0.2857 -0.2603
  886MPD2    C312989   1.496   2.431  15.406  0.0457  0.1301  0.4505
  886MPD2    C412990   1.383   2.439  15.485  0.1662  0.0213  0.8225
  886MPD2    C512991   1.370   2.364  15.601 -0.3464 -0.1412 -0.5885
  886MPD2     H12992   1.680   2.349  15.378  0.5332 -0.8022  0.9407
  886MPD2    H112993   1.296   2.501  15.463  0.2265 -0.1215  0.1753
  886MPD2    H212994   1.447   2.218  15.724 -0.5558  1.8202  1.0706
  886MPD2    H312995   1.283   2.385  15.662 -0.7093 -0.0347 -1.1417
  886MPD2     N12996   1.526   2.515  15.297 -0.5294  0.0932  0.3303
  886MPD2    H512997   1.620   2.514  15.260  0.4938  1.8308  2.9140
  886MPD2    N112998   1.686   2.174  15.592  0.3791 -0.0503  0.2084
  886MPD2    H712999   1.754   2.150  15.521 -1.3547 -0.8944 -1.1567
  887MPD2     C13000   2.410   2.152  15.518  0.2659 -0.0921  0.4160
  887MPD2    C113001   2.282   2.187  15.488  0.5070 -0.5687 -0.3142
  887MPD2    C213002   2.263   2.315  15.437  0.0853  0.1486  0.4124
  887MPD2    C313003   2.360   2.411  15.430 -0.1321 -0.5996  0.0435
  887MPD2    C413004   2.485   2.375  15.464  0.4986  0.0449 -0.1054
  887MPD2    C513005   2.508   2.245  15.513 -0.6715 -0.8079  0.3591
  887MPD2     H13006   2.159   2.338  15.417  0.4054  0.7885 -0.5395
  887MPD2    H113007   2.569   2.442  15.474  1.1079 -0.6082 -0.7749
  887MPD2    H213008   2.436   2.054  15.556 -0.3466 -1.2458 -2.0966
  887MPD2    H313009   2.605   2.220  15.554 -0.4184  0.2512  0.4023
  887MPD2     N13010   2.311   2.543  15.410  0.0841 -0.3593 -0.0430
  887MPD2    H513011   2.216   2.551  15.376  0.4412  1.2202 -0.6533
  887MPD2    N113012   2.165   2.108  15.508  0.6171  0.4055 -0.1399
  887MPD2    H713013   2.081   2.147  15.468  0.1983  0.6331  0.9668
  888MPD2     C13014   3.935   2.372  15.138 -0.2689 -0.0547 -0.6264
  888MPD2    C113015   4.017   2.454  15.207  0.1646  0.4960 -0.3698
  888MPD2    C213016   4.034   2.586  15.169  0.7016  0.2826  0.2734
  888MPD2    C313017   3.983   2.642  15.062 -0.3505 -0.3039 -0.1462
  888MPD2    C413018   3.897   2.563  14.990  0.2538 -0.1080 -0.3630
  888MPD2    C513019   3.883   2.426  15.028 -0.5687  0.2246  0.0406
  888MPD2     H13020   4.100   2.646  15.230 -0.4136  3.8050 -1.9073
  888MPD2    H113021   3.840   2.608  14.910 -0.6996  1.6592  1.2897
  888MPD2    H213022   3.934   2.264  15.147 -1.6810 -0.0337 -0.4365
  888MPD2    H313023   3.828   2.362  14.961 -0.6924  1.4250 -0.9967
  888MPD2     N13024   4.008   2.782  15.037 -0.1617 -0.5680  0.5566
  888MPD2    H513025   4.061   2.832  15.106  1.0241 -2.1651  0.8022
  888MPD2    N113026   4.101   2.416  15.308 -0.2681 -0.2664  0.3265
  888MPD2    H713027   4.181   2.476  15.329 -0.5563  0.2230  0.0171
  889MPD2     C13028   3.525   2.066  12.699 -0.6670  0.2605 -0.5582
  889MPD2    C113029   3.451   2.051  12.813  0.2140 -0.3096 -0.4297
  889MPD2    C213030   3.429   2.162  12.891 -0.2652 -0.1757  0.4799
  889MPD2    C313031   3.446   2.291  12.843 -0.3697  0.0894 -0.1187
  889MPD2    C413032   3.491   2.300  12.709 -0.3078  0.3872 -0.3656
  889MPD2    C513033   3.542   2.190  12.647 -0.0862  0.2899 -0.1812
  889MPD2     H13034   3.374   2.141  12.983  0.1339 -1.6078  0.3946
  889MPD2    H113035   3.509   2.394  12.658  0.8931  0.4171  0.1250
  889MPD2    H213036   3.576   1.985  12.648 -0.0861 -0.5739  1.3634
  889MPD2    H313037   3.602   2.196  12.556 -2.8244 -1.9753 -2.1546
  889MPD2     N13038   3.417   2.402  12.923 -0.0096 -0.4296 -0.5313
  889MPD2    H513039   3.380   2.385  13.016  0.6902  2.1474  0.2114
  889MPD2    N113040   3.450   1.924  12.881 -0.4265 -0.1067 -0.5478
  889MPD2    H713041   3.454   1.915  12.982  4.7168 -0.9469 -0.8045
  890MPD2     C13042   2.776   3.911  14.350  0.4586 -0.4188 -0.4772
  890MPD2    C113043   2.852   4.002  14.412  0.5260  0.0606  0.2937
  890MPD2    C213044   2.909   3.964  14.534  0.2221 -0.1544  0.2424
  890MPD2    C313045   2.873   3.844  14.603  0.7902  0.1260  0.5711
  890MPD2    C413046   2.790   3.754  14.535  0.0406  0.5377  0.2373
  890MPD2    C513047   2.747   3.792  14.404  0.2316  0.2630 -0.2000
  890MPD2     H13048   2.980   4.029  14.584  1.5624 -0.9581 -0.6268
  890MPD2    H113049   2.757   3.656  14.567 -0.4037  0.6781  0.2080
  890MPD2    H213050   2.725   3.939  14.259  0.1881  0.4978 -0.0372
  890MPD2    H313051   2.686   3.723  14.346 -2.3218  0.9900  1.5911
  890MPD2     N13052   2.927   3.819  14.731  0.4854 -0.3637 -0.3273
  890MPD2    H513053   3.009   3.876  14.750 -1.1878  1.7246  0.6100
  890MPD2    N113054   2.866   4.123  14.344 -0.2261  0.4396  0.4161
  890MPD2    H713055   2.809   4.138  14.262  1.0463 -1.4757 -0.8000
  891MPD2     C13056   0.942   1.900  16.709 -0.8504  0.3756  0.1579
  891MPD2    C113057   0.882   1.990  16.793 -0.1182  0.9434  0.0852
  891MPD2    C213058   0.961   2.047  16.889  0.0447  0.2899  1.2320
  891MPD2    C313059   1.101   2.024  16.892  0.0145 -0.8016 -0.1216
  891MPD2    C413060   1.157   1.935  16.798 -1.1230  0.8655 -0.2831
  891MPD2    C513061   1.077   1.869  16.716 -0.4894 -0.2969 -0.0038
  891MPD2     H13062   0.919   2.115  16.962 -1.4554  1.7546 -1.0331
  891MPD2    H113063   1.262   1.909  16.794 -0.6935  2.4588  0.3668
  891MPD2    H213064   0.882   1.848  16.636 -1.5336 -0.0724  1.0381
  891MPD2    H313065   1.127   1.813  16.638 -0.1681  0.8998 -0.6624
  891MPD2     N13066   1.178   2.104  16.977  0.1519 -0.3620 -0.0440
  891MPD2    H513067   1.129   2.176  17.029  0.4864  0.1808 -0.4861
  891MPD2    N113068   0.747   2.008  16.775  0.7201 -0.3791  0.3996
  891MPD2    H713069   0.700   1.976  16.691 -0.8071  0.0817  1.0663
  892MPD2     C13070   1.996   3.049  14.769 -0.5012 -0.9025 -0.1314
  892MPD2    C113071   1.894   3.037  14.683  0.0180  0.1502 -0.5338
  892MPD2    C213072   1.899   2.952  14.575  0.5361 -0.2824 -0.0020
  892MPD2    C313073   2.018   2.886  14.530 -0.0331  0.2787 -0.4920
  892MPD2    C413074   2.122   2.907  14.616 -0.2474  0.2694 -0.6418
  892MPD2    C513075   2.103   2.986  14.725 -0.1989  0.6418  0.5078
  892MPD2     H13076   1.811   2.950  14.513  0.3716  0.2026  0.2163
  892MPD2    H113077   2.215   2.853  14.601 -1.1124 -1.9226  1.9385
  892MPD2    H213078   1.997   3.108  14.861  0.2303 -0.8173 -0.1920
  892MPD2    H313079   2.189   3.000  14.790 -0.3682 -0.0582  0.8814
  892MPD2     N13080   2.041   2.815  14.413  0.4448 -0.3232  0.5127
  892MPD2    H513081   2.136   2.781  14.415 -0.3132 -2.4751 -0.1614
  892MPD2    N113082   1.767   3.096  14.710  0.0877 -0.3653 -0.0100
  892MPD2    H713083   1.699   3.105  14.636 -1.2105 -0.1444  1.2121
  893MPD2     C13084   3.433   1.538   2.192 -0.3625  0.4597  0.2141
  893MPD2    C113085   3.438   1.635   2.095 -0.3581 -0.2096  0.2250
  893MPD2    C213086   3.323   1.671   2.026 -0.2116 -0.1921 -0.0601
  893MPD2    C313087   3.198   1.629   2.071  0.4401  0.0540 -0.4404
  893MPD2    C413088   3.194   1.541   2.175 -0.1470 -0.0532  0.8818
  893MPD2    C513089   3.310   1.494   2.238  0.3109  0.0095  0.6421
  893MPD2     H13090   3.327   1.747   1.949  1.0666 -1.9033 -1.6465
  893MPD2    H113091   3.102   1.510   2.223  1.1319 -1.2455  2.5525
  893MPD2    H213092   3.516   1.502   2.251  0.0086 -0.4387 -0.8596
  893MPD2    H313093   3.303   1.426   2.322  1.1212 -0.0326  0.6808
  893MPD2     N13094   3.078   1.687   2.017 -0.6352  0.7621 -0.3272
  893MPD2    H513095   2.990   1.646   2.048  1.5174 -3.4943  0.2235
  893MPD2    N113096   3.558   1.694   2.049 -0.4904  0.1433 -0.0655
  893MPD2    H713097   3.552   1.755   1.969 -1.3785  0.6566  0.3943
  894MPD2     C13098   1.487   3.717   1.189  0.5730  0.4329  0.2226
  894MPD2    C113099   1.498   3.854   1.202  0.0772  0.8588  0.5099
  894MPD2    C213100   1.573   3.921   1.108  0.3607 -0.4357  0.0389
  894MPD2    C313101   1.629   3.848   0.998 -0.1784  0.0987 -0.1200
  894MPD2    C413102   1.611   3.709   0.988  0.0279 -0.1898 -0.5934
  894MPD2    C513103   1.537   3.646   1.089  0.8565  0.2803 -0.0083
  894MPD2     H13104   1.578   4.028   1.123  0.7164 -0.4355 -0.0689
  894MPD2    H113105   1.645   3.657   0.900  0.6376 -2.3093  0.9008
  894MPD2    H213106   1.428   3.653   1.253  0.1453 -0.0090 -0.6198
  894MPD2    H313107   1.525   3.538   1.090 -2.3488  0.6644  1.9030
  894MPD2     N13108   1.703   3.923   0.901 -0.4639 -0.2993 -0.1224
  894MPD2    H513109   1.725   4.021   0.915 -4.8737  0.4537  1.5993
  894MPD2    N113110   1.433   3.930   1.301 -0.1123 -0.0828  0.2725
  894MPD2    H713111   1.436   4.031   1.303  1.4531 -0.0833 -2.9592
  895MPD2     C13112   1.229   2.211  13.152 -0.1918  0.3464 -0.1648
  895MPD2    C113113   1.131   2.142  13.080 -0.4037  0.4780 -1.0900
  895MPD2    C213114   1.150   2.014  13.033  0.4399  0.2683  0.0911
  895MPD2    C313115   1.263   1.948  13.075 -0.6371 -0.7667  0.0973
  895MPD2    C413116   1.361   2.020  13.136 -0.2361 -0.6242 -0.3242
  895MPD2    C513117   1.345   2.150  13.172 -0.2978  1.0507  0.5403
  895MPD2     H13118   1.067   1.974  12.974  0.0723 -0.2590  0.9575
  895MPD2    H113119   1.457   1.976  13.162 -0.2539 -2.0821 -2.7409
  895MPD2    H213120   1.219   2.314  13.187 -0.3821  0.3336 -0.1823
  895MPD2    H313121   1.426   2.204  13.218  2.1794 -0.4853 -2.0314
  895MPD2     N13122   1.271   1.812  13.037 -0.1155 -0.6363 -0.0866
  895MPD2    H513123   1.186   1.768  13.002 -0.3337  0.2751 -0.7256
  895MPD2    N113124   1.004   2.192  13.047 -0.5002 -0.0003  0.1250
  895MPD2    H713125   0.941   2.125  13.003 -0.5610 -0.4282  0.8597
  896MPD2     C13126   3.423   0.357   1.984 -0.1982  0.0555 -0.0876
  896MPD2    C113127   3.394   0.364   1.846 -0.2115 -0.2089 -0.2152
  896MPD2    C213128   3.267   0.365   1.810 -0.0467 -0.5119  0.4347
  896MPD2    C313129   3.158   0.368   1.898  0.1114  0.8581  0.1477
  896MPD2    C413130   3.189   0.371   2.031 -0.4524 -0.1522 -0.4921
  896MPD2    C513131   3.320   0.353   2.073 -0.8833 -0.2808 -0.3429
  896MPD2     H13132   3.242   0.368   1.705  0.0482  1.7000  0.4753
  896MPD2    H113133   3.114   0.359   2.107 -0.6794 -0.3540 -0.7480
  896MPD2    H213134   3.521   0.337   2.025  0.5520  0.8837 -1.4978
  896MPD2    H313135   3.347   0.351   2.178  0.0649 -2.6526 -0.6219
  896MPD2     N13136   3.025   0.363   1.845  0.4984  0.6767 -0.3641
  896MPD2    H513137   3.012   0.375   1.745  0.7056  2.0770 -0.2150
  896MPD2    N113138   3.504   0.383   1.761  0.3248 -0.3111 -0.0914
  896MPD2    H713139   3.594   0.387   1.808 -0.3665 -2.3826  1.4072
  897MPD2     C13140   0.217   2.067  10.788 -0.8167 -0.5732 -0.2416
  897MPD2    C113141   0.200   1.985  10.674  0.1926 -0.0966 -0.2823
  897MPD2    C213142   0.066   1.947  10.645  0.2160  0.5737 -0.2428
  897MPD2    C313143   4.681   1.998  10.709  0.2959 -0.0661  0.0902
  897MPD2    C413144   4.693   2.089  10.812  0.5824 -0.9255 -0.5428
  897MPD2    C513145   0.103   2.127  10.845 -0.5899 -1.0087 -0.1989
  897MPD2     H13146   0.049   1.871  10.570  0.1770  0.3959 -0.0526
  897MPD2    H113147   4.612   2.145  10.858  0.6379 -0.6351 -0.7943
  897MPD2    H213148   0.313   2.072  10.839 -0.2072 -3.2504 -1.0988
  897MPD2    H313149   0.111   2.192  10.932  0.5401 -0.7586 -0.4962
  897MPD2     N13150   4.549   1.959  10.660  0.2260 -0.3479 -0.1634
  897MPD2    H513151   4.556   1.903  10.576 -1.5001  0.3870 -0.8136
  897MPD2    N113152   0.315   1.934  10.613 -0.0235  0.2708  0.5024
  897MPD2    H713153   0.403   1.970  10.647 -0.1693  2.5057 -1.5172
  898MPD2     C13154   1.519   2.544  17.097 -0.8496  0.0754  0.2745
  898MPD2    C113155   1.556   2.641  17.189 -0.0184 -0.1030 -0.6168
  898MPD2    C213156   1.455   2.716  17.241 -0.8220  0.0869  0.2635
  898MPD2    C313157   1.321   2.708  17.188  0.2896  0.3295 -1.1183
  898MPD2    C413158   1.294   2.625  17.084 -0.2147 -0.2929 -0.2814
  898MPD2    C513159   1.391   2.543  17.045 -0.5216 -0.6546  0.2805
  898MPD2     H13160   1.469   2.797  17.311  1.6230 -1.3641  1.4243
  898MPD2    H113161   1.201   2.619  17.029  0.1179  1.2932 -1.0321
  898MPD2    H213162   1.584   2.466  17.059 -1.7245  1.0375 -3.1890
  898MPD2    H313163   1.373   2.474  16.963  0.4515 -0.3104 -0.2239
  898MPD2     N13164   1.220   2.794  17.242  0.6226  0.0418 -0.2910
  898MPD2    H513165   1.240   2.855  17.320  0.7667  1.3136 -1.3287
  898MPD2    N113166   1.685   2.651  17.247 -0.2789 -0.0896 -0.4889
  898MPD2    H713167   1.699   2.715  17.324 -2.1142 -3.7108  2.8186
  899MPD2     C13168   2.903   3.608  17.582  0.7237 -0.0046 -0.2742
  899MPD2    C113169   2.803   3.703  17.582 -0.4424  1.2153 -0.7702
  899MPD2    C213170   2.720   3.695  17.691 -0.9461 -0.6426 -0.5391
  899MPD2    C313171   2.733   3.602   0.105  1.0746  0.9728 -0.4226
  899MPD2    C413172   2.815   3.493   0.090 -0.1860  0.1707 -0.2730
  899MPD2    C513173   2.910   3.511  17.683  0.0458 -0.2650 -0.8934
  899MPD2     H13174   2.636   3.764  17.689 -1.7256 -1.5537  0.7909
  899MPD2    H113175   2.818   3.408   0.157  2.7870  0.7630  0.3604
  899MPD2    H213176   2.977   3.607  17.503 -0.4424 -1.9600 -1.3457
  899MPD2    H313177   2.980   3.429  17.671 -0.7346 -1.3244  1.7443
  899MPD2     N13178   2.655   3.622   0.220  0.4362 -0.2456 -0.7597
  899MPD2    H513179   2.587   3.697   0.214  0.9346  0.1059 -1.9521
  899MPD2    N113180   2.787   3.791  17.471  0.5725  0.7175  0.1512
  899MPD2    H713181   2.864   3.782  17.405  1.2572  1.3820  0.8706
  900MPD2     C13182   2.695   0.545  12.360 -0.8885  0.5678 -0.3616
  900MPD2    C113183   2.623   0.431  12.393 -0.0862 -0.1387 -0.5077
  900MPD2    C213184   2.489   0.438  12.408  0.2560 -0.3438  0.1243
  900MPD2    C313185   2.424   0.555  12.389  0.2560  0.1005 -0.1966
  900MPD2    C413186   2.498   0.677  12.352  0.3024  0.1947 -0.5031
  900MPD2    C513187   2.633   0.666  12.335 -0.6829 -0.0697  0.3186
  900MPD2     H13188   2.437   0.353  12.450 -0.9234  0.3951  0.1299
  900MPD2    H113189   2.454   0.774  12.331 -1.3018 -0.3884  0.2298
  900MPD2    H213190   2.803   0.538  12.361 -1.0170 -1.4351 -0.7731
  900MPD2    H313191   2.695   0.750  12.305 -0.6878 -0.3980 -0.6211
  900MPD2     N13192   2.281   0.544  12.389  0.1003 -0.4743  0.2300
  900MPD2    H513193   2.245   0.449  12.392 -1.0064 -0.0451  0.3429
  900MPD2    N113194   2.688   0.308  12.424 -0.3646  0.2494 -0.0915
  900MPD2    H713195   2.788   0.310  12.408  0.0938 -0.5290  2.7256
  901MPD2     C13196   2.516   4.001  12.769  0.0042 -0.1507  0.0715
  901MPD2    C113197   2.532   4.007  12.633 -0.5188 -0.0229 -0.2002
  901MPD2    C213198   2.574   4.129  12.573 -0.6707  0.0934  0.4973
  901MPD2    C313199   2.584   4.248  12.645  0.6709 -0.3619 -0.1276
  901MPD2    C413200   2.542   4.244  12.780  0.1646  0.6102  0.3124
  901MPD2    C513201   2.514   4.121  12.838  0.0353 -0.1413 -0.7876
  901MPD2     H13202   2.595   4.124  12.467  0.2969  0.2624  0.6789
  901MPD2    H113203   2.557   4.326  12.848 -0.9912 -0.1485  1.4705
  901MPD2    H213204   2.476   3.914  12.820 -1.8304  0.6450  0.0201
  901MPD2    H313205   2.493   4.127  12.944  0.1230  1.4836 -0.8750
  901MPD2     N13206   2.634   4.363  12.579  0.0387  0.3521 -0.2863
  901MPD2    H513207   2.646   4.351  12.478 -1.1504  2.5290 -0.6836
  901MPD2    N113208   2.522   3.879  12.570 -0.0412  0.3843 -0.0753
  901MPD2    H713209   2.499   3.803  12.633  1.7851  0.0636  0.1933
  902MPD2     C13210   0.576   2.823  12.679 -0.1752  0.0546 -0.4022
  902MPD2    C113211   0.662   2.857  12.574  0.1344 -0.7898 -0.3877
  902MPD2    C213212   0.761   2.771  12.542  0.0266 -0.0483  0.2703
  902MPD2    C313213   0.791   2.658  12.626  0.0054 -0.2672  0.5787
  902MPD2    C413214   0.696   2.618  12.718 -0.1319 -0.4525 -0.5288
  902MPD2    C513215   0.594   2.704  12.747  0.5665  0.1078 -0.0680
  902MPD2     H13216   0.827   2.785  12.458 -0.7903 -2.1997 -0.7192
  902MPD2    H113217   0.699   2.530  12.781 -2.1127 -0.3541 -0.2743
  902MPD2    H213218   0.496   2.889  12.713 -1.1253 -0.8672 -0.8489
  902MPD2    H313219   0.521   2.675  12.822  0.5271  0.4957  0.0421
  902MPD2     N13220   0.903   2.575  12.613 -0.7192 -0.0317  0.4369
  902MPD2    H513221   0.907   2.493  12.672  1.0918 -0.4529 -0.2836
  902MPD2    N113222   0.646   2.979  12.506  0.9673 -0.0674 -0.2050
  902MPD2    H713223   0.701   2.992  12.422  2.0630 -1.4979  0.2882
  903MPD2     C13224   1.191   2.582  12.054 -0.6093 -0.4793  0.4696
  903MPD2    C113225   1.203   2.479  12.139  0.2183  0.0132  0.6925
  903MPD2    C213226   1.112   2.372  12.129  0.4859 -0.4615  0.2877
  903MPD2    C313227   1.012   2.375  12.035 -0.0981 -0.1845  0.5563
  903MPD2    C413228   0.997   2.488  11.957  0.0430  0.0619  0.7682
  903MPD2    C513229   1.099   2.584  11.955  0.0385 -0.1693 -0.0475
  903MPD2     H13230   1.107   2.297  12.208  2.8770  0.3433  1.2036
  903MPD2    H113231   0.912   2.501  11.891  0.2272  0.0661  0.5318
  903MPD2    H213232   1.250   2.673  12.059 -0.0311 -0.7307 -1.7695
  903MPD2    H313233   1.114   2.653  11.873  1.9708  1.2875  1.5293
  903MPD2     N13234   0.916   2.277  12.037 -0.5878  0.2817 -0.2155
  903MPD2    H513235   0.930   2.198  12.099 -3.3139  0.8167  1.0485
  903MPD2    N113236   1.307   2.487  12.239  0.5145  0.5410  0.0159
  903MPD2    H713237   1.340   2.581  12.258 -1.2130  0.7449  2.0115
  904MPD2     C13238   0.728   1.457  13.361  1.2718  0.5278  0.6691
  904MPD2    C113239   0.696   1.575  13.419 -0.4666  0.6831  0.3190
  904MPD2    C213240   0.797   1.667  13.451 -0.2869  0.1595  0.1819
  904MPD2    C313241   0.928   1.635  13.428  0.2688 -0.0714 -0.5045
  904MPD2    C413242   0.964   1.513  13.371 -0.7736  0.0754  0.0602
  904MPD2    C513243   0.863   1.425  13.342  0.3557  0.1571 -0.7517
  904MPD2     H13244   0.770   1.767  13.482 -0.7770 -0.1179  0.6532
  904MPD2    H113245   1.067   1.491  13.345 -0.5605  0.3209  0.7193
  904MPD2    H213246   0.655   1.385  13.326  1.0088 -0.1284  2.5348
  904MPD2    H313247   0.882   1.334  13.285 -2.6307 -0.7777 -0.2478
  904MPD2     N13248   1.016   1.746  13.455 -0.2562  0.3969  0.2784
  904MPD2    H513249   0.981   1.820  13.515  1.2547  0.6177  0.8826
  904MPD2    N113250   0.559   1.611  13.407  0.2546  0.5137  0.2503
  904MPD2    H713251   0.499   1.540  13.366  1.4755 -0.3688 -0.0381
  905MPD2     C13252   0.527   1.375  12.949  1.0667 -0.0207 -0.5143
  905MPD2    C113253   0.594   1.491  12.993  0.4117  0.1338  0.1904
  905MPD2    C213254   0.730   1.503  12.996  0.0751 -0.2027  0.0188
  905MPD2    C313255   0.799   1.391  12.957  0.9132  0.7845 -0.0124
  905MPD2    C413256   0.741   1.273  12.915 -0.1252 -0.3545  0.2350
  905MPD2    C513257   0.605   1.264  12.913  0.0286 -0.5004  0.6836
  905MPD2     H13258   0.788   1.588  13.030  0.7995 -0.9184  0.5750
  905MPD2    H113259   0.806   1.189  12.892 -0.9628 -0.6863 -0.9140
  905MPD2    H213260   0.421   1.370  12.928  0.7386 -0.9674  1.4127
  905MPD2    H313261   0.561   1.175  12.870 -2.8724  1.6125 -0.7000
  905MPD2     N13262   0.938   1.385  12.964  0.9616  0.1668 -0.6876
  905MPD2    H513263   0.970   1.299  12.921 -1.4707 -1.3654  0.5630
  905MPD2    N113264   0.505   1.601  13.036  0.7467  0.8653  0.3390
  905MPD2    H713265   0.406   1.586  13.052  0.8679  0.7529  0.9873
  906MPD2     C13266   3.134   1.581  11.357 -0.0165 -0.0372 -0.0227
  906MPD2    C113267   3.038   1.588  11.252 -0.5817 -0.0752  0.3749
  906MPD2    C213268   2.923   1.523  11.273  0.3545 -0.5621  0.4179
  906MPD2    C313269   2.893   1.453  11.393  0.1563  0.2663  0.1057
  906MPD2    C413270   2.991   1.446  11.491 -0.0196  0.4547 -0.0001
  906MPD2    C513271   3.110   1.512  11.472  0.2014  0.0365  0.2156
  906MPD2     H13272   2.856   1.522  11.188 -0.5124 -1.3246  1.0988
  906MPD2    H113273   2.972   1.390  11.582  1.4329 -0.4863 -0.2758
  906MPD2    H213274   3.226   1.639  11.362 -0.0007 -0.1746  1.3847
  906MPD2    H313275   3.183   1.510  11.553  0.2559 -1.2370  0.1357
  906MPD2     N13276   2.771   1.382  11.413  0.0385  0.0745  0.5409
  906MPD2    H513277   2.772   1.317  11.491  1.7226 -0.0357  0.4153
  906MPD2    N113278   3.074   1.630  11.123 -0.1089  0.4524  0.5937
  906MPD2    H713279   3.011   1.621  11.044 -0.1214 -0.8215  0.7614
  907MPD2     C13280   1.616   1.185  15.073 -0.1783  0.2576 -0.7040
  907MPD2    C113281   1.645   1.055  15.102 -0.5432 -0.5992 -0.0791
  907MPD2    C213282   1.690   1.029  15.230 -0.4919  0.3339 -0.1538
  907MPD2    C313283   1.715   1.130  15.319  0.2834  0.7005  0.9063
  907MPD2    C413284   1.686   1.259  15.288 -0.7089 -0.0972 -0.5392
  907MPD2    C513285   1.647   1.293  15.156  0.2309 -0.2871 -0.0910
  907MPD2     H13286   1.718   0.932  15.269 -0.3437  0.8801  1.1038
  907MPD2    H113287   1.693   1.337  15.363  2.2011  2.1052 -3.1149
  907MPD2    H213288   1.577   1.203  14.974 -1.4430 -0.3994 -0.3319
  907MPD2    H313289   1.622   1.396  15.135 -0.2622 -0.0551  1.6670
  907MPD2     N13290   1.772   1.088  15.438 -0.2159  0.0856  0.2498
  907MPD2    H513291   1.803   0.993  15.452  2.1640  0.5357 -1.8489
  907MPD2    N113292   1.625   0.948  15.017 -0.1963 -0.3032  0.0586
  907MPD2    H713293   1.658   0.862  15.060  0.4008 -0.5426 -0.8922
  908MPD2     C13294   0.323   1.717   9.691  0.2102  0.5171 -0.2467
  908MPD2    C113295   0.246   1.661   9.783  0.8262  0.1703 -0.2669
  908MPD2    C213296   0.297   1.625   9.911  0.0391 -0.3048  0.6568
  908MPD2    C313297   0.420   1.669   9.944 -0.5133  0.4864 -0.1594
  908MPD2    C413298   0.500   1.731   9.849 -0.6281 -0.2393 -0.0829
  908MPD2    C513299   0.449   1.759   9.725 -0.3859 -0.2004 -0.6107
  908MPD2     H13300   0.233   1.569   9.979 -3.4616  0.0440 -2.3328
  908MPD2    H113301   0.598   1.761   9.883 -1.2475 -0.6038  2.0091
  908MPD2    H213302   0.296   1.727   9.586 -1.2952 -1.8067 -0.0721
  908MPD2    H313303   0.514   1.804   9.651 -1.8009 -0.0576 -1.7787
  908MPD2     N13304   0.464   1.648  10.076  0.2569  0.2612  0.5860
  908MPD2    H513305   0.392   1.609  10.136 -1.1924 -0.5522 -1.6730
  908MPD2    N113306   0.120   1.606   9.750  0.0986  0.0992  0.3785
  908MPD2    H713307   0.085   1.521   9.792  1.5302 -0.0534  1.2351
  909MPD2     C13308   0.494   4.329  12.030  0.0135  0.1637  0.3066
  909MPD2    C113309   0.445   4.379  11.913 -0.1591  1.0234 -0.1270
  909MPD2    C213310   0.322   4.447  11.909 -0.4379  0.4739 -0.3540
  909MPD2    C313311   0.250   4.460  12.028 -0.3580 -0.9871 -0.2922
  909MPD2    C413312   0.305   4.411  12.147  0.1039  0.2561  0.5451
  909MPD2    C513313   0.421   4.347  12.147 -0.0661  0.3550  0.0292
  909MPD2     H13314   0.275   4.462  11.813  0.2121 -0.0588 -0.7462
  909MPD2    H113315   0.247   4.409  12.238  0.5603 -0.2562  0.8269
  909MPD2    H213316   0.592   4.281  12.028  0.2944  0.6937  1.2269
  909MPD2    H313317   0.471   4.316  12.239  0.5665 -3.2523 -1.5274
  909MPD2     N13318   0.113   4.512  12.038 -0.6559  0.3214  0.0006
  909MPD2    H513319   0.068   4.496  12.127  0.2902 -0.5971  0.3052
  909MPD2    N113320   0.510   4.350  11.790 -0.4308  0.3287 -0.5690
  909MPD2    H713321   0.461   4.374  11.704 -1.1303 -2.0955 -0.8383
  910MPD2     C13322   1.412   1.569  15.372 -0.2066  0.2573  0.1794
  910MPD2    C113323   1.378   1.434  15.361  0.3920  0.3728 -0.3175
  910MPD2    C213324   1.341   1.374  15.243  0.8580  0.7743 -0.3596
  910MPD2    C313325   1.348   1.446  15.122  0.0096  0.7479  0.0226
  910MPD2    C413326   1.380   1.580  15.133  0.8411  0.9787  0.0831
  910MPD2    C513327   1.417   1.644  15.256 -0.1548  0.4539  0.4627
  910MPD2     H13328   1.324   1.267  15.241  0.7408  0.7533  1.7170
  910MPD2    H113329   1.384   1.635  15.039 -1.9948 -0.0510 -0.6338
  910MPD2    H213330   1.453   1.618  15.460 -2.1764 -0.0897  1.3007
  910MPD2    H313331   1.427   1.751  15.266  0.5877  0.3459  0.8654
  910MPD2     N13332   1.311   1.393  14.998 -0.2421  0.3651 -0.2021
  910MPD2    H513333   1.319   1.453  14.916  2.3865  0.9786  0.4990
  910MPD2    N113334   1.385   1.352  15.473 -0.4458  0.0830 -0.4170
  910MPD2    H713335   1.382   1.253  15.451 -3.5077  0.1835 -0.4157
  911MPD2     C13336   3.782   2.345  16.116 -0.7397  0.0156  0.0069
  911MPD2    C113337   3.868   2.452  16.142 -0.2979 -0.2674 -0.0628
  911MPD2    C213338   3.845   2.576  16.083 -0.2632 -0.6035  0.4125
  911MPD2    C313339   3.732   2.588  16.001 -0.0420 -0.0541  0.3395
  911MPD2    C413340   3.654   2.483  15.971  0.1275 -0.2203 -0.2932
  911MPD2    C513341   3.674   2.359  16.032  0.4602  0.1450  0.3775
  911MPD2     H13342   3.912   2.659  16.099 -0.6447 -0.0325 -0.9428
  911MPD2    H113343   3.572   2.490  15.901  0.2297 -0.6010 -0.4514
  911MPD2    H213344   3.806   2.247  16.155 -2.6113 -0.3585  0.2561
  911MPD2    H313345   3.607   2.276  16.017 -0.0629  0.6465 -0.0792
  911MPD2     N13346   3.690   2.701  15.934  0.4181 -0.3084  0.0910
  911MPD2    H513347   3.616   2.692  15.866  1.1482 -1.3147 -0.5725
  911MPD2    N113348   3.978   2.425  16.227  0.7265 -0.5850  0.5178
  911MPD2    H713349   3.977   2.329  16.260 -4.7271 -0.6959  0.0495
  912MPD2     C13350   3.650   2.409  15.397 -0.1988 -0.5230  0.2267
  912MPD2    C113351   3.602   2.463  15.512 -0.8439  0.1664  0.6099
  912MPD2    C213352   3.570   2.370  15.614 -0.6985  0.3739  0.5554
  912MPD2    C313353   3.586   2.231  15.601  0.7239 -0.8964  0.8508
  912MPD2    C413354   3.637   2.189  15.480  0.2046 -0.3136  0.1165
  912MPD2    C513355   3.676   2.279  15.385 -0.6262 -0.2487  0.1993
  912MPD2     H13356   3.531   2.412  15.706 -0.1090 -3.1688  2.4496
  912MPD2    H113357   3.650   2.084  15.460  1.4770 -0.5363  2.0397
  912MPD2    H213358   3.672   2.475  15.314  1.0965  0.5500  1.4197
  912MPD2    H313359   3.703   2.242  15.287 -0.5205  3.5351 -1.1897
  912MPD2     N13360   3.552   2.139  15.700 -0.0790  0.8945 -0.2716
  912MPD2    H513361   3.492   2.175  15.774 -0.4920  0.6377 -0.4813
  912MPD2    N113362   3.592   2.601  15.529 -0.1610 -0.6363  0.6442
  912MPD2    H713363   3.604   2.651  15.442 -2.7571 -0.6547  0.2845
  913MPD2     C13364   0.136   2.785  10.921  0.4604  1.0144  0.0772
  913MPD2    C113365   0.188   2.905  10.957 -0.1017 -0.5898  0.3685
  913MPD2    C213366   0.278   2.972  10.875  0.3448  0.1198 -0.1299
  913MPD2    C313367   0.329   2.911  10.765  0.7846 -0.6675  0.8752
  913MPD2    C413368   0.280   2.786  10.735  0.5103 -0.3890  0.2689
  913MPD2    C513369   0.176   2.728  10.804  0.0264  0.4113 -0.1793
  913MPD2     H13370   0.327   3.064  10.905  1.0812  0.4749 -2.4323
  913MPD2    H113371   0.311   2.732  10.646  1.5809 -0.8149  0.8895
  913MPD2    H213372   0.061   2.736  10.981  2.4896  0.4460  2.1635
  913MPD2    H313373   0.140   2.632  10.770 -0.9769  0.0675  1.8994
  913MPD2     N13374   0.426   2.976  10.683  0.0065  0.0985  0.8125
  913MPD2    H513375   0.475   2.919  10.616 -0.0742  0.8227  0.1277
  913MPD2    N113376   0.152   2.945  11.090 -0.3059  0.0736 -0.2789
  913MPD2    H713377   0.100   2.878  11.146  0.4740 -0.5707 -0.3202
  914MPD2     C13378   2.039   3.478  11.791 -0.0935  0.4006 -0.0166
  914MPD2    C113379   2.109   3.599  11.801 -0.9553 -0.1205  0.3339
  914MPD2    C213380   2.199   3.616  11.905  0.0984  0.2322 -0.8623
  914MPD2    C313381   2.238   3.513  11.989  0.1808 -0.3486  0.1912
  914MPD2    C413382   2.171   3.395  11.971 -0.2683 -0.3919  0.6563
  914MPD2    C513383   2.068   3.385  11.882 -0.3912 -0.3963  0.0852
  914MPD2     H13384   2.239   3.716  11.920  0.3850 -0.1155  0.7783
  914MPD2    H113385   2.187   3.308  12.033  1.1779 -0.8865 -0.3986
  914MPD2    H213386   1.962   3.467  11.715  0.5038  1.0564 -0.7294
  914MPD2    H313387   2.007   3.296  11.875  2.3730 -2.3594  0.8584
  914MPD2     N13388   2.345   3.549  12.084  0.6175 -0.6367  0.1436
  914MPD2    H513389   2.375   3.646  12.089  1.2334 -0.8465  0.5975
  914MPD2    N113390   2.058   3.703  11.722 -0.1853 -0.1640 -0.9008
  914MPD2    H713391   1.997   3.668  11.649 -0.9032  1.2902 -1.0142
  915MPD2     C13392   0.629   3.574  15.475  0.5011  0.2028  0.3801
  915MPD2    C113393   0.497   3.607  15.456  0.0368 -0.0276  0.1396
  915MPD2    C213394   0.441   3.697  15.545 -0.4631  0.4485 -0.2709
  915MPD2    C313395   0.512   3.758  15.642 -0.4149  0.1354 -0.7106
  915MPD2    C413396   0.651   3.738  15.643  0.8596  0.1846  0.6349
  915MPD2    C513397   0.705   3.634  15.568 -0.8518  0.6559 -0.2759
  915MPD2     H13398   0.336   3.722  15.537 -0.3864  0.8414 -0.0548
  915MPD2    H113399   0.703   3.789  15.722  1.3857  1.0351 -0.2607
  915MPD2    H213400   0.677   3.512  15.399 -0.1325  2.5606 -1.9493
  915MPD2    H313401   0.809   3.606  15.582 -0.7449 -0.1997 -2.6322
  915MPD2     N13402   0.449   3.834  15.741  0.0668  0.6149  0.1936
  915MPD2    H513403   0.349   3.820  15.743  0.1910 -0.1161  2.4019
  915MPD2    N113404   0.413   3.550  15.354  0.6737 -0.0168  0.0469
  915MPD2    H713405   0.320   3.585  15.334  0.7411 -0.3450 -0.8165
  916MPD2     C13406   3.259   1.983  15.533 -0.5170  0.7173  0.4661
  916MPD2    C113407   3.236   1.862  15.597  0.2296 -0.3181  0.8278
  916MPD2    C213408   3.303   1.746  15.551  0.9519 -0.5362 -0.9733
  916MPD2    C313409   3.406   1.758  15.456  0.4116  0.0531  0.3492
  916MPD2    C413410   3.423   1.877  15.393 -0.1421  0.1727 -0.0147
  916MPD2    C513411   3.345   1.985  15.428 -0.0735  0.2574 -0.0793
  916MPD2     H13412   3.295   1.649  15.600 -0.3265 -0.4503 -1.0181
  916MPD2    H113413   3.501   1.898  15.320 -0.0536 -1.3395 -0.3504
  916MPD2    H213414   3.210   2.076  15.560 -1.4901  0.3017  0.1376
  916MPD2    H313415   3.375   2.070  15.367 -0.7778  0.0598 -0.7042
  916MPD2     N13416   3.481   1.650  15.421  0.1969 -0.2076  0.1144
  916MPD2    H513417   3.460   1.569  15.478  0.3497 -0.7803 -0.6435
  916MPD2    N113418   3.158   1.866  15.711 -0.3218  0.1008  0.0856
  916MPD2    H713419   3.144   1.957  15.753  0.1526 -0.1207  0.7264
  917MPD2     C13420   4.336   4.313  11.356  0.4470 -0.4971  0.3352
  917MPD2    C113421   4.242   4.343  11.263  0.0090 -0.0297 -0.4156
  917MPD2    C213422   4.270   4.441  11.168  0.4326 -0.2332 -0.8380
  917MPD2    C313423   4.392   4.504  11.170  0.7782  0.7703 -0.0271
  917MPD2    C413424   4.494   4.469  11.261 -0.4308 -0.5520 -1.2070
  917MPD2    C513425   4.458   4.376  11.355  0.0177  0.2032  0.1858
  917MPD2     H13426   4.197   4.473  11.094  0.1991 -0.3781 -0.6711
  917MPD2    H113427   4.590   4.518  11.278  0.0793 -1.5409 -1.2269
  917MPD2    H213428   4.315   4.238  11.431 -1.5628  0.2117  0.4574
  917MPD2    H313429   4.529   4.355  11.434 -0.5837 -2.4092  0.0354
  917MPD2     N13430   4.434   4.609  11.078 -0.3070  0.3204 -0.0266
  917MPD2    H513431   4.533   4.630  11.089 -0.3942  0.8369 -0.2115
  917MPD2    N113432   4.122   4.271  11.270  0.0936 -0.0883  0.0654
  917MPD2    H713433   4.104   4.227  11.359 -0.4046 -0.5711 -0.2783
  918MPD2     C13434   3.781   4.489  12.000 -0.6172 -0.1901  0.0528
  918MPD2    C113435   3.865   4.380  11.975  0.0610 -0.0933  0.2780
  918MPD2    C213436   3.875   4.334  11.845 -0.4264  0.3166 -0.4425
  918MPD2    C313437   3.786   4.373  11.747 -0.2778  0.2761 -0.6970
  918MPD2    C413438   3.701   4.476  11.772 -0.7797  0.4088  1.0630
  918MPD2    C513439   3.700   4.534  11.898 -0.5812  0.1078 -0.1338
  918MPD2     H13440   3.964   4.279  11.818  0.3971  1.0372  0.7909
  918MPD2    H113441   3.639   4.524  11.697 -1.9127  1.0630  2.4363
  918MPD2    H213442   3.775   4.533  12.098 -0.1233 -1.2117  0.5361
  918MPD2    H313443   3.632   4.618  11.910 -0.2129  0.3555  0.2160
  918MPD2     N13444   3.798   4.303  11.623  0.0863  0.0214 -0.8114
  918MPD2    H513445   3.877   4.243  11.605  0.0767 -0.5293  0.9686
  918MPD2    N113446   3.959   4.331  12.069 -0.3377 -0.1433 -0.1674
  918MPD2    H713447   4.024   4.267  12.025 -0.5760  0.3952 -1.2903
  919MPD2     C13448   4.374   3.197  11.338 -0.6347 -0.1493 -0.9334
  919MPD2    C113449   4.446   3.098  11.265 -0.7524  0.1224  0.5205
  919MPD2    C213450   4.523   3.139  11.152  0.5876  0.3357  0.1374
  919MPD2    C313451   4.506   3.267  11.104 -0.6151 -0.4235 -0.0406
  919MPD2    C413452   4.435   3.355  11.171 -0.4605 -0.0400  0.6466
  919MPD2    C513453   4.363   3.325  11.287 -0.3355 -0.5393 -0.0615
  919MPD2     H13454   4.577   3.057  11.108 -0.7583 -0.3720 -0.1967
  919MPD2    H113455   4.419   3.454  11.131  0.7203 -0.5747 -1.1176
  919MPD2    H213456   4.309   3.170  11.420  0.7878 -1.8679 -0.3665
  919MPD2    H313457   4.299   3.392  11.342  3.2657  1.3025  1.8544
  919MPD2     N13458   4.550   3.302  10.979 -0.4565 -0.0869  0.0917
  919MPD2    H513459   4.525   3.395  10.947  0.8659  0.3730  0.3914
  919MPD2    N113460   4.455   2.974  11.332 -0.8567  0.3456  0.1699
  919MPD2    H713461   4.420   2.969  11.427 -0.6538  0.9750  0.2816
  920MPD2     C13462   3.954   3.477  10.371  0.3054  0.9467 -0.4738
  920MPD2    C113463   3.959   3.418  10.494  0.5847  0.2744 -0.8179
  920MPD2    C213464   4.076   3.425  10.567 -0.4336  0.4668  0.1531
  920MPD2    C313465   4.187   3.479  10.519  0.2375 -0.2931 -0.5112
  920MPD2    C413466   4.187   3.526  10.386  0.5152 -0.0039  0.2517
  920MPD2    C513467   4.067   3.520  10.313  0.5869 -0.5189 -0.1461
  920MPD2     H13468   4.081   3.399  10.672  0.3097  0.6758  0.1698
  920MPD2    H113469   4.278   3.577  10.357  0.3725  1.0071  1.5716
  920MPD2    H213470   3.865   3.497  10.312 -0.6903  2.2747  1.4505
  920MPD2    H313471   4.064   3.569  10.217 -0.2715 -0.7033 -0.2132
  920MPD2     N13472   4.306   3.468  10.604  0.5455  0.0218  0.0169
  920MPD2    H513473   4.296   3.420  10.693  0.3129  0.0584  0.0090
  920MPD2    N113474   3.852   3.360  10.556  0.1169  0.4417  0.0957
  920MPD2    H713475   3.863   3.317  10.647  0.3663  0.3688  0.0309
  921MPD2     C13476   0.045   2.535  16.975  0.0734  0.1835 -0.8411
  921MPD2    C113477   0.095   2.464  16.869  0.5818  0.4956 -0.2720
  921MPD2    C213478   0.027   2.473  16.746  0.3977 -0.2028  0.4548
  921MPD2    C313479   4.627   2.538  16.733  0.2859  0.4286  0.0399
  921MPD2    C413480   4.583   2.616  16.842 -0.2045  0.2752  0.2456
  921MPD2    C513481   4.657   2.611  16.959  0.3844  0.4059  0.1345
  921MPD2     H13482   0.064   2.419  16.660 -1.9540 -3.1299  1.2741
  921MPD2    H113483   4.493   2.677  16.846  0.6487  1.4399  1.3950
  921MPD2    H213484   0.100   2.544  17.068 -0.2359  1.2776 -0.7634
  921MPD2    H313485   4.629   2.675  17.042 -0.2363  1.1016 -0.6111
  921MPD2     N13486   4.550   2.522  16.617  0.4652 -0.2896 -0.1012
  921MPD2    H513487   4.597   2.470  16.545  1.6751  1.8670 -0.8767
  921MPD2    N113488   0.202   2.373  16.893  0.2668 -0.0912  0.1857
  921MPD2    H713489   0.230   2.361  16.990 -0.5892  0.2451  0.4718
  922MPD2     C13490   0.447   4.547   0.309 -0.1312 -0.3111  0.2509
  922MPD2    C113491   0.452   4.671   0.253 -0.0399  0.0737  0.5761
  922MPD2    C213492   0.440   4.686   0.117  0.2676  0.2462 -0.0986
  922MPD2    C313493   0.426   4.575   0.038  0.8139  0.1713  0.1761
  922MPD2    C413494   0.432   4.450   0.091 -0.1286  0.4886 -0.4086
  922MPD2    C513495   0.432   4.438   0.223 -0.0151 -0.0336 -0.3776
  922MPD2     H13496   0.447   0.064   0.077  0.6786 -0.0080 -0.6681
  922MPD2    H113497   0.416   4.364   0.027  2.5032 -1.6358  1.8220
  922MPD2    H213498   0.437   4.527   0.415 -0.1077 -0.5853  0.2011
  922MPD2    H313499   0.431   4.341   0.273  1.7255  0.2803  0.2652
  922MPD2     N13500   0.411   4.603  17.591  0.0719  0.2495 -0.9986
  922MPD2    H513501   0.406   4.701  17.564  1.1298  0.6083  0.1285
  922MPD2    N113502   0.466   0.066   0.326  0.2227  0.0348  0.2997
  922MPD2    H713503   0.504   0.145   0.274  1.6703 -0.2116  0.9701
  923MPD2     C13504   2.800   0.831   8.847 -0.5030 -0.0365  0.3174
  923MPD2    C113505   2.815   0.968   8.871 -0.3155 -0.3042  0.0935
  923MPD2    C213506   2.898   1.008   8.982 -0.2819 -0.5066 -0.4516
  923MPD2    C313507   2.965   0.917   9.061  0.0456  0.4203 -0.0527
  923MPD2    C413508   2.943   0.782   9.035 -0.0472 -0.2640  0.4098
  923MPD2    C513509   2.854   0.741   8.933 -0.3501  0.3079  0.6754
  923MPD2     H13510   2.915   1.109   9.015 -1.9616 -0.4650  0.3096
  923MPD2    H113511   2.979   0.703   9.100  1.2164 -1.0772 -1.2972
  923MPD2    H213512   2.726   0.801   8.774 -0.2617 -1.3867  0.6302
  923MPD2    H313513   2.830   0.637   8.917  1.9083 -0.3601  1.5007
  923MPD2     N13514   3.033   0.941   9.181  1.1867 -0.1871 -0.6169
  923MPD2    H513515   3.041   0.871   9.254 -0.8360 -0.6706 -0.8534
  923MPD2    N113516   2.750   1.051   8.781 -0.2230  0.2770  0.2618
  923MPD2    H713517   2.676   1.013   8.722  0.3034 -1.9051  1.0008
  924MPD2     C13518   2.216   0.335  15.839 -0.8365  0.6109  0.9729
  924MPD2    C113519   2.169   0.399  15.954 -0.2657  0.4786  0.5038
  924MPD2    C213520   2.133   0.535  15.947 -0.0768  0.3907 -0.4890
  924MPD2    C313521   2.130   0.593  15.817 -0.0779 -0.7501  0.2822
  924MPD2    C413522   2.182   0.526  15.713 -0.0596  0.1760 -0.4965
  924MPD2    C513523   2.227   0.396  15.724  0.0237 -0.2066  0.5577
  924MPD2     H13524   2.086   0.578  16.035 -0.2974  0.8143 -0.8139
  924MPD2    H113525   2.182   0.559  15.610  1.1077  1.2084 -0.1726
  924MPD2    H213526   2.229   0.227  15.834  0.9426  0.8178  0.8901
  924MPD2    H313527   2.251   0.339  15.634 -2.2527 -0.4225  0.0939
  924MPD2     N13528   2.080   0.727  15.818 -0.0209  0.0067  0.4331
  924MPD2    H513529   2.087   0.771  15.909 -1.0040 -2.0632  1.5116
  924MPD2    N113530   2.142   0.320  16.069  0.2513  0.0603  0.5563
  924MPD2    H713531   2.143   0.221  16.047 -1.1569 -0.3609  2.4348
  925MPD2     C13532   0.810   2.987  15.071 -0.3390  1.1420  0.6793
  925MPD2    C113533   0.719   2.911  14.992 -0.4476  0.5492 -0.1717
  925MPD2    C213534   0.658   2.794  15.043  0.1146  0.9749  0.4283
  925MPD2    C313535   0.672   2.760  15.179 -0.1453 -0.5482 -0.4939
  925MPD2    C413536   0.770   2.826  15.254 -0.5682  0.1788 -0.0245
  925MPD2    C513537   0.831   2.932  15.194  0.1615  0.5461 -0.2093
  925MPD2     H13538   0.604   2.728  14.976  0.2862  1.4503 -0.1828
  925MPD2    H113539   0.795   2.801  15.357  0.5669  1.1930 -0.0542
  925MPD2    H213540   0.863   3.075  15.037 -0.6506  0.9990 -0.1940
  925MPD2    H313541   0.911   2.977  15.251  1.0012 -2.7512  1.1916
  925MPD2     N13542   0.589   2.669  15.244  0.6145  0.0686 -0.2262
  925MPD2    H513543   0.600   2.666  15.345  2.0410 -0.3898 -0.3970
  925MPD2    N113544   0.679   2.937  14.865 -0.2998  0.5096 -0.2590
  925MPD2    H713545   0.614   2.868  14.828  0.7781 -0.6636  0.0397
  926MPD2     C13546   4.573   1.227  13.417  0.3586 -0.6059  0.4353
  926MPD2    C113547   4.480   1.326  13.421  0.1241  0.7874 -0.3588
  926MPD2    C213548   4.466   1.415  13.313 -0.5153 -0.1072 -0.3417
  926MPD2    C313549   4.537   1.391  13.197 -0.3701 -0.6803 -0.7500
  926MPD2    C413550   4.638   1.294  13.194  0.0630 -0.0169  0.0375
  926MPD2    C513551   4.656   1.211  13.301 -0.0818  0.4710  0.3700
  926MPD2     H13552   4.383   1.485  13.312 -0.8133 -0.4814 -1.2000
  926MPD2    H113553   4.694   1.266  13.104  0.3450 -0.0211  0.2143
  926MPD2    H213554   4.593   1.158  13.498  2.1673  0.3810  0.8319
  926MPD2    H313555   0.019   1.146  13.286 -0.7975 -0.3810 -0.0449
  926MPD2     N13556   4.508   1.465  13.083 -0.5005 -0.5676  0.2209
  926MPD2    H513557   4.569   1.448  13.004 -0.5374  3.4418 -0.6700
  926MPD2    N113558   4.393   1.344  13.528 -0.3032  0.1194  0.7763
  926MPD2    H713559   4.323   1.416  13.513  0.7771  0.5823 -2.1326
  927MPD2     C13560   4.664   4.025   0.821  0.0131 -0.0388 -0.4191
  927MPD2    C113561   4.571   4.111   0.764  0.7946 -0.0641  0.2404
  927MPD2    C213562   4.508   4.072   0.647 -0.1199  0.6149  0.0884
  927MPD2    C313563   4.528   3.948   0.588 -0.2153 -0.6110  0.0028
  927MPD2    C413564   4.610   3.862   0.652  0.2518 -0.3360  0.0352
  927MPD2    C513565   4.674   3.901   0.765  0.4470  0.2692  0.4515
  927MPD2     H13566   4.437   4.138   0.598 -1.5923  0.2261  1.6718
  927MPD2    H113567   4.623   3.761   0.613  3.3560 -0.4571  1.4156
  927MPD2    H213568   4.715   4.050   0.913  1.4513  1.0897 -1.5367
  927MPD2    H313569   0.020   3.831   0.812 -0.0290 -1.5380 -1.4963
  927MPD2     N13570   4.456   3.911   0.470  0.4539  0.3130  0.4069
  927MPD2    H513571   4.388   3.979   0.440 -0.0801  0.2907  1.5981
  927MPD2    N113572   4.539   4.222   0.845  0.6431 -0.2036  0.1402
  927MPD2    H713573   4.579   4.236   0.938 -1.8240  1.3392  0.9828
  928MPD2     C13574   2.976   2.165   1.136 -0.1802  0.3951  0.5147
  928MPD2    C113575   2.936   2.295   1.167 -0.3129 -0.6182 -0.1892
  928MPD2    C213576   2.906   2.384   1.062 -0.0674  0.7992 -0.0114
  928MPD2    C313577   2.928   2.353   0.926 -0.5092 -0.1122 -0.4214
  928MPD2    C413578   2.991   2.232   0.909  0.5654  0.3810  0.1269
  928MPD2    C513579   3.017   2.141   1.007 -0.2206  0.5217 -0.4707
  928MPD2     H13580   2.866   2.483   1.076 -0.0715  0.7507  0.3334
  928MPD2    H113581   3.018   2.201   0.808  2.4810 -0.0433  0.7629
  928MPD2    H213582   3.001   2.098   1.218  0.9084 -0.4245 -0.4881
  928MPD2    H313583   3.054   2.041   0.985 -1.6810 -0.3393  0.9814
  928MPD2     N13584   2.900   2.439   0.815  0.0357 -0.1732  0.1591
  928MPD2    H513585   2.918   2.406   0.721 -1.9864  0.0144 -0.2821
  928MPD2    N113586   2.905   2.308   1.301  0.0993 -0.5698  0.1196
  928MPD2    H713587   2.938   2.234   1.363  1.7624  0.9098  0.9894
  929MPD2     C13588   2.563   1.556  10.565  0.5388 -0.4610 -0.2497
  929MPD2    C113589   2.472   1.524  10.467 -0.1512 -0.3705 -0.6649
  929MPD2    C213590   2.483   1.577  10.342  0.3267 -0.9460  0.0903
  929MPD2    C313591   2.574   1.684  10.324  0.2330 -0.5314  0.6404
  929MPD2    C413592   2.667   1.712  10.419 -0.5851 -0.0907  0.2416
  929MPD2    C513593   2.664   1.647  10.541 -0.2295  0.9555 -0.6424
  929MPD2     H13594   2.401   1.559  10.273 -0.1999 -0.2124  0.5289
  929MPD2    H113595   2.738   1.793  10.401 -1.2708  0.7453  1.3001
  929MPD2    H213596   2.562   1.496  10.655 -0.7712  1.3931  0.9885
  929MPD2    H313597   2.743   1.653  10.616  1.3605 -3.2081 -2.0163
  929MPD2     N13598   2.565   1.772  10.217  0.3249 -0.5563  0.3814
  929MPD2    H513599   2.619   1.857  10.214  0.5743 -0.7418 -0.4576
  929MPD2    N113600   2.362   1.447  10.513  0.3388 -0.1253  0.1198
  929MPD2    H713601   2.359   1.435  10.614  1.1266 -2.0355 -0.0882
  930MPD2     C13602   4.028   4.258  14.114  0.6940  0.7810  0.0713
  930MPD2    C113603   3.965   4.320  14.005 -0.2281 -0.5601 -0.5340
  930MPD2    C213604   3.885   4.241  13.926 -0.0361  0.3154  0.2418
  930MPD2    C313605   3.850   4.109  13.965  0.2641 -0.1273 -0.3309
  930MPD2    C413606   3.900   4.063  14.082  0.1664 -0.2010  0.3341
  930MPD2    C513607   3.993   4.133  14.149 -0.0661  0.1921  0.0987
  930MPD2     H13608   3.841   4.284  13.837 -1.9547  0.5544  1.3093
  930MPD2    H113609   3.869   3.964  14.113  0.3678 -1.0559 -2.1536
  930MPD2    H213610   4.104   4.314  14.166  0.5017  1.5236 -0.4419
  930MPD2    H313611   4.035   4.085  14.237  1.8938 -0.6242 -1.2749
  930MPD2     N13612   3.777   4.023  13.885 -0.2243  0.0773 -0.5424
  930MPD2    H513613   3.807   3.928  13.904 -1.1768 -0.0759  0.1774
  930MPD2    N113614   4.012   4.445  13.964  0.7579 -0.2753 -0.5766
  930MPD2    H713615   4.077   4.492  14.027 -1.4906 -0.6180  2.0171
  931MPD2     C13616   4.705   4.155   1.440  0.3954  0.4876  0.3966
  931MPD2    C113617   4.564   4.175   1.426 -0.7219  0.1126  0.5165
  931MPD2    C213618   4.479   4.096   1.505 -0.0167 -0.5040 -0.8361
  931MPD2    C313619   4.523   3.985   1.574 -0.1176  0.3864 -0.1551
  931MPD2    C413620   4.657   3.968   1.585 -0.4087  0.3344  0.9569
  931MPD2    C513621   0.022   4.053   1.518 -0.0084 -0.3841  1.1665
  931MPD2     H13622   4.375   4.095   1.472  0.1692 -0.1211 -1.4410
  931MPD2    H113623   4.695   3.890   1.651 -1.2189  0.5623  1.6968
  931MPD2    H213624   0.054   4.220   1.391  2.0040 -0.8701  0.9836
  931MPD2    H313625   0.128   4.051   1.543 -0.0542  1.6185  1.4971
  931MPD2     N13626   4.438   3.906   1.658  0.4381 -0.1503  0.5299
  931MPD2    H513627   4.476   3.825   1.707  1.2931 -0.1007 -0.0447
  931MPD2    N113628   4.526   4.274   1.332  0.0646 -0.0607 -0.0830
  931MPD2    H713629   4.593   4.290   1.257  0.6944  0.2044  0.5392
  932MPD2     C13630   0.967   2.768  11.570 -0.2622  0.2743 -0.0402
  932MPD2    C113631   1.089   2.731  11.524  0.0078 -0.2511  0.7946
  932MPD2    C213632   1.102   2.595  11.507  0.1076  0.2066  0.6347
  932MPD2    C313633   1.001   2.498  11.536 -0.1525  0.6081 -0.2816
  932MPD2    C413634   0.881   2.542  11.569 -0.4347 -0.0905 -0.2490
  932MPD2    C513635   0.865   2.677  11.584 -0.1028  0.2265  0.6194
  932MPD2     H13636   1.191   2.561  11.455 -0.5054 -2.2964  1.2259
  932MPD2    H113637   0.796   2.476  11.581 -0.1052 -0.2910  0.9569
  932MPD2    H213638   0.949   2.871  11.599  0.7335  0.6317 -0.7008
  932MPD2    H313639   0.768   2.713  11.616  0.0618  1.5719 -0.3724
  932MPD2     N13640   1.022   2.362  11.527 -0.2814  0.1210  0.5755
  932MPD2    H513641   0.944   2.297  11.528  0.8376 -1.2471 -1.1790
  932MPD2    N113642   1.186   2.834  11.487  0.4811  0.2639  0.3244
  932MPD2    H713643   1.166   2.934  11.491 -0.4654 -0.0329  3.2718
  933MPD2     C13644   2.266   2.472   1.920  0.7425 -0.4432 -0.1353
  933MPD2    C113645   2.342   2.549   1.830  0.6808  0.6446 -0.2502
  933MPD2    C213646   2.285   2.664   1.778 -0.3507  0.0896 -0.1052
  933MPD2    C313647   2.152   2.689   1.794 -0.4338 -0.2365 -0.6496
  933MPD2    C413648   2.076   2.616   1.879 -0.0619  0.2888  0.1501
  933MPD2    C513649   2.134   2.509   1.944 -0.3832 -0.3100 -0.6497
  933MPD2     H13650   2.343   2.732   1.716  1.7542 -1.2919  0.3465
  933MPD2    H113651   1.973   2.642   1.900 -1.3033 -2.7182 -2.2373
  933MPD2    H213652   2.307   2.379   1.959  0.4611 -0.5753 -0.1544
  933MPD2    H313653   2.072   2.451   2.012  1.1069  2.0460  2.7294
  933MPD2     N13654   2.099   2.795   1.721  0.8649 -0.8143 -0.1376
  933MPD2    H513655   2.160   2.825   1.646 -1.1364 -0.3916 -1.5858
  933MPD2    N113656   2.480   2.511   1.801 -0.7380 -0.0994 -0.5588
  933MPD2    H713657   2.511   2.428   1.851  0.7885  1.5558  1.2324
  934MPD2     C13658   2.415   0.230   1.843  0.4177  0.0623 -0.6487
  934MPD2    C113659   2.419   0.134   1.945  0.7714  0.1128  0.1520
  934MPD2    C213660   2.367   0.004   1.922  0.8838 -0.2622  0.2320
  934MPD2    C313661   2.329   4.696   1.796 -0.2531  0.0787  0.2570
  934MPD2    C413662   2.311   0.071   1.707  0.3016  0.1782 -0.9714
  934MPD2    C513663   2.354   0.203   1.725  0.3351 -0.6001 -0.9721
  934MPD2     H13664   2.391   4.648   1.993 -0.8627 -1.7481 -0.8181
  934MPD2    H113665   2.269   0.053   1.608  0.2883  1.8718 -1.2841
  934MPD2    H213666   2.446   0.332   1.860 -0.0470  0.2508 -0.9415
  934MPD2    H313667   2.350   0.273   1.642 -1.6025 -0.5335 -0.8273
  934MPD2     N13668   2.302   4.565   1.744  0.2339  0.4818  0.1178
  934MPD2    H513669   2.307   4.558   1.643 -1.4455 -3.2327  0.3051
  934MPD2    N113670   2.483   0.156   2.063 -0.0859  0.0683  0.1718
  934MPD2    H713671   2.500   0.077   2.125 -1.8866 -0.7915 -0.4110
  935MPD2     C13672   2.732   3.738   1.973 -0.4069 -0.3989  0.3149
  935MPD2    C113673   2.709   3.776   1.841  0.2240 -0.3855  1.0607
  935MPD2    C213674   2.602   3.856   1.813  0.1131  0.4585  0.5756
  935MPD2    C313675   2.512   3.906   1.913 -0.0068 -0.4946  0.0240
  935MPD2    C413676   2.542   3.872   2.043 -0.1331 -0.0177  0.2225
  935MPD2    C513677   2.646   3.792   2.073 -0.1272  0.1007 -0.8384
  935MPD2     H13678   2.583   3.885   1.710 -3.7002  1.2868  1.5448
  935MPD2    H113679   2.476   3.902   2.124 -0.5416 -1.0413  0.2652
  935MPD2    H213680   2.812   3.668   1.995 -0.2018 -0.1455  0.3879
  935MPD2    H313681   2.666   3.762   2.175 -1.7669  0.4868 -0.3961
  935MPD2     N13682   2.396   3.987   1.883 -0.1062  0.2461  0.4016
  935MPD2    H513683   2.346   4.034   1.958 -2.8765  0.9064 -1.8449
  935MPD2    N113684   2.792   3.735   1.738 -0.4645 -0.7605 -0.2898
  935MPD2    H713685   2.775   3.778   1.647 -3.2372 -1.3495 -0.0642
  936MPD2     C13686   1.240   1.708  11.899  0.1673  0.2623  0.0411
  936MPD2    C113687   1.294   1.728  12.022  0.0282  0.2887  0.5194
  936MPD2    C213688   1.414   1.789  12.034  0.6020 -0.1961 -0.3631
  936MPD2    C313689   1.488   1.833  11.927  1.4892  0.0246  0.4951
  936MPD2    C413690   1.431   1.821  11.805 -0.6841 -0.9090 -0.3764
  936MPD2    C513691   1.307   1.758  11.788 -0.3598  0.3901  0.5632
  936MPD2     H13692   1.462   1.808  12.129 -0.4279  1.8916 -0.2648
  936MPD2    H113693   1.485   1.837  11.713  2.7492 -3.3715  1.2490
  936MPD2    H213694   1.147   1.654  11.891  0.9815 -0.7125 -2.6745
  936MPD2    H313695   1.277   1.725  11.690 -0.0017  0.6300  0.3706
  936MPD2     N13696   1.612   1.903  11.931 -0.3985 -0.6529  0.0040
  936MPD2    H513697   1.639   1.932  11.838 -1.0383 -0.0060  0.0181
  936MPD2    N113698   1.238   1.688  12.144  0.0845 -0.1991 -0.2850
  936MPD2    H713699   1.297   1.716  12.222  0.4925 -0.2264 -0.5821
  937MPD2     C13700   0.144   2.226  11.482  0.3928  0.0467 -0.7665
  937MPD2    C113701   0.144   2.336  11.406 -1.0152 -0.5757 -0.1717
  937MPD2    C213702   0.271   2.374  11.357 -0.0554  0.3076 -0.1158
  937MPD2    C313703   0.386   2.302  11.388  0.5103 -0.0388  0.4034
  937MPD2    C413704   0.380   2.186  11.456 -0.2260 -0.4006 -1.2550
  937MPD2    C513705   0.260   2.157  11.509  0.2702 -0.5819  0.6414
  937MPD2     H13706   0.280   2.465  11.298  1.9262  1.1165  1.4498
  937MPD2    H113707   0.462   2.126  11.493 -0.9420 -1.7885 -1.8981
  937MPD2    H213708   0.053   2.191  11.529  1.5779 -1.7671  0.1846
  937MPD2    H313709   0.264   2.067  11.569 -1.3872 -0.3352  1.1210
  937MPD2     N13710   0.508   2.354  11.346 -0.0380  0.0386 -0.8842
  937MPD2    H513711   0.508   2.448  11.308  1.2960 -0.2370 -1.5652
  937MPD2    N113712   0.045   2.434  11.411  0.4680  0.5520 -0.5284
  937MPD2    H713713   0.078   2.521  11.371 -0.1859  1.5809  1.1467
  938MPD2     C13714   2.055   3.791   0.962 -0.2312 -0.0906 -0.3615
  938MPD2    C113715   2.077   3.880   1.063  0.3332 -0.0881 -0.0015
  938MPD2    C213716   1.999   3.862   1.173  0.5361 -0.1110 -0.4611
  938MPD2    C313717   1.922   3.751   1.199  0.4416  0.2358 -0.3981
  938MPD2    C413718   1.907   3.662   1.095 -0.1088 -0.3757 -0.6464
  938MPD2    C513719   1.973   3.684   0.980 -0.6842 -0.1319 -0.3004
  938MPD2     H13720   2.003   3.947   1.240  5.5348 -0.9285  0.2612
  938MPD2    H113721   1.860   3.566   1.113  0.3369 -0.0547  2.3519
  938MPD2    H213722   2.122   3.788   0.878 -0.7018 -1.8258 -0.6924
  938MPD2    H313723   1.959   3.617   0.896 -0.7347 -0.6393  0.1124
  938MPD2     N13724   1.841   3.720   1.312 -0.5957  0.1046  0.0050
  938MPD2    H513725   1.775   3.644   1.309 -0.7051  0.1351  1.5183
  938MPD2    N113726   2.165   3.997   1.057 -0.9181  0.3102 -1.4043
  938MPD2    H713727   2.184   4.048   1.143  0.6002 -0.6151 -1.1704
  939MPD2     C13728   3.367   0.326   0.856  0.2717 -0.4208 -0.0149
  939MPD2    C113729   3.277   0.404   0.789  0.3707  0.1944  0.0448
  939MPD2    C213730   3.297   0.424   0.653  0.3634 -0.1319 -0.8145
  939MPD2    C313731   3.417   0.388   0.593 -0.0124 -0.1533 -0.0441
  939MPD2    C413732   3.512   0.320   0.666  0.2549 -0.1409 -0.2216
  939MPD2    C513733   3.483   0.281   0.794  0.2637  0.0644  0.0553
  939MPD2     H13734   3.220   0.474   0.596  0.7788 -1.0394 -2.1647
  939MPD2    H113735   3.609   0.296   0.625  0.3848  0.4617 -0.2671
  939MPD2    H213736   3.358   0.307   0.963 -0.4634 -0.0501 -0.0059
  939MPD2    H313737   3.550   0.211   0.843 -0.1539  0.5830  1.3744
  939MPD2     N13738   3.422   0.403   0.456 -0.2365 -0.5668  0.2719
  939MPD2    H513739   3.341   0.449   0.416 -1.5737 -1.4059  1.9527
  939MPD2    N113740   3.161   0.443   0.862  0.0369 -0.4448  0.6399
  939MPD2    H713741   3.152   0.390   0.948 -0.8576 -0.4494  0.5458
  940MPD2     C13742   1.950   1.023  12.919  0.1016 -0.0776  0.4060
  940MPD2    C113743   2.029   1.130  12.904  0.8221  0.2173 -0.7511
  940MPD2    C213744   2.002   1.218  12.808  0.2850  0.5802  0.0403
  940MPD2    C313745   1.884   1.225  12.736  1.4139  0.3220 -0.0321
  940MPD2    C413746   1.803   1.120  12.757  0.0732 -0.7719 -0.2583
  940MPD2    C513747   1.841   1.019  12.840  0.3824  0.7033 -0.1949
  940MPD2     H13748   2.058   1.312  12.807 -2.9113  2.4570 -0.6740
  940MPD2    H113749   1.712   1.114  12.700 -0.3063  0.6930  0.1748
  940MPD2    H213750   1.963   0.941  12.988 -5.1083 -0.7145  0.6627
  940MPD2    H313751   1.781   0.930  12.856  0.6716  0.2621 -1.5080
  940MPD2     N13752   1.845   1.329  12.648 -0.2636  0.4381 -0.3246
  940MPD2    H513753   1.754   1.310  12.607 -0.5985 -0.4709  0.8607
  940MPD2    N113754   2.148   1.157  12.981 -0.3655 -0.4721  0.5998
  940MPD2    H713755   2.208   1.233  12.951 -0.2574 -1.3724 -1.4501
  941MPD2     C13756   1.902   4.146   9.542  0.3645  0.0218 -0.2316
  941MPD2    C113757   1.857   4.216   9.648  0.1484 -0.6254 -0.7866
  941MPD2    C213758   1.776   4.160   9.742 -0.3784 -0.7263  0.4868
  941MPD2    C313759   1.753   4.023   9.742 -0.2988 -0.5482  0.1927
  941MPD2    C413760   1.799   3.956   9.633  0.0955 -0.0165 -0.2336
  941MPD2    C513761   1.871   4.017   9.536 -0.5056  0.0048 -0.3311
  941MPD2     H13762   1.750   4.228   9.822  1.8173 -0.5519  1.0469
  941MPD2    H113763   1.780   3.850   9.619  2.1112 -0.4888  0.6117
  941MPD2    H213764   1.963   4.195   9.467  2.4879 -2.2001  0.0148
  941MPD2    H313765   1.888   3.949   9.453 -0.6306 -0.5804  0.1203
  941MPD2     N13766   1.684   3.944   9.838 -0.1690 -0.3724  0.0209
  941MPD2    H513767   1.689   3.843   9.833 -1.4892 -0.3360 -1.9103
  941MPD2    N113768   1.876   4.359   9.665  0.2443 -0.1342  0.4406
  941MPD2    H713769   1.828   4.411   9.737  0.7945  1.1845 -0.1555
  942MPD2     C13770   1.568   1.598   8.222  0.4204 -0.4843  0.4117
  942MPD2    C113771   1.601   1.571   8.351 -0.5133 -0.1820 -0.1788
  942MPD2    C213772   1.713   1.496   8.379 -0.3444 -0.4150  0.2374
  942MPD2    C313773   1.790   1.444   8.280 -0.8433 -0.3700 -0.0217
  942MPD2    C413774   1.759   1.471   8.146  0.0440 -0.8288  0.2854
  942MPD2    C513775   1.649   1.552   8.123 -0.4036 -0.6456 -0.0373
  942MPD2     H13776   1.750   1.485   8.480 -1.5207  1.5167  0.8810
  942MPD2    H113777   1.814   1.447   8.056 -1.1113 -0.0404 -0.6341
  942MPD2    H213778   1.481   1.659   8.199  1.7220  0.7560 -1.1981
  942MPD2    H313779   1.628   1.569   8.018 -0.3700  0.9271  0.1989
  942MPD2     N13780   1.902   1.374   8.324 -0.0651 -0.0439  0.0311
  942MPD2    H513781   1.927   1.383   8.422  0.6693 -0.9516 -0.0722
  942MPD2    N113782   1.534   1.630   8.461  0.0416  0.0291 -0.3170
  942MPD2    H713783   1.564   1.603   8.554  0.5781  2.0887  0.1163
  943MPD2     C13784   0.648   4.217   9.597  0.6295 -0.8761  0.0988
  943MPD2    C113785   0.774   4.260   9.643 -0.4071 -0.3406 -0.0906
  943MPD2    C213786   0.818   4.388   9.624  0.5592  0.0208  0.4832
  943MPD2    C313787   0.741   4.480   9.554 -0.5795 -0.4314 -0.6893
  943MPD2    C413788   0.622   4.433   9.495 -0.4737  0.2422 -0.3460
  943MPD2    C513789   0.576   4.308   9.523 -0.7785  0.1860  0.0550
  943MPD2     H13790   0.912   4.427   9.661  0.9494 -0.6507  0.2104
  943MPD2    H113791   0.565   4.497   9.428 -2.5065 -1.1019  0.0984
  943MPD2    H213792   0.610   4.119   9.625 -1.0616 -0.1563  0.2673
  943MPD2    H313793   0.484   4.270   9.477 -0.5252 -3.5541  2.6386
  943MPD2     N13794   0.778   4.619   9.534 -0.5485  0.1634 -0.2677
  943MPD2    H513795   0.736   4.680   9.466 -0.5138 -0.7751 -1.1298
  943MPD2    N113796   0.847   4.175   9.722  1.1727  0.1299 -0.4525
  943MPD2    H713797   0.808   4.083   9.740 -0.8849  0.7887 -1.5089
  944MPD2     C13798   0.616   4.317  11.117  0.1460 -0.2469  0.0260
  944MPD2    C113799   0.588   4.182  11.120 -0.4855  0.6209  0.3674
  944MPD2    C213800   0.513   4.120  11.221 -0.1592 -0.5473 -0.2270
  944MPD2    C313801   0.461   4.203  11.319  0.1020  0.1762  0.9625
  944MPD2    C413802   0.476   4.337  11.309  0.5353  0.3002  0.9745
  944MPD2    C513803   0.555   4.395  11.209  0.3960 -0.2462  0.3973
  944MPD2     H13804   0.507   4.012  11.224  1.5080 -0.6799 -1.6055
  944MPD2    H113805   0.420   4.404  11.374  0.1846 -0.9384  1.9458
  944MPD2    H213806   0.685   4.356  11.043  1.8319  0.5286  2.0124
  944MPD2    H313807   0.559   4.501  11.192  1.5310 -0.4532 -0.6256
  944MPD2     N13808   0.388   4.142  11.425 -0.2653 -0.0326  0.1230
  944MPD2    H513809   0.370   4.043  11.420  0.8880 -0.2490  0.2066
  944MPD2    N113810   0.634   4.106  11.007  0.4292  0.5482  0.4442
  944MPD2    H713811   0.698   4.151  10.942  1.3140  1.2197  1.7643
    1TCq1    O113812   2.129   4.687  14.229 -0.5457  0.6032 -0.0893
    1TCq1    C113813   2.260   4.708  14.213  0.4840 -0.0160 -0.0285
    1TCq1    O213814   2.347   4.625  14.240  0.1059 -0.3809 -0.7924
    1TCq1    C213815   2.273   0.126  14.228 -0.3469 -0.3573 -0.3012
    1TCq1    C313816   2.189   0.192  14.310 -0.3510  0.2724 -0.0886
    1TCq1    C413817   2.230   0.306  14.369  0.3711  0.4285 -0.0365
    1TCq1    C513818   2.352   0.369  14.333  0.2735 -0.7453 -0.5918
    1TCq1    C613819   2.434   0.291  14.249  0.5216  0.1613  0.2058
    1TCq1    C713820   2.403   0.165  14.214 -0.2637 -0.6193  0.3353
    1TCq1    C813821   2.577   0.335  14.225  0.4723 -0.0412 -0.5588
    1TCq1    O413822   2.662   0.246  14.207  0.0397  0.0318  1.1523
    1TCq1    C913823   2.137   0.382  14.456  0.0438 -0.5510 -0.3788
    1TCq1    O513824   2.176   0.489  14.503 -0.1253 -0.0208  0.0677
    1TCq1    O613825   2.020   0.340  14.465 -0.2002 -0.3301  0.0365
    1TCq1    H113826   2.071   0.043  14.218  0.3171  1.1062 -1.1159
    1TCq1    H213827   2.100   0.152  14.357  0.5801 -1.4845  0.1657
    1TCq1    H313828   2.398   0.460  14.371  0.7368 -2.1316  2.1738
    1TCq1    H413829   2.472   0.119  14.145 -0.9160  0.8752 -1.3048
    2MPD2     C13830   2.957   0.685  14.201  0.1929 -0.6813  0.1608
    2MPD2    C113831   2.832   0.749  14.219 -0.6815 -0.3305  0.1155
    2MPD2    C213832   2.711   0.679  14.220  0.5368  1.0758  0.4133
    2MPD2    C313833   2.721   0.540  14.219 -0.6182  1.1545  0.5999
    2MPD2    C413834   2.847   0.477  14.210  0.1113  0.8378 -0.0953
    2MPD2    C513835   2.964   0.549  14.182 -0.0735  0.5540 -0.1059
    2MPD2     H13836   2.614   0.727  14.228  0.2851  1.0700 -2.6300
    2MPD2    H113837   2.855   0.369  14.214 -0.7521  0.8430  1.5556
    2MPD2    H213838   3.047   0.746  14.196 -0.1377 -0.1768  0.2831
    2MPD2    H313839   3.055   0.492  14.166 -2.1057 -3.1445  1.5373
    2MPD2     N13840   2.597   0.466  14.226  0.1511  0.2175  0.0001
    2MPD2    H513841   2.513   0.521  14.213 -0.9433 -2.1478 -3.1859
    2MPD2    N113842   2.838   0.889  14.219  0.5410 -0.3601  0.4630
    2MPD2    H713843   2.926   0.930  14.188  0.5067 -0.4055  0.3061
    3TMC2    C113844   2.753   1.112  14.254 -0.6329  0.3784 -0.3352
    3TMC2    C213845   2.647   1.188  14.213 -0.1250  0.5385  0.5335
    3TMC2    C313846   2.669   1.319  14.182 -0.6550 -0.2042  0.7033
    3TMC2    C413847   2.883   1.159  14.248  0.2295 -0.1247 -0.3440
    3TMC2    C513848   2.896   1.290  14.213 -0.3386 -0.4595 -0.1540
    3TMC2    C613849   2.793   1.375  14.188  0.3540 -0.0484 -0.0082
    3TMC2     C13850   2.728   0.969  14.255 -0.8614 -0.1049 -0.2234
    3TMC2     O13851   2.612   0.942  14.278  0.5775 -0.0723 -0.7330
    3TMC2     H13852   2.554   1.136  14.196  2.2448 -3.5213 -0.1428
    3TMC2    H113853   2.967   1.094  14.270  0.3638  0.0508 -0.3391
    3TMC2    H213854   2.805   1.481  14.167  1.7470  0.0494  1.2445
    3TMC2    C713855   3.030   1.345  14.206  0.1196  0.5767  0.2818
    3TMC2    C813856   2.569   1.393  14.116  0.8292  0.2322  0.6538
    3TMC2    O113857   3.107   1.329  14.301  0.4258  0.5590 -0.0070
    3TMC2    O213858   2.449   1.375  14.128  0.0870 -0.3796  0.1790
    3TMC2    O513859   2.625   1.471  14.016 -0.0805 -0.0298 -0.0908
    3TMC2    H513860   2.721   1.451  14.015 -0.0027  0.3226  0.2264
    4MPD2     C13861   2.337   1.936  13.347 -0.3527 -0.0357  0.4493
    4MPD2    C113862   2.426   1.974  13.255 -0.1837 -0.0412  0.8564
    4MPD2    C213863   2.550   2.003  13.298 -0.0879  0.2304 -0.1736
    4MPD2    C313864   2.591   1.995  13.423 -0.6282  1.0046 -0.2411
    4MPD2    C413865   2.505   1.952  13.517 -0.3462  0.1831 -0.0637
    4MPD2    C513866   2.371   1.926  13.475 -0.1008 -0.4022 -0.3678
    4MPD2     H13867   2.620   2.031  13.220 -1.1893  1.1680 -0.8286
    4MPD2    H113868   2.530   1.936  13.621 -0.1151 -2.4735 -0.5341
    4MPD2    H213869   2.231   1.921  13.328 -0.3996 -2.1434  2.3207
    4MPD2    H313870   2.299   1.898  13.551  0.9130 -0.9438  0.3919
    4MPD2     N13871   2.727   1.998  13.465  0.5016 -0.4777 -0.1321
    4MPD2    H513872   2.744   1.973  13.562 -1.0848  1.1618  0.5522
    4MPD2    N113873   2.390   1.961  13.121  0.6069  0.0452  0.6349
    4MPD2    H713874   2.304   1.911  13.101  1.9234 -1.8523 -0.3560
    5TCq2    C113875   2.835   2.023  13.387  0.6098 -0.2702 -0.2250
    5TCq2    O213876   2.835   2.083  13.278 -0.0563 -0.7180 -0.0512
    5TCq2    C213877   2.958   2.009  13.466  0.4856 -0.4280  0.3936
    5TCq2    C313878   3.058   2.097  13.444  0.2933  0.4450 -0.2090
    5TCq2    C413879   3.168   2.084  13.518  0.6222 -0.4964 -0.8282
    5TCq2    C513880   3.177   1.987  13.612 -0.7404 -0.4074 -0.3812
    5TCq2    C613881   3.069   1.913  13.648 -0.2542 -0.6652 -0.1400
    5TCq2    C713882   2.955   1.917  13.564 -0.4917  0.0079 -0.4965
    5TCq2    C813883   3.073   1.818  13.755 -0.2084  0.1059  0.6178
    5TCq2    O413884   2.965   1.763  13.769 -0.6554  0.1660 -0.0972
    5TCq2    C913885   3.284   2.171  13.496 -0.3913 -0.2609  0.2233
    5TCq2    O513886   3.264   2.274  13.424  0.0869 -0.1716 -0.0559
    5TCq2    O613887   3.396   2.152  13.557  0.1656  0.4074 -0.6550
    5TCq2    H213888   3.044   2.175  13.370  0.5203  0.6628 -0.0229
    5TCq2    H313889   3.271   1.985  13.666 -0.1282  1.1675 -1.3946
    5TCq2    H413890   2.878   1.841  13.572  0.3982 -1.0862 -2.5740
    6MPD1     C13891   1.886   3.467  12.356 -0.2954 -0.3256 -0.1205
    6MPD1    C113892   1.861   3.413  12.485 -0.7152 -0.3766 -0.8310
    6MPD1    C213893   1.844   3.273  12.481 -0.0549 -0.5327 -0.2771
    6MPD1    C313894   1.864   3.199  12.366 -0.6849 -0.2897  0.1734
    6MPD1    C413895   1.911   3.257  12.251 -0.6503  0.1675 -0.4206
    6MPD1    C513896   1.917   3.388  12.249 -0.2136  0.4425  0.7026
    6MPD1     H13897   1.802   3.225  12.569  1.8112 -0.6582  0.5329
    6MPD1    H113898   1.944   3.200  12.165  2.0755  2.3878 -0.8509
    6MPD1    H213899   1.905   3.574  12.348  1.7794 -0.8495 -2.0376
    6MPD1    H313900   1.948   3.431  12.155  1.5612 -2.3384 -0.0056
    6MPD1     N13901   1.844   3.058  12.361 -0.0632 -0.1343 -0.2828
    6MPD1    H513902   1.872   3.008  12.277  0.6177 -1.0083  0.4723
    6MPD1    N113903   1.834   3.492  12.594 -0.2608  0.5947  0.3699
    6MPD1    H613904   1.832   3.435  12.678  0.3520 -0.5529 -0.4064
    6MPD1    H713905   1.887   3.578  12.609  1.5640  0.0603 -2.9231
    7MPD2     C13906   1.676   2.402  12.861 -0.4002  0.1008 -0.3529
    7MPD2    C113907   1.767   2.389  12.758 -0.1546 -0.3953  0.4701
    7MPD2    C213908   1.865   2.298  12.770  0.0913  0.5508  0.3628
    7MPD2    C313909   1.890   2.214  12.877 -0.3915 -0.2232  0.2836
    7MPD2    C413910   1.813   2.234  12.983  0.1849  0.1391  0.3359
    7MPD2    C513911   1.706   2.325  12.971  0.0005  0.1898  0.8042
    7MPD2     H13912   1.935   2.287  12.688  1.5327 -0.2257  1.6992
    7MPD2    H113913   1.824   2.175  13.073 -1.9707 -1.0276 -0.1637
    7MPD2    H213914   1.589   2.465  12.851  1.3212  2.5738  0.2929
    7MPD2    H313915   1.643   2.336  13.058 -0.8062 -0.3881  0.2921
    7MPD2     N13916   2.000   2.125  12.876  0.6535 -0.5049 -1.1340
    7MPD2    H513917   2.015   2.071  12.961  1.8171 -0.6941 -1.4506
    7MPD2    N113918   1.752   2.457  12.638 -0.4783 -0.3342 -0.7898
    7MPD2    H713919   1.821   2.430  12.568  2.5755  1.5888  1.4590
    8TMC3    C113920   2.174   1.977  12.783  0.7988  0.9722 -0.7477
    8TMC3    C213921   2.246   1.975  12.899 -0.2270  0.0370 -0.1977
    8TMC3    C313922   2.380   1.985  12.890 -0.3970  0.1628 -0.1468
    8TMC3    C413923   2.224   1.944  12.661 -0.0057 -0.0982 -0.0499
    8TMC3    C513924   2.361   1.962  12.657 -0.5530  0.7832 -0.2113
    8TMC3    C613925   2.436   1.974  12.768 -0.1648 -0.1750 -0.3470
    8TMC3     C13926   2.075   2.082  12.762  0.8523 -0.2542 -0.0336
    8TMC3     O13927   2.066   2.122  12.645  0.6281  0.1310 -0.3554
    8TMC3     H13928   2.201   2.000  12.994  0.7608 -0.2537  0.3542
    8TMC3    H113929   2.174   1.942  12.565  0.2650 -2.5013 -0.1252
    8TMC3    H213930   2.544   1.975  12.759 -0.1431  1.0173  0.0495
    8TMC3    C713931   2.407   2.065  12.566 -0.1499 -0.2619  0.1212
    8TMC3    C813932   2.462   1.999  13.010 -0.2514  0.2996 -1.0152
    8TMC3    O113933   2.526   2.081  12.541 -0.4508 -0.1591 -0.2407
    8TMC3    O213934   2.566   2.065  13.004  0.1886 -0.3707 -0.0769
    9TMC3    C113935   1.760   2.841  12.411  0.6125 -0.4395  0.3218
    9TMC3    C213936   1.859   2.783  12.336  0.2551 -0.1276 -0.2222
    9TMC3    C313937   1.878   2.648  12.338  0.3264  0.4902 -0.1063
    9TMC3    C413938   1.680   2.757  12.484 -0.2016 -0.1673  0.5512
    9TMC3    C513939   1.694   2.620  12.483 -0.9550 -0.0000  0.0303
    9TMC3    C613940   1.797   2.565  12.407 -0.3991  0.2509 -0.0869
    9TMC3     C13941   1.772   2.985  12.447  0.1204 -0.2461  0.5793
    9TMC3     O13942   1.700   3.023  12.537  0.1592 -0.8563  0.0736
    9TMC3     H13943   1.932   2.842  12.281 -0.1446  1.2978  0.7748
    9TMC3    H113944   1.604   2.804  12.546 -0.6154  1.5869 -1.2711
    9TMC3    H213945   1.799   2.456  12.408 -0.8809  0.2452  1.1271
    9TMC3    C713946   1.667   2.558  12.610  0.3498 -0.6787  0.0457
    9TMC3    C813947   2.003   2.602  12.286  0.5604 -0.4782 -0.2672
    9TMC3    O113948   1.569   2.612  12.664 -0.2430 -0.4662  0.0174
    9TMC3    O213949   2.073   2.678  12.219 -0.3488 -0.8467 -0.3096
   10MPD2     C13950   2.415   2.289  12.351  0.4979 -0.2590  0.7174
   10MPD2    C113951   2.305   2.250  12.420  0.3293 -0.7478  0.3337
   10MPD2    C213952   2.191   2.322  12.408 -0.2634  0.1531 -0.0172
   10MPD2    C313953   2.171   2.426  12.323 -0.0391 -0.3021 -0.2042
   10MPD2    C413954   2.280   2.468  12.252 -0.9337 -0.1638 -0.0271
   10MPD2    C513955   2.394   2.403  12.272  0.0813  0.5299  0.4361
   10MPD2     H13956   2.108   2.308  12.475  0.8894 -1.4490  1.0765
   10MPD2    H113957   2.286   2.559  12.192  0.3201 -1.2566 -1.5608
   10MPD2    H213958   2.512   2.244  12.368 -0.1907 -1.4154  1.6102
   10MPD2    H313959   2.482   2.447  12.226 -1.6964 -0.3641 -3.8019
   10MPD2     N13960   2.043   2.487  12.334 -0.0800  0.3733  0.8092
   10MPD2    H513961   1.974   2.446  12.397 -0.3344  1.2008  1.0641
   10MPD2    N113962   2.303   2.138  12.513  0.4890 -0.6435 -0.1935
   10MPD2    H713963   2.218   2.112  12.562  1.8910 -0.6883  2.2011
   11MPD2     C13964   3.251   1.546  14.144 -0.9691 -0.2615 -0.0014
   11MPD2    C113965   3.146   1.523  14.067 -0.1180 -0.1463 -0.1562
   11MPD2    C213966   3.122   1.609  13.963 -0.2344  0.1386  0.4339
   11MPD2    C313967   3.216   1.711  13.931 -0.1122 -0.4007 -0.0297
   11MPD2    C413968   3.331   1.725  14.009 -0.1924 -1.0950  0.3480
   11MPD2    C513969   3.347   1.638  14.110  0.6560 -0.0141  0.4606
   11MPD2     H13970   3.034   1.585  13.904 -2.5707  0.1765  3.9546
   11MPD2    H113971   3.390   1.815  14.002 -2.9104  0.6746 -0.0143
   11MPD2    H213972   3.285   1.480  14.223 -1.4547 -1.7512 -1.0529
   11MPD2    H313973   3.432   1.646  14.177  1.7534  0.4547 -1.0142
   11MPD2     N13974   3.193   1.802  13.821 -0.4081 -0.1390  0.1250
   11MPD2    H513975   3.271   1.865  13.802  0.4734 -1.3702 -0.2842
   11MPD2    N113976   3.039   1.428  14.094 -0.6076  0.0876  1.1485
   11MPD2    H713977   2.965   1.427  14.025  0.1213  2.4198  0.3458
    1MPD1     C13978   1.782   3.099  17.168  0.7933 -0.7156  0.2785
    1MPD1    C113979   1.643   3.095  17.136 -0.4628  0.3225  0.2269
    1MPD1    C213980   1.599   2.991  17.056 -0.1094  0.3732 -0.2296
    1MPD1    C313981   1.685   2.909  16.990  0.3476  0.1582  0.5697
    1MPD1    C413982   1.819   2.922  17.012 -0.6601  0.3877  0.2787
    1MPD1    C513983   1.865   3.007  17.109  0.2820  0.1038  0.2579
    1MPD1     H13984   1.491   2.982  17.048 -0.1107 -0.1484  0.4099
    1MPD1    H113985   1.887   2.864  16.951 -0.2784 -0.2304  1.2987
    1MPD1    H213986   1.816   3.172  17.241  0.0458 -0.3967  0.3077
    1MPD1    H313987   1.971   3.014  17.130  0.2660  0.9337  0.0782
    1MPD1     N13988   1.647   2.808  16.906 -0.0630 -0.4151  0.5271
    1MPD1    H513989   1.721   2.748  16.874  0.2322 -1.1880  2.6568
    1MPD1    N113990   1.550   3.177  17.203  0.6203  0.1657  0.3587
    1MPD1    H613991   1.592   3.265  17.233  0.3087 -0.3898  2.4307
    1MPD1    H713992   1.472   3.207  17.144 -1.2527  0.2966  2.9134
    2MPD1     C13993   2.245   2.582  16.371  0.2510 -0.0701  0.6067
    2MPD1    C113994   2.230   2.570  16.507  0.4601  0.0414  0.4560
    2MPD1    C213995   2.104   2.584  16.565  0.0515 -0.5281 -0.0837
    2MPD1    C313996   1.995   2.596  16.481  0.3074  0.5258 -1.0566
    2MPD1    C413997   2.006   2.604  16.340  0.0605 -0.0185 -0.3532
    2MPD1    C513998   2.136   2.601  16.287  0.5395  0.1456 -0.0407
    2MPD1     H13999   2.094   2.583  16.672  0.4974  0.0747 -0.0345
    2MPD1    H114000   1.928   2.625  16.269  0.9910 -1.6579 -1.8702
    2MPD1    H214001   2.341   2.586  16.320  0.4810 -1.9598  0.8695
    2MPD1    H314002   2.148   2.620  16.181  0.4724 -0.1685 -0.1042
    2MPD1     N14003   1.869   2.599  16.551  0.1140 -0.4343 -0.4681
    2MPD1    H514004   1.879   2.594  16.652 -0.7433 -2.2316 -0.4872
    2MPD1    N114005   2.347   2.581  16.587  0.3106  0.0055 -0.0501
    2MPD1    H614006   2.336   2.563  16.687  0.4660  0.1015 -0.0161
    2MPD1    H714007   2.429   2.536  16.548  0.3489 -0.8282  0.9927
    3TMC3    C114008   1.629   2.589  16.579  0.7107 -0.2511 -0.5206
    3TMC3    C214009   1.511   2.538  16.529 -0.0068 -0.8302  0.0765
    3TMC3    C314010   1.400   2.570  16.599  0.0163 -0.0704 -0.0722
    3TMC3    C414011   1.647   2.665  16.685 -0.2505 -0.3644 -0.2214
    3TMC3    C514012   1.528   2.685  16.763  0.5318  0.3061 -0.8195
    3TMC3    C614013   1.404   2.638  16.719  0.1148 -0.1771  1.0987
    3TMC3     C14014   1.749   2.578  16.487 -0.6776 -0.8086  0.6010
    3TMC3     O14015   1.725   2.550  16.370  0.0783 -0.0982  0.0654
    3TMC3     H14016   1.506   2.465  16.449  0.3875 -1.5081  0.6604
    3TMC3    H114017   1.737   2.718  16.713 -0.8057 -0.1793  1.2492
    3TMC3    H214018   1.314   2.658  16.776  0.2928  1.8692  0.6400
    3TMC3    C714019   1.525   2.793  16.854  0.1886  0.1944 -0.1960
    3TMC3    C814020   1.267   2.549  16.539  0.4605  0.2894  0.6967
    3TMC3    O114021   1.416   2.853  16.869 -0.2839 -0.0871 -0.3013
    3TMC3    O214022   1.177   2.583  16.610 -0.6818  0.0455  0.4550
    4MPD1     C14023   1.002   2.474  16.111 -0.0795 -0.0974 -0.4614
    4MPD1    C114024   1.129   2.427  16.091  0.3651 -0.9355 -0.3282
    4MPD1    C214025   1.211   2.440  16.198 -1.0054 -0.2581  0.2791
    4MPD1    C314026   1.176   2.497  16.318 -0.2476  0.7307  0.3002
    4MPD1    C414027   1.042   2.537  16.336  0.1483  0.6509 -0.4889
    4MPD1    C514028   0.951   2.522  16.231 -0.2367 -0.2624 -0.1217
    4MPD1     H14029   1.314   2.407  16.190 -0.5715  1.2846 -0.4940
    4MPD1    H114030   0.998   2.570  16.430 -0.8873 -4.9184  1.0304
    4MPD1    H214031   0.930   2.466  16.031 -0.6032  3.2258 -0.3074
    4MPD1    H314032   0.846   2.551  16.225 -0.0009  0.2436 -1.9470
    4MPD1     N14033   1.281   2.502  16.410 -0.1044  0.0964  0.3891
    4MPD1    H514034   1.372   2.472  16.376 -0.0409  0.2296  0.4435
    4MPD1    N114035   1.174   2.382  15.968 -0.2020 -0.0343 -0.1814
    4MPD1    H614036   1.091   2.354  15.916  0.3165 -0.4686 -0.7853
    4MPD1    H714037   1.238   2.308  15.996  0.4197  0.1449 -1.1189
    1TCq1    O114038   0.866   1.546  10.896 -0.0310 -0.1557  0.4695
    1TCq1    C114039   0.925   1.570  10.779 -0.2083 -1.6875  0.1320
    1TCq1    O214040   0.925   1.488  10.688  0.1389  0.1992 -0.3921
    1TCq1    C214041   1.046   1.632  10.822  0.1122 -0.1420  0.0189
    1TCq1    C314042   1.162   1.578  10.777 -0.6972  0.6040  0.3656
    1TCq1    C414043   1.279   1.595  10.848 -0.0860  0.7956 -0.0282
    1TCq1    C514044   1.284   1.675  10.959  0.0919 -0.0471  0.6048
    1TCq1    C614045   1.160   1.723  11.006  0.2212  0.5284 -0.7739
    1TCq1    C714046   1.044   1.693  10.943 -0.2102 -0.3484 -0.5001
    1TCq1    C814047   1.159   1.838  11.098 -0.4513 -0.8212  1.3972
    1TCq1    O414048   1.053   1.872  11.148  0.5455 -0.1295  0.5832
    1TCq1    C914049   1.404   1.587  10.769 -0.2183  0.2564  0.8015
    1TCq1    O514050   1.510   1.594  10.830  0.3230  0.2138 -0.3198
    1TCq1    O614051   1.392   1.547  10.651  0.0325 -0.3959  0.7784
    1TCq1    H114052   0.848   1.622  10.955 -1.0402 -1.7676  2.2335
    1TCq1    H214053   1.160   1.546  10.673 -0.7439 -3.3326  1.5686
    1TCq1    H314054   1.384   1.706  10.989 -0.5962  3.7757 -0.9929
    1TCq1    H414055   0.958   1.754  10.968  0.0156 -0.6145  0.9324
    2MPD1     C14056   1.363   2.268  11.298 -0.6046  0.7241  0.8327
    2MPD1    C114057   1.464   2.186  11.261 -0.2568  0.1756  0.4658
    2MPD1    C214058   1.433   2.062  11.215  0.2893 -0.5300 -0.2388
    2MPD1    C314059   1.304   2.024  11.181 -0.6663  1.0460  0.3941
    2MPD1    C414060   1.203   2.117  11.206  0.2593 -0.1518  0.4612
    2MPD1    C514061   1.239   2.230  11.276 -0.1802  0.2926  0.0055
    2MPD1     H14062   1.508   1.986  11.194  1.4592  0.4081  0.5279
    2MPD1    H114063   1.097   2.100  11.190  0.2448  0.0518  0.3342
    2MPD1    H214064   1.386   2.361  11.348  2.4602  0.9673 -1.0031
    2MPD1    H314065   1.160   2.293  11.316 -0.6201 -0.8485  0.9314
    2MPD1     N14066   1.282   1.895  11.120  0.2264 -0.7143  0.4275
    2MPD1    H514067   1.363   1.835  11.106  0.3002 -0.1502 -1.5859
    2MPD1    N114068   1.591   2.237  11.274  0.2495  0.1895 -0.3078
    2MPD1    H614069   1.653   2.219  11.195 -3.3423  2.6261 -3.6981
    2MPD1    H714070   1.587   2.337  11.292 -0.5295  0.1922 -0.4749
    1TCq1    O114071   2.027   1.752   8.284 -0.2855 -0.2286 -0.1461
    1TCq1    C114072   1.959   1.835   8.204 -0.3354 -0.7776 -0.3587
    1TCq1    O214073   1.985   1.856   8.085  0.2954  0.3167 -0.0751
    1TCq1    C214074   1.871   1.916   8.285  0.6502  0.2794  0.5923
    1TCq1    C314075   1.824   2.038   8.245  0.2656 -0.1658  0.4819
    1TCq1    C414076   1.766   2.126   8.330  0.3116 -0.7159 -0.5079
    1TCq1    C514077   1.721   2.080   8.449  0.3392  0.1654 -0.0763
    1TCq1    C614078   1.768   1.960   8.489 -0.0672 -0.1926  0.3231
    1TCq1    C714079   1.843   1.880   8.415 -0.5870 -0.4893 -0.1592
    1TCq1    C814080   1.744   1.916   8.620 -0.7014 -0.4466 -0.7055
    1TCq1    O414081   1.828   1.845   8.671 -0.1393 -0.0463 -0.1001
    1TCq1    C914082   1.713   2.251   8.282  0.3001  0.1233 -0.4535
    1TCq1    O514083   1.661   2.325   8.370  0.5769 -0.1773  0.1320
    1TCq1    O614084   1.727   2.285   8.160 -0.6096 -0.1210 -0.3690
    1TCq1    H114085   2.029   1.761   8.382 -0.9622  1.7584 -0.3242
    1TCq1    H214086   1.851   2.075   8.146  1.5923  1.2261  1.3637
    1TCq1    H314087   1.673   2.149   8.518  1.8424  0.5926  0.5487
    1TCq1    H414088   1.864   1.783   8.458 -3.7578 -0.2635  1.8551
    2MPD1     C14089   1.506   1.912   9.072  0.6560 -0.8045  1.1041
    2MPD1    C114090   1.421   1.980   8.987 -0.4335 -0.3628  0.0695
    2MPD1    C214091   1.463   1.998   8.857  0.1004 -0.7764  1.1284
    2MPD1    C314092   1.595   1.963   8.819 -0.4880 -1.0178  0.2940
    2MPD1    C414093   1.673   1.897   8.907 -0.4742  0.0583 -0.1148
    2MPD1    C514094   1.630   1.879   9.033  0.4949  0.2515  0.3040
    2MPD1     H14095   1.401   2.045   8.782  1.1006 -0.5282  0.4592
    2MPD1    H114096   1.766   1.849   8.879  0.1344  2.0218 -1.4420
    2MPD1    H214097   1.487   1.899   9.177  0.2241  0.0683  1.1356
    2MPD1    H314098   1.697   1.815   9.090 -0.5069 -0.5039  0.6376
    2MPD1     N14099   1.629   1.966   8.682  0.3498 -0.5984 -0.8419
    2MPD1    H514100   1.567   2.006   8.613 -0.2925 -0.7541 -0.3626
    2MPD1    N114101   1.289   2.000   9.019  0.3509  0.1831  0.0455
    2MPD1    H614102   1.270   2.091   8.978 -0.9039 -0.1329 -0.0814
    2MPD1    H714103   1.282   2.015   9.120  1.5525 -0.0496  0.1687
    1MPD1     C14104   3.114   3.033  10.974  0.1856  0.3163  0.0740
    1MPD1    C114105   3.196   3.123  10.911  0.3237 -0.1718  0.2483
    1MPD1    C214106   3.329   3.126  10.941  0.3563  0.2566 -0.8249
    1MPD1    C314107   3.387   3.037  11.032  0.2934  0.2407  0.4499
    1MPD1    C414108   3.305   2.948  11.106 -0.6935  0.3401  0.3775
    1MPD1    C514109   3.175   2.951  11.072  0.0634 -0.4820  0.3384
    1MPD1     H14110   3.381   3.197  10.877  1.7660 -0.9285 -1.0082
    1MPD1    H114111   3.334   2.864  11.168 -1.9601 -1.2820 -1.2427
    1MPD1    H214112   3.010   3.021  10.949  0.0908 -2.6032  1.8592
    1MPD1    H314113   3.120   2.874  11.125 -1.2078 -0.2681 -0.6671
    1MPD1     N14114   3.523   3.039  11.050  0.7250 -0.4803  0.0129
    1MPD1    H514115   3.561   3.129  11.021 -1.8663  0.5129 -0.2800
    1MPD1    N114116   3.137   3.190  10.803  0.0501 -0.1836  0.2137
    1MPD1    H614117   3.037   3.208  10.815 -0.1043 -0.7041 -0.3033
    1MPD1    H714118   3.183   3.279  10.787  0.0717 -0.5525 -1.6970
    2MPD1     C14119   3.744   1.303  10.357 -0.5249  0.2330  0.4268
    2MPD1    C114120   3.656   1.400  10.313 -0.7320  0.0445 -0.1479
    2MPD1    C214121   3.707   1.513  10.252  0.1202  0.6686 -0.1941
    2MPD1    C314122   3.843   1.534  10.254 -0.0464 -0.5301  0.2083
    2MPD1    C414123   3.933   1.435  10.294 -0.7581  0.7543  0.2700
    2MPD1    C514124   3.880   1.321  10.336 -0.1004  0.0757  0.3091
    2MPD1     H14125   3.643   1.576  10.192 -2.3536  1.1914  3.0126
    2MPD1    H114126   4.041   1.443  10.289 -0.4875 -1.4398  2.4335
    2MPD1    H214127   3.713   1.214  10.410  2.9302 -0.4643  1.2898
    2MPD1    H314128   3.953   1.242  10.350 -1.3214 -0.7752  1.8348
    2MPD1     N14129   3.902   1.646  10.186  0.1219  0.1059  0.4971
    2MPD1    H514130   4.003   1.644  10.183  0.1156  1.2753 -0.6175
    2MPD1    N114131   3.518   1.366  10.302 -0.0785 -0.2803  0.1762
    2MPD1    H614132   3.456   1.447  10.308  1.0813  0.7677 -1.8999
    2MPD1    H714133   3.485   1.302  10.374 -0.1497  1.3427  1.5890
    3MPD1     C14134   4.555   1.364   9.928  0.0644  0.5121 -0.4725
    3MPD1    C114135   4.432   1.352   9.877  0.5719 -0.6284 -0.4684
    3MPD1    C214136   4.340   1.461   9.876 -0.0366 -0.7001 -0.6802
    3MPD1    C314137   4.374   1.574   9.940 -0.1320  0.0876 -0.0261
    3MPD1    C414138   4.500   1.572  10.003 -0.3823 -0.3059  0.1673
    3MPD1    C514139   4.586   1.475   9.991 -0.0026 -0.8230 -0.0551
    3MPD1     H14140   4.246   1.463   9.822 -0.5539  1.2673  0.3156
    3MPD1    H114141   4.531   1.662  10.055  2.1470 -1.0153 -0.0708
    3MPD1    H214142   4.628   1.285   9.919  1.0945  1.3335  0.6612
    3MPD1    H314143   4.679   1.484  10.046  0.0996 -0.2993 -0.3173
    3MPD1     N14144   4.280   1.682   9.953  0.0269 -0.4857  0.3007
    3MPD1    H514145   4.193   1.676   9.900 -0.0042  0.3836  0.2438
    3MPD1    N114146   4.394   1.242   9.801 -0.6791 -0.9327  0.3165
    3MPD1    H614147   4.437   1.157   9.839  0.9869  0.0414  0.5980
    3MPD1    H714148   4.292   1.234   9.798 -0.6560 -1.0761 -0.0512
    4MPD2     C14149   4.224   3.109  10.780  0.6921 -0.1684 -0.4001
    4MPD2    C114150   4.232   3.058  10.909  0.2613 -0.4945 -0.1031
    4MPD2    C214151   4.322   2.956  10.934 -0.0764  0.6990  0.2614
    4MPD2    C314152   4.412   2.914  10.836  0.2914  0.1087 -0.3489
    4MPD2    C414153   4.415   2.978  10.710 -0.6281  0.3801  0.1202
    4MPD2    C514154   4.318   3.073  10.685 -0.6406 -0.6371 -0.4527
    4MPD2     H14155   4.331   2.913  11.033  0.5459 -0.6958 -0.3903
    4MPD2    H114156   4.486   2.956  10.632  0.4336 -1.5377  1.5994
    4MPD2    H214157   4.147   3.180  10.753  2.0840  2.0249  1.3503
    4MPD2    H314158   4.304   3.122  10.589 -1.1828  0.8485  0.3723
    4MPD2     N14159   4.483   2.794  10.867 -0.1203 -0.3982  0.0486
    4MPD2    H514160   4.464   2.762  10.961 -3.4626  0.4648 -0.3333
    4MPD2    N114161   4.142   3.082  11.005  0.0063  0.1518  0.4625
    4MPD2    H714162   4.152   3.020  11.085 -0.9477 -0.9508 -0.2942
    5TMC3    C114163   3.928   3.102  11.101  0.2590  0.4062  0.6356
    5TMC3    C214164   3.804   3.068  11.067 -0.5914 -0.5104 -0.3026
    5TMC3    C314165   3.727   2.999  11.158  0.4343 -0.4632  0.4126
    5TMC3    C414166   3.988   3.058  11.215 -0.1191  0.8226  0.2495
    5TMC3    C514167   3.920   2.965  11.287 -0.5279 -0.1074  0.1626
    5TMC3    C614168   3.791   2.929  11.260 -1.0748  0.3914  0.2809
    5TMC3     C14169   4.013   3.137  10.991 -0.2905 -0.7809 -0.0067
    5TMC3     O14170   3.951   3.192  10.901  0.2449 -0.0672 -0.3095
    5TMC3     H14171   3.761   3.097  10.971 -0.1585 -0.5778 -0.5138
    5TMC3    H114172   4.082   3.101  11.247  0.9336 -2.0700  1.0490
    5TMC3    H214173   3.744   2.856  11.323 -0.6955  1.0877  1.3671
    5TMC3    C714174   4.015   2.854  11.302  0.6751  0.4850  0.3419
    5TMC3    C814175   3.598   2.952  11.125 -0.4002 -0.0082 -0.2479
    5TMC3    O114176   4.126   2.880  11.255  0.5192 -0.4160  0.2602
    5TMC3    O214177   3.569   2.845  11.177 -0.1111  0.4826  0.2978
    6TMC3    C114178   3.951   1.850  10.107 -0.0498 -0.2304  0.7532
    6TMC3    C214179   4.056   1.793  10.036 -0.1778 -0.1758 -0.0462
    6TMC3    C314180   4.170   1.873  10.027 -0.0068  0.4558 -0.2159
    6TMC3    C414181   3.954   1.978  10.162 -0.5882  0.4414  0.3863
    6TMC3    C514182   4.063   2.053  10.142  0.3082 -0.2494  0.3638
    6TMC3    C614183   4.171   1.998  10.080 -0.0668 -0.8463  0.2291
    6TMC3     C14184   3.841   1.763  10.157 -0.1622 -0.2087  0.4135
    6TMC3     O14185   3.732   1.803  10.195 -0.1065  0.0792 -1.0649
    6TMC3     H14186   4.040   1.705   9.975 -1.3228 -0.0418  0.0695
    6TMC3    H114187   3.868   2.020  10.213 -0.6789  1.5404 -0.6708
    6TMC3    H214188   4.268   2.045  10.067 -0.6213 -0.2935 -1.9210
    6TMC3    C714189   4.106   2.143  10.243  0.2458  0.3001  1.0005
    6TMC3    C814190   4.297   1.798  10.025  0.3396  0.4918  0.1881
    6TMC3    O114191   4.219   2.122  10.287  0.3316 -0.5036 -0.1789
    6TMC3    O214192   4.397   1.843  10.078  0.1668  0.0286 -0.1533
    7MPD2     C14193   4.161   2.370  11.363 -0.6403 -0.8304  0.3846
    7MPD2    C114194   4.200   2.471  11.280  0.3626 -0.3432  0.3930
    7MPD2    C214195   4.136   2.592  11.279 -0.6332 -0.2772  0.1440
    7MPD2    C314196   4.038   2.618  11.370 -0.2417 -0.3338  0.0592
    7MPD2    C414197   3.999   2.514  11.459  0.0607 -0.3957 -0.2366
    7MPD2    C514198   4.058   2.393  11.452  0.1133  0.9680 -0.3441
    7MPD2     H14199   4.162   2.661  11.200  0.9699  0.0172  0.9261
    7MPD2    H114200   3.910   2.526  11.519 -1.0403 -0.4649 -1.8538
    7MPD2    H214201   4.204   2.270  11.354 -0.8146 -0.7571 -1.2881
    7MPD2    H314202   4.017   2.318  11.518  0.4045  0.7446 -0.4165
    7MPD2     N14203   3.974   2.742  11.374  0.0610 -0.1568  0.0093
    7MPD2    H514204   3.895   2.747  11.438 -0.2836  1.8895 -0.6066
    7MPD2    N114205   4.296   2.438  11.180 -0.1000 -0.1186  0.0623
    7MPD2    H714206   4.332   2.343  11.174  0.2243 -0.1925  3.1279
    8TMC3    C114207   4.450   2.481  10.995 -0.4519  0.3467 -0.1507
    8TMC3    C214208   4.406   2.384  10.910  0.1869  0.5486  0.0327
    8TMC3    C314209   4.431   2.395  10.778 -0.4617  0.3044 -0.4698
    8TMC3    C414210   4.536   2.581  10.954  1.0317 -0.6458  0.3541
    8TMC3    C514211   4.569   2.585  10.824 -0.2319 -0.1184  0.3591
    8TMC3    C614212   4.518   2.490  10.736 -0.2683 -0.1377 -0.3140
    8TMC3     C14213   4.362   2.533  11.098  0.4151 -0.8715 -0.8683
    8TMC3     O14214   4.351   2.652  11.082  0.5302  0.0307  0.0190
    8TMC3     H14215   4.324   2.319  10.939  0.6429 -1.3646 -2.9902
    8TMC3    H114216   4.584   2.646  11.026 -0.2099  1.5135 -0.7712
    8TMC3    H214217   4.541   2.501  10.631  0.4874  0.3649 -0.1000
    8TMC3    C714218   4.542   2.715  10.772  0.2844 -0.3836  0.1992
    8TMC3    C814219   4.336   2.343  10.678 -0.5088 -0.4353  0.2485
    8TMC3    O114220   4.543   2.731  10.652 -0.1333  1.1515  0.4445
    8TMC3    O214221   4.386   2.309  10.572 -0.0576 -0.5899 -0.2666
    9MPD2     C14222   3.996   2.471  10.631  0.2660 -0.6813  0.3537
    9MPD2    C114223   4.112   2.388  10.617 -0.9211  0.0862  0.4807
    9MPD2    C214224   4.102   2.300  10.507  0.4506  0.7390  0.2009
    9MPD2    C314225   4.005   2.305  10.407 -0.0538 -0.6584 -0.2337
    9MPD2    C414226   3.899   2.398  10.422  0.1722  0.0285  0.6504
    9MPD2    C514227   3.892   2.471  10.536  0.3447  0.4001  0.0877
    9MPD2     H14228   4.183   2.230  10.488  1.0570  1.8502 -1.3656
    9MPD2    H114229   3.813   2.399  10.356  0.5042  2.0914  0.2586
    9MPD2    H214230   3.983   2.537  10.715  0.0316  0.8360 -0.8852
    9MPD2    H314231   3.811   2.541  10.550  0.1073  0.0717  0.3628
    9MPD2     N14232   4.005   2.222  10.290  0.2486 -0.1311 -0.1561
    9MPD2    H514233   3.921   2.224  10.233  0.1719 -0.4640 -0.0544
    9MPD2    N114234   4.208   2.382  10.715 -0.0354 -0.0187 -0.2910
    9MPD2    H714235   4.204   2.443  10.796  4.0056 -0.4499  0.2118
    1MPD1     C14236   3.067   0.492  16.464 -0.2553  0.5249 -0.5772
    1MPD1    C114237   2.936   0.501  16.495  0.0631  0.3912 -0.5892
    1MPD1    C214238   2.877   0.627  16.503 -0.2894  0.3263  0.6661
    1MPD1    C314239   2.941   0.741  16.459 -0.8390  0.0142 -0.2630
    1MPD1    C414240   3.078   0.729  16.419  0.1658  0.6101  0.1532
    1MPD1    C514241   3.139   0.607  16.427  0.3348 -0.5246 -0.3118
    1MPD1     H14242   2.773   0.630  16.533 -0.5769 -0.9624 -0.1749
    1MPD1    H114243   3.133   0.803  16.361 -0.8181  1.8760  0.8601
    1MPD1    H214244   3.112   0.394  16.464 -0.7677  0.2977  1.4435
    1MPD1    H314245   3.236   0.602  16.380  0.0479 -1.3201 -0.8132
    1MPD1     N14246   2.887   0.869  16.448 -0.3579  0.1039 -0.1527
    1MPD1    H514247   2.943   0.940  16.402  1.4058 -1.4058 -0.3466
    1MPD1    N114248   2.861   0.385  16.522 -0.8000  0.0678  0.0104
    1MPD1    H614249   2.808   0.393  16.609 -1.5947  0.6146 -0.5201
    1MPD1    H714250   2.923   0.304  16.522 -0.0564  0.6331  1.1753
    2MPD1     C14251   1.963   1.143  16.776 -0.0055 -0.1930  0.8375
    2MPD1    C114252   2.065   1.104  16.861 -0.4218  0.1847 -0.0296
    2MPD1    C214253   2.192   1.104  16.806  1.2250 -0.6977  0.3901
    2MPD1    C314254   2.222   1.162  16.682  0.8156 -0.2728  0.4747
    2MPD1    C414255   2.117   1.218  16.608 -0.1698 -0.0066 -0.2620
    2MPD1    C514256   1.994   1.208  16.653  0.8692 -0.0361  0.8414
    2MPD1     H14257   2.271   1.063  16.868  0.7187  0.6870  1.9331
    2MPD1    H114258   2.126   1.252  16.506  0.3399 -2.4501 -1.0386
    2MPD1    H214259   1.858   1.152  16.803 -0.1882 -1.4920  0.5569
    2MPD1    H314260   1.911   1.263  16.609  0.6174  0.2152  1.6206
    2MPD1     N14261   2.358   1.167  16.648 -0.4112 -0.2529 -0.0456
    2MPD1    H514262   2.422   1.135  16.721  1.2469  0.9134 -0.9935
    2MPD1    N114263   2.031   1.036  16.980 -0.0353 -0.3096  0.2274
    2MPD1    H614264   1.944   1.062  17.027  1.0768 -1.9215  3.1854
    2MPD1    H714265   2.097   1.013  17.054  0.5485 -1.6542 -0.7118
    3TCq2    C114266   2.410   1.233  16.531  0.1019 -0.5945 -0.5141
    3TCq2    O214267   2.355   1.288  16.438  0.3860 -0.0820  0.3371
    3TCq2    C214268   2.550   1.205  16.512 -0.1451 -0.5765  0.5576
    3TCq2    C314269   2.612   1.284  16.415 -0.1469  0.3759 -0.9033
    3TCq2    C414270   2.728   1.237  16.365  0.0078  0.4463 -1.0697
    3TCq2    C514271   2.794   1.126  16.411 -0.3554 -0.6270  0.2145
    3TCq2    C614272   2.734   1.048  16.500 -0.4432 -0.1526 -0.2551
    3TCq2    C714273   2.608   1.087  16.555  0.5947 -0.1307 -0.5253
    3TCq2    C814274   2.768   0.905  16.504  0.0595 -0.1621 -0.3436
    3TCq2    O414275   2.696   0.828  16.566 -0.3293  0.3577  0.1966
    3TCq2    C914276   2.786   1.297  16.247 -0.6007  0.4047  0.1477
    3TCq2    O514277   2.724   1.389  16.191 -0.1106  0.3742  0.2595
    3TCq2    O614278   2.895   1.254  16.213  0.0226  0.6596  0.5625
    3TCq2    H214279   2.571   1.373  16.370 -0.6105  0.7316  0.2094
    3TCq2    H314280   2.876   1.089  16.350  1.4558  0.8934  1.7532
    3TCq2    H414281   2.554   1.016  16.617  1.5463 -2.3183 -2.1780
    1TCq1    O114282   0.847   0.144  13.102  0.1897 -0.9396  0.4137
    1TCq1    C114283   0.867   0.228  13.001  0.3071  0.4962 -0.2874
    1TCq1    O214284   0.806   0.333  12.976 -0.3935 -0.3968  0.3339
    1TCq1    C214285   0.987   0.198  12.941  0.7189  0.0797  0.0890
    1TCq1    C314286   1.028   0.070  12.939 -0.2737  0.2995  0.1295
    1TCq1    C414287   1.158   0.041  12.898  0.2943 -0.1845 -0.4830
    1TCq1    C514288   1.229   0.144  12.850 -0.0099 -0.4219  0.0233
    1TCq1    C614289   1.180   0.270  12.843  0.0306 -0.2573  0.4753
    1TCq1    C714290   1.055   0.298  12.886 -0.0885 -0.5468  0.4373
    1TCq1    C814291   1.263   0.385  12.821 -0.2513 -0.2066  0.2304
    1TCq1    O414292   1.199   0.490  12.808  0.3371  0.3086 -0.2012
    1TCq1    C914293   1.209   4.626  12.907 -0.7085  0.1081 -0.5452
    1TCq1    O514294   1.318   4.611  12.845  0.4028 -0.2237 -0.1691
    1TCq1    O614295   1.146   4.535  12.961 -0.2356  0.4706 -0.8642
    1TCq1    H114296   0.931   0.098  13.123  1.0843  0.5455  0.0980
    1TCq1    H214297   0.968   4.709  12.971  0.7484 -0.4980 -0.0330
    1TCq1    H314298   1.324   0.122  12.802 -0.8402 -3.1071 -0.3722
    1TCq1    H414299   1.015   0.397  12.899 -1.7936 -1.5672  2.9289
    2MPD2     C14300   1.472   0.593  12.900  0.0266  0.6043  0.0272
    2MPD2    C114301   1.498   0.457  12.891 -0.3185 -0.8270 -0.1502
    2MPD2    C214302   1.624   0.407  12.929 -0.2405 -0.1446  0.3216
    2MPD2    C314303   1.731   0.495  12.949  0.1511 -0.0621  0.0570
    2MPD2    C414304   1.705   0.631  12.947  0.2094 -0.0391 -0.1672
    2MPD2    C514305   1.576   0.681  12.928  0.7884 -0.1339  0.4637
    2MPD2     H14306   1.644   0.302  12.942  1.1078  0.3856  2.4511
    2MPD2    H114307   1.781   0.706  12.963 -1.5979  1.5482  0.9403
    2MPD2    H214308   1.375   0.639  12.885 -0.5008 -0.2714  0.7426
    2MPD2    H314309   1.558   0.787  12.933  0.8786 -0.1623  1.2381
    2MPD2     N14310   1.857   0.449  12.989  0.3251  0.2201 -0.0205
    2MPD2    H514311   1.874   0.349  12.986  0.9564  0.3841 -1.7067
    2MPD2    N114312   1.389   0.359  12.862 -0.2780  0.1927  0.9659
    2MPD2    H714313   1.410   0.261  12.876 -0.1498 -0.0980 -1.1813
    3TCq1    O114314   2.442   0.435  13.288 -0.0880 -0.3372 -0.0097
    3TCq1    C114315   2.412   0.513  13.180  0.2186 -0.0406 -0.4652
    3TCq1    O214316   2.431   0.637  13.180 -0.4878  0.0818  0.1697
    3TCq1    C214317   2.306   0.446  13.112  0.0516 -0.4858 -0.8355
    3TCq1    C314318   2.312   0.312  13.087  0.0852 -0.6039 -0.4137
    3TCq1    C414319   2.211   0.248  13.018  0.5749 -0.0125 -0.6179
    3TCq1    C514320   2.091   0.314  12.997  0.0497 -1.4071  1.3132
    3TCq1    C614321   2.082   0.448  13.037 -0.0736  0.0288  0.8226
    3TCq1    C714322   2.190   0.516  13.082 -0.2014  0.4843 -0.6670
    3TCq1    C814323   1.967   0.526  13.018 -0.6752  1.0432 -0.5067
    3TCq1    O414324   1.986   0.645  13.032 -0.5131 -0.3207 -0.1406
    3TCq1    C914325   2.220   0.110  12.982 -0.3486 -0.3160 -0.0548
    3TCq1    O514326   2.116   0.047  12.955 -0.3792  0.7009 -0.1912
    3TCq1    O614327   2.331   0.056  13.005  0.1488  0.3763  0.3131
    3TCq1    H114328   2.424   0.340  13.268 -0.3711 -0.5612  1.2885
    3TCq1    H214329   2.397   0.250  13.113  1.0331  0.4941 -0.8863
    3TCq1    H314330   2.008   0.262  12.951  0.3213  0.3932 -1.2092
    3TCq1    H414331   2.175   0.613  13.127 -1.6542 -0.7751  1.5498
    1MPD2     C14332   1.115   1.436  14.150 -0.2952 -0.4877  0.1010
    1MPD2    C114333   1.021   1.404  14.247 -0.5129 -0.0139 -0.4546
    1MPD2    C214334   0.980   1.270  14.266  0.1159 -0.1251  0.9684
    1MPD2    C314335   1.037   1.167  14.192  0.2347 -0.4416  0.9014
    1MPD2    C414336   1.132   1.199  14.103  0.6734 -0.0294 -0.2762
    1MPD2    C514337   1.178   1.335  14.079  0.8928 -0.2245 -0.7867
    1MPD2     H14338   0.895   1.253  14.330  0.2935 -0.9259  0.9804
    1MPD2    H114339   1.180   1.126  14.040  2.2622 -1.6415  2.7914
    1MPD2    H214340   1.134   1.540  14.124 -1.3448 -0.5512 -0.9183
    1MPD2    H314341   1.241   1.350  13.992  0.3675  0.1278 -1.1081
    1MPD2     N14342   0.996   1.033  14.197 -1.0991 -0.4401  0.8919
    1MPD2    H514343   1.031   0.963  14.132 -0.7405 -1.1054  1.7935
    1MPD2    N114344   0.959   1.513  14.315 -0.2745 -0.0182  0.2166
    1MPD2    H714345   1.009   1.598  14.290  1.7009 -1.4068 -0.5363
    2TMC3    C114346   0.843   1.619  14.506 -0.1593 -0.5578 -0.5302
    2TMC3    C214347   0.763   1.571  14.609 -0.0878  0.2470  0.2088
    2TMC3    C314348   0.645   1.631  14.642  0.3475 -0.6558 -0.1356
    2TMC3    C414349   0.798   1.730  14.436 -0.0517  0.0132 -0.2461
    2TMC3    C514350   0.678   1.790  14.476 -0.5908  0.5096  0.1792
    2TMC3    C614351   0.598   1.742  14.570 -0.0307  0.2055 -0.9655
    2TMC3     C14352   0.875   1.502  14.425 -0.0249 -0.1163  0.0137
    2TMC3     O14353   0.808   1.405  14.461  0.2253 -0.1086 -0.5954
    2TMC3     H14354   0.785   1.477  14.660  2.5725  0.2510 -0.9707
    2TMC3    H114355   0.857   1.766  14.353 -1.3392  0.7802 -0.8226
    2TMC3    H214356   0.498   1.773  14.595 -0.0955 -1.4964  0.9492
    2TMC3    C714357   0.647   1.914  14.417  0.1929  0.0399  1.0975
    2TMC3    C814358   0.539   1.536  14.664 -0.2951 -0.6435  0.1940
    2TMC3    O114359   0.532   1.959  14.420  0.1548 -0.3052  0.5595
    2TMC3    O214360   0.453   1.569  14.741  0.0008 -1.0001  0.3666
    3TCq1    O114361   1.526   2.666  14.124 -0.4015 -0.2360  0.1062
    3TCq1    C114362   1.563   2.560  14.197 -0.3849 -0.2671 -0.0308
    3TCq1    O214363   1.672   2.511  14.215 -0.7386  0.1445  0.2390
    3TCq1    C214364   1.457   2.549  14.290  0.5874  0.0356  0.2546
    3TCq1    C314365   1.477   2.531  14.423 -0.3117 -0.3142  0.1649
    3TCq1    C414366   1.374   2.504  14.509 -0.3799 -1.1009  0.3667
    3TCq1    C514367   1.242   2.514  14.461  0.2647  0.6092 -0.1285
    3TCq1    C614368   1.223   2.530  14.324 -0.6727 -0.2575  0.3876
    3TCq1    C714369   1.328   2.547  14.235  0.0539  0.4500  0.0075
    3TCq1    C814370   1.108   2.460  14.266 -0.1072  0.0134  0.5782
    3TCq1    O414371   1.090   2.477  14.146  0.8772  0.0860 -0.4415
    3TCq1    C914372   1.412   2.480  14.641 -0.1084 -0.5762 -0.2603
    3TCq1    O514373   1.317   2.453  14.717  0.2219 -0.3533  0.0237
    3TCq1    O614374   1.530   2.456  14.669  0.8760 -0.0601  0.3639
    3TCq1    H114375   1.434   2.695  14.141 -0.0068  2.1219 -1.7419
    3TCq1    H214376   1.576   2.513  14.463 -0.3373  3.2423  1.8163
    3TCq1    H314377   1.156   2.492  14.524 -1.0419  1.1695 -1.7504
    3TCq1    H414378   1.313   2.555  14.128 -0.3062  0.3455  0.0492
    4MPD2     C14379   0.840   2.347  14.214 -0.3668  0.3882 -1.1298
    4MPD2    C114380   0.935   2.289  14.297  0.1808 -0.0278 -0.9107
    4MPD2    C214381   0.905   2.169  14.361  0.5099  0.6461 -0.5370
    4MPD2    C314382   0.790   2.101  14.336  0.0100  0.3125  0.0197
    4MPD2    C414383   0.702   2.155  14.245  0.8655 -0.1934 -0.4847
    4MPD2    C514384   0.724   2.276  14.185  0.0691  0.4358  0.0367
    4MPD2     H14385   0.972   2.129  14.437 -0.8613 -1.2788 -0.3412
    4MPD2    H114386   0.608   2.105  14.227  0.4347 -0.6292  2.9985
    4MPD2    H214387   0.846   2.437  14.155 -1.4689  1.9342  1.1266
    4MPD2    H314388   0.641   2.315  14.126 -0.6454 -1.2820 -0.1140
    4MPD2     N14389   0.768   1.986  14.415  0.5946  0.8284 -0.2163
    4MPD2    H514390   0.844   1.945  14.468  1.7810  1.1928 -1.6364
    4MPD2    N114391   1.053   2.357  14.335  0.2783  0.1171  0.0925
    4MPD2    H714392   1.097   2.320  14.419 -0.4986 -1.5297 -0.2279
    5TMC2    C114393   0.701   0.756  14.435 -0.5643  0.2748 -0.7415
    5TMC2    C214394   0.801   0.713  14.515 -0.0039  0.3573 -0.0003
    5TMC2    C314395   0.929   0.738  14.481  0.3174 -0.3188 -0.0873
    5TMC2    C414396   0.729   0.846  14.341  0.2774  0.7346 -0.3819
    5TMC2    C514397   0.853   0.857  14.295  0.2149 -0.5063  0.0558
    5TMC2    C614398   0.961   0.804  14.365  0.1296 -0.0943 -0.2563
    5TMC2     C14399   0.596   0.827  14.522 -0.3969 -0.2239 -0.1956
    5TMC2     O14400   0.577   0.774  14.630 -0.5241  0.1339  0.7422
    5TMC2     H14401   0.786   0.654  14.605 -0.2602  1.6245  0.7868
    5TMC2    H114402   0.643   0.876  14.282 -0.1247  2.9067  1.2756
    5TMC2    H214403   1.061   0.825  14.330  0.3225  0.5577  0.6793
    5TMC2    C714404   0.879   1.000  14.267  0.4551 -0.4073 -0.2382
    5TMC2    C814405   1.028   0.648  14.528  0.1219 -0.4270 -0.1263
    5TMC2    O114406   0.777   1.066  14.280  0.4107  0.3988  0.2036
    5TMC2    O214407   0.997   0.534  14.504 -0.4587  0.3036 -0.1438
    5TMC2    O514408   1.144   0.708  14.491  0.0629 -0.2214 -0.4035
    5TMC2    H514409   1.131   0.803  14.511  1.6652 -0.3212  1.0285
    6MPD2     C14410   0.416   1.267  14.723  0.0810  0.7576  0.0240
    6MPD2    C114411   0.503   1.297  14.618 -0.5997  0.0210 -0.1225
    6MPD2    C214412   0.554   1.195  14.541  0.0768 -0.2617  0.3262
    6MPD2    C314413   0.523   1.062  14.562  0.1207  0.3843  0.9152
    6MPD2    C414414   0.448   1.037  14.672 -0.2205  0.4340 -0.0643
    6MPD2    C514415   0.390   1.134  14.746 -0.6456 -0.1351 -0.2945
    6MPD2     H14416   0.615   1.217  14.454 -0.5708 -1.1776 -0.3671
    6MPD2    H114417   0.436   0.937  14.712  1.6459  0.0155 -0.5510
    6MPD2    H214418   0.380   1.338  14.797 -1.6414  0.3998 -0.4721
    6MPD2    H314419   0.327   1.107  14.830 -1.5139 -0.6248 -1.1111
    6MPD2     N14420   0.590   0.962  14.487 -0.7496 -0.4340  0.0535
    6MPD2    H514421   0.654   0.987  14.413 -0.1627  0.4333  0.8572
    6MPD2    N114422   0.559   1.424  14.587 -0.7571  0.7234  0.0355
    6MPD2    H714423   0.625   1.430  14.510 -1.5789  0.5281 -0.6946
  945NH3     N114424   4.105   0.773  14.859 -0.7092  0.1979  0.5284
  945NH3     H214425   4.043   0.798  14.783 -0.7901 -0.7146  0.2921
  945NH3     H314426   4.113   0.675  14.834  1.2443  0.1400  1.3984
  945NH3     H414427   4.189   0.822  14.832  0.9163 -1.8105  1.9277
  946SOD     NA14428   2.939   4.273  12.132  0.0969  0.2324 -0.1434
  947SOD     NA14429   4.059   2.653  10.070 -0.3616 -0.0588  0.2375
  948SOD     NA14430   2.120   3.216   2.446 -0.6620 -0.0007  0.2236
  949SOD     NA14431   2.486   0.389  11.601 -0.7947  0.2248 -0.3225
  950SOD     NA14432   3.241   4.707   0.014 -0.1850 -0.3970 -0.4166
  951SOD     NA14433   2.789   1.623  13.826  0.3509  0.1169  0.0312
  952SOD     NA14434   1.594   1.524  10.597 -0.2018  0.1524  0.3631
  953SOD     NA14435   3.094   4.439   8.534  0.8998  0.1539  0.5898
  954SOD     NA14436   0.834   2.933  13.393  0.1682  0.0039  0.1891
  955SOD     NA14437   2.281   1.397  15.997  0.5509  0.5219  0.0684
  956SOD     NA14438   2.943   2.165   0.110  0.2286 -0.3804  0.0151
  957SOD     NA14439   0.641   1.943  11.398 -0.0393 -0.0221  0.5965
  958SOD     NA14440   3.044   1.422  15.802 -0.1988  0.3238 -0.2809
  959SOD     NA14441   0.688   3.164  15.704 -0.1610 -0.2370  0.2090
  960SOD     NA14442   2.839   2.399  13.184  0.0801 -0.2450 -0.3372
  961SOD     NA14443   1.491   0.738  12.012  0.1654 -0.2436  0.1099
  962SOD     NA14444   3.676   4.229   2.093  0.2084 -0.0531  0.4994
  963SOD     NA14445   2.839   1.342   0.768  0.6023  0.2729  0.0540
  964SOD     NA14446   1.892   0.470  14.348 -0.0673  0.2362  0.2539
  965SOD     NA14447   3.125   3.652   0.744 -0.0545  0.5986  0.3978
  966SOD     NA14448   3.408   1.000  14.962 -0.1983  0.1129  0.5672
  967SOD     NA14449   0.216   3.061   7.039 -0.1030 -0.1441  0.4797
  968SOD     NA14450   0.171   0.879   9.992  0.2099 -0.4502 -0.6372
  969SOD     NA14451   1.539   4.168  10.501  0.4472 -0.0480  0.0689
  970SOD     NA14452   1.960   3.019  16.107  0.2625  0.0994  0.4811
  971SOD     NA14453   1.952   0.071  12.808  0.1828  0.1567  0.1576
  972SOD     NA14454   0.874   1.779  11.275  0.0234  0.0142 -0.3856
  973SOD     NA14455   2.663   4.147   4.482 -0.6355  0.1392 -0.4491
  974SOD     NA14456   2.603   1.886  11.422  0.2802  0.8382  0.2728
  975SOD     NA14457   1.440   2.919   3.383  0.6605 -0.0171 -0.4724
  976SOD     NA14458   3.544   1.058  12.871  0.1158 -0.1208 -0.1300
  977SOD     NA14459   1.421   0.829  11.489  0.5857  0.0364  0.4439
  978SOD     NA14460   1.112   2.561  15.150  0.7345  0.3084  0.1292
  979SOD     NA14461   3.739   4.283  12.819  0.3430 -0.1177 -0.1583
  980SOD     NA14462   0.891   0.904  15.183  0.1688 -0.1161 -0.3475
  981SOD     NA14463   1.369   4.419  10.001  0.2354  0.1568  0.5014
  982SOD     NA14464   3.490   4.309   1.600 -0.0610 -0.3730 -0.1705
  983SOD     NA14465   1.398   3.663  16.806 -0.0925  0.3127  0.3298
  984SOD     NA14466   3.469   1.046   2.010 -0.1958  0.2123 -0.2006
  985SOD     NA14467   1.561   1.115   9.214  0.1552  0.1937  0.0432
  986SOD     NA14468   0.594   3.559   1.813  0.2408  0.1890  0.5222
  987SOD     NA14469   1.411   4.677   9.704 -0.2211  0.3774  0.1024
  988SOD     NA14470   0.244   4.182   4.717  0.0460  0.1992 -0.3930
  989SOD     NA14471   0.217   0.276   6.893 -0.2209 -0.1817  0.2972
  990SOD     NA14472   2.431   0.669  13.405  0.1779  0.0223 -0.3920
  991SOD     NA14473   2.262   0.815  14.729  0.1224  0.2596 -0.2696
  992SOD     NA14474   3.270   1.496  16.394  0.0258 -0.3992 -0.1766
  993SOD     NA14475   0.613   0.140  15.528 -0.0671 -0.0129 -0.4407
  994SOD     NA14476   1.554   0.200   9.869 -0.6969 -0.2302  0.1360
  995SOD     NA14477   1.529   3.046  12.676  0.0381 -0.1917  0.3624
  996SOD     NA14478   2.502   4.322  16.888  0.4701  0.6316  0.1515
  997SOD     NA14479   1.263   4.358  10.478  0.2524  0.0328  0.2204
  998SOD     NA14480   0.256   0.599   9.872 -0.1161  0.2232  0.5288
  999SOD     NA14481   2.397   3.869  16.588  0.2897  0.1233 -0.2961
 1000SOD     NA14482   2.855   1.352  10.756 -0.2127  0.0731  0.3427
 1001SOD     NA14483   3.859   3.825  10.551  0.2010  0.1113 -0.4022
 1002SOD     NA14484   2.823   1.987  15.135  0.1121 -0.6653 -0.1658
 1003SOD     NA14485   2.204   4.648  12.428 -0.3854 -0.3499  0.2330
 1004SOD     NA14486   1.230   4.018  10.478  0.5406 -0.6399  0.9052
 1005SOD     NA14487   2.560   1.402   2.718  0.3799 -0.3702 -0.2760
 1006SOD     NA14488   3.796   1.549   3.084  0.0404 -0.3268  0.1261
 1007SOD     NA14489   1.832   2.000  10.302 -0.1335 -0.0041  0.6684
 1008SOD     NA14490   1.996   1.601  13.641  0.0787  0.0802 -0.4153
 1009SOD     NA14491   1.730   1.021  12.047  0.0916 -0.2376  0.3498
 1010SOD     NA14492   0.991   4.419   9.159  0.2277 -0.9010  0.1388
 1011SOD     NA14493   1.446   3.902  10.645 -0.2040  0.4652 -0.6690
 1012SOL     OW14494   3.114   2.018   1.445 -0.0764  0.1935 -0.4319
 1012SOL    HW114495   3.110   1.925   1.422 -0.0053  0.4337 -1.4251
 1012SOL    HW214496   3.088   2.007   1.536 -1.4938  0.1654 -0.8458
 1013SOL     OW14497   2.694   3.529  13.146  0.0519 -0.2582  0.2295
 1013SOL    HW114498   2.697   3.615  13.187  1.6567  0.0475 -0.5396
 1013SOL    HW214499   2.689   3.563  13.056 -1.3165 -1.2753 -0.0835
 1014SOL     OW14500   4.473   1.929   1.527  0.2422 -0.2029  0.2830
 1014SOL    HW114501   4.544   1.883   1.481  0.1728 -0.2015  0.1728
 1014SOL    HW214502   4.519   2.008   1.554 -0.1844  0.6359 -1.4041
 1015SOL     OW14503   2.487   2.869   8.609  0.4888  0.5800 -0.2098
 1015SOL    HW114504   2.432   2.912   8.675 -1.7431 -1.2822 -0.8605
 1015SOL    HW214505   2.573   2.901   8.635  0.0416 -0.0441  1.9986
 1016SOL     OW14506   3.111   1.493  12.219 -0.1412  0.2216 -0.4443
 1016SOL    HW114507   3.068   1.533  12.295  2.2383  1.1387  0.4128
 1016SOL    HW214508   3.064   1.410  12.208  0.6607 -0.4396  1.0637
 1017SOL     OW14509   1.087   1.797   2.594  0.7556 -0.0062 -0.3591
 1017SOL    HW114510   1.015   1.823   2.536 -0.0321  0.0561  0.6377
 1017SOL    HW214511   1.070   1.851   2.672 -1.8595  1.6931 -2.1167
 1018SOL     OW14512   2.804   3.856  12.756 -0.0059 -0.1599  0.2135
 1018SOL    HW114513   2.759   3.930  12.796 -1.7494 -2.3971  2.4142
 1018SOL    HW214514   2.770   3.862  12.667  0.0570  0.0866  0.2067
 1019SOL     OW14515   4.718   3.632   3.646  0.3512 -0.1655  0.1097
 1019SOL    HW114516   0.078   3.659   3.686  1.3313 -2.7576 -0.1352
 1019SOL    HW214517   0.032   3.556   3.601  2.6861  2.1632 -1.9491
 1020SOL     OW14518   1.409   2.767   1.950  0.3923  0.5386  0.3432
 1020SOL    HW114519   1.496   2.777   1.913 -0.2288  2.2006 -0.6270
 1020SOL    HW214520   1.431   2.801   2.037  0.3992  0.3316  0.4233
 1021SOL     OW14521   0.278   0.481  16.891  0.3043  0.0660 -0.8480
 1021SOL    HW114522   0.331   0.409  16.855 -1.2723 -1.3309 -0.3793
 1021SOL    HW214523   0.207   0.487  16.827  1.0587 -1.4097 -1.8285
 1022SOL     OW14524   2.832   3.144   8.142  0.0457  0.6591  0.1372
 1022SOL    HW114525   2.906   3.092   8.172 -0.8957  0.2219  1.7144
 1022SOL    HW214526   2.817   3.106   8.055  0.1795 -0.1872  0.4883
 1023SOL     OW14527   3.325   2.759   7.286 -1.0793 -0.1319 -0.5841
 1023SOL    HW114528   3.274   2.703   7.227 -0.4997 -0.6715 -0.5715
 1023SOL    HW214529   3.338   2.836   7.231 -1.5728  2.6518  3.2000
 1024SOL     OW14530   2.291   4.650   5.372 -0.4034  0.2877 -0.1727
 1024SOL    HW114531   2.363   4.712   5.378 -1.1731  1.0082  1.7597
 1024SOL    HW214532   2.299   4.596   5.450 -2.3792  2.1432  1.3139
 1025SOL     OW14533   3.954   3.715  16.693  0.3967  0.2926  0.0410
 1025SOL    HW114534   3.968   3.805  16.720 -0.6418  0.4111  0.1952
 1025SOL    HW214535   3.910   3.731  16.609  0.8241 -0.5453 -0.3425
 1026SOL     OW14536   3.771   3.731  15.350 -0.0376 -0.3366  0.4914
 1026SOL    HW114537   3.770   3.665  15.420  1.4634 -1.0335 -0.1302
 1026SOL    HW214538   3.729   3.680  15.281  1.7521  0.4593 -1.1838
 1027SOL     OW14539   4.693   1.469   5.911  0.3805 -0.1258 -0.1180
 1027SOL    HW114540   0.031   1.445   5.981 -0.5929  0.4126  0.9157
 1027SOL    HW214541   4.607   1.462   5.952  0.3074 -0.1851 -0.2799
 1028SOL     OW14542   1.567   2.086   7.594  0.7216  0.2731  0.4413
 1028SOL    HW114543   1.596   1.995   7.583  0.4894  0.0700  1.5181
 1028SOL    HW214544   1.647   2.136   7.575  0.8378  0.9528  2.7236
 1029SOL     OW14545   4.045   3.840   0.595  0.0834 -0.1399 -0.3425
 1029SOL    HW114546   3.965   3.889   0.612  0.5124  0.0438  1.2401
 1029SOL    HW214547   4.022   3.748   0.608  1.0184 -0.6139 -2.0538
 1030SOL     OW14548   3.207   0.926   6.074 -0.0430 -0.4889  0.0720
 1030SOL    HW114549   3.281   0.960   6.022  0.8644 -0.4981  1.3526
 1030SOL    HW214550   3.149   0.877   6.016 -1.4882  0.3231  0.8534
 1031SOL     OW14551   1.813   4.675   4.246 -0.6497 -0.2195 -0.2874
 1031SOL    HW114552   1.764   4.633   4.316 -2.0081  0.1360 -1.0117
 1031SOL    HW214553   1.869   4.605   4.214  2.0533  0.7974  2.2616
 1032SOL     OW14554   4.527   4.412   6.155 -0.7727 -0.0891 -0.6596
 1032SOL    HW114555   4.476   4.470   6.098 -1.1852  0.2471  0.0497
 1032SOL    HW214556   4.585   4.475   6.197 -0.3267 -1.4495  0.7489
 1033SOL     OW14557   3.381   3.065   7.937 -0.1444 -0.1349  0.4523
 1033SOL    HW114558   3.381   3.019   8.021 -0.0471  0.1742  0.6201
 1033SOL    HW214559   3.391   2.988   7.880  1.1914  0.7192 -0.4890
 1034SOL     OW14560   1.251   0.926   4.761  0.6842  0.1189  0.0458
 1034SOL    HW114561   1.201   0.945   4.840 -0.6354 -3.3849  0.0384
 1034SOL    HW214562   1.286   1.015   4.757  0.5784  0.1086 -1.1498
 1035SOL     OW14563   3.701   2.051   3.869 -0.3691 -0.0828 -0.3786
 1035SOL    HW114564   3.627   1.994   3.893 -1.1364  0.8108 -0.6089
 1035SOL    HW214565   3.727   2.013   3.785  1.8700  1.2821 -0.2987
 1036SOL     OW14566   4.002   1.477   7.062  0.8982  0.3687  0.0556
 1036SOL    HW114567   3.923   1.458   7.014  0.4195  2.2130  0.0945
 1036SOL    HW214568   4.044   1.548   7.013  1.1631  0.0500 -0.1777
 1037SOL     OW14569   0.796   2.881  16.760  0.5263  0.4276 -0.0061
 1037SOL    HW114570   0.878   2.930  16.755  2.1858 -2.2241  1.0293
 1037SOL    HW214571   0.776   2.859  16.669  0.5558 -1.7761  0.5271
 1038SOL     OW14572   4.189   3.646   3.147 -0.5722  0.0323  0.2080
 1038SOL    HW114573   4.135   3.726   3.150 -1.2285 -0.4047 -0.0504
 1038SOL    HW214574   4.205   3.642   3.241 -0.6716 -1.3158  0.1588
 1039SOL     OW14575   3.518   2.419   7.845  0.1664 -0.4371  0.4623
 1039SOL    HW114576   3.511   2.447   7.936  0.5114 -0.1620  0.4035
 1039SOL    HW214577   3.538   2.326   7.853 -1.5253 -0.9120 -0.9810
 1040SOL     OW14578   0.605   3.746   6.310  0.8545 -0.6491  0.0734
 1040SOL    HW114579   0.662   3.669   6.319  0.5138 -0.8035  0.8654
 1040SOL    HW214580   0.524   3.695   6.306  2.7955 -3.7534  0.0581
 1041SOL     OW14581   0.240   0.757   2.566  0.1772 -0.0523 -0.4963
 1041SOL    HW114582   0.247   0.852   2.554 -1.5592 -0.1771 -2.4812
 1041SOL    HW214583   0.153   0.751   2.605 -0.1325  2.2074 -0.8052
 1042SOL     OW14584   2.895   2.086   2.604  0.0325  0.0997 -0.5616
 1042SOL    HW114585   2.979   2.131   2.593  0.6677 -0.8806  0.3741
 1042SOL    HW214586   2.924   1.996   2.596 -3.5111 -1.3167  2.2659
 1043SOL     OW14587   1.970   4.236  10.613 -0.4807  0.2190 -0.2816
 1043SOL    HW114588   1.875   4.241  10.618 -0.4311  0.2905  0.5797
 1043SOL    HW214589   1.988   4.146  10.641  1.9671  1.3904  1.8776
 1044SOL     OW14590   3.514   4.445   5.809 -0.3698 -0.3951  0.7796
 1044SOL    HW114591   3.599   4.441   5.765 -2.0505 -1.2873 -2.4043
 1044SOL    HW214592   3.501   4.533   5.845  2.2487  0.1475  0.3363
 1045SOL     OW14593   0.253   3.909  14.875 -0.3037 -0.3569 -0.3464
 1045SOL    HW114594   0.298   3.896  14.792  1.9413 -0.0470  0.8050
 1045SOL    HW214595   0.176   3.960  14.850  1.2358  1.9704 -0.3678
 1046SOL     OW14596   0.065   2.902   5.810  0.2520  0.0185 -0.2474
 1046SOL    HW114597   0.124   2.943   5.746 -0.8199 -1.2741 -2.0605
 1046SOL    HW214598   0.010   2.867   5.740  1.5114 -0.0614 -1.2166
 1047SOL     OW14599   2.991   1.712   7.162 -0.6291 -0.4845 -0.0823
 1047SOL    HW114600   3.077   1.751   7.150 -2.2049  2.1420 -2.7428
 1047SOL    HW214601   3.006   1.627   7.118  0.3368 -0.7496  0.7676
 1048SOL     OW14602   2.574   3.836  16.469 -0.1486  0.2861 -0.5665
 1048SOL    HW114603   2.573   3.856  16.375 -2.6273  2.3194 -0.1036
 1048SOL    HW214604   2.663   3.844  16.502 -0.3130  1.0895 -0.3275
 1049SOL     OW14605   1.218   3.733  10.658 -0.9196 -0.0993 -0.3521
 1049SOL    HW114606   1.146   3.794  10.642 -1.1010 -0.2815 -0.2257
 1049SOL    HW214607   1.269   3.744  10.578  0.9634 -0.7444  0.7549
 1050SOL     OW14608   1.798   1.387   7.052  0.5021 -0.3020  0.2882
 1050SOL    HW114609   1.844   1.464   7.017 -0.5655  1.1676  2.1292
 1050SOL    HW214610   1.728   1.429   7.101 -0.3373 -3.2033  1.5535
 1051SOL     OW14611   0.174   3.080   2.759 -0.0235  1.0318  0.5532
 1051SOL    HW114612   0.261   3.104   2.726 -0.9364 -0.6292 -3.1485
 1051SOL    HW214613   0.147   3.158   2.808  1.9757  0.1302  3.0692
 1052SOL     OW14614   1.636   2.271   7.815  0.1168 -0.1289  0.6903
 1052SOL    HW114615   1.572   2.208   7.783  1.6991 -0.9487 -0.8310
 1052SOL    HW214616   1.718   2.239   7.778  0.1992  1.5483 -0.5748
 1053SOL     OW14617   1.021   1.327   0.249  0.0254  0.7341 -0.0709
 1053SOL    HW114618   1.004   1.421   0.238 -0.6727  0.6750  0.5030
 1053SOL    HW214619   0.969   1.320   0.330  1.8009 -0.4727  0.9599
 1054SOL     OW14620   2.589   0.447   6.090 -0.5835  0.1458  0.4931
 1054SOL    HW114621   2.497   0.462   6.069 -0.4181 -0.8728 -0.9377
 1054SOL    HW214622   2.586   0.457   6.185 -0.0017 -1.8644  0.7093
 1055SOL     OW14623   2.167   4.203   6.759  0.0806 -0.0388 -0.6854
 1055SOL    HW114624   2.218   4.238   6.832 -0.6009  0.2221 -0.3339
 1055SOL    HW214625   2.101   4.144   6.794  2.0878 -2.0283 -0.2035
 1056SOL     OW14626   2.451   0.250   4.866  0.0768  0.4140  1.0610
 1056SOL    HW114627   2.374   0.296   4.900 -0.0255  1.0736 -0.0846
 1056SOL    HW214628   2.494   0.318   4.815 -1.9356  0.7471 -0.1625
 1057SOL     OW14629   2.400   3.820   7.023  0.1085 -0.1154 -0.3063
 1057SOL    HW114630   2.351   3.749   6.982  1.0201  0.4190 -2.3237
 1057SOL    HW214631   2.484   3.778   7.043  0.4978  0.2571 -1.1495
 1058SOL     OW14632   2.487   1.624   4.472 -0.5202  0.4349 -1.3492
 1058SOL    HW114633   2.407   1.667   4.504  1.0904  1.3388  1.3977
 1058SOL    HW214634   2.549   1.693   4.491 -2.1099  1.4061  0.3216
 1059SOL     OW14635   4.348   1.455   7.096  0.5271  0.0315 -0.1728
 1059SOL    HW114636   4.368   1.478   7.005  1.2801 -2.2506 -0.5887
 1059SOL    HW214637   4.425   1.481   7.147 -0.7169  0.0438  1.7062
 1060SOL     OW14638   3.148   4.645   1.179 -0.4657 -0.2530  0.2578
 1060SOL    HW114639   3.166   0.005   1.225 -0.6655 -1.1617  1.9889
 1060SOL    HW214640   3.220   4.640   1.117  0.8420  2.2663  1.5724
 1061SOL     OW14641   3.845   3.017   4.418 -0.1725 -0.3482 -0.0848
 1061SOL    HW114642   3.783   3.052   4.354 -0.3787  0.5918  0.6303
 1061SOL    HW214643   3.879   3.100   4.451  0.3923 -0.7374  0.3317
 1062SOL     OW14644   4.549   2.883  12.862 -0.0162 -0.3713  0.0256
 1062SOL    HW114645   4.491   2.960  12.862  1.7946  0.9878  5.1038
 1062SOL    HW214646   4.634   2.926  12.852  0.6571 -1.2086  2.1732
 1063SOL     OW14647   0.298   0.875   0.425  0.7452  0.5588 -0.0171
 1063SOL    HW114648   0.379   0.908   0.463 -0.8810  0.2368  3.6766
 1063SOL    HW214649   0.268   0.830   0.504  2.4634  0.0167  0.3247
 1064SOL     OW14650   3.086   3.820  13.241 -0.4328 -0.2150 -0.4778
 1064SOL    HW114651   3.169   3.862  13.218  0.1375  0.2004  2.3649
 1064SOL    HW214652   3.022   3.852  13.179 -0.6433  0.9024  0.3221
 1065SOL     OW14653   1.138   1.619   7.060 -0.2072  0.3626 -0.4124
 1065SOL    HW114654   1.184   1.703   7.060  3.1477 -1.4853  1.6430
 1065SOL    HW214655   1.170   1.593   7.146  1.9410  2.5445 -0.5699
 1066SOL     OW14656   2.101   1.200  17.646 -0.4243  0.2190 -0.3692
 1066SOL    HW114657   2.081   1.293  17.659  2.4786  0.5873  1.1931
 1066SOL    HW214658   2.196   1.206  17.654 -0.5514  0.9333  0.5784
 1067SOL     OW14659   1.832   0.360   6.446  0.2670 -0.1393 -0.3733
 1067SOL    HW114660   1.867   0.274   6.422 -0.2243 -0.3312 -0.3869
 1067SOL    HW214661   1.909   0.410   6.472 -0.2438  0.1921  0.4705
 1068SOL     OW14662   1.301   4.182  12.798  0.0199 -0.4279  0.1724
 1068SOL    HW114663   1.246   4.204  12.873  0.3875 -1.5019  0.7574
 1068SOL    HW214664   1.360   4.256  12.780 -0.8138  1.1452  3.9105
 1069SOL     OW14665   0.506   4.697  15.456  0.4504 -0.2433 -0.7520
 1069SOL    HW114666   0.502   4.653  15.371 -0.9608  0.5522 -1.0993
 1069SOL    HW214667   0.460   4.632  15.509  0.4955 -0.1298 -0.5745
 1070SOL     OW14668   3.322   4.705   3.965 -0.6947  0.3296  0.1009
 1070SOL    HW114669   3.243   0.022   4.000  0.0760  2.0927 -0.1520
 1070SOL    HW214670   3.376   4.693   4.043 -0.3669  0.6739 -0.0728
 1071SOL     OW14671   1.395   3.091   7.151 -0.3062 -0.0335 -0.6311
 1071SOL    HW114672   1.464   3.026   7.133 -0.4684 -0.5623  0.6598
 1071SOL    HW214673   1.431   3.140   7.225 -1.6061  2.4401 -1.6653
 1072SOL     OW14674   2.030   2.713   3.635  0.0471  0.2708 -0.2734
 1072SOL    HW114675   2.085   2.702   3.712 -1.6168  0.9189  1.0165
 1072SOL    HW214676   1.965   2.779   3.662 -0.1903 -0.3654  0.7276
 1073SOL     OW14677   0.414   0.070   8.356  0.4067 -0.6325 -0.5586
 1073SOL    HW114678   0.347   0.130   8.325  1.4640 -0.2052 -2.0200
 1073SOL    HW214679   0.497   0.112   8.332 -0.2465  0.8923 -0.1540
 1074SOL     OW14680   1.375   1.841   1.703  0.2070 -0.3457 -0.2786
 1074SOL    HW114681   1.367   1.911   1.638 -0.9929 -1.5850 -1.4611
 1074SOL    HW214682   1.337   1.891   1.775  0.3564 -1.4405  0.5512
 1075SOL     OW14683   1.353   0.555   7.406  0.3926 -0.2745  0.1769
 1075SOL    HW114684   1.288   0.491   7.436 -0.1787  1.0376  1.7622
 1075SOL    HW214685   1.331   0.626   7.467  0.5370 -0.2687  0.2225
 1076SOL     OW14686   1.978   1.730   1.086  0.8989 -0.2136  0.0078
 1076SOL    HW114687   1.921   1.778   1.027 -0.5599 -0.9062  0.8517
 1076SOL    HW214688   2.065   1.761   1.060  0.6253  0.8563  0.3597
 1077SOL     OW14689   1.326   3.158  12.710  0.5556  0.6377  0.5185
 1077SOL    HW114690   1.292   3.217  12.777  1.0561 -1.8321  2.9103
 1077SOL    HW214691   1.244   3.156  12.661  0.4698  2.6413  0.5581
 1078SOL     OW14692   4.217   2.198  17.305  0.4506 -1.2827  0.0556
 1078SOL    HW114693   4.176   2.244  17.378  0.5722  0.2218 -0.8127
 1078SOL    HW214694   4.263   2.269  17.259  0.4031 -0.8710  0.6302
 1079SOL     OW14695   0.497   2.087   8.615 -0.1001  0.0828  0.0134
 1079SOL    HW114696   0.555   2.162   8.630  0.0379  0.4663 -2.4697
 1079SOL    HW214697   0.433   2.102   8.685 -0.3383  2.4355 -0.6865
 1080SOL     OW14698   4.204   1.258   4.021 -0.0160  0.4017 -0.2447
 1080SOL    HW114699   4.151   1.311   4.080 -0.6369 -2.8904  2.1973
 1080SOL    HW214700   4.277   1.247   4.081  0.2590 -1.3019 -0.8651
 1081SOL     OW14701   1.845   1.913   2.548 -0.6976 -0.2375  0.0145
 1081SOL    HW114702   1.850   1.818   2.544 -0.3939 -0.2379  0.4346
 1081SOL    HW214703   1.889   1.936   2.630  1.1994 -1.9545 -0.5298
 1082SOL     OW14704   1.738   0.440  11.235 -1.0037  0.2428 -0.4647
 1082SOL    HW114705   1.723   0.427  11.142  1.1379 -1.1518 -0.6030
 1082SOL    HW214706   1.748   0.352  11.272  0.0434  0.7543  0.4782
 1083SOL     OW14707   4.590   1.419  11.203  0.3102 -0.0554  0.2417
 1083SOL    HW114708   4.620   1.329  11.189 -0.2382  0.0919 -1.9393
 1083SOL    HW214709   4.569   1.442  11.112  1.8393 -0.1903 -0.1485
 1084SOL     OW14710   1.719   2.327   0.740 -0.8623 -0.2502 -0.9444
 1084SOL    HW114711   1.666   2.352   0.816 -0.0587 -0.0587 -0.4506
 1084SOL    HW214712   1.698   2.404   0.688  0.1544  0.7784  0.1941
 1085SOL     OW14713   4.105   0.911   4.644 -0.1540  0.1180  0.1423
 1085SOL    HW114714   4.144   0.825   4.657  1.3053  0.4399 -2.1496
 1085SOL    HW214715   4.103   0.913   4.549  0.8340 -1.1545  0.1005
 1086SOL     OW14716   4.663   4.184   6.460  0.1798  0.1614  0.3577
 1086SOL    HW114717   4.678   4.215   6.549  0.0658  2.3083 -0.3812
 1086SOL    HW214718   0.018   4.130   6.442  1.0184  1.1877  0.8670
 1087SOL     OW14719   2.447   4.184  13.431 -0.0549  0.3634  0.6378
 1087SOL    HW114720   2.472   4.276  13.442 -0.9196  0.7621 -0.7781
 1087SOL    HW214721   2.502   4.138  13.496 -0.1636  1.3713  1.4353
 1088SOL     OW14722   3.500   1.792   1.779  0.9952 -0.0754  0.1978
 1088SOL    HW114723   3.420   1.829   1.742  2.0535  1.7998 -0.1700
 1088SOL    HW214724   3.537   1.754   1.699 -0.3876  0.0717 -0.5176
 1089SOL     OW14725   4.207   0.306   7.607  0.3820 -0.2812  0.1795
 1089SOL    HW114726   4.296   0.307   7.571  0.7381 -0.4639  1.0613
 1089SOL    HW214727   4.228   0.266   7.692  1.2910 -1.4826 -0.6006
 1090SOL     OW14728   4.429   4.654   0.437 -0.1784  0.0418 -0.4312
 1090SOL    HW114729   4.494   4.648   0.508  0.6586 -0.2297 -1.2253
 1090SOL    HW214730   4.465   4.595   0.371 -0.3760  0.7135 -1.1338
 1091SOL     OW14731   1.191   1.367   4.565  0.0087 -0.2774  0.1097
 1091SOL    HW114732   1.198   1.461   4.551 -0.2642 -0.2799 -0.0379
 1091SOL    HW214733   1.200   1.326   4.479 -4.2487 -1.7864  0.3880
 1092SOL     OW14734   0.288   4.279   9.308  0.3702  0.2445  0.2908
 1092SOL    HW114735   0.269   4.266   9.215 -1.8977 -0.1133  0.7938
 1092SOL    HW214736   0.325   4.202   9.351 -1.9189 -0.5289  0.8698
 1093SOL     OW14737   3.318   1.373  14.496 -0.4836  0.5709  0.1356
 1093SOL    HW114738   3.289   1.379  14.587  3.8178 -1.8951  1.6710
 1093SOL    HW214739   3.247   1.400  14.438  0.8178  1.6756 -0.9226
 1094SOL     OW14740   0.288   3.342   8.043 -0.7220  0.3452  0.3375
 1094SOL    HW114741   0.291   3.303   7.955  0.7093  0.7207  0.2318
 1094SOL    HW214742   0.322   3.429   8.022 -1.3157  0.5267  0.1156
 1095SOL     OW14743   0.356   4.685   2.856  0.1128 -0.0482  0.0342
 1095SOL    HW114744   0.380   4.711   2.945  1.6007  0.0722 -0.3938
 1095SOL    HW214745   0.301   4.611   2.880 -0.3943  0.1866 -0.4268
 1096SOL     OW14746   3.844   0.616   9.272 -0.4595  0.1332 -0.1383
 1096SOL    HW114747   3.934   0.647   9.269 -0.7488  1.1022  1.2723
 1096SOL    HW214748   3.815   0.671   9.345 -1.8027  1.0153 -1.3338
 1097SOL     OW14749   0.026   2.831  15.644  0.1146  0.0114  0.1871
 1097SOL    HW114750   4.715   2.904  15.694 -0.5615 -0.4594  0.4143
 1097SOL    HW214751   4.663   2.799  15.615 -0.5372  0.8870  1.1535
 1098SOL     OW14752   0.011   4.163   3.193  0.2995  0.1069 -0.2480
 1098SOL    HW114753   4.714   4.125   3.279 -0.3390  1.5044  0.2139
 1098SOL    HW214754   0.102   4.183   3.216  0.2048 -1.8960  1.8115
 1099SOL     OW14755   0.749   3.640   2.994 -0.1745  0.3830 -0.5169
 1099SOL    HW114756   0.670   3.587   2.983 -2.2635  3.0823  1.8114
 1099SOL    HW214757   0.815   3.572   3.008 -1.9124 -0.9528  1.2202
 1100SOL     OW14758   4.081   3.936   4.453  0.3237  0.4033  0.2687
 1100SOL    HW114759   4.045   4.017   4.417 -0.5299 -0.3365 -0.5688
 1100SOL    HW214760   4.068   3.944   4.547  1.9551  2.0456  0.3537
 1101SOL     OW14761   3.833   1.756   7.403 -0.5565 -0.1914 -0.8817
 1101SOL    HW114762   3.768   1.744   7.473 -1.1832  0.6073 -1.3313
 1101SOL    HW214763   3.916   1.734   7.446 -0.4801 -0.2223 -1.0487
 1102SOL     OW14764   1.137   1.233  17.452  0.2246 -0.2744  0.1955
 1102SOL    HW114765   1.118   1.221  17.545 -0.6633  0.1079  0.0667
 1102SOL    HW214766   1.056   1.202  17.411 -0.2590  1.5559 -0.2137
 1103SOL     OW14767   4.300   1.215   0.042 -0.4367  0.1028 -0.3527
 1103SOL    HW114768   4.351   1.214   0.123  1.0660  0.9692 -1.2797
 1103SOL    HW214769   4.366   1.252  17.676 -0.5270  0.3731 -0.2833
 1104SOL     OW14770   1.590   3.392   5.852  0.8758  0.3235 -0.1606
 1104SOL    HW114771   1.662   3.355   5.903  1.2691 -0.6655 -1.4385
 1104SOL    HW214772   1.532   3.424   5.922  0.2316 -0.4562 -0.3388
 1105SOL     OW14773   0.412   3.336   5.889 -0.3304 -0.0263  0.0773
 1105SOL    HW114774   0.469   3.267   5.922 -0.0511  0.2267  0.1326
 1105SOL    HW214775   0.452   3.407   5.940 -0.6276 -0.1460  0.4756
 1106SOL     OW14776   2.299   3.287   2.576  0.5268  0.0880 -0.2318
 1106SOL    HW114777   2.293   3.256   2.666  0.1642 -0.2854 -0.3858
 1106SOL    HW214778   2.383   3.244   2.560  0.3615 -0.0819 -0.6469
 1107SOL     OW14779   2.187   1.180   3.467  0.1963 -0.2866  0.4077
 1107SOL    HW114780   2.206   1.212   3.555 -0.8335 -2.1639  1.3199
 1107SOL    HW214781   2.262   1.120   3.465  1.1545  0.9927 -1.1295
 1108SOL     OW14782   4.627   4.694   8.444  0.1797  0.3143  0.7184
 1108SOL    HW114783   4.545   0.006   8.480 -0.2074 -0.4912  0.6116
 1108SOL    HW214784   4.612   4.602   8.423  0.5531  0.3963  0.0789
 1109SOL     OW14785   0.005   1.020   9.875 -0.3684 -0.6564 -0.2949
 1109SOL    HW114786   4.639   1.044   9.902 -0.1130 -0.6453  0.5389
 1109SOL    HW214787   4.705   1.004   9.783  0.0491 -1.9290 -0.1695
 1110SOL     OW14788   1.511   1.634   1.339 -0.2238 -0.2793  0.0523
 1110SOL    HW114789   1.576   1.584   1.291 -0.0764  0.5042 -0.5652
 1110SOL    HW214790   1.468   1.676   1.265 -2.4733  1.0718  2.1183
 1111SOL     OW14791   3.421   3.408   5.288 -0.2748  0.1694 -0.2939
 1111SOL    HW114792   3.504   3.449   5.311  0.4622 -2.0908  1.1153
 1111SOL    HW214793   3.391   3.399   5.378 -0.1499  0.6803 -0.2046
 1112SOL     OW14794   0.235   3.066   6.808 -0.4894 -0.7791  0.1884
 1112SOL    HW114795   0.190   3.119   6.743  0.8909  0.1566 -0.0099
 1112SOL    HW214796   0.310   3.031   6.759  0.3662 -1.1885  1.7868
 1113SOL     OW14797   3.513   3.738  13.873 -0.5475  0.3824  0.4399
 1113SOL    HW114798   3.449   3.700  13.934  0.7408 -0.8907  0.9890
 1113SOL    HW214799   3.581   3.747  13.939  0.8747  1.4938 -1.1827
 1114SOL     OW14800   1.640   4.542   8.899 -0.2848 -0.4767 -0.3991
 1114SOL    HW114801   1.683   4.570   8.980  1.7330 -0.2999 -1.5371
 1114SOL    HW214802   1.630   4.448   8.913 -1.3616 -0.4657 -1.1723
 1115SOL     OW14803   3.556   2.507   9.548 -0.1916 -0.7934  0.1171
 1115SOL    HW114804   3.481   2.479   9.495 -1.1098  0.2551  0.8543
 1115SOL    HW214805   3.521   2.589   9.583 -1.6699 -0.6778 -1.5989
 1116SOL     OW14806   3.038   4.597  17.629 -0.0818  0.0848  0.1171
 1116SOL    HW114807   3.032   4.503  17.645 -1.3776 -0.0631 -1.2738
 1116SOL    HW214808   2.948   4.601  17.597 -0.2557  0.1330  0.6025
 1117SOL     OW14809   2.535   0.210   3.335  0.0918 -0.2005 -0.0114
 1117SOL    HW114810   2.611   0.193   3.280  0.7875 -4.2470  2.2411
 1117SOL    HW214811   2.563   0.179   3.420  0.3674  0.8112  0.2694
 1118SOL     OW14812   0.349   3.886   7.014  0.0168  0.2265  0.0867
 1118SOL    HW114813   0.323   3.818   6.953  2.5111 -0.8644  0.2359
 1118SOL    HW214814   0.275   3.902   7.072 -0.5459  1.5876 -0.9747
 1119SOL     OW14815   3.002   4.330   1.761 -0.3339 -0.6354 -0.5843
 1119SOL    HW114816   3.007   4.416   1.720 -0.4170  0.4432  1.7151
 1119SOL    HW214817   3.062   4.276   1.709  0.6145  0.5794 -0.7416
 1120SOL     OW14818   3.800   4.341   7.702 -0.1532  0.1925 -0.0352
 1120SOL    HW114819   3.892   4.331   7.723  0.0051 -1.0826 -1.2696
 1120SOL    HW214820   3.801   4.426   7.658 -0.1695  0.4855  0.5299
 1121SOL     OW14821   2.499   1.798  16.932  0.2525  0.1596  0.4348
 1121SOL    HW114822   2.508   1.705  16.911 -4.5704  0.2638 -1.8947
 1121SOL    HW214823   2.458   1.790  17.018 -1.1431 -3.5284 -0.5910
 1122SOL     OW14824   3.435   3.319   5.856  0.0341  0.1625 -0.1833
 1122SOL    HW114825   3.440   3.360   5.943 -1.1360  0.4300 -0.2384
 1122SOL    HW214826   3.424   3.395   5.798 -0.4893 -0.0161 -0.3174
 1123SOL     OW14827   2.577   2.741   5.694  0.2853 -0.2844 -0.0456
 1123SOL    HW114828   2.609   2.827   5.668  2.2369 -1.6141 -2.0766
 1123SOL    HW214829   2.486   2.737   5.665 -0.1750  0.4970  1.3337
 1124SOL     OW14830   4.158   3.260  11.594  0.2339 -0.0246  0.0761
 1124SOL    HW114831   4.217   3.329  11.624 -0.0270  0.2243  0.0089
 1124SOL    HW214832   4.188   3.180  11.638  2.2911  1.8141  2.0520
 1125SOL     OW14833   2.718   1.868   3.411  0.2070  0.5365 -0.6337
 1125SOL    HW114834   2.733   1.895   3.320 -0.3552 -2.1290 -1.5059
 1125SOL    HW214835   2.706   1.948   3.462 -0.5443  1.5323 -2.3875
 1126SOL     OW14836   2.753   4.559  17.437  0.2857 -0.4523 -0.2077
 1126SOL    HW114837   2.735   4.565  17.343  0.9300 -1.3598 -0.3956
 1126SOL    HW214838   2.748   4.464  17.447  3.6660 -0.3823  2.0801
 1127SOL     OW14839   2.734   1.819   7.172  0.0033 -0.0636  0.0806
 1127SOL    HW114840   2.697   1.794   7.257  1.2140  0.8434  0.8863
 1127SOL    HW214841   2.812   1.763   7.163 -0.0819 -0.4692  1.7888
 1128SOL     OW14842   0.771   4.319  10.620 -0.3553 -0.5421  0.0041
 1128SOL    HW114843   0.837   4.257  10.651  0.6120  0.9037  0.8173
 1128SOL    HW214844   0.767   4.301  10.526 -0.1269 -1.9687  0.2673
 1129SOL     OW14845   3.242   1.115   1.565  1.0027  1.0547 -0.0084
 1129SOL    HW114846   3.265   1.186   1.505 -0.1002  2.8111  1.6539
 1129SOL    HW214847   3.260   1.034   1.518 -1.5564 -0.2789  1.3048
 1130SOL     OW14848   1.116   2.764   8.928 -0.2192 -0.9163 -0.8255
 1130SOL    HW114849   1.183   2.712   8.884  0.7811 -0.2992 -0.0492
 1130SOL    HW214850   1.118   2.725   9.016 -0.6434 -1.2932 -0.9806
 1131SOL     OW14851   2.070   4.517   6.102 -0.2584 -0.0399  0.2857
 1131SOL    HW114852   2.143   4.532   6.042 -1.0364  2.3063 -0.0554
 1131SOL    HW214853   2.016   4.592   6.079  2.7845  3.1178  3.3680
 1132SOL     OW14854   3.728   3.110   8.398 -0.2418 -0.8600  0.3789
 1132SOL    HW114855   3.786   3.157   8.338  0.2388 -0.7048  0.9612
 1132SOL    HW214856   3.793   3.066   8.454 -0.4465 -0.3271  1.0319
 1133SOL     OW14857   4.556   0.887   6.259  0.2041 -0.2127 -0.4945
 1133SOL    HW114858   4.610   0.920   6.330  1.0974 -3.4028  0.2774
 1133SOL    HW214859   4.529   0.973   6.225  0.3389  0.0409  0.0460
 1134SOL     OW14860   2.437   2.248  10.371 -0.0415  0.2042  0.0142
 1134SOL    HW114861   2.391   2.168  10.393 -1.8282  2.0414  2.9511
 1134SOL    HW214862   2.484   2.222  10.292  0.3647 -1.5166  0.8210
 1135SOL     OW14863   3.838   0.184   2.068  0.5577 -0.4298  0.4677
 1135SOL    HW114864   3.837   0.280   2.066 -1.0879 -0.4728 -0.4641
 1135SOL    HW214865   3.775   0.154   2.133 -1.0220  1.0738 -0.3591
 1136SOL     OW14866   4.438   0.030   2.857 -0.1708  0.2735 -0.4987
 1136SOL    HW114867   4.468   0.089   2.788 -0.2092 -1.6661 -2.1966
 1136SOL    HW214868   4.455   4.665   2.820 -4.0087 -0.4660 -0.4419
 1137SOL     OW14869   0.034   1.775   7.126  0.5115 -0.0754 -0.4330
 1137SOL    HW114870   4.699   1.734   7.190 -1.5203  0.2287 -2.0867
 1137SOL    HW214871   4.700   1.843   7.090 -1.8482 -0.5609  2.3627
 1138SOL     OW14872   3.390   2.120  11.609 -0.0086  0.0978  0.2801
 1138SOL    HW114873   3.394   2.173  11.529 -1.4000 -1.7320 -0.9814
 1138SOL    HW214874   3.388   2.173  11.688  2.7070  0.3462  0.1788
 1139SOL     OW14875   3.705   1.673   7.074 -0.1797 -0.2474  0.3600
 1139SOL    HW114876   3.722   1.621   6.995 -1.5264  1.3222 -0.9574
 1139SOL    HW214877   3.649   1.737   7.031  0.7314  0.9263  0.9310
 1140SOL     OW14878   0.123   0.731   1.023 -0.3901  0.1593  0.3574
 1140SOL    HW114879   0.073   0.669   0.971  1.6247 -0.4063 -0.8992
 1140SOL    HW214880   0.141   0.791   0.951  0.6185 -0.5797 -0.0074
 1141SOL     OW14881   0.903   0.377   1.525  0.3146 -0.0565 -0.1243
 1141SOL    HW114882   0.932   0.450   1.472 -0.8437 -1.6575 -2.9571
 1141SOL    HW214883   0.948   0.397   1.607 -0.8243  1.6727  0.0850
 1142SOL     OW14884   1.773   2.712  11.127 -0.3538  0.1432  0.0810
 1142SOL    HW114885   1.699   2.655  11.150 -0.9803  2.0110  2.7133
 1142SOL    HW214886   1.730   2.797  11.133 -0.7188  0.0724 -1.5901
 1143SOL     OW14887   0.239   0.445  12.547  0.1034 -0.1953 -0.1623
 1143SOL    HW114888   0.202   0.528  12.516  0.2370  0.9687  2.7902
 1143SOL    HW214889   0.160   0.397  12.574  1.2481 -1.4632  0.9306
 1144SOL     OW14890   3.137   0.226   8.162  0.3431  0.5344 -0.0584
 1144SOL    HW114891   3.091   0.276   8.095 -0.7008 -0.3863 -0.0175
 1144SOL    HW214892   3.131   0.283   8.239 -1.1163  2.0872 -1.3261
 1145SOL     OW14893   3.554   4.579  17.377 -0.0890  0.0184  0.5121
 1145SOL    HW114894   3.615   4.550  17.308 -0.3735  0.6382 -0.0043
 1145SOL    HW214895   3.600   4.648  17.424  1.5947  0.4946 -1.8161
 1146SOL     OW14896   1.703   1.583   1.985  0.2098  0.0746  0.7288
 1146SOL    HW114897   1.642   1.522   1.943  0.1854  1.1603 -0.8383
 1146SOL    HW214898   1.782   1.530   1.992 -0.3463 -0.4386  2.8855
 1147SOL     OW14899   0.715   1.117  16.564 -0.0123  0.3752  0.3749
 1147SOL    HW114900   0.629   1.155  16.579 -0.6566 -0.4431 -1.2858
 1147SOL    HW214901   0.699   1.057  16.492 -0.3019  3.0378 -1.7619
 1148SOL     OW14902   3.953   0.305   7.522 -0.4103  0.0978  0.1049
 1148SOL    HW114903   4.039   0.303   7.564 -1.2970 -0.0427  1.8974
 1148SOL    HW214904   3.979   0.300   7.430 -0.7471  0.6304 -0.0191
 1149SOL     OW14905   1.176   1.281   9.091  0.3720  0.2545 -0.4544
 1149SOL    HW114906   1.124   1.299   9.013  0.6829 -0.0969 -0.7448
 1149SOL    HW214907   1.198   1.191   9.067  2.9827  1.3958 -2.3791
 1150SOL     OW14908   1.363   1.389  10.024  0.6364  0.0780  0.3711
 1150SOL    HW114909   1.282   1.364  10.069  0.7199 -0.1101  0.4192
 1150SOL    HW214910   1.385   1.467  10.075  0.5561 -0.0766  0.6439
 1151SOL     OW14911   1.855   4.299   8.704  0.0092  0.2424 -0.2679
 1151SOL    HW114912   1.830   4.226   8.646  1.3141 -1.5533  1.4325
 1151SOL    HW214913   1.845   4.245   8.782  1.2084 -2.3517 -1.8910
 1152SOL     OW14914   3.275   0.531   6.455  0.3785  0.2459 -0.3360
 1152SOL    HW114915   3.245   0.583   6.380  0.9013 -1.0478 -1.4669
 1152SOL    HW214916   3.354   0.495   6.413 -0.8785  0.8855 -3.2622
 1153SOL     OW14917   3.547   1.002   6.945  0.0584 -0.5359  0.1974
 1153SOL    HW114918   3.455   1.027   6.948  0.5544  1.1767  1.0784
 1153SOL    HW214919   3.593   1.070   6.993 -1.4292 -0.0611  0.9608
 1154SOL     OW14920   0.432   1.309   2.803  0.0351 -0.0144  0.9960
 1154SOL    HW114921   0.464   1.219   2.811 -1.0505 -0.3785  1.1579
 1154SOL    HW214922   0.516   1.353   2.819 -0.5892  1.5471  0.0100
 1155SOL     OW14923   2.538   0.103   5.365  0.4525  0.3669 -0.4863
 1155SOL    HW114924   2.564   0.150   5.444  2.1584  0.2085 -0.9492
 1155SOL    HW214925   2.592   0.151   5.302  0.2777  2.8750  1.2656
 1156SOL     OW14926   1.663   0.372  10.921  1.0383  0.2791 -0.0608
 1156SOL    HW114927   1.635   0.281  10.917 -0.9605  0.7150  4.0436
 1156SOL    HW214928   1.711   0.392  10.840 -1.6215  0.9336 -1.4785
 1157SOL     OW14929   0.977   4.107  15.963  0.4671 -0.7142 -0.0105
 1157SOL    HW114930   1.001   4.183  15.909 -1.3396 -0.7949 -0.9111
 1157SOL    HW214931   0.984   4.139  16.053  1.0991 -0.9843  0.0359
 1158SOL     OW14932   4.415   1.095   5.906  0.1836 -0.2676  0.2149
 1158SOL    HW114933   4.431   1.137   5.822 -0.3931 -1.5680 -0.5317
 1158SOL    HW214934   4.503   1.073   5.938 -0.4704 -0.4594  1.8935
 1159SOL     OW14935   0.033   4.496   3.256  0.1111 -0.4882 -0.0452
 1159SOL    HW114936   0.102   4.455   3.204 -2.7593 -2.6806 -2.1763
 1159SOL    HW214937   0.077   4.572   3.292  2.1612 -0.9671 -1.5249
 1160SOL     OW14938   1.921   0.706   4.157 -0.6182 -0.1616 -0.2714
 1160SOL    HW114939   1.866   0.641   4.201 -0.5370  0.2107  0.3715
 1160SOL    HW214940   2.000   0.710   4.211  0.8207 -0.9090 -2.3341
 1161SOL     OW14941   1.869   0.087  10.715  0.1204 -0.0839 -0.1937
 1161SOL    HW114942   1.799   0.104  10.778 -0.2034  0.6013 -0.7330
 1161SOL    HW214943   1.830   0.016  10.663 -0.3391  1.4820 -1.9641
 1162SOL     OW14944   3.010   4.447   7.963 -0.0712 -0.2717 -0.1537
 1162SOL    HW114945   2.945   4.446   8.034 -1.2401 -0.1507 -1.2170
 1162SOL    HW214946   3.071   4.379   7.989  2.4284  2.0943  0.1572
 1163SOL     OW14947   3.977   0.562   7.122 -0.0728  0.2962 -0.0864
 1163SOL    HW114948   3.930   0.634   7.163 -1.4429 -1.2963  1.1461
 1163SOL    HW214949   4.004   0.598   7.038  2.6810  0.3064  0.8140
 1164SOL     OW14950   3.207   2.851   4.408 -0.3836 -0.0280 -0.0810
 1164SOL    HW114951   3.151   2.835   4.484  0.7167 -0.3352  0.6679
 1164SOL    HW214952   3.140   2.897   4.357 -0.0412  1.3395  0.7250
 1165SOL     OW14953   2.162   4.010   4.076  0.0376  0.4560  0.8372
 1165SOL    HW114954   2.203   3.953   4.011  2.4251  3.2774 -0.1275
 1165SOL    HW214955   2.178   3.968   4.160  0.3196  0.6336  0.8707
 1166SOL     OW14956   0.460   3.197   9.318 -0.4575 -0.3231  0.2772
 1166SOL    HW114957   0.452   3.170   9.410 -2.4503  0.0230  0.2130
 1166SOL    HW214958   0.468   3.114   9.271 -2.5154  0.1029 -0.8375
 1167SOL     OW14959   3.052   3.651  11.563 -0.0117  0.1182 -0.0407
 1167SOL    HW114960   3.119   3.719  11.557 -1.9997  2.0284 -0.9915
 1167SOL    HW214961   3.022   3.649  11.654 -1.4158  1.1912 -0.4687
 1168SOL     OW14962   3.197   3.479  12.024  0.5025 -0.0327  0.4182
 1168SOL    HW114963   3.154   3.404  12.065 -0.8308  1.0657  1.0106
 1168SOL    HW214964   3.267   3.501  12.085  0.1911  2.0828  0.0275
 1169SOL     OW14965   1.810   2.918   0.824 -0.0958  0.1920  0.0060
 1169SOL    HW114966   1.747   2.887   0.759  0.3198  0.8605 -0.7146
 1169SOL    HW214967   1.790   3.011   0.819  2.0578  0.6704  0.3191
 1170SOL     OW14968   0.456   1.862   2.570  0.1497  1.1495 -0.0051
 1170SOL    HW114969   0.491   1.873   2.481 -0.3056  1.8491 -0.0942
 1170SOL    HW214970   0.464   1.953   2.601  2.4899  1.2257 -0.8075
 1171SOL     OW14971   0.072   3.766   7.738 -0.3282  0.1476 -0.3050
 1171SOL    HW114972   0.072   3.835   7.805  1.2639 -1.5254  1.4180
 1171SOL    HW214973   0.023   3.698   7.785 -0.7877  1.7163  1.5264
 1172SOL     OW14974   0.831   4.322   0.822  0.1454 -0.0212  0.4657
 1172SOL    HW114975   0.898   4.308   0.888  1.2197  3.1579  0.0467
 1172SOL    HW214976   0.887   4.332   0.745 -2.5121 -0.8054 -1.6173
 1173SOL     OW14977   3.705   4.355  15.534 -0.0512 -0.0346  0.0425
 1173SOL    HW114978   3.774   4.417  15.559 -1.0836  0.7529  0.9303
 1173SOL    HW214979   3.655   4.406  15.472  0.7097  1.4757  0.6680
 1174SOL     OW14980   0.436   1.082   5.064 -0.1042 -0.0569  0.6286
 1174SOL    HW114981   0.500   1.137   5.018  1.0421 -1.8439  0.1101
 1174SOL    HW214982   0.406   1.033   4.988  1.3669 -0.3140  0.2062
 1175SOL     OW14983   2.052   2.638   7.051  0.8367 -0.1258 -0.3068
 1175SOL    HW114984   2.112   2.694   7.001  0.4908  1.0571  0.6061
 1175SOL    HW214985   2.104   2.558   7.053 -1.0698 -1.3084  1.2516
 1176SOL     OW14986   2.158   3.701   7.654  0.2582  0.4133 -0.1395
 1176SOL    HW114987   2.165   3.796   7.668  0.1199  0.6364 -1.6064
 1176SOL    HW214988   2.247   3.678   7.680 -1.0457 -0.8712  3.1981
 1177SOL     OW14989   2.471   4.300   7.631  0.0587 -0.3168 -0.2794
 1177SOL    HW114990   2.484   4.275   7.540  0.6644  1.0061 -0.5410
 1177SOL    HW214991   2.554   4.265   7.664 -0.7046 -1.4880  0.4176
 1178SOL     OW14992   2.789   0.812  14.726  0.7072 -0.8329  0.1244
 1178SOL    HW114993   2.724   0.798  14.657 -0.9856 -0.0732  1.5767
 1178SOL    HW214994   2.845   0.871  14.675 -1.7993  1.7339  0.3731
 1179SOL     OW14995   2.209   0.499   4.034 -0.3698 -0.4153 -0.2788
 1179SOL    HW114996   2.282   0.438   4.017  0.3180  0.8233 -1.7787
 1179SOL    HW214997   2.134   0.473   3.980 -2.0080  0.3041  1.6339
 1180SOL     OW14998   1.254   0.618   6.593  0.2639  0.0152  0.6552
 1180SOL    HW114999   1.276   0.635   6.501 -0.9169 -1.4706  0.1081
 1180SOL    HW215000   1.272   0.706   6.624  0.9570  0.9290 -2.2860
 1181SOL     OW15001   4.360   3.299  15.876  0.3754  0.2808  0.4587
 1181SOL    HW115002   4.447   3.313  15.913  0.0474  1.2486  0.8910
 1181SOL    HW215003   4.299   3.345  15.934 -0.4911  0.0130 -0.2301
 1182SOL     OW15004   4.196   0.894   6.305  0.2020  0.2474 -0.7368
 1182SOL    HW115005   4.138   0.841   6.250  0.1363 -0.9091  0.4378
 1182SOL    HW215006   4.166   0.862   6.390  0.6789  0.4406 -0.4972
 1183SOL     OW15007   2.910   3.686  15.777 -0.1165  0.5574 -0.0686
 1183SOL    HW115008   2.928   3.592  15.784 -0.4093  0.6937  2.4611
 1183SOL    HW215009   2.994   3.708  15.738  0.8643 -0.6149  1.3714
 1184SOL     OW15010   3.839   0.278   7.902  0.0143 -0.4315 -0.1017
 1184SOL    HW115011   3.807   0.352   7.954  1.2954 -0.7471  1.1194
 1184SOL    HW215012   3.791   0.203   7.936 -1.9257  0.5875 -0.5683
 1185SOL     OW15013   3.673   3.362  16.397 -0.2029 -0.2148 -0.1110
 1185SOL    HW115014   3.621   3.437  16.423 -0.2948  0.0277 -0.9758
 1185SOL    HW215015   3.612   3.302  16.441 -1.8495  0.1092 -1.9301
 1186SOL     OW15016   3.536   3.260   0.948 -0.4292  0.1341  0.1252
 1186SOL    HW115017   3.455   3.257   0.998 -0.7868 -0.1752 -0.4750
 1186SOL    HW215018   3.601   3.216   1.002 -1.3784  0.6157  1.6531
 1187SOL     OW15019   3.728   2.396   5.651  0.3231  0.2675 -0.5130
 1187SOL    HW115020   3.671   2.355   5.716  0.5971  1.8730  0.7527
 1187SOL    HW215021   3.739   2.329   5.584 -0.4616  0.5112 -0.8728
 1188SOL     OW15022   1.197   2.211  14.532  0.0278 -0.0048 -0.2472
 1188SOL    HW115023   1.227   2.206  14.623 -3.2556 -2.8947  0.6809
 1188SOL    HW215024   1.229   2.126  14.504  0.9702  0.1193  0.4413
 1189SOL     OW15025   4.345   0.557   8.422 -0.0597 -0.3889  0.1244
 1189SOL    HW115026   4.325   0.471   8.460  0.6082  0.1973  1.7968
 1189SOL    HW215027   4.440   0.550   8.412 -0.1262  0.4065 -1.1184
 1190SOL     OW15028   1.866   0.941   4.047  0.4697  0.0680 -0.1394
 1190SOL    HW115029   1.779   0.979   4.053  0.3812  0.2174 -2.2982
 1190SOL    HW215030   1.857   0.860   4.096 -0.4118  2.2613  3.2858
 1191SOL     OW15031   1.323   0.130   6.517  0.7990  0.7525  0.6296
 1191SOL    HW115032   1.289   0.219   6.524 -1.2212 -0.0550  0.9690
 1191SOL    HW215033   1.268   0.090   6.583 -0.1973  2.4870  0.8532
 1192SOL     OW15034   4.276   2.955  16.643 -0.4537  0.1890 -0.2810
 1192SOL    HW115035   4.191   2.913  16.657 -0.5904  0.2079 -1.0994
 1192SOL    HW215036   4.269   2.994  16.556  2.1150 -1.8927 -1.3832
 1193SOL     OW15037   2.659   0.670  13.371  0.8187  0.3629 -0.0832
 1193SOL    HW115038   2.688   0.694  13.283 -0.5165  0.4198 -0.5125
 1193SOL    HW215039   2.719   0.725  13.421  1.1999 -0.0691 -0.0708
 1194SOL     OW15040   3.676   1.543  10.942  0.4275 -0.1201 -0.4279
 1194SOL    HW115041   3.764   1.511  10.964  0.0262  0.0014  1.3616
 1194SOL    HW215042   3.673   1.546  10.847  2.4022  1.2292 -0.4511
 1195SOL     OW15043   4.325   1.058   4.923 -0.1991 -0.1943  0.4689
 1195SOL    HW115044   4.262   1.128   4.909 -0.1002  0.1963  2.0013
 1195SOL    HW215045   4.398   1.104   4.965  0.6705  0.2300 -1.4796
 1196SOL     OW15046   2.159   3.492   6.790  0.5287  0.0023  0.7497
 1196SOL    HW115047   2.201   3.490   6.705  0.1995 -0.3567  0.5964
 1196SOL    HW215048   2.140   3.399   6.805 -1.0538 -0.1798 -2.5853
 1197SOL     OW15049   1.614   0.493   7.938  0.2062 -0.4338 -0.0117
 1197SOL    HW115050   1.676   0.438   7.986 -0.0096 -0.5672  0.1119
 1197SOL    HW215051   1.671   0.566   7.915 -0.2555  0.2526  1.0378
 1198SOL     OW15052   1.398   4.387   3.489  0.4146 -0.0799 -0.6499
 1198SOL    HW115053   1.337   4.314   3.482 -0.4979  0.5634  0.6432
 1198SOL    HW215054   1.414   4.396   3.395 -1.8891  0.5887 -0.9729
 1199SOL     OW15055   3.285   2.472   1.843 -0.4521 -0.0603 -0.0827
 1199SOL    HW115056   3.269   2.422   1.763  0.6990  0.9013 -0.9191
 1199SOL    HW215057   3.346   2.536   1.807 -1.5629  1.2250  0.3354
 1200SOL     OW15058   0.408   2.002   4.047 -0.1269 -0.1984  0.0554
 1200SOL    HW115059   0.471   2.022   3.978  0.5096  1.7132  1.1809
 1200SOL    HW215060   0.422   2.080   4.101  2.7002  0.6555 -1.9290
 1201SOL     OW15061   4.037   2.059   9.671  0.3656  0.3007 -0.2861
 1201SOL    HW115062   4.117   2.078   9.719 -0.0080 -1.1046  0.8673
 1201SOL    HW215063   3.988   2.139   9.691 -2.0143 -1.6037  1.3619
 1202SOL     OW15064   0.126   0.680  12.474  0.1625 -0.1795 -0.4554
 1202SOL    HW115065   0.187   0.723  12.415 -0.0469  0.1023 -0.4633
 1202SOL    HW215066   0.132   0.740  12.548 -0.4019 -1.0134  0.2665
 1203SOL     OW15067   1.722   0.833   3.588  0.3400  0.0027 -0.7263
 1203SOL    HW115068   1.796   0.834   3.527  0.6125  1.9168 -0.3582
 1203SOL    HW215069   1.708   0.739   3.573 -0.4377  0.1737 -1.0522
 1204SOL     OW15070   4.563   1.795   5.385  0.4385  0.4379  0.0254
 1204SOL    HW115071   4.566   1.788   5.480  0.5569 -0.1426 -0.0200
 1204SOL    HW215072   4.469   1.803   5.368  0.4887  2.0122  0.4859
 1205SOL     OW15073   4.497   3.104   4.528 -0.2754 -0.3583  0.2778
 1205SOL    HW115074   4.436   3.142   4.464  1.5450 -1.3076 -2.0420
 1205SOL    HW215075   4.582   3.131   4.495 -0.1623 -1.1531 -0.0898
 1206SOL     OW15076   3.794   2.057  12.862 -0.3200 -0.0195 -0.4787
 1206SOL    HW115077   3.747   1.978  12.834 -0.7737 -1.6271  4.7158
 1206SOL    HW215078   3.791   2.039  12.956  1.1460 -1.0548 -0.6228
 1207SOL     OW15079   1.310   0.672   4.732  0.1993 -0.7775 -0.0598
 1207SOL    HW115080   1.293   0.767   4.731 -1.9941 -1.1726  0.0764
 1207SOL    HW215081   1.300   0.654   4.825 -0.2259 -0.3857 -0.0287
 1208SOL     OW15082   0.230   0.167  17.659 -0.2159  0.0165  0.3503
 1208SOL    HW115083   0.146   0.142  17.621 -0.5622  1.7165  0.0153
 1208SOL    HW215084   0.216   0.249   0.013 -2.1362 -1.3828  2.2773
 1209SOL     OW15085   3.445   4.566   7.559 -0.1359 -0.0978 -0.1277
 1209SOL    HW115086   3.466   4.524   7.476 -0.9422  0.1068 -0.4344
 1209SOL    HW215087   3.360   4.607   7.540 -1.1836 -1.3621  1.8349
 1210SOL     OW15088   1.896   4.235   8.293 -0.3345  0.9000  0.5203
 1210SOL    HW115089   1.944   4.160   8.260 -0.7590  1.2195 -0.8343
 1210SOL    HW215090   1.955   4.309   8.276 -1.0903  0.6769 -3.0655
 1211SOL     OW15091   1.115   3.813  10.384  0.4848 -0.3224  0.4867
 1211SOL    HW115092   1.073   3.728  10.370  1.6457 -0.5623 -1.4700
 1211SOL    HW215093   1.052   3.854  10.444  0.3290  1.0403 -0.6288
 1212SOL     OW15094   3.001   0.552   5.860 -0.0553 -0.6285  0.0621
 1212SOL    HW115095   2.931   0.573   5.921 -0.3306  1.1406 -0.8617
 1212SOL    HW215096   3.018   0.639   5.825  0.1949 -0.7111 -0.0242
 1213SOL     OW15097   2.639   1.837   7.512 -0.1309 -0.0520 -0.4899
 1213SOL    HW115098   2.563   1.887   7.541  0.4619  1.2639 -1.2010
 1213SOL    HW215099   2.694   1.904   7.473  0.3861 -0.0025  0.3213
 1214SOL     OW15100   2.570   2.327   2.910  0.1878  0.7417 -0.0734
 1214SOL    HW115101   2.481   2.324   2.875  1.2038 -1.3003 -2.4908
 1214SOL    HW215102   2.605   2.246   2.872  1.0699  0.7258  0.7518
 1215SOL     OW15103   2.421   0.636  10.014 -0.1807 -0.2982 -0.0075
 1215SOL    HW115104   2.408   0.715   9.961  0.2540  0.8655  1.6139
 1215SOL    HW215105   2.405   0.687  10.093  1.1785 -1.3781  0.9632
 1216SOL     OW15106   1.269   0.946   1.102 -0.1218  0.3461  0.3007
 1216SOL    HW115107   1.182   0.974   1.073 -0.2202  0.1240  0.3778
 1216SOL    HW215108   1.287   0.871   1.046 -1.7085 -0.8436  1.3774
 1217SOL     OW15109   4.272   0.811   4.976  0.0359  0.0519  0.1940
 1217SOL    HW115110   4.202   0.828   5.039  0.3306  1.3316  0.1776
 1217SOL    HW215111   4.296   0.903   4.964  1.0678 -0.5253 -2.2079
 1218SOL     OW15112   2.444   3.218   5.063  0.1966  0.2002 -0.1834
 1218SOL    HW115113   2.538   3.229   5.046  0.3475 -0.7692 -0.0291
 1218SOL    HW215114   2.429   3.279   5.135  0.6408 -2.1308  1.8852
 1219SOL     OW15115   2.784   2.168   7.797 -0.2822 -0.7954 -0.2840
 1219SOL    HW115116   2.721   2.134   7.861 -0.1718 -1.2860 -0.4374
 1219SOL    HW215117   2.731   2.243   7.774 -0.1799 -0.6654 -0.1017
 1220SOL     OW15118   2.572   4.027   8.668 -0.0103 -0.3633 -0.3185
 1220SOL    HW115119   2.487   3.982   8.660 -0.9627  1.2884  0.5658
 1220SOL    HW215120   2.642   3.970   8.636 -0.5129 -0.1054 -1.8972
 1221SOL     OW15121   1.599   2.077   8.024 -0.1816  0.1021 -0.0575
 1221SOL    HW115122   1.642   2.154   8.062 -1.3376  1.0550 -0.6958
 1221SOL    HW215123   1.547   2.047   8.098 -3.6588  2.2924 -1.6428
 1222SOL     OW15124   1.775   3.293   6.018 -0.0075 -0.0748 -0.5942
 1222SOL    HW115125   1.816   3.225   5.965  1.3267  0.0796  0.2441
 1222SOL    HW215126   1.849   3.306   6.077 -0.4457 -1.7949  0.3261
 1223SOL     OW15127   1.603   1.197  14.221 -0.2580 -0.3419  0.4084
 1223SOL    HW115128   1.536   1.129  14.221 -0.7320  0.1144 -0.1739
 1223SOL    HW215129   1.570   1.240  14.141  0.2719  0.0836  0.4157
 1224SOL     OW15130   3.007   0.054   3.102 -0.1163 -0.1443 -0.3111
 1224SOL    HW115131   3.047   0.058   3.188 -0.6675 -0.9407 -0.0210
 1224SOL    HW215132   3.017   0.144   3.072  1.7010 -0.0610  0.5585
 1225SOL     OW15133   3.213   3.711  12.990  0.3210  0.0263 -0.1587
 1225SOL    HW115134   3.151   3.784  12.984  0.0535 -0.2359 -0.5276
 1225SOL    HW215135   3.160   3.632  12.989  1.6253 -0.8551 -0.5893
 1226SOL     OW15136   3.145   2.185  16.061 -0.5548 -0.2708  0.2297
 1226SOL    HW115137   3.176   2.257  16.116 -3.4142  1.6905 -0.7261
 1226SOL    HW215138   3.172   2.110  16.113 -1.2275  0.6015  1.8358
 1227SOL     OW15139   1.505   3.117  16.812 -0.0401 -0.2466  0.0377
 1227SOL    HW115140   1.588   3.132  16.766  1.0039 -4.5968  0.5785
 1227SOL    HW215141   1.491   3.023  16.808 -1.1863 -0.0728 -0.0195
 1228SOL     OW15142   1.329   2.344   9.024 -0.1720  0.1657 -0.2269
 1228SOL    HW115143   1.403   2.328   8.966 -0.7254 -0.1746 -0.8403
 1228SOL    HW215144   1.256   2.342   8.962 -1.0940  1.7230  0.8058
 1229SOL     OW15145   3.833   1.603   0.794  0.4461 -0.3544  0.0374
 1229SOL    HW115146   3.854   1.696   0.803 -1.2455  0.0976 -0.8365
 1229SOL    HW215147   3.921   1.565   0.792  0.1366 -1.2091  2.9458
 1230SOL     OW15148   4.514   2.413  13.531 -0.0114  0.0537  0.4650
 1230SOL    HW115149   4.436   2.391  13.581 -0.2394 -1.1900 -0.4543
 1230SOL    HW215150   4.476   2.412  13.444  2.5837 -0.1014 -0.6802
 1231SOL     OW15151   1.239   1.152   5.590 -0.3599  0.2304 -0.2029
 1231SOL    HW115152   1.216   1.243   5.574 -0.2740 -0.1264 -2.4209
 1231SOL    HW215153   1.330   1.139   5.563 -0.2539 -1.3619  0.8825
 1232SOL     OW15154   3.988   3.665  10.720 -0.0004  0.6042  0.1894
 1232SOL    HW115155   3.953   3.603  10.784  0.6496 -1.1781 -1.1969
 1232SOL    HW215156   4.083   3.676  10.731  0.0767 -1.8699  1.8293
 1233SOL     OW15157   0.765   0.354   2.715  0.0240  0.0442  0.1121
 1233SOL    HW115158   0.749   0.360   2.621 -0.1183  2.8666  0.3090
 1233SOL    HW215159   0.675   0.353   2.748  0.3285  1.6594  0.9982
 1234SOL     OW15160   3.570   2.902   8.357  0.2002 -0.8210  0.0726
 1234SOL    HW115161   3.608   2.896   8.269 -2.6912  0.7044 -1.2605
 1234SOL    HW215162   3.613   2.981   8.391 -2.0944 -0.4959  2.2371
 1235SOL     OW15163   1.624   2.966   6.335  0.0668  0.2999 -0.0601
 1235SOL    HW115164   1.616   2.892   6.275 -3.1695 -0.6793  1.6009
 1235SOL    HW215165   1.602   3.037   6.274  0.1742 -0.6127 -1.1557
 1236SOL     OW15166   1.221   3.658   7.814 -0.5124 -0.7066 -0.7911
 1236SOL    HW115167   1.222   3.573   7.859 -2.8022 -0.1252  0.3141
 1236SOL    HW215168   1.166   3.636   7.739 -0.3227  1.5397 -1.5750
 1237SOL     OW15169   1.127   3.384   6.710  0.2454  0.0478 -0.4585
 1237SOL    HW115170   1.137   3.478   6.723  0.8984 -0.3285  1.8847
 1237SOL    HW215171   1.216   3.350   6.722 -0.6176 -1.1595  2.4354
 1238SOL     OW15172   1.826   0.122   8.704  0.2157 -0.2772  0.3114
 1238SOL    HW115173   1.772   0.199   8.689 -0.4977 -1.5053 -3.5893
 1238SOL    HW215174   1.845   0.127   8.797 -4.2631  0.2214  1.2110
 1239SOL     OW15175   3.886   4.435   3.730 -0.2146  0.0080 -0.3488
 1239SOL    HW115176   3.920   4.408   3.645  0.3277 -0.3740 -0.0175
 1239SOL    HW215177   3.941   4.513   3.730 -0.6727  0.3310  0.0159
 1240SOL     OW15178   3.814   4.149   7.287  0.3156 -0.1473  0.0029
 1240SOL    HW115179   3.731   4.192   7.308 -1.0551 -2.2000 -1.1972
 1240SOL    HW215180   3.785   4.063   7.256  0.3969 -0.1007 -0.1975
 1241SOL     OW15181   3.463   1.512   5.827 -0.1302 -0.7043  0.2813
 1241SOL    HW115182   3.486   1.440   5.886  0.2114  0.5872  1.7115
 1241SOL    HW215183   3.383   1.474   5.791  0.1070 -0.5650 -0.3830
 1242SOL     OW15184   3.787   0.467  11.731  0.7719  0.2117 -0.0077
 1242SOL    HW115185   3.872   0.506  11.754 -1.0668  4.2265 -0.1263
 1242SOL    HW215186   3.735   0.503  11.803 -0.1807 -1.4745  0.1460
 1243SOL     OW15187   1.300   0.354   9.240  0.3569  0.0642 -0.7610
 1243SOL    HW115188   1.375   0.321   9.191 -0.2630  0.0570 -1.7237
 1243SOL    HW215189   1.236   0.346   9.169 -0.6350 -0.6265  0.2099
 1244SOL     OW15190   2.484   2.922   8.046  0.2968 -0.6699 -0.0306
 1244SOL    HW115191   2.557   2.965   8.002 -1.4076  1.6739 -0.5722
 1244SOL    HW215192   2.504   2.831   8.022 -2.6030 -0.8193 -1.8886
 1245SOL     OW15193   2.590   1.479  15.202 -0.7014  0.2280 -0.3204
 1245SOL    HW115194   2.564   1.438  15.119  1.5500 -1.4383 -0.1937
 1245SOL    HW215195   2.525   1.433  15.255  0.6045 -1.0146  0.1946
 1246SOL     OW15196   0.371   2.445   1.334 -0.0301 -0.2482 -0.1420
 1246SOL    HW115197   0.464   2.428   1.347 -0.2240 -3.0238 -2.2497
 1246SOL    HW215198   0.349   2.461   1.426 -1.3168  2.0598 -0.8605
 1247SOL     OW15199   1.691   3.347  16.846 -0.5003 -0.0046  0.1128
 1247SOL    HW115200   1.620   3.309  16.898 -1.6570  1.0328 -0.6988
 1247SOL    HW215201   1.755   3.359  16.917  0.2678  0.6070 -0.6788
 1248SOL     OW15202   2.349   1.817   6.956 -0.1666 -0.1761  0.0588
 1248SOL    HW115203   2.336   1.847   7.046  1.7622  1.5836 -0.2637
 1248SOL    HW215204   2.438   1.782   6.958 -0.9831 -2.2915 -0.9230
 1249SOL     OW15205   4.388   2.901  14.787  0.3207  0.1035  0.2654
 1249SOL    HW115206   4.355   2.958  14.718  0.2731 -1.4388 -0.9843
 1249SOL    HW215207   4.469   2.943  14.815 -0.3530  1.3831  0.2929
 1250SOL     OW15208   0.547   2.834   5.505  0.5417 -0.0627  0.6065
 1250SOL    HW115209   0.542   2.875   5.591 -0.2917  1.1005 -0.0057
 1250SOL    HW215210   0.632   2.859   5.468  0.4210 -1.1130 -0.3838
 1251SOL     OW15211   4.022   4.205  16.956  0.0615 -0.2283 -0.3085
 1251SOL    HW115212   3.961   4.227  17.026 -0.2901 -0.0678 -0.6691
 1251SOL    HW215213   4.105   4.188  17.001 -0.4457  0.1178  0.7559
 1252SOL     OW15214   0.067   1.391  13.578  0.2662 -0.0768 -0.3714
 1252SOL    HW115215   0.064   1.297  13.595 -0.3423 -0.3076 -1.7630
 1252SOL    HW215216   0.011   1.437  13.642 -0.2796  0.0364 -0.9260
 1253SOL     OW15217   2.344   3.742   3.062  0.1152 -0.2836 -0.2030
 1253SOL    HW115218   2.409   3.695   3.114  0.2288 -1.0063 -1.0037
 1253SOL    HW215219   2.386   3.727   2.977 -0.4109 -2.7725 -0.0261
 1254SOL     OW15220   2.427   3.651  13.018 -0.1858 -0.5364 -0.3179
 1254SOL    HW115221   2.511   3.692  13.036 -1.8396  3.2253 -0.9744
 1254SOL    HW215222   2.373   3.677  13.092 -1.4610  0.2694 -1.5097
 1255SOL     OW15223   3.596   0.980   2.380 -0.5890 -0.2962 -0.2302
 1255SOL    HW115224   3.515   0.929   2.370  0.0455 -1.0279 -1.6302
 1255SOL    HW215225   3.637   0.907   2.426 -0.7933 -0.7731 -0.7912
 1256SOL     OW15226   1.711   3.378   0.746  0.4168 -0.1331  0.7421
 1256SOL    HW115227   1.648   3.438   0.707  0.0322  0.0899  1.6986
 1256SOL    HW215228   1.798   3.411   0.724  0.0174  0.1142 -0.4304
 1257SOL     OW15229   3.509   0.250   5.567  0.2064  0.2560  0.3484
 1257SOL    HW115230   3.587   0.233   5.513  0.9826 -2.1467  2.2113
 1257SOL    HW215231   3.445   0.264   5.497  0.9322 -0.8250 -0.5310
 1258SOL     OW15232   3.800   0.904   0.719  0.2752 -0.0962  0.5056
 1258SOL    HW115233   3.741   0.979   0.717  2.4058  1.5839  1.1076
 1258SOL    HW215234   3.820   0.889   0.812 -3.2140  0.9855  1.4152
 1259SOL     OW15235   1.422   0.386   4.241  0.7644  0.4808 -0.1740
 1259SOL    HW115236   1.368   0.460   4.272  3.2600  2.7806 -1.2940
 1259SOL    HW215237   1.370   0.359   4.166  1.1806  2.2408 -1.1052
 1260SOL     OW15238   1.811   0.034   2.339  0.0325  0.4638  0.1807
 1260SOL    HW115239   1.817   0.097   2.410 -0.1957  0.4691  0.1960
 1260SOL    HW215240   1.754   4.688   2.374  2.5508 -0.6437  2.0977
 1261SOL     OW15241   3.695   0.610   2.504  0.3678 -0.3402  0.0748
 1261SOL    HW115242   3.697   0.528   2.455 -1.2901 -0.6158  0.4809
 1261SOL    HW215243   3.779   0.606   2.549  0.2196 -0.5401  0.3279
 1262SOL     OW15244   1.686   1.041   3.778 -0.0545  0.3169 -0.1799
 1262SOL    HW115245   1.591   1.051   3.779  0.2239  2.7934  0.8891
 1262SOL    HW215246   1.706   0.970   3.716 -0.5763  0.5654 -0.6277
 1263SOL     OW15247   3.933   2.107   4.609 -0.6836 -0.2985 -0.0589
 1263SOL    HW115248   3.898   2.166   4.675  1.1231 -0.5967  1.1613
 1263SOL    HW215249   4.022   2.109   4.644  0.5491 -3.2128 -2.9778
 1264SOL     OW15250   0.439   0.325  12.407 -0.0365  0.4333  0.1830
 1264SOL    HW115251   0.370   0.367  12.459 -0.7925 -0.8681  0.2125
 1264SOL    HW215252   0.444   0.243  12.455 -1.5164  0.7576  0.9048
 1265SOL     OW15253   0.704   1.041   6.196  0.2054 -0.1964  0.0140
 1265SOL    HW115254   0.699   1.120   6.249  0.8077  0.4844 -0.9568
 1265SOL    HW215255   0.623   0.994   6.217  0.0249 -0.1365 -0.5373
 1266SOL     OW15256   4.302   3.204   9.871 -0.0190 -0.0843 -0.3910
 1266SOL    HW115257   4.352   3.134   9.914  0.8271  0.4116 -0.5685
 1266SOL    HW215258   4.378   3.255   9.842  1.9079 -2.9756 -0.4923
 1267SOL     OW15259   2.851   0.924   6.874  0.4006 -0.0901  0.0563
 1267SOL    HW115260   2.841   0.855   6.808 -2.3267  0.4077 -0.0394
 1267SOL    HW215261   2.843   0.876   6.957 -0.2326 -1.9841 -1.1199
 1268SOL     OW15262   2.198   0.575  11.834 -0.4158 -0.1117  0.1887
 1268SOL    HW115263   2.151   0.645  11.789  0.4961 -1.2982 -2.6345
 1268SOL    HW215264   2.291   0.592  11.821 -0.6396  1.4375  0.6258
 1269SOL     OW15265   3.466   2.769   6.758  0.4904  0.2460  0.3718
 1269SOL    HW115266   3.529   2.771   6.687 -1.0949 -0.5186 -1.0504
 1269SOL    HW215267   3.529   2.773   6.830  0.0341 -0.1133  0.7916
 1270SOL     OW15268   3.199   3.524   9.532  0.3146  1.3157  0.0418
 1270SOL    HW115269   3.115   3.491   9.500 -0.4653  0.5691  2.8497
 1270SOL    HW215270   3.204   3.517   9.627 -0.4007 -0.4225 -0.0514
 1271SOL     OW15271   1.137   3.545  16.131 -0.3821  0.4387  0.4625
 1271SOL    HW115272   1.231   3.548  16.112 -0.4076  0.1944  0.3125
 1271SOL    HW215273   1.122   3.452  16.145 -0.9522  0.2142 -1.7835
 1272SOL     OW15274   2.524   1.860   6.085 -0.1431 -0.4509 -0.5903
 1272SOL    HW115275   2.525   1.788   6.021  2.4120 -1.1728  0.2319
 1272SOL    HW215276   2.435   1.856   6.119  1.3018  1.0927  3.2594
 1273SOL     OW15277   1.949   3.681   6.640  0.2971  0.1149 -0.1578
 1273SOL    HW115278   1.918   3.710   6.555  0.5317  1.5276  0.2287
 1273SOL    HW215279   2.002   3.603   6.622  0.3850 -0.0039  0.6111
 1274SOL     OW15280   4.024   4.065   1.483  0.1476  0.0005  0.3386
 1274SOL    HW115281   3.958   4.110   1.536 -0.3983  0.5925 -0.8379
 1274SOL    HW215282   4.092   4.041   1.547  0.5088  0.4927  0.1402
 1275SOL     OW15283   1.316   2.596   8.861  0.1926  0.4203  0.4273
 1275SOL    HW115284   1.345   2.578   8.771 -0.5331 -0.7983  0.4337
 1275SOL    HW215285   1.384   2.546   8.905  0.3562  1.5979  1.4960
 1276SOL     OW15286   3.551   0.660  16.639 -0.4588 -0.0208  0.3786
 1276SOL    HW115287   3.541   0.662  16.734  0.0618 -1.4345  0.4725
 1276SOL    HW215288   3.501   0.582  16.616  2.5572 -2.1184  0.9819
 1277SOL     OW15289   0.703   1.859   2.864  0.5974  0.1982  0.1388
 1277SOL    HW115290   0.624   1.914   2.868  1.1492  1.0849 -1.2479
 1277SOL    HW215291   0.705   1.803   2.942  0.4254  2.2934  1.6700
 1278SOL     OW15292   0.997   1.964   1.709 -0.0829  0.2685  0.3916
 1278SOL    HW115293   0.969   1.992   1.622  1.1361 -0.8656 -0.3644
 1278SOL    HW215294   0.919   1.986   1.759  0.9188  1.8474  1.2963
 1279SOL     OW15295   0.728   1.668  12.515  0.2273 -0.1932 -0.3881
 1279SOL    HW115296   0.634   1.680  12.508 -0.1617 -1.7183  2.1008
 1279SOL    HW215297   0.752   1.675  12.608 -2.3469 -4.0605  0.5948
 1280SOL     OW15298   3.941   0.083   3.863  0.1274  0.1039  0.4930
 1280SOL    HW115299   3.883   0.109   3.935  1.2155  0.9382  1.0657
 1280SOL    HW215300   3.988   0.015   3.912 -0.5658 -0.2980  0.6011
 1281SOL     OW15301   1.251   1.542   2.510 -0.0670 -0.0433  0.6405
 1281SOL    HW115302   1.304   1.605   2.460 -0.1024  1.6197  2.6814
 1281SOL    HW215303   1.202   1.603   2.566 -0.3623  0.8286 -0.5740
 1282SOL     OW15304   2.411   3.418   5.252  0.2920 -0.1419 -0.6654
 1282SOL    HW115305   2.420   3.511   5.232  0.3383 -0.0782 -0.3489
 1282SOL    HW215306   2.394   3.418   5.346 -1.0730  0.5404 -0.9080
 1283SOL     OW15307   2.249   2.712  13.646 -1.6225  0.1093 -0.1814
 1283SOL    HW115308   2.308   2.746  13.579 -1.0718  1.6316  1.0803
 1283SOL    HW215309   2.168   2.760  13.630 -1.0981  1.3780  0.9430
 1284SOL     OW15310   2.942   3.989   8.159  0.5182  0.3392 -0.6337
 1284SOL    HW115311   2.963   3.898   8.181  0.4416  0.7947  1.3362
 1284SOL    HW215312   3.006   4.020   8.096  0.4272  0.0718 -0.8585
 1285SOL     OW15313   3.254   1.460   4.325  0.5378 -0.5941  0.1176
 1285SOL    HW115314   3.192   1.393   4.299 -2.2613  1.4252  1.5884
 1285SOL    HW215315   3.279   1.492   4.239 -0.8466 -1.8745 -0.7519
 1286SOL     OW15316   3.696   4.280  14.272  0.3344 -0.4121 -0.1727
 1286SOL    HW115317   3.690   4.376  14.267 -0.2289 -0.4028  0.6700
 1286SOL    HW215318   3.716   4.258  14.181  0.4563 -1.2013  0.0470
 1287SOL     OW15319   0.270   3.975   5.898  0.2615 -0.1520  0.4888
 1287SOL    HW115320   0.249   3.983   5.991 -1.0726  0.1439  0.1651
 1287SOL    HW215321   0.364   3.960   5.909  1.0986  3.5013 -1.5404
 1288SOL     OW15322   1.622   2.669   2.998 -0.5578 -0.2718  0.1838
 1288SOL    HW115323   1.661   2.742   2.950  0.7716  1.3353  3.7331
 1288SOL    HW215324   1.548   2.644   2.943 -0.1333 -0.2187 -0.4081
 1289SOL     OW15325   0.310   1.623   8.396 -0.7242  0.2464 -0.6427
 1289SOL    HW115326   0.338   1.674   8.320  1.0435  0.0892 -0.1108
 1289SOL    HW215327   0.327   1.674   8.475 -3.1998 -0.1200  0.1104
 1290SOL     OW15328   1.334   1.094   5.964  0.5607  0.2113  0.0092
 1290SOL    HW115329   1.388   1.040   6.022 -3.9231 -3.3209  0.8283
 1290SOL    HW215330   1.378   1.068   5.883  1.0302 -0.5958  0.5169
 1291SOL     OW15331   2.261   2.825   4.276 -0.4075 -0.1653  0.0938
 1291SOL    HW115332   2.278   2.878   4.354 -1.3104 -0.5625  0.5523
 1291SOL    HW215333   2.224   2.888   4.215 -1.3595 -1.6173 -0.8172
 1292SOL     OW15334   0.680   4.024   4.160  0.2528  0.4456 -0.6688
 1292SOL    HW115335   0.698   4.071   4.079 -0.2238  0.9469 -0.4828
 1292SOL    HW215336   0.744   3.956   4.141  0.7123  1.3971 -2.4886
 1293SOL     OW15337   0.986   1.744   5.776 -0.4800  0.5136  0.1137
 1293SOL    HW115338   0.998   1.839   5.784  2.0421  0.3164 -1.4462
 1293SOL    HW215339   1.077   1.719   5.790 -0.1892  0.6715 -1.5440
 1294SOL     OW15340   0.986   0.971   7.364  0.4959  0.1654 -0.2477
 1294SOL    HW115341   1.055   1.023   7.404 -0.3032  0.6222  0.5343
 1294SOL    HW215342   0.948   1.044   7.314  2.0534  0.3411 -1.1680
 1295SOL     OW15343   0.029   2.521   5.812  0.1589 -0.6096  0.3254
 1295SOL    HW115344   0.004   2.571   5.889 -0.8544 -0.2770 -0.2142
 1295SOL    HW215345   4.716   2.581   5.746  0.3498 -0.0391  0.7392
 1296SOL     OW15346   1.446   0.330  13.595 -0.3876  0.5993 -0.4220
 1296SOL    HW115347   1.541   0.325  13.605 -0.2778  1.4244 -1.0478
 1296SOL    HW215348   1.435   0.246  13.551 -0.0731  0.5730 -0.4528
 1297SOL     OW15349   3.247   2.022   3.293 -0.3694  0.4524  0.7917
 1297SOL    HW115350   3.179   1.955   3.287 -0.3931  0.5938 -0.6861
 1297SOL    HW215351   3.213   2.077   3.364 -0.5680 -0.5993  1.5051
 1298SOL     OW15352   1.921   0.498  11.853 -0.0255 -0.1568 -0.1142
 1298SOL    HW115353   2.014   0.518  11.839 -0.0379  0.9560  1.3721
 1298SOL    HW215354   1.923   0.404  11.837 -0.5999  0.4243 -3.4675
 1299SOL     OW15355   3.315   0.908   2.435 -0.9002 -0.2496 -0.0786
 1299SOL    HW115356   3.371   0.854   2.491  0.5725  0.2480 -1.0490
 1299SOL    HW215357   3.229   0.877   2.461 -1.1555  0.6215  0.1193
 1300SOL     OW15358   0.593   3.201  16.744  0.4213  0.5477 -0.1634
 1300SOL    HW115359   0.539   3.167  16.815  2.0723 -1.4163  0.1621
 1300SOL    HW215360   0.681   3.172  16.769  0.9210  1.5297 -0.8010
 1301SOL     OW15361   0.632   2.192   4.706  0.0454 -0.4439 -0.5419
 1301SOL    HW115362   0.645   2.097   4.699 -2.3944 -0.8410  0.4691
 1301SOL    HW215363   0.617   2.199   4.800 -1.4158 -1.5546 -0.6892
 1302SOL     OW15364   0.054   4.572  10.813 -0.5813  0.4729 -0.0623
 1302SOL    HW115365   0.033   4.533  10.729 -1.3024 -1.6063  1.0926
 1302SOL    HW215366   0.121   4.633  10.781  0.6433 -1.3254 -0.9096
 1303SOL     OW15367   4.307   2.186   4.562  0.0864  0.6809 -0.2552
 1303SOL    HW115368   4.384   2.177   4.618  0.0219 -0.0759 -0.2947
 1303SOL    HW215369   4.235   2.181   4.624  0.3568  2.2376  0.1891
 1304SOL     OW15370   1.005   2.586   3.858 -0.0683 -0.3965  0.1635
 1304SOL    HW115371   1.069   2.618   3.920 -1.4504 -0.5812  1.6829
 1304SOL    HW215372   1.040   2.498   3.840  0.4206  0.1062 -1.3260
 1305SOL     OW15373   1.802   2.201   7.491  0.2162 -0.3818 -0.1388
 1305SOL    HW115374   1.872   2.259   7.462  1.0636 -1.3099  0.0621
 1305SOL    HW215375   1.851   2.130   7.532 -1.1664 -1.2958 -0.0692
 1306SOL     OW15376   4.065   1.837   5.556 -0.5544 -0.0336  0.1749
 1306SOL    HW115377   4.074   1.869   5.645 -0.1437  0.0034  0.1200
 1306SOL    HW215378   4.059   1.920   5.509 -0.0468 -0.4721 -0.6695
 1307SOL     OW15379   0.300   3.843   2.494 -0.1436 -0.0741 -0.0834
 1307SOL    HW115380   0.352   3.808   2.566  1.7909 -0.4195 -1.6411
 1307SOL    HW215381   0.367   3.894   2.448 -2.8104  2.1873 -1.4237
 1308SOL     OW15382   3.756   3.820   3.847 -0.2269 -0.1507 -0.2206
 1308SOL    HW115383   3.842   3.852   3.819 -0.2985 -0.4414 -0.7686
 1308SOL    HW215384   3.751   3.744   3.789  1.6376  1.3846 -2.4257
 1309SOL     OW15385   2.958   1.898   4.509  0.2841  0.0130  0.3700
 1309SOL    HW115386   3.037   1.929   4.553 -0.1082 -0.0739  1.1401
 1309SOL    HW215387   2.987   1.826   4.453  0.0544  0.9260 -0.9225
 1310SOL     OW15388   1.096   3.743   8.785  0.0033 -0.7486 -0.0693
 1310SOL    HW115389   1.018   3.746   8.840 -1.9397  0.7284 -2.8809
 1310SOL    HW215390   1.101   3.648   8.774 -0.3723 -0.9282  1.3738
 1311SOL     OW15391   3.544   4.270   7.783 -0.0960 -0.0182 -0.3588
 1311SOL    HW115392   3.627   4.307   7.755  0.2630 -0.1017  0.5938
 1311SOL    HW215393   3.540   4.181   7.748  2.2224 -0.9900  1.8124
 1312SOL     OW15394   3.271   1.663  16.542  0.5710  0.1696 -0.2395
 1312SOL    HW115395   3.305   1.751  16.561 -0.9105  0.8971 -0.9628
 1312SOL    HW215396   3.200   1.667  16.607  0.4237 -1.3417 -0.3081
 1313SOL     OW15397   0.474   1.065   4.142 -0.3431 -0.4159 -0.6662
 1313SOL    HW115398   0.514   1.076   4.056 -0.7955  1.2211 -0.6666
 1313SOL    HW215399   0.547   1.022   4.187 -0.2945  1.6599  1.2368
 1314SOL     OW15400   1.015   0.747   0.968 -0.5218 -0.4502 -0.1488
 1314SOL    HW115401   1.085   0.709   1.021  0.3197  1.5802  0.1936
 1314SOL    HW215402   1.026   0.837   0.999  0.3766  0.0235 -1.8142
 1315SOL     OW15403   3.267   0.496   1.341 -0.1028  0.1590 -0.0900
 1315SOL    HW115404   3.172   0.487   1.334 -0.3618  1.7655  1.4279
 1315SOL    HW215405   3.296   0.463   1.427  1.5274  0.9031 -0.3619
 1316SOL     OW15406   0.507   4.054  13.116  0.2597  0.8445 -0.6439
 1316SOL    HW115407   0.512   4.132  13.172 -0.4013 -0.1598  0.8231
 1316SOL    HW215408   0.534   4.102  13.038  1.3833  1.0293 -0.1401
 1317SOL     OW15409   4.301   4.702   8.446  0.0192 -0.7236 -0.0533
 1317SOL    HW115410   4.218   4.709   8.493 -0.5914  0.0617 -1.2404
 1317SOL    HW215411   4.299   4.607   8.438 -0.2692 -0.5564 -1.9100
 1318SOL     OW15412   3.328   1.379  14.888  0.1345 -0.2941 -0.5529
 1318SOL    HW115413   3.301   1.327  14.812 -2.4118 -0.0380  0.1895
 1318SOL    HW215414   3.424   1.381  14.887  0.1427 -0.7611 -0.7444
 1319SOL     OW15415   1.642   0.902   0.919  0.3363  0.2073  0.0370
 1319SOL    HW115416   1.721   0.926   0.870  0.0709  1.4822  0.2364
 1319SOL    HW215417   1.619   0.819   0.878  0.1870  0.5972 -0.6723
 1320SOL     OW15418   3.039   3.959   5.236 -0.5458  0.7464 -0.3106
 1320SOL    HW115419   3.113   4.020   5.239  1.0803 -1.2297 -0.5913
 1320SOL    HW215420   3.013   3.965   5.144 -2.8342 -3.2734  0.0807
 1321SOL     OW15421   1.946   4.105   8.916 -0.3943  0.5310 -0.0203
 1321SOL    HW115422   2.015   4.146   8.967  1.2266  0.2537 -1.9746
 1321SOL    HW215423   2.005   4.048   8.866  0.7335  1.1280  0.6415
 1322SOL     OW15424   1.712   2.997   8.572 -0.6881 -0.5651 -0.0069
 1322SOL    HW115425   1.792   2.956   8.541 -0.6183 -1.7696  1.7537
 1322SOL    HW215426   1.710   3.078   8.521  0.6129  1.5362  3.2852
 1323SOL     OW15427   3.938   2.641   9.158  0.7421  0.2838  0.4355
 1323SOL    HW115428   3.870   2.704   9.183  1.5186  1.4719 -0.4850
 1323SOL    HW215429   4.005   2.633   9.225 -1.5573  0.0447  2.7225
 1324SOL     OW15430   1.138   3.802   3.108  0.1061  0.2219 -0.4768
 1324SOL    HW115431   1.149   3.734   3.042 -0.9450  1.8361 -2.3135
 1324SOL    HW215432   1.229   3.831   3.109 -0.2942  1.4700  0.3922
 1325SOL     OW15433   1.342   1.808   7.434 -0.1135 -0.2210 -0.0889
 1325SOL    HW115434   1.327   1.884   7.378  2.5394  0.9713  0.8440
 1325SOL    HW215435   1.412   1.763   7.387  0.4837 -0.6555  1.2217
 1326SOL     OW15436   4.514   4.663   3.254 -0.2536 -0.3419 -0.2301
 1326SOL    HW115437   4.462   4.610   3.194 -1.3462  0.1884  0.2453
 1326SOL    HW215438   4.586   4.600   3.252  1.3396  1.4504  0.1957
 1327SOL     OW15439   4.298   4.535   4.645 -0.1555 -0.6397 -0.8717
 1327SOL    HW115440   4.304   4.491   4.560 -0.0880  0.3996 -1.4069
 1327SOL    HW215441   4.288   4.627   4.619  1.8023 -0.0350  0.5578
 1328SOL     OW15442   0.032   1.487   5.512  0.3547  0.5483 -0.2102
 1328SOL    HW115443   4.677   1.544   5.507 -0.5099 -0.5081  1.3635
 1328SOL    HW215444   0.027   1.439   5.429 -1.1966 -0.2216  0.3381
 1329SOL     OW15445   3.798   4.095   3.553 -0.0348 -0.4567 -0.7565
 1329SOL    HW115446   3.858   4.063   3.486  0.5914 -0.1112 -0.3576
 1329SOL    HW215447   3.865   4.093   3.621 -1.7727  1.3103  1.0222
 1330SOL     OW15448   3.037   4.055   8.807 -0.1022  0.3513 -0.4344
 1330SOL    HW115449   3.066   3.984   8.864  3.1187  1.5724 -0.5332
 1330SOL    HW215450   2.942   4.056   8.793 -0.0191 -0.4828 -1.0621
 1331SOL     OW15451   3.720   3.910   8.754 -0.8629 -0.3011 -0.0597
 1331SOL    HW115452   3.654   3.956   8.701 -1.7357 -1.9315 -0.4003
 1331SOL    HW215453   3.735   3.976   8.822 -0.6312 -0.7322  0.3052
 1332SOL     OW15454   3.422   3.560   9.134 -0.0965 -0.3654 -0.3584
 1332SOL    HW115455   3.509   3.590   9.106 -0.2076  0.0200 -0.2821
 1332SOL    HW215456   3.441   3.493   9.201  0.7370 -0.8193 -1.0423
 1333SOL     OW15457   2.027   2.894   0.370 -0.4944  0.3280 -0.2058
 1333SOL    HW115458   2.099   2.836   0.343 -1.6474 -0.4623 -1.6245
 1333SOL    HW215459   1.998   2.848   0.449  2.5036 -0.5604  0.3579
 1334SOL     OW15460   3.042   3.047   8.993 -0.1460 -0.7700  0.1416
 1334SOL    HW115461   3.094   2.967   8.989 -0.6696 -1.2089  2.1757
 1334SOL    HW215462   2.974   3.016   9.054 -0.2267  1.4560  1.1869
 1335SOL     OW15463   0.945   1.588   2.685 -0.3148  0.5191  0.0216
 1335SOL    HW115464   1.020   1.636   2.648 -0.8962  0.8201 -0.7505
 1335SOL    HW215465   0.905   1.567   2.601 -0.5149  1.8954 -0.2292
 1336SOL     OW15466   3.571   2.609  13.583 -0.0649  0.2763  0.3241
 1336SOL    HW115467   3.518   2.579  13.510  0.1368 -2.2648  1.2165
 1336SOL    HW215468   3.535   2.551  13.650  2.2742  0.1453  1.4857
 1337SOL     OW15469   1.514   1.048   4.973  0.0082 -0.5345  0.2518
 1337SOL    HW115470   1.447   1.089   5.028 -0.4294 -1.8208  0.6701
 1337SOL    HW215471   1.536   1.110   4.904  0.6132  0.2004  1.0918
 1338SOL     OW15472   2.515   2.990   0.037  0.3070  0.0754  0.2252
 1338SOL    HW115473   2.573   2.920   0.009  0.3284  0.6059 -1.0658
 1338SOL    HW215474   2.489   2.962   0.125  0.2375 -0.2551  0.0994
 1339SOL     OW15475   1.271   1.529   7.351  0.1277 -0.3764 -0.0527
 1339SOL    HW115476   1.350   1.546   7.402  1.4314  0.2079 -2.2729
 1339SOL    HW215477   1.220   1.607   7.375 -1.1354 -0.5508 -2.1944
 1340SOL     OW15478   2.667   0.954  11.425  0.2910 -0.0381 -0.5090
 1340SOL    HW115479   2.611   0.889  11.468  0.2563 -0.2949 -0.9416
 1340SOL    HW215480   2.622   0.964  11.341  0.5056 -1.5730 -0.8140
 1341SOL     OW15481   4.309   4.587  13.380  0.3946 -0.3017 -0.4128
 1341SOL    HW115482   4.339   4.533  13.453 -1.8286  0.3196  0.9445
 1341SOL    HW215483   4.335   4.524  13.313  1.3269 -0.9148  0.5266
 1342SOL     OW15484   0.892   1.457  17.637 -0.1746 -0.1837  0.3499
 1342SOL    HW115485   0.818   1.447  17.577 -0.1103 -3.7263  0.8515
 1342SOL    HW215486   0.844   1.474   0.025  0.4324 -1.5418  0.9927
 1343SOL     OW15487   2.753   3.634  12.904 -0.6092  0.1784  0.4813
 1343SOL    HW115488   2.778   3.710  12.851 -1.7344  0.4425  0.3223
 1343SOL    HW215489   2.731   3.571  12.835  0.8306  0.4680 -0.2385
 1344SOL     OW15490   4.624   0.672   2.224  0.0022  0.2231 -0.0849
 1344SOL    HW115491   4.572   0.741   2.183  0.1280  0.7451  0.6440
 1344SOL    HW215492   4.706   0.719   2.239 -0.5430  0.5323  1.9163
 1345SOL     OW15493   1.425   1.063  12.579 -0.5144  0.1251 -0.3941
 1345SOL    HW115494   1.389   1.009  12.649  0.8911 -0.7814 -0.3758
 1345SOL    HW215495   1.390   1.018  12.502  1.2275  0.5741 -1.4471
 1346SOL     OW15496   3.840   2.828   6.109 -0.0199 -0.4640 -0.8069
 1346SOL    HW115497   3.825   2.824   6.014  1.2755 -0.3156 -1.0195
 1346SOL    HW215498   3.843   2.924   6.106 -0.2490 -0.4325 -0.0530
 1347SOL     OW15499   1.915   1.431   1.918  0.1784 -0.3296  0.0574
 1347SOL    HW115500   1.985   1.375   1.883 -0.5200 -1.4069  0.3861
 1347SOL    HW215501   1.905   1.496   1.848  0.6030 -1.5166 -1.1215
 1348SOL     OW15502   2.825   3.118   7.509 -0.7039  0.2754 -0.2936
 1348SOL    HW115503   2.814   3.206   7.473  1.2926  0.6149 -0.0904
 1348SOL    HW215504   2.901   3.107   7.565 -0.5070  1.3901 -0.3567
 1349SOL     OW15505   4.465   2.634  14.711 -0.2193 -0.2070 -0.3253
 1349SOL    HW115506   4.389   2.631  14.652  2.4977  1.4688 -3.9219
 1349SOL    HW215507   4.442   2.717  14.752  2.4421 -0.9773  2.6650
 1350SOL     OW15508   4.270   4.373   8.507  0.0476  0.8428  0.1467
 1350SOL    HW115509   4.245   4.285   8.480 -1.0313  0.2976  2.8635
 1350SOL    HW215510   4.202   4.380   8.574 -1.0484 -0.7056 -0.8261
 1351SOL     OW15511   2.304   1.912  16.740 -0.3217 -0.4665  0.2184
 1351SOL    HW115512   2.325   1.914  16.647 -0.5564  2.0215  0.2039
 1351SOL    HW215513   2.381   1.884  16.789  0.3794  0.0043 -0.6258
 1352SOL     OW15514   2.253   0.898   3.332  0.2971 -0.1239  0.7121
 1352SOL    HW115515   2.259   0.803   3.343  0.6483 -0.1397  0.3800
 1352SOL    HW215516   2.337   0.913   3.290  0.8737  0.2968  2.0206
 1353SOL     OW15517   3.541   1.363   4.197 -0.0327 -0.0538 -0.5549
 1353SOL    HW115518   3.544   1.457   4.218  0.8453 -0.5259  1.5184
 1353SOL    HW215519   3.519   1.369   4.104  0.2753 -1.9735 -0.7441
 1354SOL     OW15520   1.886   3.081   4.727  0.3125 -0.2034 -0.0576
 1354SOL    HW115521   1.820   3.145   4.752 -0.5803 -0.4916 -1.6343
 1354SOL    HW215522   1.888   3.091   4.631 -1.2547  1.8959  0.1231
 1355SOL     OW15523   4.080   1.680  11.728 -0.0744  0.4593 -0.1340
 1355SOL    HW115524   4.103   1.595  11.692  0.2068  0.1606  0.7870
 1355SOL    HW215525   4.158   1.733  11.710  0.2258 -0.4008 -1.3695
 1356SOL     OW15526   2.916   1.681   4.962  0.0486  0.5840  0.5867
 1356SOL    HW115527   3.001   1.723   4.953  0.2638  0.0254 -0.0018
 1356SOL    HW215528   2.935   1.605   4.907 -1.6995  0.9534 -0.5193
 1357SOL     OW15529   2.675   2.674   3.979  0.2840 -0.0897 -0.6790
 1357SOL    HW115530   2.736   2.734   3.936 -1.2556  0.9747 -1.3772
 1357SOL    HW215531   2.714   2.657   4.065 -1.1550  0.7014  0.1454
 1358SOL     OW15532   4.661   1.669   6.830  0.1543 -0.4563  0.0984
 1358SOL    HW115533   4.697   1.725   6.898  1.8609 -1.8778  0.3560
 1358SOL    HW215534   4.611   1.735   6.781  0.5561 -0.9600 -0.9841
 1359SOL     OW15535   0.691   0.848   2.208 -0.1665 -0.4951  0.4686
 1359SOL    HW115536   0.680   0.824   2.116 -2.3953  0.1703  0.5839
 1359SOL    HW215537   0.782   0.823   2.228 -0.4989 -1.3108  0.9504
 1360SOL     OW15538   1.728   4.476  11.520  0.1433  0.8391 -0.2942
 1360SOL    HW115539   1.672   4.511  11.450  0.2251  0.6083 -0.4774
 1360SOL    HW215540   1.753   4.556  11.565  0.8890  1.0311 -1.0489
 1361SOL     OW15541   4.560   0.354  16.373  0.1175 -0.3754 -0.6860
 1361SOL    HW115542   4.611   0.399  16.441 -0.9601 -1.8143  1.0818
 1361SOL    HW215543   4.634   0.327  16.318  1.1049  0.9138  0.0147
 1362SOL     OW15544   0.458   0.611   0.531 -0.1317 -0.0027 -0.0925
 1362SOL    HW115545   0.407   0.675   0.580  1.1329  0.6982  0.3091
 1362SOL    HW215546   0.536   0.606   0.587 -0.2131  1.0148  0.1066
 1363SOL     OW15547   4.305   3.380   5.813 -0.1307 -0.1160 -0.4396
 1363SOL    HW115548   4.258   3.334   5.743 -3.0501 -0.3292  1.6117
 1363SOL    HW215549   4.391   3.342   5.797 -0.3493 -1.2291  0.9723
 1364SOL     OW15550   1.777   2.461   1.165 -0.2467  0.1617 -0.1437
 1364SOL    HW115551   1.724   2.537   1.189 -1.0486 -0.6261  0.5850
 1364SOL    HW215552   1.844   2.499   1.109 -1.3872 -1.0466 -2.3466
 1365SOL     OW15553   1.448   2.107  11.544  0.0916  0.3876  0.1513
 1365SOL    HW115554   1.472   2.138  11.457 -1.2458  1.3091  0.1259
 1365SOL    HW215555   1.376   2.160  11.576 -0.2303  1.3498 -2.1951
 1366SOL     OW15556   4.697   3.093  10.445  0.0046  0.1151  0.2665
 1366SOL    HW115557   4.697   3.063  10.535  0.1434 -0.2921  0.1329
 1366SOL    HW215558   4.697   3.013  10.392 -2.0933  0.8521 -0.8570
 1367SOL     OW15559   3.349   1.362   0.894  0.0272  0.2230 -0.7359
 1367SOL    HW115560   3.411   1.398   0.831 -0.3321 -0.1895 -1.3217
 1367SOL    HW215561   3.351   1.268   0.875 -3.8160  0.4137 -2.1059
 1368SOL     OW15562   2.865   2.638   5.977  0.0373  0.7557  0.7957
 1368SOL    HW115563   2.784   2.606   5.936 -0.4520  2.5715  0.3284
 1368SOL    HW215564   2.930   2.635   5.907  1.0456 -0.5911  1.7870
 1369SOL     OW15565   3.873   2.425   8.034  0.3725 -0.2110 -0.0175
 1369SOL    HW115566   3.917   2.375   7.965 -1.7269 -0.4910 -1.1430
 1369SOL    HW215567   3.784   2.439   8.002  0.4910  0.4756 -0.0486
 1370SOL     OW15568   2.571   2.848   4.294  0.7740 -0.3013  0.6076
 1370SOL    HW115569   2.483   2.810   4.297  0.6926 -0.2739 -1.4767
 1370SOL    HW215570   2.612   2.784   4.352 -1.6042 -0.8240  1.7205
 1371SOL     OW15571   1.111   3.047   1.717  0.4158 -0.0260  0.0691
 1371SOL    HW115572   1.155   2.963   1.700  2.6709  1.1171  0.2329
 1371SOL    HW215573   1.157   3.106   1.657  0.9442 -0.4733  0.0327
 1372SOL     OW15574   4.443   0.843  15.180 -0.1642  0.3280 -0.4310
 1372SOL    HW115575   4.354   0.806  15.182  0.3908 -1.0003 -0.2933
 1372SOL    HW215576   4.488   0.758  15.178 -1.0846 -0.1922  0.7716
 1373SOL     OW15577   2.962   3.395   7.731 -0.1833  0.0831  0.3135
 1373SOL    HW115578   2.964   3.304   7.758 -1.2778  0.1419  0.5931
 1373SOL    HW215579   3.052   3.422   7.714  0.1800 -1.9066 -0.9309
 1374SOL     OW15580   1.554   1.671   4.249 -0.3633 -0.3086 -0.2054
 1374SOL    HW115581   1.492   1.722   4.197 -1.6429  0.2272  1.8258
 1374SOL    HW215582   1.590   1.741   4.304 -2.0978 -1.3230  2.2591
 1375SOL     OW15583   2.209   1.211   2.466 -0.8759  0.7130  0.5072
 1375SOL    HW115584   2.246   1.269   2.532  0.8972 -0.3520  0.4468
 1375SOL    HW215585   2.259   1.254   2.397  1.2860 -0.1962  1.4889
 1376SOL     OW15586   2.204   2.235   7.455  0.5156  0.5554 -0.0124
 1376SOL    HW115587   2.290   2.276   7.450  0.2328  0.8420 -2.6303
 1376SOL    HW215588   2.154   2.305   7.497  0.2855 -0.2881  1.1083
 1377SOL     OW15589   2.908   2.707  12.823  0.6141  0.0812 -0.4927
 1377SOL    HW115590   2.969   2.633  12.819 -0.1861 -0.6305  0.5994
 1377SOL    HW215591   2.907   2.743  12.735  2.6070  1.4281  0.0287
 1378SOL     OW15592   2.285   2.437   4.644 -0.2264  0.2402 -0.0438
 1378SOL    HW115593   2.352   2.469   4.583  2.0087  3.1759  3.9606
 1378SOL    HW215594   2.206   2.423   4.592 -0.9951 -1.6476  1.6651
 1379SOL     OW15595   1.618   2.289  11.777  0.2016  0.1398  0.1540
 1379SOL    HW115596   1.544   2.308  11.834  1.4857 -0.6428  2.0982
 1379SOL    HW215597   1.642   2.198  11.791  2.0572  0.0573 -3.4731
 1380SOL     OW15598   1.684   2.606   0.083  0.5027  0.3694 -0.8168
 1380SOL    HW115599   1.621   2.650   0.027  1.5159  1.2458 -1.2777
 1380SOL    HW215600   1.697   2.531   0.025 -0.9943  0.5162 -1.3448
 1381SOL     OW15601   4.069   4.321   5.728  0.0093  0.1369 -0.1256
 1381SOL    HW115602   4.147   4.302   5.676  0.6238 -0.2496  0.9209
 1381SOL    HW215603   4.092   4.305   5.820  0.3979  2.3157  0.1688
 1382SOL     OW15604   4.261   1.875  13.144  0.2520 -0.0986  0.1833
 1382SOL    HW115605   4.260   1.779  13.140 -1.5655 -0.1387  1.9411
 1382SOL    HW215606   4.321   1.890  13.217 -0.5365  0.7236  0.6585
 1383SOL     OW15607   2.522   1.985  14.834  0.4194  0.1343  0.0524
 1383SOL    HW115608   2.534   1.891  14.839  0.6720 -0.0765 -3.8758
 1383SOL    HW215609   2.435   1.989  14.794  1.6368  0.4780 -2.5954
 1384SOL     OW15610   3.726   3.280   6.762 -0.1165  0.1993  0.2722
 1384SOL    HW115611   3.708   3.232   6.843  0.7734  0.2074  0.4761
 1384SOL    HW215612   3.648   3.334   6.754  0.5381  0.7495 -2.2565
 1385SOL     OW15613   4.693   1.035   5.950  0.3351  0.3063  0.5889
 1385SOL    HW115614   4.696   0.956   5.895 -2.6469  1.3599 -1.1016
 1385SOL    HW215615   0.063   1.059   5.959 -0.0270  1.8164  0.1443
 1386SOL     OW15616   2.809   0.646  12.005 -0.3365 -0.0866 -0.2528
 1386SOL    HW115617   2.808   0.726  12.056 -0.1743 -1.6377  2.1628
 1386SOL    HW215618   2.714   0.633  11.996 -0.2828 -0.1434 -0.7770
 1387SOL     OW15619   0.769   2.765  12.996  0.2511  0.5843  0.1180
 1387SOL    HW115620   0.703   2.833  13.009  0.8015  1.6030 -2.3879
 1387SOL    HW215621   0.771   2.756  12.900 -3.3343  0.0919  0.1090
 1388SOL     OW15622   0.991   1.388   7.130  0.4404  0.1632 -0.8539
 1388SOL    HW115623   1.040   1.467   7.108  0.6069  0.3952  0.4036
 1388SOL    HW215624   0.953   1.371   7.043 -3.8559  0.8301  0.9169
 1389SOL     OW15625   3.666   3.952   7.174 -0.3025  0.4074 -0.2416
 1389SOL    HW115626   3.586   4.000   7.195 -1.6671 -2.6502  1.4764
 1389SOL    HW215627   3.647   3.957   7.080  0.9398  0.3326 -0.4962
 1390SOL     OW15628   4.262   3.468   8.709  0.3353 -0.2176 -0.2598
 1390SOL    HW115629   4.303   3.398   8.659 -0.7225 -0.9695 -0.0726
 1390SOL    HW215630   4.326   3.536   8.688 -0.0889  0.6142  1.1369
 1391SOL     OW15631   3.360   3.726  13.639 -0.6128  0.0661  0.3329
 1391SOL    HW115632   3.367   3.743  13.733  1.8410  0.6232  0.0704
 1391SOL    HW215633   3.410   3.644  13.643  1.6055  1.4016  0.0171
 1392SOL     OW15634   4.295   4.245   3.746 -0.8143 -0.2911  0.1004
 1392SOL    HW115635   4.279   4.285   3.660 -0.7833 -0.9927 -0.2320
 1392SOL    HW215636   4.281   4.321   3.803  2.8628  0.4121  0.0660
 1393SOL     OW15637   4.308   2.136   5.831  0.2382 -0.1000  0.7182
 1393SOL    HW115638   4.238   2.166   5.889 -2.3250  0.1842 -2.5371
 1393SOL    HW215639   4.283   2.044   5.820  2.4894 -0.6261 -0.1538
 1394SOL     OW15640   4.459   3.927  14.152 -0.4787 -0.0483 -0.5038
 1394SOL    HW115641   4.555   3.935  14.158 -0.4814 -1.3023  0.9347
 1394SOL    HW215642   4.422   3.947  14.237  1.0293 -0.5401  0.2655
 1395SOL     OW15643   3.288   3.107  13.285  0.3113 -0.3845  0.4693
 1395SOL    HW115644   3.201   3.119  13.323  0.1449  1.8499 -0.5627
 1395SOL    HW215645   3.312   3.200  13.296  1.5245 -0.4423 -1.6946
 1396SOL     OW15646   4.342   2.812   4.850 -0.5946  0.4400 -0.2738
 1396SOL    HW115647   4.383   2.887   4.806 -1.1892  0.6234 -0.5162
 1396SOL    HW215648   4.249   2.830   4.841 -0.4108  1.1302 -0.8527
 1397SOL     OW15649   3.852   4.461  16.427 -0.2035 -0.8053  0.2037
 1397SOL    HW115650   3.794   4.420  16.491 -0.3114  0.5964  0.9895
 1397SOL    HW215651   3.873   4.377  16.385 -0.3782 -0.9074  0.3203
 1398SOL     OW15652   1.416   0.814   3.757 -0.4183  0.2470  0.5988
 1398SOL    HW115653   1.349   0.774   3.811 -0.7672 -3.9086 -2.9278
 1398SOL    HW215654   1.472   0.738   3.743  0.9455  1.0114  1.8877
 1399SOL     OW15655   1.419   3.917   6.321 -0.0537  0.2067  0.9585
 1399SOL    HW115656   1.401   4.011   6.316  2.5953  0.7211  1.0572
 1399SOL    HW215657   1.505   3.931   6.359  0.1531 -1.4807  1.1212
 1400SOL     OW15658   1.637   0.730   1.451  0.1231 -0.6138 -0.0020
 1400SOL    HW115659   1.544   0.751   1.439  0.5351  0.1541 -1.8301
 1400SOL    HW215660   1.661   0.820   1.473 -2.0540 -0.2800  1.0914
 1401SOL     OW15661   1.222   1.706   9.974  0.0357  0.6184 -0.3691
 1401SOL    HW115662   1.141   1.695  10.024 -0.8621  0.8987 -1.7770
 1401SOL    HW215663   1.281   1.669  10.040 -1.4458  0.7905  1.0596
 1402SOL     OW15664   4.487   2.410   6.709  0.7637 -0.6834  0.0578
 1402SOL    HW115665   4.466   2.404   6.802 -1.0517  0.0787 -0.2965
 1402SOL    HW215666   4.461   2.502   6.698  3.0753 -0.0734 -0.3543
 1403SOL     OW15667   1.505   3.856   4.218  0.2408 -0.1894  0.3531
 1403SOL    HW115668   1.519   3.948   4.243  3.6883 -0.0364 -2.1462
 1403SOL    HW215669   1.475   3.811   4.297 -0.4461 -0.5181 -0.0960
 1404SOL     OW15670   1.339   1.733   6.161  0.2439 -0.3587  0.1215
 1404SOL    HW115671   1.296   1.817   6.145 -0.2651 -0.0704  2.9891
 1404SOL    HW215672   1.317   1.682   6.083 -1.4804  0.2857  0.2029
 1405SOL     OW15673   0.557   4.331  10.767 -0.3575 -0.0872  0.0027
 1405SOL    HW115674   0.644   4.328  10.728 -0.8062 -1.5618 -0.8775
 1405SOL    HW215675   0.566   4.397  10.836  0.9973  0.2840 -0.5378
 1406SOL     OW15676   4.508   1.134  12.351  0.5162  0.5327  0.0976
 1406SOL    HW115677   4.504   1.163  12.260  0.7900  0.2272 -0.0114
 1406SOL    HW215678   4.419   1.155  12.378  1.4708  2.8278  1.4643
 1407SOL     OW15679   2.010   1.419   7.440 -0.0872 -0.0076 -0.1088
 1407SOL    HW115680   1.975   1.497   7.398  0.7195 -0.0724 -0.9097
 1407SOL    HW215681   2.102   1.429   7.415  0.3438 -1.4237  0.8943
 1408SOL     OW15682   0.505   0.216   3.193 -0.2136  0.8979 -0.5604
 1408SOL    HW115683   0.422   0.258   3.220 -0.8894 -0.3865 -0.6517
 1408SOL    HW215684   0.562   0.271   3.246 -0.0746 -0.0177  0.2276
 1409SOL     OW15685   3.553   2.787   8.955 -0.0728  0.3167 -0.1817
 1409SOL    HW115686   3.491   2.776   9.027  0.9557 -2.2393  0.3149
 1409SOL    HW215687   3.537   2.701   8.916 -0.9809 -0.1365  1.1677
 1410SOL     OW15688   1.321   4.324   6.893 -0.5658 -0.0926  0.1085
 1410SOL    HW115689   1.310   4.413   6.926 -0.1638 -0.0282  0.0749
 1410SOL    HW215690   1.238   4.295   6.855  1.4099 -1.1168 -3.4391
 1411SOL     OW15691   1.078   0.533   5.867 -0.8563  0.3473  0.4682
 1411SOL    HW115692   1.014   0.550   5.936 -1.5037 -1.2504  0.2610
 1411SOL    HW215693   1.147   0.485   5.913 -1.9805  0.0694  1.8401
 1412SOL     OW15694   2.949   3.761   7.795 -0.5086  0.0000  0.2799
 1412SOL    HW115695   3.018   3.731   7.735  1.3224  3.3697  0.7198
 1412SOL    HW215696   2.999   3.770   7.876  1.0480  1.2173 -0.8009
 1413SOL     OW15697   2.229   1.747  13.121 -0.0998  0.4253  0.0182
 1413SOL    HW115698   2.258   1.665  13.160 -1.4423  0.1973  0.5478
 1413SOL    HW215699   2.149   1.718  13.078  1.2868 -2.3272 -0.7221
 1414SOL     OW15700   1.453   2.879   2.196  0.1480  0.5242  0.2523
 1414SOL    HW115701   1.499   2.914   2.272 -1.3837  0.7667  1.0570
 1414SOL    HW215702   1.419   2.966   2.175 -1.1722  0.4504  2.1527
 1415SOL     OW15703   1.875   0.701   1.805  0.1960 -0.4263 -0.1237
 1415SOL    HW115704   1.904   0.677   1.717  0.3859  0.6459 -0.3533
 1415SOL    HW215705   1.884   0.795   1.787  0.1910 -0.7240 -1.6293
 1416SOL     OW15706   2.048   1.570   0.584 -0.7555 -0.3362 -0.5200
 1416SOL    HW115707   2.109   1.634   0.621  0.6853 -0.8320 -2.0438
 1416SOL    HW215708   2.003   1.559   0.667 -1.2877  0.6460 -0.6771
 1417SOL     OW15709   4.042   3.822  10.411 -0.2202  0.1829  1.0749
 1417SOL    HW115710   4.040   3.820  10.315 -0.6813 -1.7136  1.1119
 1417SOL    HW215711   4.137   3.815  10.422  0.0229 -0.0102 -1.0485
 1418SOL     OW15712   3.510   0.344   3.052  0.2909 -0.0323 -0.4828
 1418SOL    HW115713   3.450   0.400   3.102 -0.2644 -1.9996  1.0737
 1418SOL    HW215714   3.454   0.267   3.044 -0.2478  0.0060  3.0123
 1419SOL     OW15715   1.339   0.708  12.564  0.0913 -0.5022  0.9141
 1419SOL    HW115716   1.352   0.749  12.479  0.8747 -1.0339  0.7789
 1419SOL    HW215717   1.386   0.626  12.555  0.0604 -0.1468 -2.4146
 1420SOL     OW15718   2.835   1.789   7.719  0.3673  0.1502  0.2421
 1420SOL    HW115719   2.863   1.765   7.631 -1.1536 -2.3420  0.4255
 1420SOL    HW215720   2.750   1.831   7.703 -0.8133 -1.9247  1.0363
 1421SOL     OW15721   4.484   3.693   0.926  0.6765 -0.1177  0.5180
 1421SOL    HW115722   4.418   3.735   0.870  3.1829  0.5902 -1.9000
 1421SOL    HW215723   4.516   3.628   0.864  2.9341  1.0788  0.4490
 1422SOL     OW15724   4.362   1.410   4.563 -0.2025  0.0883 -0.4267
 1422SOL    HW115725   4.292   1.473   4.579 -0.3912 -0.2616  0.1376
 1422SOL    HW215726   4.399   1.444   4.482  1.3516 -0.3286  0.1090
 1423SOL     OW15727   2.764   0.894   4.192 -0.1310  0.2162  0.2128
 1423SOL    HW115728   2.707   0.917   4.265 -2.0827 -0.9817 -0.9419
 1423SOL    HW215729   2.706   0.896   4.115  0.6244  0.9396 -0.3343
 1424SOL     OW15730   3.068   0.299   2.965 -0.2724 -0.1033 -0.4090
 1424SOL    HW115731   3.032   0.346   2.890  0.5491 -0.1328 -0.8189
 1424SOL    HW215732   3.134   0.251   2.916 -0.3122  0.9959 -1.5515
 1425SOL     OW15733   2.972   0.219   7.071  0.3986 -0.3342 -0.5755
 1425SOL    HW115734   2.992   0.312   7.058 -3.9132  0.9156  1.6371
 1425SOL    HW215735   2.973   0.191   6.980  0.4076 -0.6089 -0.4888
 1426SOL     OW15736   0.903   2.515  15.725 -0.0253  0.6403 -0.1470
 1426SOL    HW115737   0.949   2.436  15.699  0.2476  1.0363 -0.8574
 1426SOL    HW215738   0.867   2.536  15.639 -0.3828  1.0498  0.0976
 1427SOL     OW15739   0.358   4.221   1.986 -0.2807  0.0063 -0.3855
 1427SOL    HW115740   0.365   4.138   2.033  0.7270  0.0796 -0.3988
 1427SOL    HW215741   0.408   4.206   1.906 -0.4442  2.2879 -0.9158
 1428SOL     OW15742   0.278   2.664   3.898  0.3829  0.0591  0.2639
 1428SOL    HW115743   0.201   2.617   3.867  1.2518 -0.3541 -1.2474
 1428SOL    HW215744   0.267   2.690   3.990  0.6231 -0.5939  0.4740
 1429SOL     OW15745   1.717   0.375   1.642 -0.0411  0.8530 -0.0738
 1429SOL    HW115746   1.700   0.359   1.549 -2.0960 -1.9119  0.7428
 1429SOL    HW215747   1.661   0.311   1.687 -0.8826  1.0375 -0.8418
 1430SOL     OW15748   1.170   0.145  16.881  0.2805 -0.2010 -0.6918
 1430SOL    HW115749   1.090   0.192  16.858 -0.8337 -1.3910  0.7061
 1430SOL    HW215750   1.138   0.089  16.952  3.6840 -0.1947  0.8322
 1431SOL     OW15751   4.555   4.395   4.413 -0.4621 -0.0226 -0.1056
 1431SOL    HW115752   4.463   4.369   4.404 -0.4361 -0.1012 -0.1454
 1431SOL    HW215753   4.599   4.319   4.376  1.9490  0.7587  1.2079
 1432SOL     OW15754   1.450   1.694   5.064  0.4581 -0.2643 -0.4221
 1432SOL    HW115755   1.401   1.686   4.982  1.0357  1.4948 -0.9346
 1432SOL    HW215756   1.483   1.604   5.063 -2.1838 -1.2446 -0.9342
 1433SOL     OW15757   4.545   0.875  16.297  0.2522 -0.4896  0.6987
 1433SOL    HW115758   4.558   0.815  16.370  1.0781 -0.3676  0.6469
 1433SOL    HW215759   4.450   0.887  16.308  0.7150  4.2540 -0.2647
 1434SOL     OW15760   0.717   0.133   6.372  0.2597 -0.4164 -0.3810
 1434SOL    HW115761   0.731   0.040   6.389 -2.2048 -0.8479 -0.7524
 1434SOL    HW215762   0.704   0.153   6.280  0.3124  0.7205 -0.1383
 1435SOL     OW15763   2.816   4.511   8.184  0.2831 -0.0729  0.0971
 1435SOL    HW115764   2.860   4.596   8.178  0.8694 -0.2079  2.7167
 1435SOL    HW215765   2.802   4.513   8.278  2.0733 -0.0286  0.3686
 1436SOL     OW15766   0.109   0.840   3.152 -0.3317  0.1339 -0.3804
 1436SOL    HW115767   0.070   0.756   3.128 -1.4720  0.2902  0.9971
 1436SOL    HW215768   0.182   0.831   3.090  0.1711  3.3649 -0.2201
 1437SOL     OW15769   3.975   3.458  11.134  0.0732 -0.3431 -0.1533
 1437SOL    HW115770   3.954   3.519  11.205  1.5259  3.0419 -2.5932
 1437SOL    HW215771   4.061   3.487  11.103  0.5798 -0.5343  1.1068
 1438SOL     OW15772   1.515   2.737   5.270  0.2518  0.2306 -0.1145
 1438SOL    HW115773   1.489   2.828   5.255 -2.0401 -0.3387  0.3474
 1438SOL    HW215774   1.452   2.699   5.208  1.1361 -0.0929 -0.8124
 1439SOL     OW15775   1.193   2.710  13.821 -0.0500 -0.3715  0.4591
 1439SOL    HW115776   1.178   2.727  13.728 -0.7278 -0.0625  0.6261
 1439SOL    HW215777   1.134   2.636  13.840  0.8580 -1.2548 -0.1621
 1440SOL     OW15778   2.530   4.384   2.755  0.5808  0.3457 -0.0054
 1440SOL    HW115779   2.559   4.360   2.843 -1.7450 -1.3740  0.2921
 1440SOL    HW215780   2.562   4.304   2.712  0.1090  0.4928 -0.6231
 1441SOL     OW15781   2.364   4.539   7.612  0.1319  0.5912  0.1224
 1441SOL    HW115782   2.292   4.523   7.552 -0.0905  1.5668  0.1328
 1441SOL    HW215783   2.416   4.459   7.623 -1.1242 -0.4625 -1.5091
 1442SOL     OW15784   4.217   3.703  17.340  0.3153 -0.5087  0.1391
 1442SOL    HW115785   4.232   3.765  17.411 -0.6158  2.4733 -2.3071
 1442SOL    HW215786   4.273   3.631  17.368  2.6045  0.6998 -1.4261
 1443SOL     OW15787   0.852   1.980   1.465  0.0575 -0.5026 -1.0847
 1443SOL    HW115788   0.874   2.064   1.424 -0.6055  0.2364  0.0673
 1443SOL    HW215789   0.763   2.003   1.492 -0.2906 -1.8169 -1.1188
 1444SOL     OW15790   0.749   2.302   4.480  0.0099  0.0042  0.2502
 1444SOL    HW115791   0.714   2.248   4.409 -0.3850  0.1185  0.3564
 1444SOL    HW215792   0.697   2.275   4.555  0.8427  1.5386  1.3789
 1445SOL     OW15793   1.892   2.470  14.833 -0.6540 -0.0058  0.2058
 1445SOL    HW115794   1.840   2.490  14.910 -2.1056  0.4826 -0.8919
 1445SOL    HW215795   1.971   2.435  14.874  0.3196 -0.6934 -2.2572
 1446SOL     OW15796   3.166   4.106   7.293 -0.1297 -0.5014 -0.3064
 1446SOL    HW115797   3.073   4.115   7.272 -0.1331  0.1888  0.0199
 1446SOL    HW215798   3.197   4.074   7.208  1.2530  0.5074 -0.1775
 1447SOL     OW15799   1.024   3.598  17.060  0.1319  0.1890  0.2346
 1447SOL    HW115800   0.999   3.627  17.148  1.3789 -0.5430  0.8226
 1447SOL    HW215801   0.994   3.680  17.020 -0.9420  0.5355  1.7043
 1448SOL     OW15802   1.997   1.627   9.729  0.0137  0.1326  0.1817
 1448SOL    HW115803   1.912   1.609   9.770  0.5387 -0.7503  0.8873
 1448SOL    HW215804   1.971   1.646   9.639 -0.3031  1.8720  0.6412
 1449SOL     OW15805   2.941   0.319  13.813 -0.3442  0.0457 -0.1713
 1449SOL    HW115806   3.013   0.371  13.849  0.7138 -1.4794 -0.0999
 1449SOL    HW215807   2.918   0.267  13.890  2.6478  1.3390  1.6057
 1450SOL     OW15808   2.584   2.350   7.764 -0.3335 -0.2395  0.0004
 1450SOL    HW115809   2.553   2.360   7.674 -0.1299 -2.1053 -0.2840
 1450SOL    HW215810   2.514   2.391   7.814  0.8790  3.3040 -1.2066
 1451SOL     OW15811   1.631   4.312   8.354  0.2300 -0.3255 -0.6852
 1451SOL    HW115812   1.635   4.408   8.353 -1.1786 -0.3318 -4.4480
 1451SOL    HW215813   1.721   4.284   8.336 -0.1759 -1.4492 -0.8986
 1452SOL     OW15814   4.174   0.522   4.226 -0.1392  0.0587  0.4878
 1452SOL    HW115815   4.158   0.506   4.133 -1.4092  1.8146  0.4233
 1452SOL    HW215816   4.267   0.544   4.213 -0.1811 -1.6109 -2.7188
 1453SOL     OW15817   0.923   3.575   1.422  0.2446 -0.8739 -0.3654
 1453SOL    HW115818   0.834   3.541   1.414 -0.2427  0.6690 -1.5459
 1453SOL    HW215819   0.903   3.662   1.387 -1.3094 -0.7891  0.7537
 1454SOL     OW15820   3.159   0.795   4.573  0.0788 -0.0952  0.0429
 1454SOL    HW115821   3.099   0.765   4.641  0.5698  0.3899  0.6869
 1454SOL    HW215822   3.103   0.829   4.503  1.1544  1.5189 -0.0334
 1455SOL     OW15823   4.669   2.366   7.600 -0.1701  0.4473 -0.4725
 1455SOL    HW115824   4.606   2.329   7.661 -2.2579  0.3614 -2.6797
 1455SOL    HW215825   4.626   2.341   7.518 -1.0441  1.2870 -0.2769
 1456SOL     OW15826   0.573   1.299   4.442  0.0035 -0.3477  0.3810
 1456SOL    HW115827   0.489   1.282   4.399  0.3412 -0.1921 -0.3479
 1456SOL    HW215828   0.535   1.283   4.528 -1.1167  0.1961 -0.0177
 1457SOL     OW15829   3.867   3.116   4.738 -0.5374  0.4195  0.3429
 1457SOL    HW115830   3.820   3.044   4.781  2.5347 -1.5297  0.4110
 1457SOL    HW215831   3.797   3.162   4.691 -2.0662 -0.9119  1.3148
 1458SOL     OW15832   3.598   0.027   4.482  0.0420 -0.5088 -0.5036
 1458SOL    HW115833   3.652   4.699   4.422  1.6979  0.5497  0.0815
 1458SOL    HW215834   3.518   0.035   4.429 -1.0703  1.3553  1.4544
 1459SOL     OW15835   2.460   2.275   6.572 -0.1052  0.2645  0.3557
 1459SOL    HW115836   2.390   2.270   6.506 -0.5611 -0.1308  0.8653
 1459SOL    HW215837   2.516   2.343   6.537 -1.5825  0.8339 -0.9245
 1460SOL     OW15838   2.077   3.527   1.459  0.0652  0.3269  0.6805
 1460SOL    HW115839   2.171   3.545   1.460  0.0891  0.2942 -2.5135
 1460SOL    HW215840   2.046   3.618   1.469 -0.1303  0.2273  0.9738
 1461SOL     OW15841   3.057   0.416   4.824  0.3324  0.3663  0.0407
 1461SOL    HW115842   3.037   0.509   4.813  0.2346  0.6654  2.8684
 1461SOL    HW215843   3.099   0.429   4.909  0.2320 -0.3005  0.1847
 1462SOL     OW15844   2.535   3.403  13.694  0.3637  0.2035  0.3439
 1462SOL    HW115845   2.452   3.380  13.652 -0.4323  0.1462  1.9429
 1462SOL    HW215846   2.508   3.401  13.785 -0.1433 -1.1978  0.1522
 1463SOL     OW15847   4.233   3.544  13.946 -0.2932  0.6158  0.0231
 1463SOL    HW115848   4.303   3.587  13.995  0.1260  0.1398 -0.1559
 1463SOL    HW215849   4.187   3.621  13.913 -0.8296  0.1216 -0.3918
 1464SOL     OW15850   0.871   1.567   0.598  0.0573 -0.3550  0.4858
 1464SOL    HW115851   0.834   1.508   0.532  0.8556  1.2140 -1.3890
 1464SOL    HW215852   0.901   1.509   0.668 -1.9220 -1.4533  0.4278
 1465SOL     OW15853   0.644   2.180   2.404 -0.1810  0.5216 -0.1414
 1465SOL    HW115854   0.595   2.147   2.328  1.5500  2.0333 -1.9082
 1465SOL    HW215855   0.684   2.094   2.419  0.0114  0.3849 -1.4228
 1466SOL     OW15856   0.625   4.597   8.752  0.2787  0.1572  0.4303
 1466SOL    HW115857   0.654   4.507   8.767  0.7695  0.1961 -0.2833
 1466SOL    HW215858   0.593   4.587   8.662  0.5502 -0.4458  0.4023
 1467SOL     OW15859   3.010   1.356  10.922  0.6911 -0.9879  0.0204
 1467SOL    HW115860   2.996   1.275  10.971 -0.2975 -0.9683 -0.2224
 1467SOL    HW215861   3.098   1.372  10.955  1.0281  1.6477 -2.1504
 1468SOL     OW15862   4.568   3.241   0.929  0.9944  0.0688 -0.0804
 1468SOL    HW115863   4.622   3.303   0.881  1.9833 -0.9344 -0.2700
 1468SOL    HW215864   4.615   3.225   1.011  2.0090  3.8801  0.0701
 1469SOL     OW15865   1.930   3.463   8.288  0.1364 -0.0425  0.6129
 1469SOL    HW115866   1.841   3.472   8.323 -0.3263  0.3842 -0.6515
 1469SOL    HW215867   1.919   3.482   8.194 -2.3090  1.0857  1.1232
 1470SOL     OW15868   2.345   2.043   4.938  0.1612 -0.2255  0.2719
 1470SOL    HW115869   2.269   2.025   4.994 -1.2373 -0.4339 -1.6902
 1470SOL    HW215870   2.296   2.110   4.890  1.9225  0.4456 -0.5944
 1471SOL     OW15871   1.181   2.503   0.510 -0.1212 -0.3648 -0.2529
 1471SOL    HW115872   1.121   2.576   0.529  0.6945  0.2532 -0.0578
 1471SOL    HW215873   1.131   2.432   0.549 -0.5896  0.6180  0.9433
 1472SOL     OW15874   1.774   0.197  11.311  0.1789  0.3687 -0.4960
 1472SOL    HW115875   1.704   0.170  11.370 -1.3961  0.3187 -2.3749
 1472SOL    HW215876   1.835   0.236  11.375  2.4013  0.1052 -2.4518
 1473SOL     OW15877   0.839   4.556   2.331 -0.4173 -0.4280  0.1402
 1473SOL    HW115878   0.744   4.554   2.334 -0.4227  0.3227  0.3397
 1473SOL    HW215879   0.862   4.477   2.381 -1.0137 -0.8323 -0.2322
 1474SOL     OW15880   1.512   4.264   6.194  0.6621  0.2371  0.5413
 1474SOL    HW115881   1.548   4.254   6.282 -0.3430  0.8238  1.0227
 1474SOL    HW215882   1.580   4.313   6.148  1.0889 -1.4414 -0.6126
 1475SOL     OW15883   3.116   0.763   3.289 -0.2247 -0.1104 -0.7049
 1475SOL    HW115884   3.128   0.728   3.201  1.5689 -2.6296  0.4946
 1475SOL    HW215885   3.179   0.834   3.303 -1.0912  0.1776  1.7208
 1476SOL     OW15886   3.059   1.266   0.872  0.1445 -0.1769  0.0450
 1476SOL    HW115887   3.111   1.264   0.792 -1.5482  0.0383 -1.0563
 1476SOL    HW215888   3.086   1.182   0.911  0.0836 -0.2155  0.0034
 1477SOL     OW15889   4.413   2.298   6.145 -0.6019  0.4758 -0.1065
 1477SOL    HW115890   4.389   2.215   6.187 -1.9371  1.0421  0.2306
 1477SOL    HW215891   4.434   2.358   6.217  3.1379  0.0163 -0.7921
 1478SOL     OW15892   0.379   3.331   6.992  0.5188 -0.6513 -0.0800
 1478SOL    HW115893   0.427   3.281   6.926 -0.9486 -1.1928 -0.7375
 1478SOL    HW215894   0.315   3.378   6.938  0.9527 -2.6169 -2.3251
 1479SOL     OW15895   3.382   3.965  15.479 -0.1476 -0.3590 -0.1107
 1479SOL    HW115896   3.461   3.994  15.433  0.0288 -0.4658  0.1265
 1479SOL    HW215897   3.413   3.875  15.494 -0.9060 -0.6193 -0.1294
 1480SOL     OW15898   4.618   4.349   2.974 -0.5141  0.6267 -0.2254
 1480SOL    HW115899   4.699   4.387   3.008 -0.1499  0.2573 -0.6852
 1480SOL    HW215900   4.601   4.285   3.042  0.3923 -0.9790 -1.5194
 1481SOL     OW15901   3.346   2.424  10.753 -0.3398  0.5931  0.2527
 1481SOL    HW115902   3.418   2.483  10.733 -0.1956  0.9620  1.8152
 1481SOL    HW215903   3.271   2.483  10.745 -2.8307 -2.6105 -0.4747
 1482SOL     OW15904   0.841   3.617   4.686 -0.9855  0.1161  0.0278
 1482SOL    HW115905   0.753   3.583   4.671  0.0632 -1.2597 -2.9182
 1482SOL    HW215906   0.886   3.588   4.607  0.3897  2.6440 -0.1129
 1483SOL     OW15907   1.720   1.758  15.233  0.2075 -0.4270  0.0819
 1483SOL    HW115908   1.718   1.735  15.140 -2.3130 -0.8394  0.2334
 1483SOL    HW215909   1.739   1.675  15.276 -0.6665  1.3707  3.8809
 1484SOL     OW15910   2.992   3.503   4.841 -0.3916  0.5048  0.2189
 1484SOL    HW115911   2.958   3.506   4.930 -0.4499 -0.2750  0.2250
 1484SOL    HW215912   3.072   3.555   4.845  0.7710 -1.1761 -0.7172
 1485SOL     OW15913   2.160   2.147   2.607 -0.5982 -0.0498  0.0797
 1485SOL    HW115914   2.075   2.125   2.645 -0.1762 -1.2564  0.3313
 1485SOL    HW215915   2.195   2.058   2.603 -1.2485 -0.3278  0.5567
 1486SOL     OW15916   3.266   2.952   3.769 -0.2069  0.0778  0.0572
 1486SOL    HW115917   3.315   3.014   3.714 -0.3974  1.4268  1.4285
 1486SOL    HW215918   3.204   2.925   3.701 -0.6431  0.6675  0.2179
 1487SOL     OW15919   2.625   1.781  13.807  0.4474  0.0088  0.3998
 1487SOL    HW115920   2.670   1.866  13.812 -1.6232  1.1392 -0.1548
 1487SOL    HW215921   2.545   1.820  13.842  1.2463  0.6377  1.5327
 1488SOL     OW15922   1.318   3.731   6.516  0.6534  0.1034 -0.3070
 1488SOL    HW115923   1.269   3.668   6.463  1.2347  0.5778 -1.3929
 1488SOL    HW215924   1.356   3.787   6.449  1.2574  0.8957  0.7008
 1489SOL     OW15925   3.148   4.658   3.641  0.0496 -0.2348 -0.3936
 1489SOL    HW115926   3.221   4.700   3.595  0.2532 -0.3505 -0.1763
 1489SOL    HW215927   3.189   4.593   3.697  1.2935  0.0433 -0.9816
 1490SOL     OW15928   2.240   1.427  17.468  0.3918 -0.4755 -0.3098
 1490SOL    HW115929   2.298   1.353  17.485 -0.6844 -1.3787 -0.5698
 1490SOL    HW215930   2.222   1.413  17.375  0.7926 -0.2773 -0.4152
 1491SOL     OW15931   0.630   2.436   2.494 -0.2222  0.2064  1.0079
 1491SOL    HW115932   0.625   2.345   2.464  0.8164 -0.2061  2.0932
 1491SOL    HW215933   0.634   2.484   2.411 -1.0043 -3.0659 -0.9147
 1492SOL     OW15934   1.742   3.358  17.467 -0.0267  0.0699  0.4172
 1492SOL    HW115935   1.722   3.436  17.520 -3.3152 -0.3901 -0.1913
 1492SOL    HW215936   1.719   3.390  17.380 -2.0190 -1.4847  0.3973
 1493SOL     OW15937   0.453   0.315   6.901 -0.2516 -0.1722 -0.5244
 1493SOL    HW115938   0.462   0.305   6.996  2.5076  1.4392 -0.6151
 1493SOL    HW215939   0.528   0.371   6.883 -1.8769  2.2877  0.3377
 1494SOL     OW15940   4.160   2.853   9.318  0.2032  0.8320 -0.0005
 1494SOL    HW115941   4.240   2.881   9.363  0.2403  0.7865 -0.0371
 1494SOL    HW215942   4.132   2.931   9.271 -0.7548  0.1496 -0.5618
 1495SOL     OW15943   0.259   1.005   3.311  0.1997  0.3352 -0.1731
 1495SOL    HW115944   0.205   0.949   3.255 -0.3638  0.9316 -0.2189
 1495SOL    HW215945   0.343   1.002   3.264  0.5333 -0.6224  0.4830
 1496SOL     OW15946   4.586   2.518   2.589 -0.2990 -0.2427  0.2935
 1496SOL    HW115947   4.675   2.485   2.603 -0.3757 -0.0327  1.3169
 1496SOL    HW215948   4.603   2.598   2.539  0.2275 -0.3643  0.2713
 1497SOL     OW15949   3.001   2.318   4.851  0.1245 -0.5139  0.0166
 1497SOL    HW115950   3.000   2.357   4.763 -0.5384 -1.1064 -0.2431
 1497SOL    HW215951   3.066   2.376   4.888 -1.8907  0.7578  1.5902
 1498SOL     OW15952   4.190   3.034  13.022 -0.5810  0.5009  0.4598
 1498SOL    HW115953   4.145   2.953  13.045  3.0499 -1.8044 -0.6203
 1498SOL    HW215954   4.275   3.026  13.067 -1.7400 -0.7972  2.4305
 1499SOL     OW15955   1.673   3.500   5.329 -0.0988 -0.4734 -0.0207
 1499SOL    HW115956   1.602   3.444   5.361 -0.3117 -0.2199 -0.0491
 1499SOL    HW215957   1.696   3.552   5.406  1.7476  2.9506 -2.8949
 1500SOL     OW15958   2.077   1.033   7.735 -0.3638  0.0319 -0.2839
 1500SOL    HW115959   2.032   1.063   7.814  0.7589  0.1440  0.3050
 1500SOL    HW215960   2.134   1.102   7.699 -2.0123  1.1705 -0.7252
 1501SOL     OW15961   3.443   3.334  17.632 -0.1168 -0.1566 -0.1191
 1501SOL    HW115962   3.373   3.378  17.584  1.0023  0.2906 -1.3700
 1501SOL    HW215963   3.410   3.316   0.027  0.7011 -1.8906 -0.1726
 1502SOL     OW15964   2.100   4.595   5.155  0.3992 -0.5000 -0.2334
 1502SOL    HW115965   2.183   4.594   5.204 -0.6868 -2.1923  1.5652
 1502SOL    HW215966   2.107   4.512   5.107  0.9366 -1.2622  1.1486
 1503SOL     OW15967   0.595   4.392   1.969 -0.0672  0.8567 -0.9974
 1503SOL    HW115968   0.524   4.352   2.019 -0.2217 -0.0980 -1.9661
 1503SOL    HW215969   0.638   4.428   2.047 -0.9920  0.9418 -0.5276
 1504SOL     OW15970   3.154   2.788   8.855  0.1556  0.1810 -0.4558
 1504SOL    HW115971   3.203   2.714   8.820  0.7018  0.5178 -0.4042
 1504SOL    HW215972   3.190   2.862   8.806  0.8599  0.1674  0.0486
 1505SOL     OW15973   3.122   0.153  12.427 -0.0072  0.0862 -0.2899
 1505SOL    HW115974   3.154   0.216  12.492 -2.6533  0.1833  0.9074
 1505SOL    HW215975   3.069   0.207  12.367 -0.0612  1.2627  0.8141
 1506SOL     OW15976   3.378   2.278   3.707 -0.0390 -0.1947 -0.4060
 1506SOL    HW115977   3.463   2.250   3.673  1.2925  1.3548  1.7008
 1506SOL    HW215978   3.320   2.204   3.687  0.5217 -1.0965  1.3602
 1507SOL     OW15979   0.525   4.587   8.506  0.2419 -0.0866  0.4440
 1507SOL    HW115980   0.477   4.641   8.443  0.9677 -0.3114 -0.3124
 1507SOL    HW215981   0.609   4.587   8.460 -0.0078 -0.0285 -0.0208
 1508SOL     OW15982   0.203   3.644   5.082 -0.2470  0.4278 -0.0385
 1508SOL    HW115983   0.260   3.614   5.153  0.3047  3.0844  0.6429
 1508SOL    HW215984   0.228   3.730   5.047 -0.9789  1.6401  2.4161
 1509SOL     OW15985   3.243   4.204   3.503 -0.2590 -0.1492 -0.1482
 1509SOL    HW115986   3.249   4.131   3.442  1.8519 -0.9613  1.0315
 1509SOL    HW215987   3.148   4.216   3.507 -0.1248  1.2987 -1.1061
 1510SOL     OW15988   0.400   0.399   4.590 -0.0175  0.3067  0.5255
 1510SOL    HW115989   0.343   0.467   4.552  1.3835  0.6875 -0.8575
 1510SOL    HW215990   0.345   0.333   4.549 -0.0678  0.5912  0.1368
 1511SOL     OW15991   4.188   4.324   1.621 -0.1356 -0.0112 -0.1221
 1511SOL    HW115992   4.211   4.258   1.686  2.0657  1.5952  0.7703
 1511SOL    HW215993   4.265   4.335   1.564  0.2123  0.3049  0.4111
 1512SOL     OW15994   0.987   1.289   1.890  0.0083 -0.3023 -0.2072
 1512SOL    HW115995   0.893   1.307   1.881  0.0768 -1.1974 -2.4645
 1512SOL    HW215996   0.972   1.197   1.912  0.2391  0.1248  1.8123
 1513SOL     OW15997   4.436   0.847  10.424  0.1597 -0.3797 -0.0443
 1513SOL    HW115998   4.478   0.762  10.441 -0.1445 -0.8469 -1.6373
 1513SOL    HW215999   4.356   0.836  10.476 -0.3764  0.5209 -0.7035
 1514SOL     OW16000   0.037   3.299   8.846 -0.3244  0.2857 -0.0508
 1514SOL    HW116001   0.028   3.301   8.751  0.2389  0.6290 -0.1038
 1514SOL    HW216002   4.675   3.263   8.873 -0.7192  1.6320  0.5636
 1515SOL     OW16003   1.003   0.802  12.181 -0.3790 -0.0025  0.3668
 1515SOL    HW116004   1.013   0.893  12.210  0.5347  0.0510 -0.0988
 1515SOL    HW216005   0.936   0.775  12.243 -1.2678  1.2333 -0.0463
 1516SOL     OW16006   3.798   2.834   9.561 -0.1695  0.2217  0.9206
 1516SOL    HW116007   3.862   2.900   9.586  1.0898 -0.7742  0.2873
 1516SOL    HW216008   3.719   2.860   9.609 -1.5108 -0.3840 -0.9203
 1517SOL     OW16009   3.881   1.990  11.512 -0.1579  0.0608  0.2550
 1517SOL    HW116010   3.954   2.011  11.454  1.9513 -2.5746  1.9173
 1517SOL    HW216011   3.891   1.898  11.536  1.6521 -0.2137 -1.5366
 1518SOL     OW16012   2.505   4.140   0.311 -0.0539 -0.3265  0.2791
 1518SOL    HW116013   2.512   4.234   0.295  0.1706 -0.4865 -0.5603
 1518SOL    HW216014   2.490   4.143   0.406  0.8670  0.0950  0.4072
 1519SOL     OW16015   1.773   1.339   5.176 -0.3250  0.6128  0.0167
 1519SOL    HW116016   1.823   1.260   5.199 -1.7229 -0.1646  0.3669
 1519SOL    HW216017   1.846   1.378   5.127 -1.3667  0.9537 -1.2624
 1520SOL     OW16018   0.942   2.346   7.953 -0.4965  1.1540  1.0437
 1520SOL    HW116019   0.982   2.341   8.039  2.1734 -1.6912 -0.3955
 1520SOL    HW216020   0.907   2.436   7.949 -5.2353 -0.7379  0.2548
 1521SOL     OW16021   1.036   3.093   6.555 -0.3672  0.2418 -0.2838
 1521SOL    HW116022   1.111   3.150   6.571 -0.9429  0.6845  0.8553
 1521SOL    HW216023   1.072   3.022   6.502  0.5537  0.1070  0.5305
 1522SOL     OW16024   3.539   0.487   3.575  0.2633 -0.3357 -0.4139
 1522SOL    HW116025   3.445   0.503   3.588  0.3772  0.3271 -0.4039
 1522SOL    HW216026   3.576   0.574   3.592 -0.2390 -0.6166  2.0979
 1523SOL     OW16027   0.224   2.516  13.717  0.7230 -0.2225 -0.0011
 1523SOL    HW116028   0.277   2.508  13.638  0.3397  1.5042 -0.4314
 1523SOL    HW216029   0.153   2.454  13.702 -0.4344  0.9735  0.5212
 1524SOL     OW16030   3.687   1.176   0.721  0.3507 -0.3661  0.2349
 1524SOL    HW116031   3.704   1.176   0.626  2.2369 -3.4451  0.5402
 1524SOL    HW216032   3.610   1.233   0.718  0.6632  0.0829  0.7088
 1525SOL     OW16033   3.591   1.117  10.119 -0.1496 -0.5842  0.1102
 1525SOL    HW116034   3.517   1.093  10.064  0.3369 -1.7508 -0.0421
 1525SOL    HW216035   3.564   1.185  10.182 -0.3729 -0.6618  0.0977
 1526SOL     OW16036   2.316   0.414  17.140 -0.0981  0.1332  0.5502
 1526SOL    HW116037   2.380   0.485  17.149  0.2611 -0.1841  0.4591
 1526SOL    HW216038   2.255   0.452  17.204 -1.3550 -2.6573  0.9819
 1527SOL     OW16039   2.634   2.554   4.622  0.5894 -0.2830  0.4566
 1527SOL    HW116040   2.595   2.579   4.706  0.2288 -1.4364  0.6356
 1527SOL    HW216041   2.623   2.459   4.632 -1.2678 -0.1973 -0.8359
 1528SOL     OW16042   1.780   4.430  12.899  0.3561 -0.2907 -0.4342
 1528SOL    HW116043   1.721   4.472  12.836  1.4957  2.0942  0.0768
 1528SOL    HW216044   1.864   4.454  12.859  0.5051 -0.1935 -0.0650
 1529SOL     OW16045   4.537   4.005  11.828 -0.4800 -0.4701 -0.5418
 1529SOL    HW116046   4.593   4.080  11.848  1.6811 -2.7650  1.9070
 1529SOL    HW216047   4.448   4.039  11.841  0.5134  2.4882 -1.5925
 1530SOL     OW16048   2.415   1.879  16.462 -0.5783  0.0525 -0.3319
 1530SOL    HW116049   2.382   1.826  16.390  1.1026  1.7898 -2.3857
 1530SOL    HW216050   2.509   1.891  16.448 -0.4378  0.6177  1.1414
 1531SOL     OW16051   0.351   0.082   9.276 -0.4912  0.6488 -0.3379
 1531SOL    HW116052   0.289   0.152   9.258 -2.9959 -1.3623  0.4898
 1531SOL    HW216053   0.304   0.011   9.232  0.1207 -0.2426  0.4234
 1532SOL     OW16054   4.411   2.731   0.730  0.2048  0.6979  0.6163
 1532SOL    HW116055   4.475   2.779   0.783 -0.2919 -0.6019  2.3660
 1532SOL    HW216056   4.411   2.786   0.652  1.7718  0.1335  0.2161
 1533SOL     OW16057   0.017   2.459   4.929  0.0388 -0.1137  0.4306
 1533SOL    HW116058   0.105   2.423   4.934  0.0578 -0.3553 -1.8092
 1533SOL    HW216059   0.027   2.553   4.946 -1.2260  0.2179 -0.6466
 1534SOL     OW16060   0.274   0.600   2.171 -0.0876 -0.3346  0.0956
 1534SOL    HW116061   0.244   0.689   2.188  0.6991  0.6061 -3.5251
 1534SOL    HW216062   0.309   0.609   2.082 -2.5892  0.5212 -0.7992
 1535SOL     OW16063   0.872   4.322   6.102 -0.3571  0.3585 -0.0513
 1535SOL    HW116064   0.797   4.375   6.127 -0.4351  0.5041 -0.6087
 1535SOL    HW216065   0.941   4.388   6.096  1.9653 -2.2056 -1.6836
 1536SOL     OW16066   0.075   4.628  15.035  0.0356  0.3033  0.3096
 1536SOL    HW116067   0.046   4.537  15.044  1.1544 -0.1396 -0.5063
 1536SOL    HW216068   4.714   4.675  15.030  0.0941  0.3998  0.2286
 1537SOL     OW16069   0.557   1.136  13.238 -0.6793 -0.4627  0.1121
 1537SOL    HW116070   0.575   1.169  13.150  2.0325 -0.2292  0.7780
 1537SOL    HW216071   0.635   1.081  13.242  2.0346  3.4412 -0.1110
 1538SOL     OW16072   1.555   0.551  10.184  0.3890  0.0772 -0.3076
 1538SOL    HW116073   1.529   0.530  10.274  2.1406 -0.7860 -0.0040
 1538SOL    HW216074   1.522   0.640  10.172 -0.6392 -0.6341 -2.5459
 1539SOL     OW16075   0.339   0.866   9.830  0.9000 -0.0962 -0.1836
 1539SOL    HW116076   0.293   0.856   9.747  0.3692  3.0545 -0.2461
 1539SOL    HW216077   0.401   0.931   9.798 -0.4955  0.9878 -0.6488
 1540SOL     OW16078   1.053   4.335   0.642  0.0629  0.6219  0.1343
 1540SOL    HW116079   1.090   4.413   0.683 -2.1959  0.2788  2.7825
 1540SOL    HW216080   1.110   4.266   0.675  0.5122  0.6992 -0.4742
 1541SOL     OW16081   1.144   2.965   2.283 -0.0607  0.1109 -0.0392
 1541SOL    HW116082   1.145   2.980   2.378 -1.3470  1.3053 -0.2268
 1541SOL    HW216083   1.224   3.011   2.258  0.1060  1.3472  2.7895
 1542SOL     OW16084   2.902   0.265   1.348  0.2020 -0.5488 -0.3935
 1542SOL    HW116085   2.953   0.346   1.352  0.6588 -0.7779 -1.6242
 1542SOL    HW216086   2.950   0.200   1.400 -0.2707 -0.4305  0.1909
 1543SOL     OW16087   2.040   1.030  11.518 -0.0194 -0.3615 -0.1514
 1543SOL    HW116088   1.975   1.011  11.451  0.2359  1.3947 -0.8882
 1543SOL    HW216089   2.116   1.031  11.460 -0.7663 -0.1063 -1.1173
 1544SOL     OW16090   2.658   1.948   5.203  0.1202 -0.4399  0.2310
 1544SOL    HW116091   2.745   1.976   5.231 -0.8228  3.2069 -0.4476
 1544SOL    HW216092   2.607   2.028   5.210 -0.9531 -1.1607  0.5119
 1545SOL     OW16093   4.099   0.594   7.419  0.3162 -0.2695 -0.0843
 1545SOL    HW116094   4.121   0.511   7.376  0.4240 -0.5133  0.4501
 1545SOL    HW216095   4.041   0.639   7.357  0.4087 -1.8461 -1.3372
 1546SOL     OW16096   0.694   1.175   9.360 -0.2568  0.0224 -0.4607
 1546SOL    HW116097   0.710   1.247   9.421  0.7246  0.3696 -1.1366
 1546SOL    HW216098   0.620   1.203   9.306 -0.0305  1.0653 -0.2311
 1547SOL     OW16099   1.614   3.566   3.625 -0.0307 -0.1356  0.1675
 1547SOL    HW116100   1.654   3.506   3.688  2.0556 -0.0504 -1.0916
 1547SOL    HW216101   1.604   3.648   3.673 -0.0932  0.6462 -1.1774
 1548SOL     OW16102   3.560   3.658   3.483 -0.2059 -0.4749  0.6804
 1548SOL    HW116103   3.641   3.708   3.489 -0.7141  0.5018 -0.7711
 1548SOL    HW216104   3.585   3.567   3.498 -0.2709 -0.4935  0.6789
 1549SOL     OW16105   3.877   4.555   8.721 -0.3343  0.0016 -0.8275
 1549SOL    HW116106   3.881   4.620   8.791  0.0040 -1.4617  0.4952
 1549SOL    HW216107   3.785   4.551   8.694 -0.8065  2.8628  0.3865
 1550SOL     OW16108   2.040   3.892  10.461 -0.0863 -0.1886  0.1790
 1550SOL    HW116109   2.096   3.845  10.522  1.3668  0.2141 -0.8467
 1550SOL    HW216110   2.110   3.914  10.399  0.4155 -0.1224  0.7736
 1551SOL     OW16111   0.024   0.083  17.487  0.4118 -0.0371  0.3068
 1551SOL    HW116112   0.002   4.716  17.462 -2.6028  0.5952  0.7403
 1551SOL    HW216113   4.692   0.142  17.434 -0.7139 -0.4695  0.9972
 1552SOL     OW16114   1.414   3.273   3.719  0.0263  0.5604 -0.0555
 1552SOL    HW116115   1.372   3.210   3.778 -0.2347  0.6991 -0.0902
 1552SOL    HW216116   1.345   3.272   3.653 -0.2830 -1.6368  0.2869
 1553SOL     OW16117   1.678   2.230   6.778 -0.3782 -0.0494 -0.4634
 1553SOL    HW116118   1.638   2.317   6.781  1.6338  0.9409 -2.5195
 1553SOL    HW216119   1.732   2.247   6.701 -0.8309 -1.2715 -1.0516
 1554SOL     OW16120   0.976   2.524   8.779 -0.0563  0.0761 -0.1749
 1554SOL    HW116121   1.024   2.604   8.800  0.7111 -0.1531 -1.0227
 1554SOL    HW216122   0.886   2.547   8.801 -0.3698  0.9052 -2.2546
 1555SOL     OW16123   3.272   0.799   6.900  0.6138 -0.0843 -0.2199
 1555SOL    HW116124   3.272   0.893   6.918  1.2199 -0.4419  1.6229
 1555SOL    HW216125   3.196   0.790   6.843 -0.4847 -1.1989  1.4253
 1556SOL     OW16126   0.950   1.030   1.328 -0.0839 -0.1383 -0.3232
 1556SOL    HW116127   0.905   1.068   1.403  1.1318  1.8144 -0.5973
 1556SOL    HW216128   0.900   1.067   1.255 -1.1221  3.2874  2.1342
 1557SOL     OW16129   3.856   1.930  16.365 -0.3626 -0.1532 -0.1332
 1557SOL    HW116130   3.854   1.894  16.453  1.8494 -1.1939 -0.4952
 1557SOL    HW216131   3.894   1.856  16.319  2.2146  0.6505  0.6703
 1558SOL     OW16132   0.904   3.995  16.255  0.1858  0.5487  1.3459
 1558SOL    HW116133   0.934   3.909  16.225  1.2227  1.3881 -0.0788
 1558SOL    HW216134   0.813   3.983  16.278 -0.7724  3.6809 -0.8012
 1559SOL     OW16135   2.342   2.692   5.546 -0.1165  0.1997  0.5609
 1559SOL    HW116136   2.276   2.761   5.546 -1.2327 -0.8624 -1.1347
 1559SOL    HW216137   2.300   2.606   5.540  0.9349 -0.3294  0.8576
 1560SOL     OW16138   0.474   1.343   2.350 -0.7847 -0.4460  0.1146
 1560SOL    HW116139   0.514   1.316   2.433  0.8725  0.1073 -0.4943
 1560SOL    HW216140   0.493   1.437   2.357 -2.0284  0.0169 -2.6083
 1561SOL     OW16141   0.248   3.330   9.161  0.2163  0.7849  0.3829
 1561SOL    HW116142   0.312   3.293   9.222 -1.8748 -1.3783  1.2120
 1561SOL    HW216143   0.174   3.328   9.221 -0.3655 -0.4258 -0.3935
 1562SOL     OW16144   2.373   2.358  11.890  0.1033  1.0243 -0.2564
 1562SOL    HW116145   2.349   2.273  11.926  1.7498 -0.1975 -2.0255
 1562SOL    HW216146   2.457   2.362  11.936 -0.6168  1.7014  0.9800
 1563SOL     OW16147   4.594   4.472  12.533 -0.1195  0.1402  0.4506
 1563SOL    HW116148   4.669   4.516  12.492 -0.9105  1.6312  0.5726
 1563SOL    HW216149   4.531   4.467  12.460  0.4361 -1.6949  0.0976
 1564SOL     OW16150   4.115   4.149   8.470  1.0504  0.5354  0.2812
 1564SOL    HW116151   4.026   4.125   8.493  0.5976  0.7870 -1.2313
 1564SOL    HW216152   4.102   4.123   8.379 -1.8182 -0.4413  0.9753
 1565SOL     OW16153   2.745   1.150  17.519 -0.2232 -0.0133  0.3573
 1565SOL    HW116154   2.796   1.223  17.484  0.5576  0.6504  2.8865
 1565SOL    HW216155   2.748   1.159  17.614  0.2504 -1.8851  0.5317
 1566SOL     OW16156   4.359   2.949   9.485 -0.4731 -0.3856  0.0454
 1566SOL    HW116157   4.333   3.039   9.504 -0.9581 -0.7644  1.1743
 1566SOL    HW216158   4.411   2.931   9.563  0.3782  0.1865 -0.3910
 1567SOL     OW16159   1.837   1.565   0.396 -0.1356  0.3585  0.1357
 1567SOL    HW116160   1.871   1.482   0.363 -0.2128  0.7529 -0.9238
 1567SOL    HW216161   1.869   1.568   0.487  0.0792  0.3300  0.0609
 1568SOL     OW16162   1.478   3.267   3.159 -0.3069 -0.2785  0.1338
 1568SOL    HW116163   1.491   3.192   3.217  0.2492  1.1104  1.8039
 1568SOL    HW216164   1.500   3.335   3.222 -2.2140 -0.6949  1.2459
 1569SOL     OW16165   3.101   3.431   0.671  1.1259  0.0944  0.4239
 1569SOL    HW116166   3.076   3.451   0.581  1.9083  2.0754  0.6231
 1569SOL    HW216167   3.056   3.348   0.679  0.2225  0.5185 -0.3188
 1570SOL     OW16168   1.066   0.601   8.290  0.5115 -0.5084  0.5129
 1570SOL    HW116169   1.119   0.592   8.211  0.6934 -0.1057  0.5909
 1570SOL    HW216170   1.136   0.595   8.356  1.6590 -1.4025 -0.7872
 1571SOL     OW16171   2.529   1.244   0.077  0.5091 -0.7016  0.0476
 1571SOL    HW116172   2.587   1.281   0.143  2.0598 -3.1484  0.0319
 1571SOL    HW216173   2.510   1.158   0.114 -0.9747 -0.1615  0.5579
 1572SOL     OW16174   0.648   1.824   8.267  0.0876 -0.4020 -0.2913
 1572SOL    HW116175   0.729   1.850   8.225  1.2529 -2.8398  0.4427
 1572SOL    HW216176   0.592   1.858   8.197  1.7965  1.6672 -0.6194
 1573SOL     OW16177   0.878   4.343   1.796  0.2484 -0.0359  0.0556
 1573SOL    HW116178   0.868   4.295   1.878  0.5573  3.3414  2.0886
 1573SOL    HW216179   0.880   4.434   1.826  0.3224 -0.3572  1.0454
 1574SOL     OW16180   3.775   2.708  14.647  0.2753 -0.1818  0.6642
 1574SOL    HW116181   3.698   2.708  14.704  1.4243  1.3654  2.2020
 1574SOL    HW216182   3.845   2.742  14.703 -1.1493  0.0643  2.2923
 1575SOL     OW16183   3.394   1.568   7.020 -0.1348 -0.5442  0.3221
 1575SOL    HW116184   3.389   1.597   7.111  1.0198  1.1225 -0.1561
 1575SOL    HW216185   3.458   1.629   6.983 -0.9440 -0.5199 -1.0331
 1576SOL     OW16186   1.729   3.830   7.414 -0.2107  0.1978 -0.2544
 1576SOL    HW116187   1.661   3.832   7.481 -1.4038  0.1121 -1.4592
 1576SOL    HW216188   1.727   3.736   7.394  0.0108 -0.2471  1.7868
 1577SOL     OW16189   0.974   1.385   0.809 -0.1042  0.4673  0.0260
 1577SOL    HW116190   1.062   1.390   0.772 -0.1745 -1.8386 -0.4483
 1577SOL    HW216191   0.942   1.304   0.771 -1.8183 -0.4652  3.4183
 1578SOL     OW16192   1.666   4.152   5.127  0.6515 -0.4825 -0.6738
 1578SOL    HW116193   1.695   4.242   5.112 -1.1858  0.0897 -0.7810
 1578SOL    HW216194   1.748   4.120   5.165 -0.2830 -0.6385  1.2084
 1579SOL     OW16195   0.080   4.403   2.192 -0.4517  0.1251  0.4713
 1579SOL    HW116196   0.014   4.421   2.125  0.9656  1.9859 -0.4329
 1579SOL    HW216197   0.057   4.478   2.247 -2.0372  2.5363 -3.4619
 1580SOL     OW16198   0.035   4.664   7.417  0.1214  0.1162 -0.1232
 1580SOL    HW116199   0.058   4.598   7.352  2.7259  1.1345 -0.2117
 1580SOL    HW216200   0.096   0.012   7.397  1.5010 -0.4899  2.0013
 1581SOL     OW16201   4.028   4.468   0.666 -0.1613 -0.2083 -0.0640
 1581SOL    HW116202   4.078   4.540   0.705  0.1691  0.2966 -1.4152
 1581SOL    HW216203   3.975   4.444   0.742 -0.5411  2.4691  0.5120
 1582SOL     OW16204   1.330   2.904   4.803 -0.3160 -0.0754  0.5015
 1582SOL    HW116205   1.322   2.994   4.773 -0.0420  0.2660  1.4579
 1582SOL    HW216206   1.417   2.882   4.770  1.1020  1.7946  2.9798
 1583SOL     OW16207   2.736   2.151   3.820 -0.3564 -0.1441 -0.0471
 1583SOL    HW116208   2.707   2.180   3.906 -2.8848 -0.2887 -0.8443
 1583SOL    HW216209   2.825   2.185   3.817 -0.6795  0.6236 -0.8013
 1584SOL     OW16210   1.801   3.651  11.550 -0.0109 -0.2036 -0.0628
 1584SOL    HW116211   1.869   3.627  11.488 -1.9236 -2.0387 -1.4659
 1584SOL    HW216212   1.751   3.714  11.500  0.4308  0.2925  0.1212
 1585SOL     OW16213   2.433   0.342   3.646 -0.6066 -0.5597 -0.3631
 1585SOL    HW116214   2.521   0.377   3.660 -0.0216 -2.7395  1.4376
 1585SOL    HW216215   2.423   0.288   3.725  1.3553  1.4283  1.2463
 1586SOL     OW16216   1.161   4.509  15.568 -0.0035  0.5466 -0.1541
 1586SOL    HW116217   1.068   4.494  15.586  0.3421 -1.0179  0.2860
 1586SOL    HW216218   1.153   4.572  15.496  2.1567  0.4043 -0.5137
 1587SOL     OW16219   1.668   3.662   7.941 -0.2488 -0.3622 -0.1445
 1587SOL    HW116220   1.700   3.726   8.005  0.9949 -1.5589  0.4259
 1587SOL    HW216221   1.744   3.637   7.888  1.7346  0.1705  2.4604
 1588SOL     OW16222   3.534   2.151   0.772 -0.0208  0.0057  0.3139
 1588SOL    HW116223   3.469   2.182   0.834 -0.5778  2.0110 -1.2740
 1588SOL    HW216224   3.592   2.105   0.832 -0.5523  1.0268  1.5972
 1589SOL     OW16225   0.125   4.416   2.746 -0.2134 -0.3167 -0.4466
 1589SOL    HW116226   0.101   4.375   2.664 -0.5370  1.0937 -1.0552
 1589SOL    HW216227   0.056   4.483   2.747  0.8303  0.7587  0.6767
 1590SOL     OW16228   3.558   1.617   4.236 -0.2803  0.0543 -0.4954
 1590SOL    HW116229   3.546   1.660   4.151  2.1216  0.4510 -0.6279
 1590SOL    HW216230   3.484   1.649   4.287 -0.3075  1.2111 -1.2803
 1591SOL     OW16231   1.160   1.948   6.682  0.3204 -0.5134 -0.5349
 1591SOL    HW116232   1.161   1.924   6.589  2.9493 -0.9836 -0.3998
 1591SOL    HW216233   1.076   1.990   6.696  2.1211  3.4319 -1.5884
 1592SOL     OW16234   1.408   2.385  10.052  0.1204  0.3609 -0.2738
 1592SOL    HW116235   1.492   2.339  10.054  0.3665  0.7489 -1.6236
 1592SOL    HW216236   1.403   2.415  10.143 -0.4186 -0.4490 -0.0363
 1593SOL     OW16237   0.873   4.267   8.144 -0.1693 -0.7746 -0.0187
 1593SOL    HW116238   0.932   4.192   8.149 -3.1515 -3.2735 -2.0714
 1593SOL    HW216239   0.845   4.279   8.235 -0.1319 -0.3125 -0.0684
 1594SOL     OW16240   4.088   1.399   2.764 -0.6410  0.4121 -0.2332
 1594SOL    HW116241   4.162   1.452   2.795 -0.6152 -0.8479  1.8918
 1594SOL    HW216242   4.097   1.321   2.819  1.5126  0.1860 -0.9035
 1595SOL     OW16243   4.439   3.339  14.946 -1.0135 -0.5247  0.1740
 1595SOL    HW116244   4.509   3.404  14.955 -1.0877 -0.4091 -0.1094
 1595SOL    HW216245   4.361   3.386  14.976  0.4252  1.4853  0.7944
 1596SOL     OW16246   3.300   4.313  14.081 -0.2767  0.1021  0.5937
 1596SOL    HW116247   3.382   4.296  14.035 -0.8757 -0.8545 -0.1153
 1596SOL    HW216248   3.257   4.388  14.039  0.8235  1.1403  1.3199
 1597SOL     OW16249   0.609   0.712   0.754 -0.3338  0.1341  0.2416
 1597SOL    HW116250   0.539   0.725   0.818 -1.3064 -1.9227 -0.3993
 1597SOL    HW216251   0.677   0.675   0.810 -1.0887  1.8534  2.2861
 1598SOL     OW16252   2.283   1.897   6.174 -0.0485 -0.1143 -0.1044
 1598SOL    HW116253   2.215   1.865   6.234  2.1438 -0.8859  1.9561
 1598SOL    HW216254   2.306   1.984   6.207 -1.7316  0.8996 -1.5911
 1599SOL     OW16255   0.387   1.478  14.994 -0.4395  0.1552  0.4278
 1599SOL    HW116256   0.417   1.512  14.910 -0.7017  1.0560  0.6956
 1599SOL    HW216257   0.350   1.557  15.035  1.1850  1.9131 -1.5478
 1600SOL     OW16258   3.911   1.557   3.575 -0.0038 -0.1519  0.4210
 1600SOL    HW116259   3.941   1.467   3.588  0.3609 -0.0328  0.4009
 1600SOL    HW216260   3.933   1.587   3.663  2.3302 -1.5061  0.2791
 1601SOL     OW16261   0.954   0.868   8.247  0.5071 -0.1805 -0.2900
 1601SOL    HW116262   0.876   0.819   8.271 -0.2476  1.4213  0.4961
 1601SOL    HW216263   1.011   0.791   8.245  2.2057  1.0201  0.6354
 1602SOL     OW16264   3.648   1.746   4.491 -0.0607  0.2566  0.1962
 1602SOL    HW116265   3.711   1.818   4.491  0.3473 -0.0969  2.7820
 1602SOL    HW216266   3.680   1.699   4.413  2.2077  1.1382  0.5905
 1603SOL     OW16267   2.928   1.760   4.240  0.0610  0.3345  0.0330
 1603SOL    HW116268   2.859   1.825   4.237 -0.0116  0.2270 -0.6458
 1603SOL    HW216269   2.984   1.790   4.168  0.9777  0.3916  0.7706
 1604SOL     OW16270   1.181   1.012   2.828 -0.2283 -0.2535 -0.1677
 1604SOL    HW116271   1.267   1.003   2.869 -0.6371 -0.9093  0.5392
 1604SOL    HW216272   1.210   1.007   2.736 -0.5104  1.8483 -0.3749
 1605SOL     OW16273   0.670   1.746  13.818  0.3685  0.1142 -0.8800
 1605SOL    HW116274   0.704   1.657  13.809  1.6547  0.7690 -2.3557
 1605SOL    HW216275   0.604   1.748  13.749  0.3838 -0.9767 -0.9227
 1606SOL     OW16276   4.415   2.162   5.325  0.2301  0.2784 -0.7650
 1606SOL    HW116277   4.415   2.172   5.420 -1.0415 -1.9739 -0.5234
 1606SOL    HW216278   4.508   2.142   5.311  0.4856  0.5690  0.4556
 1607SOL     OW16279   1.860   3.201  16.023  0.2228  0.2300 -0.1355
 1607SOL    HW116280   1.807   3.245  15.956  0.8627  0.1033 -0.7156
 1607SOL    HW216281   1.920   3.270  16.051  1.4609 -0.7595 -0.3533
 1608SOL     OW16282   0.769   2.888  12.227  0.9777 -0.2422  0.3744
 1608SOL    HW116283   0.844   2.836  12.201  0.7543 -1.2508  1.7594
 1608SOL    HW216284   0.801   2.967  12.183 -1.5296 -0.5211 -1.9660
 1609SOL     OW16285   3.540   3.337   1.594 -0.1033  0.1328  0.0571
 1609SOL    HW116286   3.452   3.372   1.588 -0.8261 -1.1627  2.9832
 1609SOL    HW216287   3.587   3.415   1.564 -1.3978  0.0777 -2.1147
 1610SOL     OW16288   2.711   4.432   4.158  0.7135 -0.0665  0.5462
 1610SOL    HW116289   2.666   4.474   4.231  0.3449 -0.6738  0.6664
 1610SOL    HW216290   2.706   4.338   4.175  0.0248 -0.7529 -3.5478
 1611SOL     OW16291   0.028   1.403   3.497  0.1209 -0.3396  0.0525
 1611SOL    HW116292   0.080   1.359   3.430 -0.5665 -2.6646  1.0606
 1611SOL    HW216293   0.078   1.484   3.495 -0.0601 -0.2202  0.3904
 1612SOL     OW16294   3.312   0.950   1.252  0.0529 -0.7351 -0.5968
 1612SOL    HW116295   3.365   0.911   1.321 -0.4365 -2.8566 -1.4229
 1612SOL    HW216296   3.230   0.946   1.301 -0.1208 -0.1787 -0.8422
 1613SOL     OW16297   1.912   3.139   4.097 -0.6842  0.2169 -0.4250
 1613SOL    HW116298   1.981   3.203   4.115 -0.3393 -0.4052  0.4634
 1613SOL    HW216299   1.962   3.058   4.109 -0.3517  0.2271 -1.7108
 1614SOL     OW16300   1.922   3.242  15.318 -0.0876  0.4331  0.0831
 1614SOL    HW116301   1.855   3.284  15.373  1.4695  2.4603  0.4299
 1614SOL    HW216302   2.006   3.263  15.358 -0.5111 -0.6698  1.5511
 1615SOL     OW16303   1.103   2.862  14.915 -0.0458 -0.4612 -0.2984
 1615SOL    HW116304   1.174   2.922  14.939  0.9597 -1.6807 -0.2167
 1615SOL    HW216305   1.112   2.849  14.821 -2.0788  0.7266 -0.6609
 1616SOL     OW16306   4.507   1.961   6.138  0.5180 -0.2894  0.3698
 1616SOL    HW116307   4.475   1.979   6.049  0.9091  1.2995  0.5367
 1616SOL    HW216308   4.434   1.987   6.193 -0.2218 -1.3916 -0.0892
 1617SOL     OW16309   3.474   1.317   0.570  0.0778  0.0932 -0.1160
 1617SOL    HW116310   3.409   1.381   0.541  1.5214  1.3394 -0.5987
 1617SOL    HW216311   3.487   1.263   0.492 -1.0290 -0.5258  0.1334
 1618SOL     OW16312   1.901   3.769   2.827 -0.3816  0.3350  0.3766
 1618SOL    HW116313   1.963   3.802   2.761 -1.6384  0.3421 -0.7946
 1618SOL    HW216314   1.922   3.821   2.905  1.3747 -1.1844  0.9224
 1619SOL     OW16315   0.379   1.990  15.693 -0.0990  0.0907  0.4266
 1619SOL    HW116316   0.413   2.031  15.614 -1.3066 -0.0012 -0.1364
 1619SOL    HW216317   0.288   1.978  15.666 -0.4160  1.3873  0.9212
 1620SOL     OW16318   4.186   2.811   4.527 -0.2291 -0.2043 -0.2085
 1620SOL    HW116319   4.177   2.872   4.600  2.8341 -0.2418  0.1979
 1620SOL    HW216320   4.226   2.733   4.566  0.6134 -0.6229 -1.8637
 1621SOL     OW16321   3.647   3.693   9.038 -0.0907  0.2315  0.4297
 1621SOL    HW116322   3.696   3.763   9.080 -2.3581  2.3608 -0.4613
 1621SOL    HW216323   3.723   3.646   9.004  0.5326  1.6904 -0.2043
 1622SOL     OW16324   1.125   2.086   1.238 -0.2989  0.3578  0.2215
 1622SOL    HW116325   1.124   2.167   1.290  1.1185 -0.9871  2.2958
 1622SOL    HW216326   1.216   2.061   1.251 -0.6217 -1.7188 -1.4686
 1623SOL     OW16327   1.865   2.412   3.733 -0.6567 -0.1811  0.1540
 1623SOL    HW116328   1.935   2.462   3.692  2.1566 -0.4809  4.6970
 1623SOL    HW216329   1.920   2.375   3.802  0.2069  0.8427 -0.0092
 1624SOL     OW16330   4.381   0.394   2.551  0.6391  0.6914 -0.2608
 1624SOL    HW116331   4.349   0.483   2.562 -0.2191  0.2951  0.4499
 1624SOL    HW216332   4.413   0.403   2.462  0.5733 -2.0741 -0.5868
 1625SOL     OW16333   1.356   3.969   4.923  0.4950  0.2595  0.1656
 1625SOL    HW116334   1.296   3.951   4.850  0.5776  0.0044  0.1631
 1625SOL    HW216335   1.304   3.995   5.000  0.0160 -1.1362  0.3078
 1626SOL     OW16336   2.535   0.594   1.963 -0.1969  0.0428 -0.0987
 1626SOL    HW116337   2.480   0.520   1.989  0.4609 -0.2017  0.5885
 1626SOL    HW216338   2.522   0.590   1.868  0.2134  0.6457 -0.1792
 1627SOL     OW16339   0.895   0.110   8.356 -0.6506  0.3063 -0.2299
 1627SOL    HW116340   0.893   0.172   8.429  0.5275 -1.0856  0.9658
 1627SOL    HW216341   0.988   0.099   8.337 -0.9517 -1.0420 -0.9062
 1628SOL     OW16342   0.945   2.363   9.820  0.2783 -0.0053  0.2007
 1628SOL    HW116343   0.995   2.353   9.901  1.1384  1.2361 -0.1745
 1628SOL    HW216344   1.010   2.408   9.766  0.2242 -1.4801 -1.0919
 1629SOL     OW16345   3.497   1.215  13.311 -0.2051 -0.0676  0.0500
 1629SOL    HW116346   3.523   1.257  13.229 -0.7556 -2.1035 -1.1768
 1629SOL    HW216347   3.545   1.266  13.376  0.5904 -0.4331 -0.2409
 1630SOL     OW16348   3.745   3.311   9.307 -0.4614  0.3067 -0.7905
 1630SOL    HW116349   3.757   3.253   9.232 -0.0476 -1.3978  0.5785
 1630SOL    HW216350   3.748   3.393   9.257 -1.3543  0.9692  0.2410
 1631SOL     OW16351   0.354   3.935  14.566  0.1751 -0.4853  1.0364
 1631SOL    HW116352   0.346   3.936  14.470 -1.7887 -0.6823  1.1897
 1631SOL    HW216353   0.315   4.020  14.586  2.0252  0.3439  1.1470
 1632SOL     OW16354   2.551   3.691  13.444  0.2727 -0.0677 -0.0426
 1632SOL    HW116355   2.601   3.661  13.520  0.9874 -2.1381 -1.3272
 1632SOL    HW216356   2.615   3.716  13.377 -0.5379 -2.4255 -1.7284
 1633SOL     OW16357   0.121   4.629   5.217 -0.2108 -0.1903  0.1652
 1633SOL    HW116358   0.167   4.622   5.133  2.0134 -0.8836  1.4566
 1633SOL    HW216359   0.036   4.664   5.189 -0.7346 -0.8259  0.9580
 1634SOL     OW16360   2.450   1.341   2.968 -0.6429 -0.3542 -0.2720
 1634SOL    HW116361   2.417   1.253   2.987 -0.9044  0.1042  1.3529
 1634SOL    HW216362   2.372   1.396   2.979 -0.7052 -0.5294  0.1454
 1635SOL     OW16363   2.218   0.145   4.062  0.5142  0.4724  0.2076
 1635SOL    HW116364   2.136   0.186   4.037 -0.1100 -1.6092 -1.1865
 1635SOL    HW216365   2.220   0.156   4.157  0.1844  0.3696  0.2241
 1636SOL     OW16366   2.273   3.475   6.555 -0.3787  0.2386  0.4776
 1636SOL    HW116367   2.317   3.398   6.519 -0.3139 -0.2416  1.5905
 1636SOL    HW216368   2.250   3.531   6.480 -0.7545 -0.6360 -0.0561
 1637SOL     OW16369   0.253   3.822   8.824  0.6166 -0.1336  0.3310
 1637SOL    HW116370   0.203   3.758   8.773 -1.3705 -1.5225  3.9994
 1637SOL    HW216371   0.284   3.767   8.896 -0.1990 -1.8731 -0.6266
 1638SOL     OW16372   0.797   4.020   3.732 -0.0007 -0.1168 -0.1285
 1638SOL    HW116373   0.843   4.077   3.670  1.9465  0.2859  1.6953
 1638SOL    HW216374   0.753   3.965   3.668 -0.4136 -1.2557  1.1371
 1639SOL     OW16375   0.840   3.008   4.661 -0.4727  0.2289  0.7108
 1639SOL    HW116376   0.829   2.923   4.703  2.8395 -0.2296  0.6656
 1639SOL    HW216377   0.930   3.037   4.672 -0.0464 -1.2340  1.0655
 1640SOL     OW16378   4.018   4.689  12.920  0.2255 -0.4103 -0.6295
 1640SOL    HW116379   4.070   4.626  12.970  1.0541  1.0159  0.3092
 1640SOL    HW216380   4.059   0.050  12.941  0.7811 -0.3553 -1.9507
 1641SOL     OW16381   4.504   2.468   8.007 -0.3885 -0.2553 -0.1604
 1641SOL    HW116382   4.425   2.452   8.060 -0.3603 -1.0814 -0.3554
 1641SOL    HW216383   4.501   2.563   8.002 -2.3002 -0.1988  2.0488
 1642SOL     OW16384   1.762   0.900   4.981  0.2039  0.2234 -0.2976
 1642SOL    HW116385   1.676   0.932   4.955 -0.2243  0.2458  1.1001
 1642SOL    HW216386   1.739   0.807   4.983 -1.9380  0.7416 -1.3685
 1643SOL     OW16387   0.683   1.643   1.120  0.0901  0.0448  0.3178
 1643SOL    HW116388   0.604   1.602   1.086  0.1043 -0.3294  0.7423
 1643SOL    HW216389   0.674   1.734   1.091 -0.3018  0.5783  2.0873
 1644SOL     OW16390   4.193   0.080   5.955  0.0610  0.4363 -0.3146
 1644SOL    HW116391   4.178   0.170   5.927  2.5523  0.6377 -0.9873
 1644SOL    HW216392   4.145   0.060   6.035  0.1522  0.5354 -0.2339
 1645SOL     OW16393   0.831   3.492   9.237 -0.1136 -0.4528 -0.4334
 1645SOL    HW116394   0.834   3.397   9.249  1.4348 -0.4724 -0.9892
 1645SOL    HW216395   0.743   3.507   9.270 -0.9859 -2.7937 -1.6345
 1646SOL     OW16396   2.357   3.965   9.772 -0.3755 -0.5651  0.1668
 1646SOL    HW116397   2.298   4.039   9.787  0.6262  0.3830 -0.5916
 1646SOL    HW216398   2.436   4.017   9.761 -0.9194 -0.1686 -2.0171
 1647SOL     OW16399   0.223   2.169   5.406  0.8642  0.1750 -0.2122
 1647SOL    HW116400   0.135   2.206   5.402  0.6153 -0.2145  1.5581
 1647SOL    HW216401   0.266   2.241   5.452  0.4680  0.3958 -0.1808
 1648SOL     OW16402   2.601   1.255   3.884  0.1141  0.1986  0.0094
 1648SOL    HW116403   2.658   1.313   3.834  3.2687 -1.1312  2.0760
 1648SOL    HW216404   2.657   1.244   3.960 -0.4479 -1.3007  0.2123
 1649SOL     OW16405   3.965   2.889   2.376  0.1117 -0.2769 -0.0303
 1649SOL    HW116406   4.021   2.956   2.338 -2.0557  0.6875 -1.5369
 1649SOL    HW216407   3.902   2.875   2.305 -0.4488 -0.3387  0.4785
 1650SOL     OW16408   2.723   0.338   7.338 -0.1166  0.1253 -0.0460
 1650SOL    HW116409   2.759   0.259   7.378 -1.6658 -1.0019 -0.8466
 1650SOL    HW216410   2.806   0.383   7.328 -2.4613  4.6707  0.9385
 1651SOL     OW16411   3.702   3.895   1.601  0.0377  0.1004  0.4043
 1651SOL    HW116412   3.628   3.873   1.659  0.0543 -0.9786  0.0112
 1651SOL    HW216413   3.711   3.990   1.599  4.1198 -0.3232  0.1319
 1652SOL     OW16414   0.508   4.709   9.880  0.2701 -0.1992  0.1851
 1652SOL    HW116415   0.436   0.041   9.850  1.2948  1.5725  0.9464
 1652SOL    HW216416   0.496   4.697   9.974  0.2386 -0.0303  0.2018
 1653SOL     OW16417   1.690   1.985   2.814 -0.2022 -0.1385  0.3241
 1653SOL    HW116418   1.609   1.956   2.773 -0.5177  0.0840  0.7847
 1653SOL    HW216419   1.669   2.078   2.825  2.2443  0.4150  0.1521
 1654SOL     OW16420   2.788   0.107  17.191 -0.6892  0.2628  0.3135
 1654SOL    HW116421   2.698   0.111  17.225 -1.1988 -1.2454 -0.8595
 1654SOL    HW216422   2.797   0.015  17.167 -2.4498  0.0422  0.5218
 1655SOL     OW16423   3.288   1.364  17.498 -0.3788  0.1848  0.4091
 1655SOL    HW116424   3.380   1.375  17.520 -0.3579 -1.2029  1.0279
 1655SOL    HW216425   3.259   1.451  17.470  1.4879  0.8709  0.6179
 1656SOL     OW16426   2.898   1.556   5.495  0.0005  0.1353 -0.3785
 1656SOL    HW116427   2.839   1.594   5.430  0.1651 -2.0329 -1.7958
 1656SOL    HW216428   2.932   1.640   5.526  1.6196  0.0015 -1.8029
 1657SOL     OW16429   3.600   3.471   7.827  0.5659  0.2646  0.1617
 1657SOL    HW116430   3.677   3.443   7.777  1.8930  1.7428  1.3750
 1657SOL    HW216431   3.603   3.419   7.908 -0.8187  1.9160  1.2643
 1658SOL     OW16432   3.625   0.806   5.699 -0.3014  0.2979  0.1667
 1658SOL    HW116433   3.713   0.785   5.667 -0.2217  0.7744  0.0668
 1658SOL    HW216434   3.607   0.885   5.648  2.2158  0.7922  0.0586
 1659SOL     OW16435   2.329   1.076   4.609  0.2860 -0.1637  0.4726
 1659SOL    HW116436   2.286   0.996   4.578 -2.1900  1.9296 -1.4675
 1659SOL    HW216437   2.291   1.143   4.553  0.3684 -0.1814  0.3957
 1660SOL     OW16438   4.526   0.065   6.840  0.4167 -0.3148 -0.4423
 1660SOL    HW116439   4.431   0.054   6.832  0.2995 -0.8406  1.8420
 1660SOL    HW216440   4.561   4.700   6.826 -5.3143 -2.4643 -1.2413
 1661SOL     OW16441   0.207   4.556   6.474  0.6247 -0.6958  0.3362
 1661SOL    HW116442   0.250   4.579   6.556 -0.4593 -0.2676  0.7850
 1661SOL    HW216443   0.246   4.470   6.462  2.1839 -0.2201  1.9990
 1662SOL     OW16444   3.433   0.654  16.870 -0.0649  0.0989  0.3990
 1662SOL    HW116445   3.470   0.605  16.942 -1.0085 -1.7784 -0.3896
 1662SOL    HW216446   3.419   0.735  16.920  0.2986  0.1500  0.4165
 1663SOL     OW16447   0.049   3.819   5.762  0.0252 -0.2611 -0.5807
 1663SOL    HW116448   0.108   3.744   5.753  0.1932 -0.1853 -0.1353
 1663SOL    HW216449   0.105   3.877   5.814 -0.7050 -0.3398  0.2957
 1664SOL     OW16450   2.736   2.029  13.830  0.4753  0.5954 -0.6814
 1664SOL    HW116451   2.828   2.047  13.850  0.3880 -0.1013  0.3098
 1664SOL    HW216452   2.685   2.094  13.879  1.1264 -0.0162  0.8106
 1665SOL     OW16453   1.277   3.538  12.682  0.1282 -0.1229  0.1066
 1665SOL    HW116454   1.359   3.581  12.658  1.5360 -0.9945  3.2868
 1665SOL    HW216455   1.230   3.611  12.723  0.2475  0.6650 -1.1791
 1666SOL     OW16456   3.330   1.082  17.216 -0.2479  0.2905 -0.2956
 1666SOL    HW116457   3.275   1.127  17.280  1.6148  2.6676 -0.3367
 1666SOL    HW216458   3.361   1.159  17.168 -0.5948 -0.6341 -1.9757
 1667SOL     OW16459   2.954   1.037  17.183  0.1079  0.3985  0.4181
 1667SOL    HW116460   3.000   0.954  17.188 -1.0150 -0.1013  2.4363
 1667SOL    HW216461   3.023   1.099  17.208  0.6998 -0.3481  0.6071
 1668SOL     OW16462   1.379   1.759   2.426 -0.1960  0.0741 -0.1189
 1668SOL    HW116463   1.355   1.831   2.369  1.3000  0.0277 -0.8154
 1668SOL    HW216464   1.405   1.802   2.507 -1.4972  1.9170 -0.7003
 1669SOL     OW16465   1.672   1.135  10.806 -0.2855  0.1461  0.3409
 1669SOL    HW116466   1.766   1.154  10.799  0.0961 -1.6002  0.6496
 1669SOL    HW216467   1.648   1.219  10.845  1.2945  0.2346  1.1069
 1670SOL     OW16468   4.559   0.681   6.965  0.0080 -0.5114  0.4715
 1670SOL    HW116469   4.517   0.673   7.051 -0.1702 -0.8648  0.3513
 1670SOL    HW216470   4.611   0.758   6.987 -0.2021 -0.0439 -0.6611
 1671SOL     OW16471   1.942   3.488   0.608  0.0284  0.0131  0.3303
 1671SOL    HW116472   1.988   3.496   0.525  0.4098  0.6013  0.6032
 1671SOL    HW216473   1.941   3.582   0.625 -0.5905  0.0299  0.1964
 1672SOL     OW16474   1.658   0.653   0.389 -0.2170 -0.1450  0.0929
 1672SOL    HW116475   1.688   0.726   0.334  0.4046 -1.5305 -1.4252
 1672SOL    HW216476   1.575   0.689   0.422 -0.0161 -2.1419  2.7211
 1673SOL     OW16477   0.478   4.227  14.430  0.2827 -0.2496  0.0712
 1673SOL    HW116478   0.412   4.264  14.490  1.1584  1.6150 -0.1159
 1673SOL    HW216479   0.434   4.163  14.374  0.5147 -0.2180 -0.1449
 1674SOL     OW16480   3.795   2.126   5.524  0.2188  0.2446 -0.2334
 1674SOL    HW116481   3.843   2.108   5.605  1.6549  0.2095 -1.0941
 1674SOL    HW216482   3.726   2.060   5.522 -1.7979  2.3822 -0.8807
 1675SOL     OW16483   3.889   1.140   4.784  0.8286  0.0748 -0.3643
 1675SOL    HW116484   3.808   1.133   4.733  0.1951  0.6350  0.5817
 1675SOL    HW216485   3.947   1.089   4.726 -0.2732 -0.7959 -0.6913
 1676SOL     OW16486   2.372   3.803   6.257 -0.2906  0.4234 -0.1306
 1676SOL    HW116487   2.277   3.796   6.252 -0.3474  1.8781 -0.7740
 1676SOL    HW216488   2.399   3.882   6.212 -2.8783  1.0715 -0.5634
 1677SOL     OW16489   3.202   3.293   8.335  0.2167 -0.4924  0.3176
 1677SOL    HW116490   3.175   3.259   8.420  0.3540 -1.1492  0.0967
 1677SOL    HW216491   3.294   3.267   8.324  0.4235  0.6203 -0.5437
 1678SOL     OW16492   2.295   1.207   1.583  0.2556 -0.4464 -0.0527
 1678SOL    HW116493   2.327   1.117   1.584  2.3810  0.3018  1.3488
 1678SOL    HW216494   2.363   1.247   1.528 -0.6029  1.6530  0.3982
 1679SOL     OW16495   2.844   1.152   7.562  0.2731  0.0532 -0.2463
 1679SOL    HW116496   2.824   1.231   7.512 -1.8113  0.2786  0.9624
 1679SOL    HW216497   2.904   1.187   7.629  0.0306  0.5818 -0.3061
 1680SOL     OW16498   2.920   3.405   9.961 -0.4602 -0.4913 -0.2552
 1680SOL    HW116499   3.011   3.431   9.965 -0.9454  0.8021  1.9309
 1680SOL    HW216500   2.873   3.442  10.036 -1.7176  0.8650 -1.7053
 1681SOL     OW16501   0.607   4.256   3.325  0.3022  0.0864 -0.3619
 1681SOL    HW116502   0.696   4.270   3.292  0.6247  2.0236  1.3250
 1681SOL    HW216503   0.599   4.309   3.405 -1.4885 -0.5579 -0.1057
 1682SOL     OW16504   0.786   2.393   6.366 -0.2944 -0.2573 -0.1416
 1682SOL    HW116505   0.743   2.341   6.299  2.1002 -2.7413  0.2471
 1682SOL    HW216506   0.831   2.322   6.412  0.8998  0.9756  0.6208
 1683SOL     OW16507   2.212   1.314   6.431 -0.4313 -0.4661 -0.6968
 1683SOL    HW116508   2.263   1.393   6.413 -0.8325  0.4113  2.0984
 1683SOL    HW216509   2.179   1.303   6.341  0.9129 -1.7645 -1.0164
 1684SOL     OW16510   0.597   1.036   9.736 -0.0782 -0.4160  0.3592
 1684SOL    HW116511   0.565   1.110   9.788 -0.0670  0.5942 -1.0781
 1684SOL    HW216512   0.587   1.076   9.650 -1.5591  3.0633  2.1466
 1685SOL     OW16513   2.516   4.085  16.589  0.0931 -0.1557 -0.4294
 1685SOL    HW116514   2.553   4.104  16.503 -2.2831  0.3122 -1.3502
 1685SOL    HW216515   2.479   4.171  16.609  3.1997  0.9090  0.7318
 1686SOL     OW16516   2.742   3.137   0.233  0.0825 -0.4734 -0.9502
 1686SOL    HW116517   2.655   3.178   0.227  0.1357 -0.5078 -2.1084
 1686SOL    HW216518   2.790   3.211   0.196  0.7622 -0.6506 -0.4057
 1687SOL     OW16519   2.632   4.511   9.638  0.4164  0.4006  0.2000
 1687SOL    HW116520   2.623   4.603   9.661 -0.7602  0.6602 -1.3470
 1687SOL    HW216521   2.553   4.482   9.684  0.8117 -1.7253 -0.4724
 1688SOL     OW16522   2.921   4.453   5.277  0.5533  0.4735 -0.8392
 1688SOL    HW116523   2.966   4.455   5.362 -1.3427  0.5226  0.1824
 1688SOL    HW216524   2.835   4.492   5.292  0.4245 -0.3712  0.7185
 1689SOL     OW16525   0.103   2.969   6.250  0.1604  0.3171  0.5207
 1689SOL    HW116526   0.009   2.986   6.255  0.4104  2.2783 -1.1110
 1689SOL    HW216527   0.126   3.013   6.168  0.4611  0.5397  0.7255
 1690SOL     OW16528   3.201   0.345   0.254  0.3062 -0.2119 -0.0862
 1690SOL    HW116529   3.192   0.329   0.160  0.1287 -2.7770  0.3616
 1690SOL    HW216530   3.172   0.262   0.293 -0.7389 -0.0245 -0.4661
 1691SOL     OW16531   0.530   4.010  12.037  0.2900  0.1798 -0.2557
 1691SOL    HW116532   0.529   4.037  12.129 -1.0050 -0.7269 -0.0022
 1691SOL    HW216533   0.572   4.079  11.986 -1.1544  1.5283  0.4048
 1692SOL     OW16534   3.672   0.403   4.887  0.0916  0.3785  0.1407
 1692SOL    HW116535   3.651   0.312   4.865 -1.2299  0.6945  0.0769
 1692SOL    HW216536   3.592   0.455   4.880 -0.4918 -0.4551  0.5705
 1693SOL     OW16537   1.693   0.443   1.358  0.0724  0.6855  0.2058
 1693SOL    HW116538   1.716   0.407   1.273  0.0337  0.1348  0.4273
 1693SOL    HW216539   1.682   0.537   1.344  0.2397  0.2301 -2.8661
 1694SOL     OW16540   0.582   2.368   5.028 -0.2974  0.3482  0.0785
 1694SOL    HW116541   0.667   2.336   4.999 -0.2589 -0.3288  0.9193
 1694SOL    HW216542   0.527   2.290   5.027 -0.4666  0.4826 -1.3562
 1695SOL     OW16543   4.269   3.194  13.808  0.6872 -0.2122 -0.0638
 1695SOL    HW116544   4.330   3.254  13.851 -0.4356  0.4041  0.6962
 1695SOL    HW216545   4.196   3.191  13.870 -0.5980  2.7550 -1.4075
 1696SOL     OW16546   3.107   1.033   2.180  0.8995 -0.2731  0.3968
 1696SOL    HW116547   3.074   0.948   2.151 -1.6834  1.2112 -1.0643
 1696SOL    HW216548   3.087   1.097   2.112 -0.7169 -1.2902 -0.0874
 1697SOL     OW16549   2.449   1.596   7.201  0.0084 -0.1427  0.7606
 1697SOL    HW116550   2.361   1.616   7.233 -0.3520 -0.9689  0.2605
 1697SOL    HW216551   2.435   1.504   7.180  0.0840  0.0146  0.0368
 1698SOL     OW16552   3.575   2.030  15.103 -0.2305 -0.8068  0.5631
 1698SOL    HW116553   3.563   1.939  15.074 -0.4581 -1.1425  1.6868
 1698SOL    HW216554   3.666   2.036  15.133 -0.0303  0.3692 -0.3024
 1699SOL     OW16555   3.759   3.536   3.798  0.0409  0.0145 -0.1917
 1699SOL    HW116556   3.846   3.498   3.797 -0.9228 -2.1838  0.6555
 1699SOL    HW216557   3.714   3.480   3.861  2.3883 -2.0901 -0.3898
 1700SOL     OW16558   3.427   3.464   0.219 -0.4858  0.3577  0.0582
 1700SOL    HW116559   3.514   3.471   0.178  0.2848 -0.6254  1.5382
 1700SOL    HW216560   3.414   3.558   0.232 -3.1570  0.2517 -1.8615
 1701SOL     OW16561   3.598   4.128   9.219 -0.1171  0.8153 -0.3844
 1701SOL    HW116562   3.508   4.096   9.221 -0.5228  1.8236 -1.9824
 1701SOL    HW216563   3.653   4.057   9.186 -0.4475  0.1584  0.4923
 1702SOL     OW16564   3.353   0.577  10.572  0.0781  0.0324  0.2629
 1702SOL    HW116565   3.417   0.648  10.578  2.1954 -1.9042  0.1417
 1702SOL    HW216566   3.279   0.590  10.632  0.3356 -0.5254  0.7015
 1703SOL     OW16567   2.979   2.414   5.498  0.4149  0.9513  0.8653
 1703SOL    HW116568   2.977   2.323   5.526 -0.2630  0.8826  0.5895
 1703SOL    HW216569   2.979   2.469   5.577  0.8335  0.0718  1.4777
 1704SOL     OW16570   2.222   0.715  14.360 -0.3538 -0.0679 -0.3970
 1704SOL    HW116571   2.176   0.650  14.415 -0.4400  0.7019  0.4337
 1704SOL    HW216572   2.275   0.754  14.429 -0.0118 -1.2799  0.0401
 1705SOL     OW16573   2.621   2.011   7.966 -0.0819 -0.1007  0.3060
 1705SOL    HW116574   2.551   2.030   8.028 -0.8503  0.9686 -0.8796
 1705SOL    HW216575   2.645   1.921   7.990 -0.2063  0.3180  1.9833
 1706SOL     OW16576   3.209   4.556  16.640 -0.2490 -0.4737 -0.3400
 1706SOL    HW116577   3.200   4.650  16.628  0.1550 -0.2206  1.4009
 1706SOL    HW216578   3.272   4.540  16.569 -0.0701  0.3832 -0.3662
 1707SOL     OW16579   3.291   3.660  16.589 -0.6543 -0.3294  0.0891
 1707SOL    HW116580   3.347   3.737  16.579  0.8790 -1.7696 -2.3290
 1707SOL    HW216581   3.337   3.603  16.527  1.0238  0.9797  0.1328
 1708SOL     OW16582   3.847   4.410   4.924 -0.0170  0.8782 -0.5905
 1708SOL    HW116583   3.856   4.489   4.978 -1.5975  1.9846 -1.9349
 1708SOL    HW216584   3.854   4.350   4.998  0.3153  0.5752 -0.8724
 1709SOL     OW16585   1.279   4.058   7.710 -0.0672 -0.1218 -0.0234
 1709SOL    HW116586   1.357   4.008   7.735 -0.8616 -1.3216  0.0577
 1709SOL    HW216587   1.268   4.027   7.620 -2.1664 -1.1761  0.6060
 1710SOL     OW16588   4.198   2.130  16.023  0.1102  0.0101 -0.2151
 1710SOL    HW116589   4.239   2.205  15.980  0.3087 -0.0302 -0.0970
 1710SOL    HW216590   4.248   2.145  16.104 -0.3607 -1.3273  0.3199
 1711SOL     OW16591   0.519   4.096   6.945  0.0773 -0.5406 -0.0719
 1711SOL    HW116592   0.463   4.031   6.986 -0.9123  0.5088  0.2454
 1711SOL    HW216593   0.602   4.071   6.985  0.5788  0.9408 -0.1535
 1712SOL     OW16594   4.526   3.037   8.592 -0.0124 -0.1378  0.5071
 1712SOL    HW116595   4.550   3.051   8.500 -0.5536 -2.1825  0.0494
 1712SOL    HW216596   4.591   2.973   8.620 -0.7815 -0.5536  1.3586
 1713SOL     OW16597   4.053   1.956  13.008  0.6375 -0.2359  0.4032
 1713SOL    HW116598   4.045   1.876  12.955 -0.8206  1.2268 -1.5835
 1713SOL    HW216599   4.133   1.922  13.049  0.1500 -0.3800  1.2466
 1714SOL     OW16600   4.674   4.491   2.429  0.1587 -0.1911  0.7474
 1714SOL    HW116601   0.027   4.550   2.426  2.3112 -3.1374 -1.8996
 1714SOL    HW216602   4.706   4.404   2.449  1.3952 -0.0759 -0.7628
 1715SOL     OW16603   1.930   4.527  15.563  0.3005 -0.1106 -0.2756
 1715SOL    HW116604   1.967   4.485  15.641  1.5297  3.2366  0.9455
 1715SOL    HW216605   1.893   4.606  15.604 -0.4338  0.4835 -2.1126
 1716SOL     OW16606   0.658   3.714   7.531 -0.3471 -0.0123 -0.2227
 1716SOL    HW116607   0.644   3.623   7.560 -0.1448  0.1602  0.4001
 1716SOL    HW216608   0.655   3.752   7.618 -0.1843  0.1045 -0.2680
 1717SOL     OW16609   4.089   1.963   8.140  0.2907 -0.3904 -0.1987
 1717SOL    HW116610   4.102   1.998   8.229  2.7517 -2.0519  0.0954
 1717SOL    HW216611   4.177   1.926   8.137  0.5015  0.0088  0.7622
 1718SOL     OW16612   1.523   4.375   2.974 -0.3496 -0.5001  0.5579
 1718SOL    HW116613   1.482   4.444   2.922  2.3421 -1.7807 -3.3031
 1718SOL    HW216614   1.618   4.388   2.965 -0.6409  0.5478 -0.9963
 1719SOL     OW16615   3.460   0.945  13.043 -0.7469  0.0871 -0.1039
 1719SOL    HW116616   3.411   0.862  13.046 -2.0107  0.8565  0.2632
 1719SOL    HW216617   3.513   0.937  13.122 -0.5793 -2.8293 -0.5000
 1720SOL     OW16618   0.354   3.507   5.259  0.7050  0.4329 -0.7163
 1720SOL    HW116619   0.431   3.493   5.315 -0.2907  1.6097  0.9515
 1720SOL    HW216620   0.302   3.429   5.277  0.0198  1.0891  0.1335
 1721SOL     OW16621   0.044   4.282   4.725 -0.2721 -0.1828  0.0465
 1721SOL    HW116622   4.696   4.231   4.685  1.1558 -0.8350 -1.6302
 1721SOL    HW216623   0.023   4.371   4.699  0.8086  0.1390  0.2870
 1722SOL     OW16624   0.526   1.293   9.795 -0.0287 -0.5527 -0.3595
 1722SOL    HW116625   0.560   1.354   9.860  0.4877 -2.0571  0.7831
 1722SOL    HW216626   0.433   1.307   9.811 -0.4741 -0.6583 -2.8650
 1723SOL     OW16627   0.736   0.393  11.045  0.9732  0.0346 -1.2874
 1723SOL    HW116628   0.821   0.382  11.003  1.8192 -1.2279  0.7595
 1723SOL    HW216629   0.747   0.476  11.092 -1.5260 -0.9018  0.9745
 1724SOL     OW16630   2.160   3.012   4.072  0.5477 -0.4365 -0.2800
 1724SOL    HW116631   2.238   3.008   4.017  0.0681  1.6957 -1.1007
 1724SOL    HW216632   2.158   3.104   4.098  0.9452 -1.7237  4.2430
 1725SOL     OW16633   4.084   3.237   0.899 -0.5198 -0.2155 -0.4577
 1725SOL    HW116634   4.172   3.228   0.861 -0.9680  0.1929 -1.5973
 1725SOL    HW216635   4.084   3.328   0.927  0.6405  0.4316 -2.5692
 1726SOL     OW16636   1.897   4.104   1.640  0.9293 -0.0848 -0.4840
 1726SOL    HW116637   1.913   4.046   1.714 -1.3364 -0.6456 -0.4295
 1726SOL    HW216638   1.919   4.049   1.565 -2.2308 -0.6104 -1.0335
 1727SOL     OW16639   2.053   3.955   5.286  0.2276  0.4766  0.2505
 1727SOL    HW116640   2.095   3.872   5.264  0.2036  1.1730 -2.4426
 1727SOL    HW216641   1.995   3.975   5.212  0.9785  1.3010 -0.1066
 1728SOL     OW16642   1.918   1.003  14.660  0.4439  0.2266 -0.6147
 1728SOL    HW116643   1.939   0.999  14.753 -0.2994  0.3619 -0.4369
 1728SOL    HW216644   2.010   1.015  14.635  0.6426  0.0348  0.0383
 1729SOL     OW16645   2.465   0.174   8.091 -0.2378  0.1455  0.4082
 1729SOL    HW116646   2.537   0.113   8.069  0.3438  1.1269 -0.4322
 1729SOL    HW216647   2.415   0.184   8.010  0.1068  3.4588  0.6137
 1730SOL     OW16648   4.546   0.877  10.192 -0.5183 -0.1759 -0.0049
 1730SOL    HW116649   4.618   0.815  10.202 -0.1621  0.1405 -0.6383
 1730SOL    HW216650   4.502   0.859  10.275 -0.6346  1.2855  0.2609
 1731SOL     OW16651   1.641   1.087   5.549 -0.7072  0.8026  0.1772
 1731SOL    HW116652   1.583   1.040   5.488  0.5984 -0.0196 -0.4440
 1731SOL    HW216653   1.714   1.027   5.539 -1.1967 -0.0634  1.8227
 1732SOL     OW16654   2.168   3.281  15.945 -0.3371 -0.0657 -0.4060
 1732SOL    HW116655   2.258   3.311  15.933  0.4244 -1.7303  1.0880
 1732SOL    HW216656   2.185   3.224  16.020  1.3283 -0.3338 -0.9823
 1733SOL     OW16657   4.109   4.406   7.034  0.2769 -0.5055 -0.1053
 1733SOL    HW116658   4.090   4.393   7.127 -2.2622 -1.0533 -0.7058
 1733SOL    HW216659   4.144   4.320   7.010  0.0989 -0.4644 -0.4940
 1734SOL     OW16660   2.454   4.619   5.140 -0.2560 -0.0997  0.8061
 1734SOL    HW116661   2.441   4.525   5.127  1.9857 -0.4253  0.9235
 1734SOL    HW216662   2.402   4.643   5.217  1.3093  0.9720  1.5308
 1735SOL     OW16663   4.647   4.146   4.325 -0.3205 -0.2741  0.2991
 1735SOL    HW116664   4.670   4.172   4.236  0.2469  1.6658  1.0129
 1735SOL    HW216665   4.598   4.065   4.310 -0.5932 -0.1485  0.5114
 1736SOL     OW16666   4.328   0.563  16.580 -0.1195 -0.1571  0.6560
 1736SOL    HW116667   4.363   0.502  16.645  1.3888 -0.5227 -0.4935
 1736SOL    HW216668   4.277   0.505  16.524 -2.1229  1.8138  0.4453
 1737SOL     OW16669   3.521   2.776   3.303 -0.0891  0.2128 -0.3790
 1737SOL    HW116670   3.428   2.791   3.318  0.2448  1.5069  0.4092
 1737SOL    HW216671   3.522   2.719   3.226 -2.8361 -1.8009  1.0793
 1738SOL     OW16672   1.968   1.784   4.022  0.0811 -0.0726  0.6703
 1738SOL    HW116673   1.905   1.715   4.040  0.0133  0.1230  1.1814
 1738SOL    HW216674   1.960   1.837   4.102  0.9485 -0.8428  1.2610
 1739SOL     OW16675   4.289   1.201   3.443  0.0021 -0.3499 -0.5779
 1739SOL    HW116676   4.232   1.125   3.430  0.9150 -1.2738  0.8015
 1739SOL    HW216677   4.258   1.221   3.531 -1.4680  2.8723 -1.8243
 1740SOL     OW16678   3.094   0.738   7.341 -0.0009  0.0060 -0.3319
 1740SOL    HW116679   3.092   0.673   7.411 -0.4734 -0.4279 -0.7492
 1740SOL    HW216680   3.005   0.738   7.305  1.0399 -0.8613 -2.8723
 1741SOL     OW16681   4.006   4.306   3.515  0.0698  0.1183  0.7412
 1741SOL    HW116682   4.073   4.358   3.471  0.4969 -1.1945 -0.1655
 1741SOL    HW216683   4.061   4.233   3.544 -0.0074 -0.1781  0.1549
 1742SOL     OW16684   1.484   0.328   2.035 -0.5246  0.0845  0.1825
 1742SOL    HW116685   1.562   0.311   1.983  0.7113  2.2134  1.2937
 1742SOL    HW216686   1.492   0.288   2.122  0.0642  0.7303  0.4338
 1743SOL     OW16687   3.539   1.788   3.610  0.2577  0.1697 -0.3390
 1743SOL    HW116688   3.509   1.843   3.537 -1.7349 -0.2487  0.1712
 1743SOL    HW216689   3.459   1.782   3.663 -0.4800 -1.5928 -1.6553
 1744SOL     OW16690   3.899   0.251   8.299  0.2737 -0.6816 -0.2310
 1744SOL    HW116691   3.960   0.319   8.269  1.1902 -1.7824 -0.8987
 1744SOL    HW216692   3.934   0.175   8.251 -0.3602 -2.8703  2.7770
 1745SOL     OW16693   4.177   4.247   6.333  0.2201  0.0339  0.2334
 1745SOL    HW116694   4.272   4.238   6.336  0.3844  2.7410  2.9106
 1745SOL    HW216695   4.164   4.338   6.360 -2.5844 -0.3045  0.0275
 1746SOL     OW16696   1.638   0.867   0.229 -0.3235  0.4521  0.0578
 1746SOL    HW116697   1.622   0.891   0.138 -0.6695  0.8819  0.2325
 1746SOL    HW216698   1.571   0.923   0.268 -1.9769 -0.0930 -1.9896
 1747SOL     OW16699   1.362   3.141   2.201  1.0287 -0.5008 -0.0781
 1747SOL    HW116700   1.383   3.181   2.117  3.2261 -1.5974 -0.0583
 1747SOL    HW216701   1.341   3.222   2.248 -0.2591 -0.7787 -0.1973
 1748SOL     OW16702   1.768   0.056   0.638 -0.1900  0.0939 -0.2550
 1748SOL    HW116703   1.828   4.707   0.656 -1.1558 -0.4640  0.7675
 1748SOL    HW216704   1.714   0.026   0.565  0.0284  0.5461 -0.6043
 1749SOL     OW16705   2.179   1.870  14.888  0.3333 -0.0752  0.0846
 1749SOL    HW116706   2.239   1.805  14.923  0.4561 -0.8546 -1.5863
 1749SOL    HW216707   2.226   1.893  14.809  0.6697  0.1910  0.3631
 1750SOL     OW16708   3.264   2.728  11.909 -0.2872  0.8904 -0.0873
 1750SOL    HW116709   3.216   2.788  11.853  1.1458  0.9830 -1.2318
 1750SOL    HW216710   3.325   2.697  11.842 -0.4764  1.3410 -0.4691
 1751SOL     OW16711   3.402   1.826   1.120 -0.0595 -0.8033 -1.0507
 1751SOL    HW116712   3.427   1.765   1.189  3.0343  1.2523 -0.3900
 1751SOL    HW216713   3.449   1.809   1.039  0.6862 -2.6998 -0.2256
 1752SOL     OW16714   0.933   0.717   7.292 -1.3305  0.3056  0.5372
 1752SOL    HW116715   0.929   0.806   7.329  0.6829  0.4116  0.5222
 1752SOL    HW216716   1.026   0.715   7.270 -0.6996 -1.3289  3.3504
 1753SOL     OW16717   3.556   0.364  12.753  0.3839  0.1107  0.1326
 1753SOL    HW116718   3.604   0.281  12.763  0.1976  0.3556  3.1269
 1753SOL    HW216719   3.498   0.336  12.683  0.1583  0.4338  0.1882
 1754SOL     OW16720   4.499   4.293   0.276 -0.0043 -0.2131 -0.4592
 1754SOL    HW116721   4.480   4.366   0.217 -3.2343  0.5007  1.4231
 1754SOL    HW216722   4.524   4.334   0.358  0.7201 -0.8725 -0.3505
 1755SOL     OW16723   2.345   0.227   7.833  0.6441  0.5643  1.3113
 1755SOL    HW116724   2.431   0.216   7.794 -0.5362 -1.0357 -0.8917
 1755SOL    HW216725   2.305   0.139   7.834  0.4389  0.6199 -2.3112
 1756SOL     OW16726   2.824   3.352   3.882 -0.4712  0.1611  0.4863
 1756SOL    HW116727   2.798   3.294   3.953  1.5683 -2.4302 -0.8840
 1756SOL    HW216728   2.822   3.289   3.810 -2.7778  0.1767  0.5356
 1757SOL     OW16729   2.747   3.218  13.825  0.2412 -0.0260 -0.4860
 1757SOL    HW116730   2.687   3.290  13.805 -2.6417 -1.6742  2.2812
 1757SOL    HW216731   2.698   3.151  13.871 -1.5339  3.0719  2.0929
 1758SOL     OW16732   4.448   4.288   7.626 -0.0254  0.3336 -0.3111
 1758SOL    HW116733   4.530   4.272   7.673 -0.0178 -1.6530 -1.0143
 1758SOL    HW216734   4.468   4.365   7.573  1.2827  1.3297  1.6327
 1759SOL     OW16735   1.478   0.649   2.685  0.3096  0.0984 -0.5413
 1759SOL    HW116736   1.402   0.592   2.686  1.2233 -1.1073 -0.5033
 1759SOL    HW216737   1.462   0.705   2.761  1.0766 -1.6851  0.9381
 1760SOL     OW16738   2.542   1.366  10.033 -0.2452  0.1964  0.1756
 1760SOL    HW116739   2.451   1.365  10.004  0.0550  1.1244 -0.8066
 1760SOL    HW216740   2.547   1.457  10.062  0.3795 -0.0437  0.8157
 1761SOL     OW16741   0.862   0.434   7.122  0.3555  0.0017 -0.0868
 1761SOL    HW116742   0.952   0.450   7.094  1.0123  0.2855  2.1889
 1761SOL    HW216743   0.877   0.431   7.216  0.9540  1.0487 -0.1514
 1762SOL     OW16744   0.519   3.407   9.799  0.3834  0.3674 -0.7405
 1762SOL    HW116745   0.614   3.407   9.787  0.6816  1.2730  1.5147
 1762SOL    HW216746   0.483   3.428   9.713  0.3824  0.7890 -0.6371
 1763SOL     OW16747   4.237   3.993  14.332 -0.1480 -0.0455 -0.1132
 1763SOL    HW116748   4.261   4.083  14.307  1.3327 -0.5404 -0.4464
 1763SOL    HW216749   4.297   3.966  14.401 -0.1349  0.6320  0.1381
 1764SOL     OW16750   0.572   3.161  17.080  0.0380  0.1130  0.2019
 1764SOL    HW116751   0.621   3.087  17.045 -1.4206 -0.6029 -0.3484
 1764SOL    HW216752   0.643   3.224  17.067 -2.0637  2.1770 -1.1976
 1765SOL     OW16753   4.083   2.609   7.377  0.0122  0.0024 -0.0254
 1765SOL    HW116754   3.990   2.588   7.369 -0.3135  0.6333  1.8751
 1765SOL    HW216755   4.110   2.539   7.436  3.3999  0.7874 -0.6710
 1766SOL     OW16756   0.786   2.846   0.659  0.0538  0.5874  0.1410
 1766SOL    HW116757   0.749   2.922   0.703 -2.5329 -0.5056 -0.1406
 1766SOL    HW216758   0.798   2.798   0.741 -1.8642 -1.5197 -0.8176
 1767SOL     OW16759   3.304   1.793   1.525 -0.2937  0.0137  0.5188
 1767SOL    HW116760   3.330   1.748   1.445  1.3939  2.1094 -0.1105
 1767SOL    HW216761   3.327   1.882   1.499 -0.3225 -0.4684 -1.1519
 1768SOL     OW16762   4.535   3.093  16.000 -0.5457  0.4026  0.0301
 1768SOL    HW116763   4.526   3.169  16.058  1.7976  1.5167 -1.0723
 1768SOL    HW216764   4.444   3.083  15.974 -1.0667 -1.7516  2.6258
 1769SOL     OW16765   0.365   2.252   4.579  0.2921  0.6011 -0.7176
 1769SOL    HW116766   0.459   2.261   4.599 -0.1389  2.8809  0.3085
 1769SOL    HW216767   0.321   2.334   4.600  0.1636  0.0337  1.2141
 1770SOL     OW16768   3.711   2.942   4.919 -0.0376  0.0760  0.4913
 1770SOL    HW116769   3.617   2.959   4.916  0.4381  2.7746  0.3888
 1770SOL    HW216770   3.720   2.847   4.920 -0.5686  0.0519  2.6885
 1771SOL     OW16771   0.702   1.683  11.401 -0.1829 -1.1248  0.7134
 1771SOL    HW116772   0.663   1.597  11.386 -1.4036 -0.0114 -2.4986
 1771SOL    HW216773   0.704   1.695  11.496  0.9629  1.7262  0.3493
 1772SOL     OW16774   0.493   4.317  10.470  0.0837  0.0211  0.3552
 1772SOL    HW116775   0.420   4.255  10.466  0.4179 -0.4816  2.1325
 1772SOL    HW216776   0.483   4.374  10.546 -0.1322 -0.2280  0.5162
 1773SOL     OW16777   4.515   1.248   6.652  0.4526  0.0128 -0.4190
 1773SOL    HW116778   4.606   1.223   6.670 -0.2369 -2.7139 -0.6631
 1773SOL    HW216779   4.477   1.161   6.640  1.4611 -0.4564 -0.2552
 1774SOL     OW16780   0.251   1.942   6.122 -0.4568 -0.4478 -0.3736
 1774SOL    HW116781   0.173   1.952   6.068 -2.3491 -1.3223  2.2487
 1774SOL    HW216782   0.293   1.876   6.067 -0.2923 -1.9004  1.4929
 1775SOL     OW16783   1.669   1.621   6.839 -0.2626  0.0309 -0.0297
 1775SOL    HW116784   1.581   1.654   6.822 -0.2953 -1.0501 -2.0462
 1775SOL    HW216785   1.695   1.702   6.883 -0.0186  1.2496 -2.4148
 1776SOL     OW16786   4.208   3.447  13.083 -0.3730  0.3199 -0.4311
 1776SOL    HW116787   4.303   3.455  13.091 -0.1843 -1.5213 -0.8867
 1776SOL    HW216788   4.198   3.447  12.987 -1.3289  0.0104 -0.3361
 1777SOL     OW16789   3.789   3.957   2.931 -0.5345  0.1448 -0.2013
 1777SOL    HW116790   3.712   3.921   2.975 -0.1929  1.3572  1.3921
 1777SOL    HW216791   3.813   3.877   2.885  1.0641  0.9006 -0.7014
 1778SOL     OW16792   0.047   3.231   1.721 -0.3812  0.0665  0.2536
 1778SOL    HW116793   4.685   3.191   1.740 -0.8211  1.2245  0.7428
 1778SOL    HW216794   0.077   3.268   1.804  0.9795  0.7965 -0.5609
 1779SOL     OW16795   0.155   4.182   8.366 -0.7043 -0.3060 -0.0384
 1779SOL    HW116796   0.153   4.156   8.458  0.3533 -1.8870 -0.4609
 1779SOL    HW216797   0.239   4.156   8.329 -0.6924  1.4157 -1.2223
 1780SOL     OW16798   2.438   1.286  15.009 -0.0158 -0.2259  0.2096
 1780SOL    HW116799   2.346   1.312  15.000  0.5187  1.2110 -1.0115
 1780SOL    HW216800   2.438   1.228  15.085 -3.1124 -0.0278  0.3832
 1781SOL     OW16801   1.969   2.745  11.285 -0.0099 -0.1806  0.0683
 1781SOL    HW116802   1.891   2.720  11.235  0.9149  0.1309 -1.5060
 1781SOL    HW216803   2.009   2.809  11.226 -0.7395  0.2146  0.0048
 1782SOL     OW16804   4.122   3.245  10.192  0.1866 -0.1541  0.6092
 1782SOL    HW116805   4.132   3.303  10.267  0.6618 -0.5247  0.8363
 1782SOL    HW216806   4.151   3.300  10.119 -2.8777  1.6805  0.8127
 1783SOL     OW16807   4.228   2.325   5.223  0.8809  0.3187 -0.3866
 1783SOL    HW116808   4.272   2.245   5.253 -0.2337 -0.0203  0.3769
 1783SOL    HW216809   4.266   2.396   5.274 -0.5228  0.5588  0.3529
 1784SOL     OW16810   3.152   3.640   7.657  0.0263 -0.6800  0.1863
 1784SOL    HW116811   3.206   3.629   7.579 -0.8932  0.7734 -0.6648
 1784SOL    HW216812   3.202   3.573   7.704 -0.9264 -0.2230  1.8667
 1785SOL     OW16813   4.604   2.566   8.399 -0.6854  0.1847  0.2265
 1785SOL    HW116814   4.558   2.565   8.315  1.1366  2.2347 -0.7992
 1785SOL    HW216815   4.666   2.494   8.382 -0.9798 -0.4598  1.8563
 1786SOL     OW16816   1.744   4.435  12.468 -0.3299  0.7273 -0.2685
 1786SOL    HW116817   1.724   4.484  12.547  3.0008  3.1671 -0.9111
 1786SOL    HW216818   1.657   4.408  12.438 -0.5068  2.6317 -1.5046
 1787SOL     OW16819   3.605   2.354   9.759  0.1552  0.3607 -0.1002
 1787SOL    HW116820   3.594   2.412   9.684 -3.1711  1.0522  0.8930
 1787SOL    HW216821   3.537   2.399   9.811 -0.0886 -0.5331  0.3622
 1788SOL     OW16822   4.609   0.670   8.683  0.4106 -0.7646  0.2334
 1788SOL    HW116823   4.579   0.758   8.708  2.5746 -0.9907  3.5686
 1788SOL    HW216824   4.699   0.684   8.654  0.7166 -0.7256  1.1810
 1789SOL     OW16825   3.674   1.707   0.469 -0.3794  0.3184  0.0727
 1789SOL    HW116826   3.628   1.682   0.389 -1.5730  1.9428  0.2581
 1789SOL    HW216827   3.765   1.695   0.439 -0.7232 -1.5739 -0.2138
 1790SOL     OW16828   2.273   2.315   6.387 -0.5913 -0.3580 -0.0258
 1790SOL    HW116829   2.230   2.364   6.457 -1.4431 -1.9632  0.5776
 1790SOL    HW216830   2.258   2.359   6.303  0.8160 -1.1321 -0.6666
 1791SOL     OW16831   3.176   3.730  15.717 -0.1898  0.1099 -0.0304
 1791SOL    HW116832   3.188   3.655  15.659  1.4643 -0.3231  0.8528
 1791SOL    HW216833   3.266   3.763  15.715 -0.3904  0.5756 -1.2420
 1792SOL     OW16834   0.697   3.756   6.843 -0.0501 -0.0124 -0.2622
 1792SOL    HW116835   0.662   3.814   6.910  0.3213 -1.5099  1.2119
 1792SOL    HW216836   0.752   3.704   6.901  1.4794  0.3792 -1.3644
 1793SOL     OW16837   0.412   0.760  12.693  0.4344  0.9245 -0.6143
 1793SOL    HW116838   0.320   0.780  12.708 -0.2368 -2.2510 -0.5266
 1793SOL    HW216839   0.416   0.668  12.719 -0.2343  1.3902  1.1090
 1794SOL     OW16840   3.763   1.854   5.334  0.2719  0.7088 -0.5682
 1794SOL    HW116841   3.777   1.944   5.304 -2.2379  0.6533 -1.8964
 1794SOL    HW216842   3.669   1.851   5.351  0.3873  1.7957  0.2416
 1795SOL     OW16843   0.692   3.564   5.983  0.3875  0.2508 -0.6501
 1795SOL    HW116844   0.729   3.652   5.986 -0.8189  0.7699 -0.5924
 1795SOL    HW216845   0.619   3.571   6.045  0.1591 -0.3406 -0.8487
 1796SOL     OW16846   3.730   4.187  16.206 -0.3772 -0.2508  0.3308
 1796SOL    HW116847   3.775   4.139  16.276  1.4809  0.8297 -0.1358
 1796SOL    HW216848   3.802   4.201  16.144 -1.2716 -0.4691 -0.7642
 1797SOL     OW16849   0.164   4.358   7.001  0.1806 -0.2879  0.2811
 1797SOL    HW116850   0.237   4.385   7.056  1.1319  0.2369 -1.2185
 1797SOL    HW216851   0.212   4.294   6.948  1.7795  0.9389  0.2473
 1798SOL     OW16852   2.794   1.114   7.947 -0.3251  0.2796  0.4791
 1798SOL    HW116853   2.702   1.138   7.944  0.3429  2.4903 -2.3659
 1798SOL    HW216854   2.833   1.201   7.941  2.6622 -0.8661  2.9846
 1799SOL     OW16855   2.558   2.865   9.721  0.2492  0.2216 -0.0184
 1799SOL    HW116856   2.512   2.792   9.681 -1.3388 -0.2619  2.6650
 1799SOL    HW216857   2.495   2.933   9.746 -0.4501 -0.2305 -0.5462
 1800SOL     OW16858   4.087   4.608   3.617 -0.0442 -0.0767  0.1322
 1800SOL    HW116859   4.115   4.699   3.618 -1.6572  0.4252 -0.5106
 1800SOL    HW216860   4.146   4.580   3.548 -0.2189 -1.9600  0.7521
 1801SOL     OW16861   4.663   1.721   9.306  0.1750 -0.1166 -0.0824
 1801SOL    HW116862   4.714   1.739   9.385 -0.1230 -1.3768  0.3972
 1801SOL    HW216863   0.004   1.749   9.240 -0.2743 -3.1613 -1.8170
 1802SOL     OW16864   2.480   3.132  12.015  0.1117 -0.6026  0.2549
 1802SOL    HW116865   2.438   3.116  11.930  0.2466  0.6885 -0.0638
 1802SOL    HW216866   2.400   3.162  12.060  0.9789  2.6322 -0.3259
 1803SOL     OW16867   0.932   2.216   2.010  0.1828  0.2483 -0.0464
 1803SOL    HW116868   0.861   2.239   2.070 -0.5069  0.1588 -0.8166
 1803SOL    HW216869   0.883   2.194   1.930 -0.0017 -0.6229  0.3020
 1804SOL     OW16870   4.690   0.437  11.316 -0.2506 -0.2627  0.4453
 1804SOL    HW116871   0.030   0.379  11.273  1.5716  0.8708  1.5170
 1804SOL    HW216872   4.723   0.522  11.286  0.7200  0.1459  2.6091
 1805SOL     OW16873   3.282   3.173   0.099  0.2140  0.1677  0.3879
 1805SOL    HW116874   3.312   3.195   0.187  0.5298 -1.2899  0.6396
 1805SOL    HW216875   3.209   3.113   0.113  0.5123  0.0768  1.5578
 1806SOL     OW16876   1.200   2.478   4.646  0.1711 -0.2820  0.2109
 1806SOL    HW116877   1.125   2.531   4.619  0.2698 -0.3984 -0.2805
 1806SOL    HW216878   1.190   2.483   4.741 -1.8255  0.9213 -0.0693
 1807SOL     OW16879   2.690   0.615   5.276  0.5762 -0.4559 -0.0641
 1807SOL    HW116880   2.718   0.540   5.328 -1.5120 -1.1566  0.0595
 1807SOL    HW216881   2.625   0.571   5.220 -0.5184  1.4557 -0.2990
 1808SOL     OW16882   3.610   1.508   8.615  0.0979  0.8037  0.4870
 1808SOL    HW116883   3.587   1.428   8.662 -1.0917  1.0409  0.3175
 1808SOL    HW216884   3.524   1.547   8.602  0.4266  0.9439 -1.1908
 1809SOL     OW16885   1.565   2.574   7.088 -0.2357 -0.2569 -0.4747
 1809SOL    HW116886   1.529   2.579   7.176  1.2914  1.0341  0.0720
 1809SOL    HW216887   1.655   2.599   7.108  0.7404 -1.9040 -2.7880
 1810SOL     OW16888   3.241   3.995   4.275 -0.3123 -0.6202  0.2947
 1810SOL    HW116889   3.328   4.012   4.237 -0.0763 -1.0091  0.6615
 1810SOL    HW216890   3.220   4.088   4.288  1.4312 -0.4690  2.0802
 1811SOL     OW16891   1.282   2.113   5.994 -0.2552 -0.3066  0.4815
 1811SOL    HW116892   1.333   2.054   5.939 -1.3641  0.7185 -1.6927
 1811SOL    HW216893   1.345   2.185   6.002 -1.9597  1.5049 -1.8982
 1812SOL     OW16894   2.453   0.692   4.909  0.0593  0.2499  0.3586
 1812SOL    HW116895   2.372   0.732   4.942 -0.4209  0.8981 -1.6507
 1812SOL    HW216896   2.440   0.707   4.816  1.4879 -0.0261  0.1255
 1813SOL     OW16897   4.352   4.485   3.123  0.1693 -0.2004  0.2205
 1813SOL    HW116898   4.290   4.502   3.052 -0.0118 -1.7751  0.0226
 1813SOL    HW216899   4.375   4.394   3.108 -0.6546 -0.3565 -0.0807
 1814SOL     OW16900   4.055   2.299   3.626  1.0361  0.1098  0.6979
 1814SOL    HW116901   4.095   2.216   3.653  0.1440 -0.6542 -0.3114
 1814SOL    HW216902   4.078   2.288   3.534  0.4833 -1.0655  0.7016
 1815SOL     OW16903   2.100   4.414   8.079  0.3852 -0.2872 -0.2860
 1815SOL    HW116904   2.043   4.474   8.127 -1.6090 -0.7439 -2.1235
 1815SOL    HW216905   2.068   4.422   7.990 -1.4276  1.1093  0.4809
 1816SOL     OW16906   2.208   0.715  14.931  0.3211  0.0787  0.0540
 1816SOL    HW116907   2.255   0.653  14.988 -0.0165 -1.5945 -1.4980
 1816SOL    HW216908   2.120   0.679  14.922  0.8212 -1.6276  1.8022
 1817SOL     OW16909   2.830   0.477   4.353 -0.6431 -0.8408 -0.3720
 1817SOL    HW116910   2.813   0.520   4.437 -0.9386 -0.5139 -0.6019
 1817SOL    HW216911   2.917   0.447   4.381 -0.9129  0.6905  2.1293
 1818SOL     OW16912   3.938   0.607  10.077 -0.3931  0.0105  0.1270
 1818SOL    HW116913   3.944   0.641   9.988 -1.6786 -0.6889 -0.2315
 1818SOL    HW216914   3.953   0.515  10.053  1.3026  0.5651 -0.8901
 1819SOL     OW16915   1.675   1.661  14.962 -0.1648  0.1391  0.2892
 1819SOL    HW116916   1.710   1.699  14.882 -1.9499  2.0976  0.4312
 1819SOL    HW216917   1.669   1.567  14.944  1.5552  0.2945 -1.1310
 1820SOL     OW16918   0.881   1.234   9.656 -0.6751 -0.1806 -0.5231
 1820SOL    HW116919   0.802   1.233   9.710  0.5821  0.2724  1.3153
 1820SOL    HW216920   0.936   1.184   9.717 -1.8204 -1.9260 -0.9052
 1821SOL     OW16921   3.705   2.950   3.116  0.3871 -0.0449  0.7559
 1821SOL    HW116922   3.726   3.043   3.106  1.3277 -0.3788 -0.2945
 1821SOL    HW216923   3.616   2.960   3.082  0.3347 -3.2008 -0.0040
 1822SOL     OW16924   3.970   0.103   5.348 -0.3789  0.2259  0.0646
 1822SOL    HW116925   4.039   0.120   5.284  1.1416 -1.7441  1.1803
 1822SOL    HW216926   4.021   0.111   5.428 -0.6033 -1.8136  0.4186
 1823SOL     OW16927   3.162   3.790   7.992  0.2772  0.6759  0.4912
 1823SOL    HW116928   3.211   3.849   7.934 -1.4032 -0.0726 -1.7098
 1823SOL    HW216929   3.225   3.724   8.020 -1.4701 -1.0943  0.2077
 1824SOL     OW16930   2.309   4.042   6.564 -0.5642  0.2135 -0.0259
 1824SOL    HW116931   2.282   4.076   6.649  0.6434 -1.0813  0.8744
 1824SOL    HW216932   2.232   4.050   6.508 -0.6834  0.1341  0.1261
 1825SOL     OW16933   4.103   4.031   7.080  0.2254  0.3743 -0.1059
 1825SOL    HW116934   4.066   4.074   7.157  2.0142 -0.1735  1.0598
 1825SOL    HW216935   4.189   4.003   7.110 -0.7150 -1.9033  0.4958
 1826SOL     OW16936   2.299   3.750   2.538 -0.0936 -0.3417  0.2294
 1826SOL    HW116937   2.289   3.729   2.444  0.7767 -2.1585  0.5351
 1826SOL    HW216938   2.264   3.667   2.572  2.0407 -1.7068 -0.8710
 1827SOL     OW16939   0.709   2.311   7.508  0.1813  0.0235 -0.3222
 1827SOL    HW116940   0.717   2.384   7.570  0.1389 -0.0769 -0.1978
 1827SOL    HW216941   0.614   2.303   7.521  0.4960 -0.1444  1.8488
 1828SOL     OW16942   1.378   4.617   2.905  0.2016 -0.1962 -0.0885
 1828SOL    HW116943   1.322   4.695   2.910  0.3802 -0.1784  1.5866
 1828SOL    HW216944   1.451   4.654   2.856 -0.4555  0.7214 -0.3842
 1829SOL     OW16945   1.099   0.262   0.799  0.7020 -0.0353  0.4101
 1829SOL    HW116946   1.036   0.283   0.869 -0.5090  0.3477 -0.8025
 1829SOL    HW216947   1.049   0.258   0.718 -2.0064  1.0487  2.0056
 1830SOL     OW16948   2.338   4.542   6.620  1.1519  0.2501  0.0846
 1830SOL    HW116949   2.365   4.539   6.712  0.4306  0.9801  0.3199
 1830SOL    HW216950   2.408   4.594   6.582  1.4347 -1.5881 -1.9025
 1831SOL     OW16951   1.980   3.051   6.117  0.0279  0.5584 -0.4680
 1831SOL    HW116952   1.924   3.041   6.040  0.2108 -1.1631 -0.3823
 1831SOL    HW216953   1.998   2.963   6.151 -3.3026  0.4448  1.0693
 1832SOL     OW16954   0.423   3.207   5.459 -0.1483 -0.1001 -0.1193
 1832SOL    HW116955   0.474   3.248   5.390  0.3463 -0.3552  0.0992
 1832SOL    HW216956   0.374   3.134   5.423 -2.0706  0.5939  1.0718
 1833SOL     OW16957   1.730   3.196   8.173  0.6243  0.6567 -0.2321
 1833SOL    HW116958   1.817   3.158   8.182  0.1023 -0.1990  1.1790
 1833SOL    HW216959   1.725   3.229   8.262  0.5436 -1.5483  0.5924
 1834SOL     OW16960   1.867   2.496   8.399  0.0381  0.3529 -0.4317
 1834SOL    HW116961   1.795   2.435   8.383  0.0958  0.9310 -2.9630
 1834SOL    HW216962   1.875   2.508   8.494  0.4486  2.1563 -0.6914
 1835SOL     OW16963   2.507   0.519   9.786 -0.2387 -0.0032 -0.4216
 1835SOL    HW116964   2.584   0.566   9.753 -0.0913 -1.2140 -1.8219
 1835SOL    HW216965   2.476   0.565   9.863 -1.6174  2.2078 -2.3100
 1836SOL     OW16966   0.214   3.793   7.487 -0.2821 -0.0802  0.1634
 1836SOL    HW116967   0.152   3.787   7.559 -0.4019  0.9796  0.1507
 1836SOL    HW216968   0.286   3.747   7.530 -0.9862  0.1451  1.6024
 1837SOL     OW16969   1.208   0.364   6.616 -0.0646  0.0572 -0.0273
 1837SOL    HW116970   1.123   0.370   6.660 -0.8219 -1.3290 -1.3388
 1837SOL    HW216971   1.214   0.457   6.593  0.4624 -0.2052 -0.9486
 1838SOL     OW16972   2.297   4.533   0.614  0.0181  0.2075  0.1787
 1838SOL    HW116973   2.227   4.470   0.633  1.1139 -0.7038  1.2060
 1838SOL    HW216974   2.363   4.514   0.681 -2.2906  0.4342  2.5155
 1839SOL     OW16975   2.534   4.211   7.389 -0.0438 -0.1462  0.3283
 1839SOL    HW116976   2.607   4.223   7.329 -0.9013  0.5579 -0.5708
 1839SOL    HW216977   2.488   4.140   7.346 -0.1992 -1.6205  2.8910
 1840SOL     OW16978   0.138   2.451   6.534 -0.5937  0.5143 -0.5863
 1840SOL    HW116979   0.088   2.522   6.494 -2.0636  0.2937  0.8648
 1840SOL    HW216980   0.208   2.492   6.584  0.2113 -0.7818 -0.6618
 1841SOL     OW16981   0.301   0.575   3.364 -0.1988 -0.5514 -0.0174
 1841SOL    HW116982   0.372   0.514   3.383 -2.3492 -3.1312 -0.3985
 1841SOL    HW216983   0.358   0.644   3.330 -0.7457 -0.6680 -1.1615
 1842SOL     OW16984   1.216   3.467  10.433  0.8813 -0.0385  0.0469
 1842SOL    HW116985   1.224   3.440  10.342 -1.5545  0.2317 -0.2468
 1842SOL    HW216986   1.308   3.483  10.454  0.0607  1.7228  2.3639
 1843SOL     OW16987   3.734   2.538   0.789  0.1120 -0.4986  0.3101
 1843SOL    HW116988   3.766   2.627   0.802 -2.2018  0.4396 -0.5397
 1843SOL    HW216989   3.647   2.548   0.828  0.3064 -1.1208  0.9123
 1844SOL     OW16990   2.343   0.495   7.440 -0.3430  0.1343  0.0350
 1844SOL    HW116991   2.436   0.474   7.446  0.0610  1.8348 -0.2537
 1844SOL    HW216992   2.299   0.467   7.520 -0.9282 -0.7214 -0.5877
 1845SOL     OW16993   0.786   1.835  17.332  0.0594 -0.0277  0.1156
 1845SOL    HW116994   0.760   1.918  17.292  1.0367  0.4647  0.4816
 1845SOL    HW216995   0.799   1.864  17.423  0.2407 -1.9780  0.7054
 1846SOL     OW16996   1.693   1.989   5.802 -0.1029 -0.9039 -0.7043
 1846SOL    HW116997   1.757   1.960   5.866 -0.4210  3.7373  1.7153
 1846SOL    HW216998   1.701   2.080   5.832 -2.0233 -1.6502  2.1377
 1847SOL     OW16999   4.276   1.917   2.512  0.0190 -0.0424  0.1373
 1847SOL    HW117000   4.295   1.935   2.604  2.9875 -2.9684  0.1024
 1847SOL    HW217001   4.349   1.865   2.477  0.8581  0.6540  0.8595
 1848SOL     OW17002   1.291   3.420   7.924  0.5831 -0.4898  0.4061
 1848SOL    HW117003   1.350   3.357   7.964  1.0884 -0.6587 -0.6053
 1848SOL    HW217004   1.215   3.361   7.926  0.4823 -0.4204 -1.4254
 1849SOL     OW17005   4.023   1.029   1.451  0.3407  0.0982 -0.2805
 1849SOL    HW117006   3.990   1.106   1.405 -0.8713  0.5285  1.2745
 1849SOL    HW217007   4.038   0.961   1.386  0.5365  0.4575 -0.6065
 1850SOL     OW17008   4.273   2.343   4.337  0.0264  0.2630 -0.2268
 1850SOL    HW117009   4.362   2.378   4.346 -0.4170  1.4163 -0.2813
 1850SOL    HW217010   4.264   2.289   4.416 -1.8053  1.1105  0.1374
 1851SOL     OW17011   2.815   3.359   5.240 -0.1092 -0.8491  0.5505
 1851SOL    HW117012   2.881   3.296   5.267  2.3219  0.7505 -1.6548
 1851SOL    HW217013   2.771   3.318   5.166  2.2514 -0.5837 -1.0165
 1852SOL     OW17014   1.791   1.869  14.376  0.1930  0.1813  0.2964
 1852SOL    HW117015   1.779   1.775  14.361  0.9371  0.1179  0.1309
 1852SOL    HW217016   1.797   1.892  14.283 -0.5591  1.7121  0.6101
 1853SOL     OW17017   3.017   4.335   7.708 -0.1473 -0.4989  0.4303
 1853SOL    HW117018   3.020   4.392   7.785  0.6806  0.7649 -0.5479
 1853SOL    HW217019   3.053   4.396   7.643 -0.7151 -2.1201 -1.3930
 1854SOL     OW17020   4.331   0.327   3.698  0.3589  0.1768 -0.1354
 1854SOL    HW117021   4.323   0.363   3.610 -1.4612 -2.0675 -0.8868
 1854SOL    HW217022   4.266   0.260   3.676  0.8081  0.2368 -1.5921
 1855SOL     OW17023   3.423   2.547   8.591  0.0292  0.4363  0.1766
 1855SOL    HW117024   3.365   2.486   8.545  1.8449 -1.7806  0.8472
 1855SOL    HW217025   3.400   2.633   8.555  0.8609  0.8642  0.6721
 1856SOL     OW17026   3.780   4.300   2.580 -0.5710  0.5509  0.1320
 1856SOL    HW117027   3.809   4.373   2.525 -1.2624  1.7140  1.3074
 1856SOL    HW217028   3.795   4.224   2.523  1.1237  0.5963  0.5195
 1857SOL     OW17029   4.316   2.818  12.131 -0.0935  0.3465 -0.2923
 1857SOL    HW117030   4.299   2.728  12.159 -0.9629  0.1559 -1.3944
 1857SOL    HW217031   4.245   2.833  12.068 -0.0994 -1.2618 -0.6914
 1858SOL     OW17032   0.959   0.559   9.605  0.1984  0.2946  0.0449
 1858SOL    HW117033   0.924   0.623   9.543  1.2147 -0.5247 -1.3764
 1858SOL    HW217034   1.006   0.510   9.537 -0.9534 -1.0133  0.1879
 1859SOL     OW17035   0.854   1.230   4.166 -0.2667  0.3156 -0.2260
 1859SOL    HW117036   0.816   1.146   4.188  1.0940  0.0122  1.0076
 1859SOL    HW217037   0.938   1.192   4.140  1.5662  1.1491  4.4542
 1860SOL     OW17038   1.307   1.399   5.279 -0.1822 -0.5269 -0.1259
 1860SOL    HW117039   1.340   1.310   5.262  1.5837  0.3638 -1.3353
 1860SOL    HW217040   1.259   1.423   5.201 -0.6916 -0.0240  0.3455
 1861SOL     OW17041   3.834   0.308   3.337 -0.5280  0.2286 -0.1034
 1861SOL    HW117042   3.847   0.288   3.430 -0.0276 -0.0519 -0.2357
 1861SOL    HW217043   3.751   0.356   3.340 -1.6721 -1.6089 -2.4446
 1862SOL     OW17044   4.569   2.063   3.647 -0.7322 -0.2415  0.5677
 1862SOL    HW117045   4.552   2.118   3.724  1.0871  0.5868  0.3736
 1862SOL    HW217046   4.524   1.982   3.674 -2.3402 -0.0967 -1.6810
 1863SOL     OW17047   1.940   2.244   2.254 -0.4247  0.3665 -0.6619
 1863SOL    HW117048   1.861   2.215   2.209 -1.1691  0.4337  0.5929
 1863SOL    HW217049   1.898   2.302   2.317  1.4083  1.2123 -0.2209
 1864SOL     OW17050   4.132   1.614   7.459  0.0406  0.1452 -0.2523
 1864SOL    HW117051   4.089   1.551   7.517  0.8431 -1.7525 -1.7020
 1864SOL    HW217052   4.213   1.631   7.507 -0.7511  1.1899  0.7224
 1865SOL     OW17053   2.005   2.876  15.942 -0.2721  0.5957 -0.4556
 1865SOL    HW117054   1.934   2.869  15.879  0.0571  1.2015 -0.8916
 1865SOL    HW217055   2.068   2.825  15.890 -1.0493 -1.3583  0.5123
 1866SOL     OW17056   4.208   0.246   3.225 -0.2878 -0.5398  0.4127
 1866SOL    HW117057   4.222   0.260   3.131  0.8660  0.3610  0.7111
 1866SOL    HW217058   4.210   0.151   3.232 -0.3996 -0.6056 -0.4010
 1867SOL     OW17059   2.669   3.966   5.771  0.2920 -0.4837  0.2911
 1867SOL    HW117060   2.676   3.887   5.717  0.2674 -2.9438  3.9067
 1867SOL    HW217061   2.654   4.030   5.701  2.1468  0.5126  0.7923
 1868SOL     OW17062   4.144   2.065   3.735 -0.0489 -0.1524  0.0111
 1868SOL    HW117063   4.084   2.044   3.806  0.0195 -2.4163 -0.5998
 1868SOL    HW217064   4.123   1.994   3.674  0.3843 -0.1698 -0.1173
 1869SOL     OW17065   0.804   2.340   3.983  0.0380 -0.2517 -0.4623
 1869SOL    HW117066   0.851   2.419   4.009  1.6747 -1.9331  1.7406
 1869SOL    HW217067   0.876   2.276   3.984  1.6515  1.5678  2.0242
 1870SOL     OW17068   3.350   1.993   7.024  0.2250  0.3152 -0.0499
 1870SOL    HW117069   3.352   2.057   7.095  2.1636  2.1655 -1.7597
 1870SOL    HW217070   3.339   2.045   6.945  0.1622 -1.9474 -1.5452
 1871SOL     OW17071   3.862   4.372   4.653 -0.7166  0.5272 -0.1622
 1871SOL    HW117072   3.871   4.412   4.740  0.2653  0.1554 -0.0983
 1871SOL    HW217073   3.788   4.426   4.624 -1.7305 -1.6101 -1.5006
 1872SOL     OW17074   4.022   0.895  13.973 -0.0380 -0.7004 -0.0064
 1872SOL    HW117075   3.958   0.965  13.965 -0.0085 -0.4984  1.6899
 1872SOL    HW217076   4.071   0.912  13.892 -0.4461 -1.0431 -0.3268
 1873SOL     OW17077   4.259   3.300   3.438  0.3651  0.4807  0.3034
 1873SOL    HW117078   4.341   3.264   3.472  0.2126 -0.2764 -0.1297
 1873SOL    HW217079   4.266   3.286   3.344 -0.0062 -2.8851  0.7768
 1874SOL     OW17080   2.192   3.587   4.910 -0.4923 -0.4741  0.3677
 1874SOL    HW117081   2.264   3.563   4.852 -0.0467 -0.6053  0.9714
 1874SOL    HW217082   2.199   3.511   4.967  1.4863 -0.6013 -0.0512
 1875SOL     OW17083   3.150   3.396   4.217 -0.4330  0.3370  0.1897
 1875SOL    HW117084   3.204   3.418   4.293  1.5056  1.1486 -1.3889
 1875SOL    HW217085   3.077   3.342   4.247 -0.5238 -1.1066 -2.6435
 1876SOL     OW17086   1.238   1.510  13.603 -0.0452 -0.6883 -0.0743
 1876SOL    HW117087   1.242   1.546  13.515 -0.7100  0.5043  0.3787
 1876SOL    HW217088   1.248   1.415  13.596  0.3185 -0.6270 -0.3448
 1877SOL     OW17089   0.904   2.740   5.936  0.0652 -0.2376 -0.3960
 1877SOL    HW117090   0.898   2.650   5.968 -2.8006  0.1847  0.1863
 1877SOL    HW217091   0.850   2.787   6.000 -0.7671 -0.5887 -0.8406
 1878SOL     OW17092   2.137   0.444   2.836  0.0938 -0.2472 -0.3354
 1878SOL    HW117093   2.138   0.368   2.778 -1.0773  0.6556 -1.5155
 1878SOL    HW217094   2.215   0.491   2.806  1.1926 -1.4267  0.6528
 1879SOL     OW17095   3.406   0.580   7.003 -0.1652 -0.8661 -0.0368
 1879SOL    HW117096   3.474   0.631   7.047 -1.5859  0.8309  0.1455
 1879SOL    HW217097   3.360   0.651   6.959 -3.8384 -1.5966  2.6373
 1880SOL     OW17098   1.821   1.690   0.149 -0.4228 -0.1325  0.0822
 1880SOL    HW117099   1.846   1.653   0.234 -1.9088  1.0174  1.0351
 1880SOL    HW217100   1.829   1.614   0.092 -1.8378 -0.2919  0.0827
 1881SOL     OW17101   1.615   4.455   2.699 -0.2705 -0.3723 -0.5028
 1881SOL    HW117102   1.696   4.414   2.671 -0.9371 -2.7050  0.9538
 1881SOL    HW217103   1.650   4.499   2.776 -2.0714 -0.1926  0.2339
 1882SOL     OW17104   1.648   0.501   7.607 -0.0317  0.2982  0.0059
 1882SOL    HW117105   1.722   0.515   7.666  0.9503  1.7329 -1.5763
 1882SOL    HW217106   1.597   0.439   7.659  0.7436  0.4398  0.9505
 1883SOL     OW17107   0.985   3.874   6.982  0.3492  0.0311 -0.0984
 1883SOL    HW117108   1.045   3.934   6.938  1.3199 -1.5854 -0.9482
 1883SOL    HW217109   0.922   3.871   6.910  0.6310 -0.1131 -0.3396
 1884SOL     OW17110   3.874   0.526   5.614  0.1539  0.2536  0.1596
 1884SOL    HW117111   3.808   0.512   5.682  0.4503 -0.2917  0.3395
 1884SOL    HW217112   3.927   0.588   5.664  2.5578  0.1936 -2.3546
 1885SOL     OW17113   0.741   3.019   3.983 -0.1553 -0.5190  0.4569
 1885SOL    HW117114   0.809   2.975   3.931 -2.2542 -3.0045 -0.1793
 1885SOL    HW217115   0.665   2.968   3.957  0.3638 -1.9908  1.7882
 1886SOL     OW17116   0.783   1.453   4.768 -0.0014 -0.4563 -0.1868
 1886SOL    HW117117   0.858   1.415   4.721  0.4329 -0.6486  0.6706
 1886SOL    HW217118   0.828   1.482   4.847  0.0720 -1.9212  0.3193
 1887SOL     OW17119   1.194   3.591   3.995 -0.1145 -0.5527 -0.1590
 1887SOL    HW117120   1.220   3.525   3.930  2.1628 -0.4491  0.6766
 1887SOL    HW217121   1.268   3.651   3.994 -1.3435  0.9675  1.3737
 1888SOL     OW17122   2.101   2.199   4.315  0.5507  0.5320  0.5501
 1888SOL    HW117123   2.044   2.275   4.303 -0.8549 -0.5409  0.5132
 1888SOL    HW217124   2.183   2.228   4.275  0.0265 -1.8151 -2.2310
 1889SOL     OW17125   0.716   1.432   9.926 -0.4859  0.3132 -0.1259
 1889SOL    HW117126   0.714   1.501   9.994  2.2409 -1.4802  1.7554
 1889SOL    HW217127   0.799   1.387   9.937 -0.8476 -0.3107  0.0191
 1890SOL     OW17128   4.446   0.323   5.112  0.0566  0.0001 -0.8251
 1890SOL    HW117129   4.431   0.412   5.081  1.0745  0.5427  0.2334
 1890SOL    HW217130   4.492   0.280   5.040 -2.1241  0.9433 -2.7850
 1891SOL     OW17131   1.670   2.787   8.338  0.0933 -0.2584  0.2127
 1891SOL    HW117132   1.734   2.853   8.366 -0.3977 -0.5855  2.0806
 1891SOL    HW217133   1.653   2.750   8.425  0.8083  1.9303  1.2910
 1892SOL     OW17134   1.228   3.360  12.872  0.6015 -0.3353 -0.2562
 1892SOL    HW117135   1.255   3.420  12.802  0.7709  2.1578  1.9728
 1892SOL    HW217136   1.156   3.405  12.916 -0.4652 -1.6629 -0.6194
 1893SOL     OW17137   1.515   1.038  11.447  0.0041 -0.1854 -0.1848
 1893SOL    HW117138   1.454   1.104  11.481 -0.5828 -0.6537 -0.3318
 1893SOL    HW217139   1.590   1.095  11.431 -0.0219  0.0186  0.4242
 1894SOL     OW17140   3.376   1.257   6.314  0.1432 -0.0566 -0.0548
 1894SOL    HW117141   3.450   1.197   6.307 -0.2635 -0.6938  1.3244
 1894SOL    HW217142   3.306   1.197   6.341  0.5428 -1.0652 -1.2563
 1895SOL     OW17143   3.629   3.226  15.696  0.5738  0.0933 -0.6764
 1895SOL    HW117144   3.709   3.200  15.650  0.4785  2.1541 -1.9610
 1895SOL    HW217145   3.602   3.299  15.640  0.4353 -0.5531 -1.4531
 1896SOL     OW17146   1.019   0.392  15.558 -0.1954  0.0228 -0.5002
 1896SOL    HW117147   1.025   0.439  15.641  4.0877 -0.2311 -0.6747
 1896SOL    HW217148   1.100   0.418  15.514 -0.0899  0.2630 -0.1683
 1897SOL     OW17149   3.806   1.775   3.984  1.0698  0.1640  0.0166
 1897SOL    HW117150   3.895   1.807   3.997  1.6433 -1.5516  0.2425
 1897SOL    HW217151   3.797   1.715   4.058  0.0740  1.2523  0.7730
 1898SOL     OW17152   2.296   2.922   1.942 -0.3323  0.2424 -0.2639
 1898SOL    HW117153   2.344   2.840   1.936  1.8889  1.7133 -2.5828
 1898SOL    HW217154   2.244   2.906   2.020  0.3459 -1.5706 -0.1697
 1899SOL     OW17155   2.573   4.436   6.026 -0.0964 -0.0004  0.1839
 1899SOL    HW117156   2.567   4.344   6.002  1.0078 -0.2348  0.8372
 1899SOL    HW217157   2.665   4.456   6.012 -0.2221  1.8604  1.8637
 1900SOL     OW17158   3.852   1.020   6.997 -0.0289  0.3277 -0.0202
 1900SOL    HW117159   3.789   1.076   7.042 -0.1628  2.8703 -3.3923
 1900SOL    HW217160   3.818   1.011   6.908 -1.5764  0.9926  0.5067
 1901SOL     OW17161   0.701   1.607   7.189 -0.2705  0.0453  0.2733
 1901SOL    HW117162   0.646   1.580   7.116 -1.2227 -0.9852  1.3768
 1901SOL    HW217163   0.673   1.542   7.254  0.5837 -1.0158 -0.4453
 1902SOL     OW17164   4.444   1.573   7.543 -0.1803  0.1613  0.1227
 1902SOL    HW117165   4.497   1.633   7.595  1.3336 -2.8401  2.0714
 1902SOL    HW217166   4.458   1.485   7.579  2.7004 -0.2262 -1.9193
 1903SOL     OW17167   0.355   3.342   3.602 -0.0765  0.1182  0.5189
 1903SOL    HW117168   0.383   3.387   3.682 -1.8327 -0.0715  1.2385
 1903SOL    HW217169   0.277   3.297   3.634  0.1907 -0.3535  0.5140
 1904SOL     OW17170   3.134   1.175  17.392  0.1317 -0.2204  0.1442
 1904SOL    HW117171   3.164   1.098  17.440  1.1554  0.0824 -0.0188
 1904SOL    HW217172   3.187   1.244  17.432  0.4267  0.0184 -0.6649
 1905SOL     OW17173   1.539   2.349   8.603  0.7041 -0.1380  0.5412
 1905SOL    HW117174   1.589   2.340   8.522  0.0843 -2.9414  0.4761
 1905SOL    HW217175   1.493   2.432   8.590  0.4854 -0.3467 -0.0230
 1906SOL     OW17176   0.479   0.801   5.875  0.1903 -0.0962 -0.1967
 1906SOL    HW117177   0.513   0.887   5.902 -0.0605 -0.6792  2.0051
 1906SOL    HW217178   0.385   0.804   5.892  0.5626 -0.3364  1.9085
 1907SOL     OW17179   1.749   3.959   8.214  0.0668 -0.3605  0.2446
 1907SOL    HW117180   1.752   4.020   8.140  2.1328 -0.3333  0.3388
 1907SOL    HW217181   1.843   3.946   8.228  0.1846 -0.4022 -0.6024
 1908SOL     OW17182   4.518   2.935   9.243 -0.2222 -0.0796 -0.4536
 1908SOL    HW117183   4.454   2.964   9.178  1.0024  3.9532  0.1426
 1908SOL    HW217184   4.471   2.956   9.324  0.9176  0.5178  0.0515
 1909SOL     OW17185   0.094   2.794   5.050 -0.1079 -0.1354 -0.7199
 1909SOL    HW117186   0.179   2.829   5.078 -1.2936  1.4255  0.9484
 1909SOL    HW217187   0.111   2.782   4.957  1.2630  1.3744 -0.6838
 1910SOL     OW17188   4.407   3.333   8.989 -0.2988 -0.0432  0.4174
 1910SOL    HW117189   4.494   3.308   8.957  0.0895  1.3903  0.3308
 1910SOL    HW217190   4.349   3.299   8.921 -1.0756  2.5786 -0.2335
 1911SOL     OW17191   1.204   2.853   8.401  0.2267 -0.2095  0.0527
 1911SOL    HW117192   1.169   2.766   8.418 -2.5833  0.7983 -0.5406
 1911SOL    HW217193   1.212   2.869   8.495  0.0558  1.7344 -0.2676
 1912SOL     OW17194   0.881   0.725  17.176  0.2611  0.1572  0.4472
 1912SOL    HW117195   0.810   0.662  17.172  2.5335 -2.2829 -1.0602
 1912SOL    HW217196   0.833   0.800  17.139 -0.5539 -1.8806 -2.5783
 1913SOL     OW17197   3.777   4.407   4.135 -0.2296 -0.9639 -0.7062
 1913SOL    HW117198   3.769   4.334   4.075 -2.0374 -0.7605 -0.7085
 1913SOL    HW217199   3.873   4.402   4.140  0.0367  2.6543 -1.9209
 1914SOL     OW17200   2.819   1.874   3.851 -0.9483  0.2165  0.2616
 1914SOL    HW117201   2.747   1.821   3.886 -1.2267  0.7652  0.5258
 1914SOL    HW217202   2.778   1.960   3.859 -0.4686  0.5282 -0.7283
 1915SOL     OW17203   0.488   2.950   8.464 -0.0062 -0.0478  0.0254
 1915SOL    HW117204   0.559   2.885   8.458 -0.4376 -0.6017  0.9102
 1915SOL    HW217205   0.446   2.933   8.380  0.2597  0.1746 -0.1529
 1916SOL     OW17206   2.387   0.179   1.166  0.4218  0.4450  0.2049
 1916SOL    HW117207   2.361   0.268   1.144  0.9188  0.0785 -1.8560
 1916SOL    HW217208   2.331   0.163   1.241  0.8555  2.9687  1.0743
 1917SOL     OW17209   4.620   0.009   5.078 -0.7647  0.0821 -0.1297
 1917SOL    HW117210   4.635   4.662   5.015 -0.6053 -0.2651  0.2955
 1917SOL    HW217211   4.524   0.007   5.084 -0.8735 -1.0727 -2.2878
 1918SOL     OW17212   4.675   2.603   7.053  0.0728 -0.3911 -0.2423
 1918SOL    HW117213   4.651   2.685   7.010 -0.3065 -1.1316 -1.4240
 1918SOL    HW217214   4.715   2.556   6.980 -1.9149 -0.9361 -0.9924
 1919SOL     OW17215   3.733   3.357  10.094 -0.4748 -0.0097 -0.4196
 1919SOL    HW117216   3.779   3.411  10.030  0.8770  0.1014  0.6414
 1919SOL    HW217217   3.708   3.413  10.168  0.2492 -0.2035 -0.0241
 1920SOL     OW17218   1.437   1.780   3.562 -0.2995 -0.1451 -0.1130
 1920SOL    HW117219   1.408   1.701   3.608 -0.0769 -0.1400  0.0393
 1920SOL    HW217220   1.522   1.747   3.534 -0.5465 -0.7226 -0.1906
 1921SOL     OW17221   0.143   0.077  12.626  0.2425 -0.2299  0.5072
 1921SOL    HW117222   0.088   0.004  12.598  0.0398  0.2917 -0.4860
 1921SOL    HW217223   0.090   0.150  12.593  0.7630 -0.8389 -1.6857
 1922SOL     OW17224   1.453   3.635   9.394  0.0694  0.7386 -0.4193
 1922SOL    HW117225   1.494   3.558   9.353  0.0592 -0.9544  2.7258
 1922SOL    HW217226   1.419   3.673   9.314  1.2399  1.9301 -0.3368
 1923SOL     OW17227   3.332   3.871   2.421 -0.4341 -0.2712  0.0492
 1923SOL    HW117228   3.298   3.897   2.507  1.5153 -0.5258  0.9000
 1923SOL    HW217229   3.338   3.955   2.374  0.4612 -0.6476 -0.5038
 1924SOL     OW17230   0.040   1.244   6.482  0.0646  0.4119 -0.0995
 1924SOL    HW117231   0.102   1.292   6.536  0.3818  2.3150 -2.1292
 1924SOL    HW217232   0.019   1.308   6.413  0.2232  2.5367  1.8359
 1925SOL     OW17233   3.010   0.492  13.490 -0.0807  0.6778 -0.9320
 1925SOL    HW117234   3.074   0.431  13.527 -0.4070  0.1558 -1.2199
 1925SOL    HW217235   2.965   0.446  13.419  0.5714 -2.1821  0.5217
 1926SOL     OW17236   3.562   0.268   8.647 -0.2159 -0.1917 -0.1616
 1926SOL    HW117237   3.559   0.238   8.556  0.1651  0.1953 -0.3005
 1926SOL    HW217238   3.580   0.362   8.641  1.3512 -0.4588  0.4208
 1927SOL     OW17239   1.912   0.921   0.788  0.0919 -0.2935  0.7494
 1927SOL    HW117240   1.963   0.842   0.805 -2.4226 -2.2158 -0.7065
 1927SOL    HW217241   1.978   0.990   0.781  0.7770 -0.8056  2.2504
 1928SOL     OW17242   4.661   2.732   3.691 -0.0828  0.3267  0.5511
 1928SOL    HW117243   4.566   2.738   3.702  0.0544  1.2960  1.1670
 1928SOL    HW217244   4.692   2.785   3.764  1.1082  0.1011  0.2217
 1929SOL     OW17245   4.107   2.582   6.751  0.6947 -0.4581 -0.4020
 1929SOL    HW117246   4.082   2.642   6.681  0.7401 -0.5154 -0.4679
 1929SOL    HW217247   4.086   2.498   6.710 -1.2972 -0.5422  0.7771
 1930SOL     OW17248   3.148   1.980   4.661  0.1946 -0.5040 -0.3480
 1930SOL    HW117249   3.129   1.987   4.754  0.6900  2.2124 -0.4619
 1930SOL    HW217250   3.231   2.028   4.661 -0.7609  1.1246  1.9587
 1931SOL     OW17251   0.141   1.385  14.950  0.3463 -0.6780  0.0503
 1931SOL    HW117252   0.143   1.331  14.871 -0.4898  1.5683 -1.5266
 1931SOL    HW217253   0.230   1.419  14.952  0.1241 -0.0446 -0.6411
 1932SOL     OW17254   1.086   4.530  13.224  0.6552 -0.0908 -0.2070
 1932SOL    HW117255   1.103   4.510  13.132  0.5728  0.2544 -0.2952
 1932SOL    HW217256   1.109   4.622  13.232 -0.0987  0.2265 -1.6179
 1933SOL     OW17257   4.500   2.702   2.816 -0.1484 -0.0003  0.0068
 1933SOL    HW117258   4.559   2.657   2.755 -0.3825 -0.0710 -0.1647
 1933SOL    HW217259   4.496   2.649   2.895  1.6179  0.8020  0.6422
 1934SOL     OW17260   2.415   2.738   2.751  0.0411 -0.3378 -0.3305
 1934SOL    HW117261   2.480   2.722   2.683 -0.8001 -3.0695 -0.5038
 1934SOL    HW217262   2.399   2.832   2.743 -0.4767 -0.3364  0.7559
 1935SOL     OW17263   3.942   3.576   0.637 -0.4061 -0.5058  0.3418
 1935SOL    HW117264   3.966   3.498   0.587 -0.7305 -1.7205  2.0841
 1935SOL    HW217265   3.851   3.592   0.613 -0.8569 -2.1489  0.9534
 1936SOL     OW17266   3.418   1.235   5.583 -0.5326 -0.0857  0.3949
 1936SOL    HW117267   3.434   1.283   5.501 -0.2626  2.5874  2.0099
 1936SOL    HW217268   3.356   1.287   5.634  0.5537  1.1748  0.4325
 1937SOL     OW17269   3.491   1.885   2.813 -0.5332 -0.1066 -0.2472
 1937SOL    HW117270   3.527   1.920   2.895  0.8510 -1.5241 -0.2480
 1937SOL    HW217271   3.576   1.868   2.772  0.1783  0.3082  1.0504
 1938SOL     OW17272   0.769   2.018   0.311 -0.3713 -0.1494  0.1458
 1938SOL    HW117273   0.704   1.961   0.352 -1.4243  0.0438 -1.2207
 1938SOL    HW217274   0.738   2.027   0.220 -4.0830  0.0139  1.4011
 1939SOL     OW17275   3.007   2.448   6.154  0.4426  0.2869  1.0107
 1939SOL    HW117276   2.957   2.433   6.073 -0.3897  1.8777  1.2503
 1939SOL    HW217277   3.085   2.392   6.142  0.0629 -0.3095  1.3537
 1940SOL     OW17278   1.750   4.414   3.854  0.1087  0.2693 -0.2755
 1940SOL    HW117279   1.724   4.397   3.763 -1.4330  2.1399 -0.1740
 1940SOL    HW217280   1.826   4.359   3.872  0.2730  0.1239 -1.3988
 1941SOL     OW17281   1.444   0.489   5.599  0.7142  0.4758  0.1233
 1941SOL    HW117282   1.533   0.452   5.599  0.5159 -0.0110 -0.7704
 1941SOL    HW217283   1.397   0.419   5.644  0.5493 -0.4356 -1.4592
 1942SOL     OW17284   0.532   1.648   4.328 -0.1768  0.1183 -0.1690
 1942SOL    HW117285   0.541   1.603   4.412 -1.0761  0.4245  0.0913
 1942SOL    HW217286   0.451   1.606   4.300 -0.4253  1.7956 -1.9602
 1943SOL     OW17287   2.150   1.888   0.927 -0.1971  0.0918  0.4264
 1943SOL    HW117288   2.174   1.939   1.004  0.5599  2.2714 -1.2597
 1943SOL    HW217289   2.074   1.942   0.905 -0.9542 -0.9406  0.4805
 1944SOL     OW17290   0.293   0.481  16.568  0.1757  0.0823  0.5096
 1944SOL    HW117291   0.382   0.446  16.579  0.1648  1.0840  3.7883
 1944SOL    HW217292   0.306   0.573  16.592 -3.2510  0.5934  0.3127
 1945SOL     OW17293   0.710   1.239   5.982 -0.4204 -0.2762 -0.3208
 1945SOL    HW117294   0.706   1.168   6.047  1.4647  0.0064  0.0944
 1945SOL    HW217295   0.788   1.216   5.931 -0.7105 -1.9483 -0.0353
 1946SOL     OW17296   2.249   4.485   7.178  0.0804 -0.0698 -0.7517
 1946SOL    HW117297   2.344   4.476   7.165  0.5159  2.2767  0.8607
 1946SOL    HW217298   2.232   4.392   7.166  0.8463  0.0150 -2.4798
 1947SOL     OW17299   2.590   2.333  11.690  0.0107  0.0756 -0.3282
 1947SOL    HW117300   2.513   2.334  11.747  1.4531  1.2008  1.6207
 1947SOL    HW217301   2.585   2.422  11.653 -3.4995  0.1743  0.4224
 1948SOL     OW17302   4.178   0.553   5.332  0.2740  0.3057  0.3357
 1948SOL    HW117303   4.179   0.649   5.327 -1.2422  0.3202  0.2773
 1948SOL    HW217304   4.270   0.529   5.322  0.1855  1.5388 -3.5540
 1949SOL     OW17305   0.846   3.409   4.952 -0.2061  0.0613 -0.1662
 1949SOL    HW117306   0.928   3.361   4.938 -2.3760 -3.7355  0.1715
 1949SOL    HW217307   0.866   3.451   5.036  2.9136 -3.8129  0.9986
 1950SOL     OW17308   2.940   3.766   7.170  0.2257 -0.2740 -0.2864
 1950SOL    HW117309   2.947   3.734   7.260  1.1044  3.0975  0.8467
 1950SOL    HW217310   2.877   3.700   7.141 -0.2469 -0.8731  2.0878
 1951SOL     OW17311   3.519   0.603   8.228  0.0506  0.1253  0.6374
 1951SOL    HW117312   3.470   0.522   8.238 -1.5453  1.0314  0.2364
 1951SOL    HW217313   3.593   0.582   8.171 -1.4356 -2.1390 -0.4272
 1952SOL     OW17314   0.881   1.173   5.518 -0.0370 -0.0033  0.0030
 1952SOL    HW117315   0.898   1.147   5.608 -0.0552  1.2418  0.3635
 1952SOL    HW217316   0.787   1.191   5.523  0.0954  0.1730  1.8416
 1953SOL     OW17317   2.767   3.317   2.155 -0.1565 -0.3570  0.4718
 1953SOL    HW117318   2.775   3.289   2.064  0.1145 -3.1810  1.3606
 1953SOL    HW217319   2.837   3.380   2.166 -0.4706  0.1184 -0.2512
 1954SOL     OW17320   3.212   3.139   6.325  0.2015  0.1535 -0.2028
 1954SOL    HW117321   3.227   3.144   6.419 -1.5943  0.4204  0.0646
 1954SOL    HW217322   3.273   3.068   6.305 -0.2853 -0.7106  1.3605
 1955SOL     OW17323   3.156   1.405   4.983 -0.6189 -0.1804 -0.2238
 1955SOL    HW117324   3.199   1.333   4.936  0.2664 -0.6471  1.3318
 1955SOL    HW217325   3.099   1.423   4.907 -0.8554 -1.5818 -0.3829
 1956SOL     OW17326   2.723   3.880   1.478 -0.1169  0.0015  0.4110
 1956SOL    HW117327   2.806   3.926   1.491  0.2064 -0.3196 -0.4849
 1956SOL    HW217328   2.669   3.937   1.424 -0.4396 -1.6751 -1.0391
 1957SOL     OW17329   1.722   1.038  11.658  0.3532  0.4564 -0.2684
 1957SOL    HW117330   1.728   1.096  11.582 -0.2305  0.8357 -0.0215
 1957SOL    HW217331   1.657   0.975  11.625  0.9450 -0.9532  1.2721
 1958SOL     OW17332   1.901   3.122  13.516 -0.4256 -0.2318  0.3818
 1958SOL    HW117333   1.960   3.197  13.527 -0.1875 -0.7294  2.5592
 1958SOL    HW217334   1.961   3.054  13.547 -1.0643 -0.8747  0.1992
 1959SOL     OW17335   2.658   3.270   2.855 -0.0325  0.5433 -0.0111
 1959SOL    HW117336   2.675   3.179   2.880 -0.5665  0.4371 -0.0210
 1959SOL    HW217337   2.632   3.255   2.764 -3.1546 -1.0687  1.1418
 1960SOL     OW17338   3.384   3.013   9.558  0.0004  0.4026  0.3010
 1960SOL    HW117339   3.416   2.933   9.601 -1.6103 -0.1414  0.4628
 1960SOL    HW217340   3.387   3.085   9.622 -1.7249  0.1105  0.7006
 1961SOL     OW17341   2.800   1.886   2.877 -0.0059  0.2886 -0.0401
 1961SOL    HW117342   2.895   1.897   2.872  0.5093 -3.5983  1.5816
 1961SOL    HW217343   2.792   1.841   2.793 -2.4802 -0.3220  0.5248
 1962SOL     OW17344   4.338   2.221  11.701  0.0407 -0.4453 -0.2977
 1962SOL    HW117345   4.356   2.212  11.794 -1.7554 -0.4564  0.0488
 1962SOL    HW217346   4.251   2.180  11.696 -0.4405  0.9566 -3.6669
 1963SOL     OW17347   3.453   4.273   5.049  0.0015 -0.3561 -0.1009
 1963SOL    HW117348   3.509   4.244   4.978 -0.9832  0.3171 -1.1544
 1963SOL    HW217349   3.513   4.281   5.124 -0.5118 -0.4455  0.3254
 1964SOL     OW17350   0.773   0.408  14.319  0.0285  0.0178  0.3090
 1964SOL    HW117351   0.848   0.383  14.374  0.2969  2.6068  1.1114
 1964SOL    HW217352   0.730   0.325  14.298 -0.2501  0.2128  0.1191
 1965SOL     OW17353   4.232   0.826  12.391  0.0325 -0.0588 -0.4688
 1965SOL    HW117354   4.205   0.833  12.300 -3.9494  0.6387  0.7890
 1965SOL    HW217355   4.325   0.846  12.377 -0.5977  0.8360 -3.2982
 1966SOL     OW17356   0.599   2.609   7.919 -0.1064 -0.1235  0.1535
 1966SOL    HW117357   0.693   2.624   7.929 -0.3059  0.3327  1.3421
 1966SOL    HW217358   0.571   2.700   7.915 -0.5405 -0.4296 -3.2554
 1967SOL     OW17359   0.913   2.622  10.865 -0.3234 -0.6862  0.2942
 1967SOL    HW117360   0.910   2.716  10.849  1.9190 -0.7875 -0.8020
 1967SOL    HW217361   1.002   2.610  10.898  0.6046 -0.1745 -2.0065
 1968SOL     OW17362   2.583   1.663   3.121  0.0915 -0.1637  0.1478
 1968SOL    HW117363   2.618   1.751   3.129  1.4703 -0.4035 -3.1608
 1968SOL    HW217364   2.501   1.666   3.072 -0.1071  1.1453  0.5625
 1969SOL     OW17365   3.257   4.385   5.878 -0.6147 -0.2504  0.1472
 1969SOL    HW117366   3.350   4.408   5.875 -0.3518 -1.4693 -0.8441
 1969SOL    HW217367   3.251   4.297   5.843 -0.6326 -1.1280  2.3269
 1970SOL     OW17368   2.804   0.338   8.246 -0.3864  0.0546  0.7966
 1970SOL    HW117369   2.751   0.389   8.307 -0.2075 -0.4636  1.3810
 1970SOL    HW217370   2.815   0.258   8.298 -0.6330  0.9676  2.2588
 1971SOL     OW17371   1.263   0.712   2.139  0.2931 -0.2800  0.0520
 1971SOL    HW117372   1.356   0.732   2.129 -0.0133  0.2203 -1.7623
 1971SOL    HW217373   1.220   0.792   2.109 -0.4847 -0.6314  0.2292
 1972SOL     OW17374   3.753   4.409   8.441 -0.1406 -0.1003 -0.1501
 1972SOL    HW117375   3.680   4.423   8.501  0.6696  0.3913  0.7348
 1972SOL    HW217376   3.789   4.329   8.480  0.0724  0.1401  0.1496
 1973SOL     OW17377   0.668   3.910   5.349 -0.0495  0.0781  0.6602
 1973SOL    HW117378   0.603   3.950   5.407 -0.2557 -0.1432  0.5795
 1973SOL    HW217379   0.616   3.901   5.269  0.9513  1.9150 -0.1869
 1974SOL     OW17380   4.596   3.063  14.810 -0.2496 -1.0135 -0.5654
 1974SOL    HW117381   4.679   3.018  14.821  0.5055  0.8447  1.2486
 1974SOL    HW217382   4.611   3.110  14.728  0.9970  0.2866  0.4211
 1975SOL     OW17383   2.913   4.366  15.821  0.4804 -0.2773  0.3456
 1975SOL    HW117384   2.917   4.273  15.801  1.5575  0.2617 -1.9275
 1975SOL    HW217385   2.835   4.369  15.876  1.6875  1.2076  1.9996
 1976SOL     OW17386   2.556   2.263   1.927 -0.0633 -0.0489 -0.0275
 1976SOL    HW117387   2.553   2.317   2.006 -0.9989  0.1440 -0.1907
 1976SOL    HW217388   2.475   2.216   1.948 -0.6985  1.2748  0.4596
 1977SOL     OW17389   3.773   2.818   9.295  0.2043 -0.9495 -0.3192
 1977SOL    HW117390   3.777   2.829   9.390  2.2960 -1.9380 -0.3022
 1977SOL    HW217391   3.702   2.755   9.279  0.7313 -1.0237 -2.2979
 1978SOL     OW17392   3.520   2.586  11.987  0.2537 -0.7951  0.5152
 1978SOL    HW117393   3.526   2.491  11.978 -0.7315 -0.8402  0.2846
 1978SOL    HW217394   3.468   2.609  11.910 -0.8691 -4.8477  0.0438
 1979SOL     OW17395   4.065   4.359   8.671 -0.6696 -0.3972  0.9443
 1979SOL    HW117396   4.027   4.290   8.725 -2.0699 -1.8100 -1.7889
 1979SOL    HW217397   3.990   4.419   8.671  0.3767  0.9253 -0.0136
 1980SOL     OW17398   3.450   4.286   2.010  0.3220 -0.1068  0.2014
 1980SOL    HW117399   3.379   4.349   2.008 -0.0650 -0.5164  0.9463
 1980SOL    HW217400   3.438   4.239   1.928  0.2856 -1.5581  1.0326
 1981SOL     OW17401   2.670   1.860   6.917  0.3734 -0.4878 -0.9137
 1981SOL    HW117402   2.720   1.940   6.901 -1.7827  1.1450  0.4296
 1981SOL    HW217403   2.683   1.850   7.011 -1.7088  0.8589 -0.4797
 1982SOL     OW17404   3.975   3.173   1.324  0.4660  0.3172 -0.0324
 1982SOL    HW117405   3.960   3.247   1.383  0.1870  0.8114 -0.7309
 1982SOL    HW217406   3.917   3.200   1.253  0.5496 -0.4302 -0.3887
 1983SOL     OW17407   1.507   4.443   3.251 -0.6431  0.2937  0.2718
 1983SOL    HW117408   1.599   4.430   3.271 -1.0313 -1.1630  1.0523
 1983SOL    HW217409   1.508   4.420   3.158 -0.1298 -1.1562  0.6390
 1984SOL     OW17410   0.762   2.438   9.245 -0.0705 -0.4245 -0.1850
 1984SOL    HW117411   0.827   2.441   9.315 -0.9499 -4.0959  0.7957
 1984SOL    HW217412   0.804   2.378   9.183 -1.4292 -0.6988 -0.8401
 1985SOL     OW17413   2.995   1.997   7.809  0.0379  0.4723 -0.0562
 1985SOL    HW117414   2.935   1.927   7.786  0.1005 -0.6555  3.1090
 1985SOL    HW217415   2.934   2.070   7.793  0.0349  0.4495 -0.1456
 1986SOL     OW17416   1.394   0.729   5.008  0.3648  0.4535  0.2140
 1986SOL    HW117417   1.448   0.798   5.046 -0.1349  0.6780  0.5129
 1986SOL    HW217418   1.356   0.691   5.088  2.0926 -1.5277  0.1065
 1987SOL     OW17419   4.011   1.963   4.922  0.3168 -0.2918 -0.4362
 1987SOL    HW117420   4.076   1.929   4.983 -0.9656 -1.2399  0.4115
 1987SOL    HW217421   3.939   1.989   4.980  0.0070 -0.2453 -0.8378
 1988SOL     OW17422   3.418   0.426  17.565 -0.2965  0.0262  0.0315
 1988SOL    HW117423   3.464   0.343  17.553  1.6818  1.0692  0.2692
 1988SOL    HW217424   3.333   0.398  17.597 -0.2016 -0.1454  0.1337
 1989SOL     OW17425   0.560   0.990  10.546 -0.3688  0.6100 -0.0559
 1989SOL    HW117426   0.497   1.033  10.489 -1.6379 -0.9532  0.1660
 1989SOL    HW217427   0.543   0.899  10.520 -0.8603  0.6316  0.1968
 1990SOL     OW17428   2.583   2.416   6.158 -0.1847 -1.0620 -0.2489
 1990SOL    HW117429   2.651   2.413   6.227 -0.7726 -0.2455  0.3732
 1990SOL    HW217430   2.582   2.511   6.144  0.3210 -0.9870  0.1809
 1991SOL     OW17431   0.971   0.063   2.979  0.1369 -0.1783 -0.5175
 1991SOL    HW117432   0.952   4.704   2.932 -0.0296 -0.7858  0.5802
 1991SOL    HW217433   0.888   0.108   2.990  0.0017 -0.6871  0.5668
 1992SOL     OW17434   4.595   3.752  11.811 -0.1826  0.5438 -0.2815
 1992SOL    HW117435   4.581   3.845  11.826  0.2706  0.3527  1.3808
 1992SOL    HW217436   4.526   3.735  11.747  1.2737  1.0343 -1.9671
 1993SOL     OW17437   2.039   1.485  15.666  0.2226  0.1224  0.3833
 1993SOL    HW117438   2.106   1.520  15.607  0.9969  1.1726  1.8831
 1993SOL    HW217439   1.953   1.496  15.624  1.0113  0.1656 -1.2488
 1994SOL     OW17440   1.060   3.520   3.305 -0.1056  0.1065  0.1811
 1994SOL    HW117441   1.018   3.603   3.328 -0.2398 -0.3766  1.7076
 1994SOL    HW217442   1.026   3.502   3.218 -0.8802  1.0291  0.2965
 1995SOL     OW17443   1.019   0.533  12.448 -0.2775  0.3929 -0.0262
 1995SOL    HW117444   0.953   0.591  12.410 -2.4056 -1.2237  1.2053
 1995SOL    HW217445   1.085   0.599  12.471  0.3133 -0.3012  0.2797
 1996SOL     OW17446   1.938   2.749   2.447  0.0114  0.6776  0.4088
 1996SOL    HW117447   2.002   2.789   2.506  1.1122  0.4746 -0.6277
 1996SOL    HW217448   1.858   2.735   2.497 -0.7447 -2.3756 -1.6594
 1997SOL     OW17449   2.744   0.327  16.275 -0.2660  0.0269  0.4589
 1997SOL    HW117450   2.660   0.331  16.321 -0.7171 -0.6598 -0.3120
 1997SOL    HW217451   2.798   0.383  16.330 -1.8263  1.3738  0.6260
 1998SOL     OW17452   4.584   0.803   0.676 -0.6473 -0.5051  0.1536
 1998SOL    HW117453   4.606   0.890   0.711  2.8475 -1.9390  1.5143
 1998SOL    HW217454   4.613   0.752   0.751 -0.1093  0.3636  0.5456
 1999SOL     OW17455   1.120   3.052   8.930  0.1106  0.5097  0.9722
 1999SOL    HW117456   1.108   2.957   8.926 -0.8581  0.5936  1.7426
 1999SOL    HW217457   1.035   3.091   8.912 -0.4282 -2.5397 -3.0919
 2000SOL     OW17458   1.416   1.204   6.918  0.0780  0.1072  0.0529
 2000SOL    HW117459   1.423   1.124   6.865 -0.8276  1.1651 -1.6624
 2000SOL    HW217460   1.405   1.165   7.005 -1.3807  0.0762 -0.1420
 2001SOL     OW17461   2.014   2.155   3.536 -0.0917 -0.5459 -0.4959
 2001SOL    HW117462   1.958   2.080   3.557  0.9204 -1.1844 -0.1091
 2001SOL    HW217463   1.942   2.213   3.510  1.9336  2.5876  0.9382
 2002SOL     OW17464   2.621   1.202  14.844 -0.2698 -0.2691 -0.6255
 2002SOL    HW117465   2.540   1.213  14.894  0.2389  0.8621 -0.0523
 2002SOL    HW217466   2.665   1.139  14.902 -1.5411  0.7729  1.4650
 2003SOL     OW17467   1.632   1.358   0.104 -0.9202 -0.2428  0.4005
 2003SOL    HW117468   1.634   1.339   0.198  0.1558  2.5615  0.9495
 2003SOL    HW217469   1.552   1.410   0.098 -0.3883  0.8703  2.7067
 2004SOL     OW17470   1.131   0.829   6.389 -0.4285 -0.0825 -0.4339
 2004SOL    HW117471   1.211   0.862   6.431 -0.5267 -0.1197 -0.2136
 2004SOL    HW217472   1.065   0.895   6.408  1.4155  2.4075 -2.6815
 2005SOL     OW17473   1.931   2.760  10.883  0.3380 -0.4577 -0.7692
 2005SOL    HW117474   2.003   2.697  10.888 -1.4669 -2.4427  0.0660
 2005SOL    HW217475   1.917   2.779  10.976  1.1396 -1.7038 -0.4073
 2006SOL     OW17476   4.298   2.527   6.506  0.2298  0.6485  0.3677
 2006SOL    HW117477   4.375   2.521   6.449 -0.6984  3.6722 -1.1981
 2006SOL    HW217478   4.262   2.608   6.470  0.2615  0.5693  0.1587
 2007SOL     OW17479   4.549   2.392  12.486  0.1001  0.4552 -0.2418
 2007SOL    HW117480   4.586   2.412  12.572 -0.8689  1.4861 -0.0625
 2007SOL    HW217481   4.560   2.479  12.448  0.2979  0.1087 -0.9632
 2008SOL     OW17482   3.666   4.077  10.113  0.0389  0.0690  0.5569
 2008SOL    HW117483   3.659   4.105  10.022 -0.6575 -1.5947  0.0928
 2008SOL    HW217484   3.724   4.142  10.153  2.2013  0.1477 -2.7352
 2009SOL     OW17485   0.407   1.392  13.336 -0.8415  0.4890 -0.2611
 2009SOL    HW117486   0.441   1.326  13.276 -0.8264 -0.0246  0.3038
 2009SOL    HW217487   0.312   1.388  13.325 -0.6540 -0.2364 -1.6002
 2010SOL     OW17488   3.350   2.397   0.636 -0.1099 -0.3719  0.2344
 2010SOL    HW117489   3.347   2.364   0.726 -1.3007  2.1293  1.1127
 2010SOL    HW217490   3.319   2.487   0.641  1.7657  0.4385 -2.7934
 2011SOL     OW17491   3.652   3.126   4.274  0.1249 -0.2211  0.3654
 2011SOL    HW117492   3.573   3.090   4.233  1.4186 -1.2002 -1.2787
 2011SOL    HW217493   3.633   3.218   4.290 -0.7045 -0.5475  1.3124
 2012SOL     OW17494   0.184   2.634   1.904 -0.5549  0.3707 -0.1389
 2012SOL    HW117495   0.201   2.549   1.944  3.3506  1.1555 -0.1279
 2012SOL    HW217496   0.158   2.608   1.815  0.9805 -1.3754 -0.0943
 2013SOL     OW17497   2.710   2.196   5.663 -0.3354 -0.6569  0.4280
 2013SOL    HW117498   2.715   2.131   5.592  0.6074 -0.3703  0.2238
 2013SOL    HW217499   2.711   2.140   5.740  0.9369 -0.9756  0.1938
 2014SOL     OW17500   2.992   0.407   7.329  0.0582 -0.0202  0.2426
 2014SOL    HW117501   3.049   0.444   7.261  0.8009 -0.8002  0.4468
 2014SOL    HW217502   3.029   0.448   7.407  1.4038 -0.7746 -0.0018
 2015SOL     OW17503   3.303   4.057   0.454 -0.1470  0.3563 -0.0085
 2015SOL    HW117504   3.315   3.970   0.494  0.2052  1.5714  2.5711
 2015SOL    HW217505   3.215   4.039   0.421  0.3342 -0.1479 -1.0001
 2016SOL     OW17506   2.167   1.340   4.101 -0.3995  0.4136  0.7242
 2016SOL    HW117507   2.114   1.317   4.177 -0.4249  0.6877  0.7918
 2016SOL    HW217508   2.121   1.293   4.031  0.3317  0.6999  0.0515
 2017SOL     OW17509   2.007   3.109  16.834  0.2633  0.0114 -0.3576
 2017SOL    HW117510   1.992   3.199  16.861 -0.4326  0.1449 -1.1984
 2017SOL    HW217511   1.923   3.072  16.863  0.1565  0.7595  0.2672
 2018SOL     OW17512   2.009   3.081   8.184  0.6720 -0.3337 -0.7461
 2018SOL    HW117513   1.969   3.016   8.126 -0.3663  0.4662 -0.9261
 2018SOL    HW217514   2.096   3.081   8.143  1.9563  1.5225  2.0180
 2019SOL     OW17515   3.978   2.907   7.962  0.2606  0.2750  0.3894
 2019SOL    HW117516   3.994   2.847   8.035 -1.3308 -0.4185  0.1554
 2019SOL    HW217517   4.067   2.914   7.927  0.2821 -0.7127  0.2620
 2020SOL     OW17518   0.666   2.182   6.251 -0.4298  0.7906 -0.1209
 2020SOL    HW117519   0.578   2.173   6.215 -0.8324  0.4199  0.9708
 2020SOL    HW217520   0.670   2.103   6.304 -2.2070 -0.8132 -2.3695
 2021SOL     OW17521   4.334   2.496   2.449  0.3895  0.0039 -0.2889
 2021SOL    HW117522   4.418   2.496   2.494 -0.5150 -1.3598  1.3678
 2021SOL    HW217523   4.366   2.541   2.370 -0.4091 -0.2214 -0.7466
 2022SOL     OW17524   2.255   4.200   8.406  0.0919 -0.1463 -0.8320
 2022SOL    HW117525   2.272   4.255   8.330  2.2524  0.9849  0.4837
 2022SOL    HW217526   2.347   4.179   8.419  0.2087  0.5693 -0.5013
 2023SOL     OW17527   3.163   1.697   3.012  0.5039 -0.5539  0.5928
 2023SOL    HW117528   3.081   1.693   3.062 -1.2255  0.7259 -2.1546
 2023SOL    HW217529   3.142   1.780   2.969 -3.7601 -2.2148 -0.5074
 2024SOL     OW17530   0.887   2.462   6.109 -0.4546 -0.3504  0.6249
 2024SOL    HW117531   0.877   2.466   6.204  0.6871 -1.0283  0.7713
 2024SOL    HW217532   0.799   2.490   6.084 -0.4494 -0.6155  0.3064
 2025SOL     OW17533   3.834   0.756   2.853 -0.1521 -0.2069 -0.0239
 2025SOL    HW117534   3.858   0.686   2.793  0.0776 -0.4269  0.3258
 2025SOL    HW217535   3.893   0.831   2.842  2.2067 -1.8962  1.2048
 2026SOL     OW17536   3.164   3.909   1.375  0.0195  0.5718 -0.4419
 2026SOL    HW117537   3.227   3.838   1.389 -0.4394  0.4021  0.8104
 2026SOL    HW217538   3.137   3.875   1.289  1.3646 -1.2495 -0.1477
 2027SOL     OW17539   1.574   4.576   9.915 -0.0890 -0.9211 -0.0273
 2027SOL    HW117540   1.597   4.657   9.869 -2.8839  1.0783  2.0854
 2027SOL    HW217541   1.651   4.521   9.899  1.9575  1.8207  0.3554
 2028SOL     OW17542   2.360   1.211   5.235 -0.0824 -0.0084  0.4237
 2028SOL    HW117543   2.315   1.231   5.318  1.2432 -1.5674  1.5243
 2028SOL    HW217544   2.279   1.175   5.199 -0.5294  1.2645  0.1516
 2029SOL     OW17545   0.341   3.250  13.083 -0.0242  0.2946 -0.5039
 2029SOL    HW117546   0.377   3.183  13.141  3.8122 -0.2299 -3.5514
 2029SOL    HW217547   0.323   3.194  13.008  3.0113 -0.5373 -0.5988
 2030SOL     OW17548   3.433   0.997   4.690 -0.1314  0.4954  0.1355
 2030SOL    HW117549   3.516   1.041   4.703  0.2031  0.3730 -1.5929
 2030SOL    HW217550   3.404   1.030   4.604 -2.6868 -1.7347  0.1389
 2031SOL     OW17551   3.222   0.102  16.578 -0.6283  0.1503  0.2112
 2031SOL    HW117552   3.143   0.145  16.546 -0.2683 -1.8853 -3.4156
 2031SOL    HW217553   3.291   0.153  16.537 -0.2237 -0.1430  0.5240
 2032SOL     OW17554   0.152   1.797   9.133  0.2044 -0.3882  0.0632
 2032SOL    HW117555   0.191   1.835   9.055  0.0862  1.5189  0.9242
 2032SOL    HW217556   0.228   1.777   9.187 -0.1767 -1.0071  0.3694
 2033SOL     OW17557   4.286   4.385   4.425 -0.3346 -0.0273 -0.0457
 2033SOL    HW117558   4.199   4.420   4.401  0.0491  2.2112  1.8042
 2033SOL    HW217559   4.275   4.304   4.375 -0.2104 -0.9849  1.4889
 2034SOL     OW17560   3.201   1.750  17.691 -0.2346 -0.4075  0.3306
 2034SOL    HW117561   3.224   1.674   0.053 -3.2133 -1.7095 -0.2547
 2034SOL    HW217562   3.211   1.711  17.604 -2.9858  2.2702 -1.1766
 2035SOL     OW17563   1.914   3.958   3.949  0.3161  0.0402 -0.2001
 2035SOL    HW117564   1.997   3.983   3.988  1.6124 -2.0928 -1.6289
 2035SOL    HW217565   1.862   4.037   3.965 -3.2365 -2.3447  0.1966
 2036SOL     OW17566   4.703   0.456   6.520 -0.0495 -0.3020 -0.1091
 2036SOL    HW117567   4.658   0.385   6.475  0.5377 -1.1633  0.6822
 2036SOL    HW217568   4.668   0.448   6.608  2.6715 -0.0493  0.9929
 2037SOL     OW17569   4.029   4.112   8.005  0.2645 -0.2886 -0.0390
 2037SOL    HW117570   4.061   4.054   7.936 -0.9525 -3.1962  1.8213
 2037SOL    HW217571   4.045   4.200   7.973  0.5014 -0.9993 -1.9194
 2038SOL     OW17572   3.505   1.331   3.272  0.1996 -0.3018 -0.1928
 2038SOL    HW117573   3.578   1.315   3.333 -1.2395 -2.2755  1.0091
 2038SOL    HW217574   3.479   1.419   3.298 -0.3700 -0.7804  0.8758
 2039SOL     OW17575   1.088   3.631   6.841 -0.2324 -0.2059 -0.0853
 2039SOL    HW117576   1.115   3.723   6.847  0.1012 -0.5262  3.1316
 2039SOL    HW217577   0.992   3.626   6.844 -0.2769  1.8087  1.9619
 2040SOL     OW17578   2.224   4.029  13.482  0.1265 -0.7827 -0.1779
 2040SOL    HW117579   2.203   4.024  13.389 -1.5301  1.5429  0.0437
 2040SOL    HW217580   2.287   4.101  13.485  1.8997 -2.2495 -2.1458
 2041SOL     OW17581   4.347   3.342   2.878 -0.1471 -0.3343 -0.4065
 2041SOL    HW117582   4.385   3.419   2.836 -1.8751  0.4745 -0.4801
 2041SOL    HW217583   4.265   3.329   2.830  0.5778  0.0166 -1.7519
 2042SOL     OW17584   4.658   4.037  12.829 -0.3502  0.3219  0.1491
 2042SOL    HW117585   4.645   3.979  12.904 -2.4721 -1.1068 -1.3098
 2042SOL    HW217586   4.658   3.970  12.760  0.5168 -1.0917  1.5164
 2043SOL     OW17587   2.465   1.461   3.456 -0.1043  0.8301  0.2689
 2043SOL    HW117588   2.476   1.395   3.524  0.3819 -0.4348 -1.0580
 2043SOL    HW217589   2.422   1.410   3.388 -0.6555  1.5052  0.1051
 2044SOL     OW17590   1.069   3.141   4.369  0.6167  0.2963  0.0526
 2044SOL    HW117591   1.015   3.063   4.361 -0.6395  1.2576 -0.8000
 2044SOL    HW217592   1.115   3.152   4.286 -0.8759  1.0378 -0.6738
 2045SOL     OW17593   1.427   3.263  13.495  0.0800  0.6620 -0.4834
 2045SOL    HW117594   1.393   3.181  13.460 -0.2859  0.9210 -0.7338
 2045SOL    HW217595   1.509   3.232  13.534  1.1669 -1.5784 -4.4959
 2046SOL     OW17596   2.051   0.214   2.389 -0.0502 -0.3571  0.0384
 2046SOL    HW117597   2.116   0.246   2.326 -0.3301 -0.0168 -0.0772
 2046SOL    HW217598   2.003   0.149   2.338 -0.8322  0.7817 -0.6942
 2047SOL     OW17599   3.222   2.103  10.544 -0.3359 -0.6811 -0.5955
 2047SOL    HW117600   3.196   2.113  10.635  0.2546  0.6631 -0.5731
 2047SOL    HW217601   3.313   2.133  10.543  0.4170 -2.9383  3.8453
 2048SOL     OW17602   0.545   2.143   3.796  0.6164 -0.0159  0.4807
 2048SOL    HW117603   0.595   2.080   3.745  0.8753 -0.6465  1.5073
 2048SOL    HW217604   0.462   2.103   3.770  0.1032  0.5926  1.1351
 2049SOL     OW17605   4.022   1.507   3.110 -0.4270  0.4985  0.0724
 2049SOL    HW117606   4.097   1.525   3.053 -1.4789 -1.1024 -1.8287
 2049SOL    HW217607   4.069   1.520   3.193 -0.9560  1.1886  0.2657
 2050SOL     OW17608   0.446   4.229   4.841  0.0894  0.1021  0.0734
 2050SOL    HW117609   0.426   4.236   4.934 -0.2292  1.4283 -0.0874
 2050SOL    HW217610   0.541   4.217   4.842 -0.0777 -1.2406  0.4296
 2051SOL     OW17611   3.876   2.041   0.037 -0.3796  0.3051 -0.2559
 2051SOL    HW117612   3.818   2.100   0.084 -0.9849  0.2096 -0.8760
 2051SOL    HW217613   3.955   2.081   0.073  0.7361  0.5526 -2.9670
 2052SOL     OW17614   4.516   3.616   6.567 -0.7977  0.1216 -0.1925
 2052SOL    HW117615   4.467   3.579   6.640  1.2891 -1.0128  0.6245
 2052SOL    HW217616   4.515   3.709   6.588  3.0273 -0.0107  0.6500
 2053SOL     OW17617   0.839   1.527   1.278  0.0100  0.1774 -0.5125
 2053SOL    HW117618   0.774   1.574   1.226  3.2380  3.0731 -1.9125
 2053SOL    HW217619   0.905   1.507   1.212 -0.4514 -1.7862 -0.3725
 2054SOL     OW17620   3.356   4.070  10.487  0.0833 -0.1186 -0.2712
 2054SOL    HW117621   3.290   4.136  10.465  2.2524  3.1999  3.2447
 2054SOL    HW217622   3.387   4.041  10.401 -0.8697 -0.7958 -0.3917
 2055SOL     OW17623   3.063   0.083  13.517  0.2352  0.1561 -0.2149
 2055SOL    HW117624   3.109   0.163  13.493  0.3758  0.7439  2.0162
 2055SOL    HW217625   3.140   0.030  13.539  0.2453 -0.3782 -1.5462
 2056SOL     OW17626   0.005   4.026  14.819 -0.2758 -0.1123  0.4852
 2056SOL    HW117627   0.017   4.085  14.745 -3.6998  0.5283  0.4463
 2056SOL    HW217628   4.636   4.037  14.844 -0.4227  0.9163 -0.4603
 2057SOL     OW17629   3.321   2.382   1.376  0.6288 -0.1075 -0.5508
 2057SOL    HW117630   3.284   2.339   1.453 -1.8507  2.1994 -0.4436
 2057SOL    HW217631   3.302   2.474   1.395 -0.1659 -0.7191  1.6393
 2058SOL     OW17632   4.187   3.867  11.425  0.6011 -0.3454 -0.1405
 2058SOL    HW117633   4.132   3.929  11.473  0.3871 -1.4672  1.0497
 2058SOL    HW217634   4.270   3.892  11.466  0.7293  3.0667 -2.4612
 2059SOL     OW17635   0.614   0.324   4.325  0.3148  1.0265  0.8797
 2059SOL    HW117636   0.520   0.328   4.345  0.2525 -0.9993  1.0141
 2059SOL    HW217637   0.626   0.232   4.301  0.9273  1.6198 -1.0732
 2060SOL     OW17638   1.980   2.929  16.325  0.4512 -0.1256  0.0953
 2060SOL    HW117639   1.972   2.947  16.418 -0.5165 -0.4862  0.0803
 2060SOL    HW217640   1.940   2.842  16.318  0.4862 -0.0166 -1.5477
 2061SOL     OW17641   2.048   3.425   7.101  0.0687  0.1667  0.2847
 2061SOL    HW117642   2.125   3.452   7.050 -0.3106 -0.4589 -0.6036
 2061SOL    HW217643   2.035   3.332   7.083 -1.6172  0.5485 -0.4770
 2062SOL     OW17644   0.988   1.337   9.934 -0.0475 -0.0636 -0.2274
 2062SOL    HW117645   1.001   1.388  10.014  0.8912  0.1258 -0.4964
 2062SOL    HW217646   1.069   1.284   9.931 -0.4797 -0.8696  2.3369
 2063SOL     OW17647   0.574   4.404   4.038 -0.4283  0.0061 -0.9442
 2063SOL    HW117648   0.608   4.339   3.977 -0.2445  0.0219 -0.8596
 2063SOL    HW217649   0.609   4.486   4.004 -0.5818  0.2407 -0.5412
 2064SOL     OW17650   1.195   2.268   5.467 -0.5323  0.3361  0.0884
 2064SOL    HW117651   1.106   2.248   5.495 -0.7752  0.6614 -0.4765
 2064SOL    HW217652   1.236   2.181   5.462  1.6901  1.3369  0.5958
 2065SOL     OW17653   2.309   2.710   3.441 -0.2189 -0.1123 -0.1479
 2065SOL    HW117654   2.314   2.663   3.358 -0.2983  0.4332 -0.4549
 2065SOL    HW217655   2.309   2.631   3.496 -3.8737  0.4084  0.6202
 2066SOL     OW17656   3.347   0.245   8.953  0.0124 -0.4286  0.2263
 2066SOL    HW117657   3.439   0.236   8.979 -0.1584 -2.2585  0.1920
 2066SOL    HW217658   3.336   0.338   8.972 -1.8841 -0.5006 -0.5543
 2067SOL     OW17659   2.442   2.275   3.271 -0.1639 -0.1572  0.1868
 2067SOL    HW117660   2.509   2.336   3.302  0.5378 -0.5187 -0.6157
 2067SOL    HW217661   2.494   2.205   3.231  0.1989  0.1290  0.1540
 2068SOL     OW17662   2.069   2.419   7.571 -0.1043 -0.4937 -0.8276
 2068SOL    HW117663   2.129   2.493   7.574  0.0057 -0.5565 -1.4833
 2068SOL    HW217664   1.983   2.451   7.542  0.0644  0.5621 -0.1487
 2069SOL     OW17665   4.709   2.247   4.520  0.3503  0.0492  0.1913
 2069SOL    HW117666   4.718   2.183   4.450 -1.2193  0.9120 -0.8155
 2069SOL    HW217667   0.047   2.206   4.581 -0.3830 -1.2270  0.0714
 2070SOL     OW17668   1.822   3.942   2.565  0.1613  0.5664  0.2276
 2070SOL    HW117669   1.917   3.944   2.577 -0.1035 -1.4008  2.6280
 2070SOL    HW217670   1.822   3.847   2.554 -0.1870  0.4901  0.8881
 2071SOL     OW17671   1.935   3.546   2.238  0.2394 -0.2371  0.2464
 2071SOL    HW117672   1.939   3.600   2.317  1.7122 -0.3965  0.2826
 2071SOL    HW217673   2.028   3.542   2.215  0.0073  1.3227 -1.0061
 2072SOL     OW17674   1.721   0.164   2.055 -0.6276  0.1054  0.0196
 2072SOL    HW117675   1.749   0.119   2.134 -1.9603 -0.8917 -0.0883
 2072SOL    HW217676   1.808   0.176   2.015 -0.4425  1.0632  0.6967
 2073SOL     OW17677   3.239   3.069  11.730  0.0895  0.8742  0.0042
 2073SOL    HW117678   3.263   3.086  11.821  0.5751 -1.2449  0.2688
 2073SOL    HW217679   3.248   3.158  11.694  0.4201  1.0075  0.4211
 2074SOL     OW17680   0.809   0.928  10.904 -0.2787 -0.3085 -0.4222
 2074SOL    HW117681   0.873   0.999  10.899 -0.8296  0.0429 -2.5892
 2074SOL    HW217682   0.729   0.973  10.876 -0.3832  1.2557  2.3793
 2075SOL     OW17683   2.476   1.324   5.495  0.2611  0.2101 -0.0229
 2075SOL    HW117684   2.523   1.264   5.438  1.2156  0.4605  0.5117
 2075SOL    HW217685   2.539   1.359   5.558  0.2603 -0.2258  0.2188
 2076SOL     OW17686   0.536   3.735  12.192  0.1520 -0.3626  0.4504
 2076SOL    HW117687   0.616   3.778  12.222  1.3198 -1.1015 -1.6133
 2076SOL    HW217688   0.565   3.671  12.128 -1.1394 -0.2435 -0.2600
 2077SOL     OW17689   3.918   1.776   7.942 -0.1236  0.3306 -0.2421
 2077SOL    HW117690   3.872   1.695   7.965  0.7263  0.4191  1.7779
 2077SOL    HW217691   3.975   1.793   8.017 -0.2133 -0.0543 -0.0883
 2078SOL     OW17692   2.072   0.191   6.402 -0.3485  0.2593 -0.1623
 2078SOL    HW117693   2.166   0.179   6.414 -0.4307  0.1907  0.4453
 2078SOL    HW217694   2.041   0.101   6.405  1.0757 -0.1899  1.1718
 2079SOL     OW17695   4.112   4.335   6.059 -0.1778 -0.1418  0.2686
 2079SOL    HW117696   4.128   4.283   6.137 -0.6529  0.0213  0.4726
 2079SOL    HW217697   4.170   4.408   6.081  2.3094 -1.8847 -0.4862
 2080SOL     OW17698   2.762   3.190   9.188 -0.0156 -0.0198  0.8068
 2080SOL    HW117699   2.782   3.284   9.191 -0.3951  0.0762  0.1996
 2080SOL    HW217700   2.680   3.192   9.138  0.4834 -0.1644 -0.0088
 2081SOL     OW17701   4.021   2.997   6.741 -0.1844  0.4383  0.3093
 2081SOL    HW117702   4.015   3.093   6.737  1.1704  0.5348  0.6262
 2081SOL    HW217703   4.010   2.992   6.836 -2.6708  1.9892  0.1049
 2082SOL     OW17704   3.983   3.075   5.962  0.1126 -0.2277  0.0535
 2082SOL    HW117705   4.047   3.039   6.023 -0.5595 -2.3777 -0.5037
 2082SOL    HW217706   3.992   3.170   5.970 -3.8412  0.0917  0.4794
 2083SOL     OW17707   4.521   0.144  13.027  0.0368  0.1772 -0.7303
 2083SOL    HW117708   4.538   0.096  13.109 -0.2271 -0.0434 -0.8022
 2083SOL    HW217709   4.539   0.078  12.960 -0.2854  0.1080 -0.7492
 2084SOL     OW17710   1.955   3.099   4.447  0.1360 -0.2487  0.1374
 2084SOL    HW117711   1.927   3.186   4.418  1.0184  0.7744  2.4018
 2084SOL    HW217712   2.043   3.126   4.474 -0.6355  0.4738  1.9623
 2085SOL     OW17713   2.898   1.666  17.530  0.1842 -0.1640  0.0950
 2085SOL    HW117714   2.858   1.601  17.472  1.0912 -0.6619  0.0288
 2085SOL    HW217715   2.925   1.604  17.598  2.0627 -0.0135 -0.5335
 2086SOL     OW17716   1.137   0.045   9.373  0.0976  0.0735 -0.7093
 2086SOL    HW117717   1.085   0.087   9.441 -0.0104 -1.2515  0.0344
 2086SOL    HW217718   1.223   0.082   9.391 -0.6866  0.5457  1.9158
 2087SOL     OW17719   3.113   1.978   0.335  0.4718 -0.1681 -0.2260
 2087SOL    HW117720   3.093   1.982   0.242 -1.1003  1.9812  0.2055
 2087SOL    HW217721   3.095   2.071   0.354  1.7486  0.2535 -1.0536
 2088SOL     OW17722   2.006   3.597   3.214 -0.1933 -0.4331  0.1830
 2088SOL    HW117723   1.954   3.581   3.293 -0.0776 -0.2818  0.2891
 2088SOL    HW217724   1.933   3.586   3.152 -0.3930  2.7010 -0.1126
 2089SOL     OW17725   1.266   4.177  16.367  0.0374  0.3419 -0.2407
 2089SOL    HW117726   1.347   4.206  16.410 -0.0282  2.8522 -1.8154
 2089SOL    HW217727   1.284   4.195  16.275 -0.0968 -0.6965 -0.4698
 2090SOL     OW17728   2.010   3.011   5.299 -0.0619 -0.0878  0.3323
 2090SOL    HW117729   2.014   3.054   5.214  0.3747  0.9962  0.9005
 2090SOL    HW217730   1.928   3.055   5.322 -1.1121 -1.1249 -1.3952
 2091SOL     OW17731   1.121   0.069  14.654  0.1578  0.2133  0.2852
 2091SOL    HW117732   1.127   0.133  14.582 -0.2164  1.3371  1.2521
 2091SOL    HW217733   1.159   4.719  14.604 -0.8877  0.4883 -0.9243
 2092SOL     OW17734   4.095   2.033   0.604  0.5009  0.5525  1.0556
 2092SOL    HW117735   4.128   1.955   0.648 -3.1904 -0.4333  2.0858
 2092SOL    HW217736   4.083   2.089   0.680 -0.0300  0.2174  1.2186
 2093SOL     OW17737   1.675   3.478   2.170  0.1470 -0.3684  0.0098
 2093SOL    HW117738   1.685   3.529   2.090  2.9974 -1.2936 -0.2267
 2093SOL    HW217739   1.761   3.492   2.210 -0.3462  1.5421  0.3957
 2094SOL     OW17740   0.331   0.698   7.501  0.3400 -0.2569 -0.4967
 2094SOL    HW117741   0.323   0.737   7.587 -0.8543 -0.4938 -0.5082
 2094SOL    HW217742   0.245   0.664   7.475 -0.1021  1.3107 -1.0895
 2095SOL     OW17743   2.621   4.418  17.072  0.7799  0.1271  0.0855
 2095SOL    HW117744   2.654   4.350  17.131  0.2146  0.2952  0.5928
 2095SOL    HW217745   2.606   4.497  17.123  1.2620 -0.3676  0.9870
 2096SOL     OW17746   3.478   4.308   4.571  0.3032 -0.3687  0.4385
 2096SOL    HW117747   3.540   4.287   4.501 -0.7567  0.3569 -0.7180
 2096SOL    HW217748   3.525   4.275   4.647  1.8881 -0.5743 -0.6388
 2097SOL     OW17749   2.505   4.077  11.441  0.1995  0.4778  0.1737
 2097SOL    HW117750   2.527   4.032  11.522 -0.5723 -0.6086 -0.2318
 2097SOL    HW217751   2.553   4.159  11.455  0.0799  0.7380 -0.9413
 2098SOL     OW17752   2.112   1.207   5.733  0.7284  0.3502  0.5863
 2098SOL    HW117753   2.113   1.298   5.761  1.6682 -0.3120  2.7252
 2098SOL    HW217754   2.038   1.163   5.773 -0.4320  0.7903 -1.0597
 2099SOL     OW17755   3.101   0.159   3.846  0.0016  0.1203  0.0970
 2099SOL    HW117756   3.026   0.150   3.905  0.4669 -0.4726  0.6033
 2099SOL    HW217757   3.097   0.075   3.799  0.4238  0.4597 -0.5432
 2100SOL     OW17758   2.771   2.917  10.765  0.3839 -0.1159 -0.0812
 2100SOL    HW117759   2.791   3.005  10.799 -0.8917  0.1057  0.1022
 2100SOL    HW217760   2.857   2.884  10.740 -0.3590 -0.7940 -1.7630
 2101SOL     OW17761   1.775   0.259   9.870 -0.1152 -0.2658 -0.0227
 2101SOL    HW117762   1.779   0.338   9.923 -1.3714  0.3026 -0.7735
 2101SOL    HW217763   1.849   0.269   9.810  1.1227  0.5026  1.6428
 2102SOL     OW17764   3.519   0.016   6.737  0.1317 -0.1990  0.2231
 2102SOL    HW117765   3.562   0.098   6.712  3.7037 -2.3849 -0.6931
 2102SOL    HW217766   3.427   0.039   6.750  1.1347  4.1122 -0.4063
 2103SOL     OW17767   3.393   2.575  16.321 -0.0398  0.1402  0.4868
 2103SOL    HW117768   3.427   2.648  16.269 -1.4171  0.2678 -0.2312
 2103SOL    HW217769   3.419   2.597  16.411  0.0878  1.7074  0.0682
 2104SOL     OW17770   3.528   1.823   6.942 -0.0500  0.2306 -0.2521
 2104SOL    HW117771   3.482   1.880   7.003 -1.0399  0.0960 -0.8821
 2104SOL    HW217772   3.505   1.849   6.853  1.2636 -1.0056 -0.9597
 2105SOL     OW17773   0.448   2.639   8.572  0.0994  0.2064 -0.2752
 2105SOL    HW117774   0.519   2.679   8.522 -2.0706  3.0855 -1.0390
 2105SOL    HW217775   0.449   2.697   8.649 -1.7919  1.0040 -0.8617
 2106SOL     OW17776   2.660   2.759  13.134  0.1088  0.4315 -0.6299
 2106SOL    HW117777   2.609   2.684  13.104  0.1773 -0.4466  1.4576
 2106SOL    HW217778   2.740   2.708  13.147  2.0346  3.5610 -0.2698
 2107SOL     OW17779   0.839   3.843   4.873 -0.5030  0.0833  0.4223
 2107SOL    HW117780   0.874   3.754   4.878 -1.2628 -0.3638 -2.3581
 2107SOL    HW217781   0.750   3.826   4.844 -0.5994  0.9649  0.1944
 2108SOL     OW17782   2.906   0.277   6.342 -0.2251  0.3953 -0.0199
 2108SOL    HW117783   2.918   0.338   6.270  1.8510  0.4424  0.3691
 2108SOL    HW217784   2.937   0.329   6.417 -3.0093  0.9197  0.7898
 2109SOL     OW17785   0.846   2.604   0.287  0.0161 -0.2185 -0.5059
 2109SOL    HW117786   0.768   2.659   0.281 -0.5220 -0.9323 -0.1544
 2109SOL    HW217787   0.889   2.650   0.359  0.1344  0.2754 -0.8922
 2110SOL     OW17788   4.068   3.277   9.380 -0.2368  0.1152  0.3602
 2110SOL    HW117789   3.994   3.323   9.420 -1.6357 -0.6248 -1.4190
 2110SOL    HW217790   4.040   3.270   9.289  1.6218  2.4367 -0.3740
 2111SOL     OW17791   2.067   1.234  12.304 -0.2100 -0.2541 -0.3854
 2111SOL    HW117792   2.081   1.249  12.398  0.5299 -1.0060 -0.3874
 2111SOL    HW217793   1.975   1.208  12.296 -0.3392  0.0388  0.1059
 2112SOL     OW17794   3.862   0.958  16.151  0.0667  0.7844  0.3364
 2112SOL    HW117795   3.859   1.054  16.145  2.4271  0.8439 -0.1134
 2112SOL    HW217796   3.797   0.946  16.219  0.0779 -0.7151  0.0728
 2113SOL     OW17797   3.462   1.972   3.998 -0.2877  0.1008 -0.4694
 2113SOL    HW117798   3.535   1.967   4.059 -1.2202 -1.1345  0.5556
 2113SOL    HW217799   3.395   1.962   4.066  0.7497 -1.3544  0.3306
 2114SOL     OW17800   3.213   3.506  15.545  0.2915 -0.0272  0.0039
 2114SOL    HW117801   3.147   3.527  15.479  0.6233 -0.2132 -0.3833
 2114SOL    HW217802   3.211   3.410  15.547  1.2863 -0.1039 -2.3401
 2115SOL     OW17803   0.149   2.108   4.092 -0.1327  0.0794  0.1521
 2115SOL    HW117804   0.225   2.061   4.055 -0.9457 -1.3908  0.3318
 2115SOL    HW217805   0.188   2.140   4.173  1.6888 -0.7541 -0.3691
 2116SOL     OW17806   2.433   0.965   1.461  0.0075  0.0254 -0.0117
 2116SOL    HW117807   2.521   0.936   1.485 -0.8306 -1.6009  1.1037
 2116SOL    HW217808   2.387   0.887   1.491  2.2880 -2.2440 -2.3704
 2117SOL     OW17809   2.339   4.371   0.031  0.2367  0.0648  0.6280
 2117SOL    HW117810   2.332   4.445  17.663  3.0378 -1.2970 -1.3282
 2117SOL    HW217811   2.275   4.390   0.100 -1.2027 -1.2704 -0.3535
 2118SOL     OW17812   1.872   0.733   7.084 -0.1568 -0.1250  0.4076
 2118SOL    HW117813   1.901   0.778   7.005 -1.4874  0.8757  0.4847
 2118SOL    HW217814   1.885   0.645   7.048 -1.1893  0.1411 -0.6017
 2119SOL     OW17815   0.809   2.371   2.735  0.2589 -0.4317  0.0022
 2119SOL    HW117816   0.884   2.412   2.692 -0.4141 -0.5054 -1.2584
 2119SOL    HW217817   0.737   2.407   2.683 -0.4986 -1.0354  0.6291
 2120SOL     OW17818   4.001   0.927  15.312  0.2170  0.1920 -0.0178
 2120SOL    HW117819   4.075   0.980  15.343 -0.9866  0.1940  2.8751
 2120SOL    HW217820   4.018   0.925  15.218 -0.9020 -0.7643 -0.1991
 2121SOL     OW17821   1.336   3.732   9.157  0.0963 -0.2867 -0.2342
 2121SOL    HW117822   1.337   3.646   9.115  0.4157  0.1248 -1.0588
 2121SOL    HW217823   1.272   3.774   9.099  0.0326  0.1956  0.1854
 2122SOL     OW17824   0.811   0.841   6.042 -0.7564 -0.5425  0.3264
 2122SOL    HW117825   0.833   0.851   5.949 -0.6679  0.9975  0.5164
 2122SOL    HW217826   0.763   0.920   6.067 -2.3651 -1.5193  0.3392
 2123SOL     OW17827   3.012   1.933   9.948  0.5017  0.6767 -0.7453
 2123SOL    HW117828   3.003   2.013   9.896 -0.0201  0.8474 -0.3879
 2123SOL    HW217829   3.108   1.931   9.947  0.4769 -1.4337  1.8797
 2124SOL     OW17830   2.343   0.103   0.329 -0.3480  0.3124  0.0221
 2124SOL    HW117831   2.349   0.044   0.254 -1.7334 -0.9893  0.9471
 2124SOL    HW217832   2.423   0.155   0.321 -0.3185  0.1931 -0.4280
 2125SOL     OW17833   1.911   3.092   9.934 -0.3295  0.4840 -0.0411
 2125SOL    HW117834   1.891   3.112  10.026  1.7979  2.1247  0.0659
 2125SOL    HW217835   1.865   3.165   9.895 -1.8652 -0.9634 -0.9434
 2126SOL     OW17836   0.250   0.805   4.290  0.4356  0.2978 -0.5914
 2126SOL    HW117837   0.275   0.822   4.200  3.1832 -0.5709  0.0194
 2126SOL    HW217838   0.154   0.800   4.291  0.5795 -2.0690  2.3679
 2127SOL     OW17839   4.519   1.857   4.129 -0.0525  0.9401  0.6014
 2127SOL    HW117840   4.489   1.895   4.211  2.1576  1.1261  1.3223
 2127SOL    HW217841   4.474   1.909   4.063  0.0543  0.0580 -0.1695
 2128SOL     OW17842   3.072   2.541   5.721  0.3945  0.0091 -0.3566
 2128SOL    HW117843   3.112   2.454   5.733  1.3912  0.4583 -0.4334
 2128SOL    HW217844   3.110   2.584   5.797 -0.4041 -0.0749  0.0837
 2129SOL     OW17845   1.446   3.345   1.257  0.0313 -0.3007  0.3838
 2129SOL    HW117846   1.356   3.370   1.279  0.7418  1.9220  0.7540
 2129SOL    HW217847   1.434   3.284   1.184 -1.5043  2.6924 -1.8415
 2130SOL     OW17848   4.320   3.596   7.310  0.2186  0.4813 -0.3703
 2130SOL    HW117849   4.413   3.608   7.325  0.1885 -1.4569  1.4406
 2130SOL    HW217850   4.288   3.678   7.348 -1.7024 -1.3609  2.0798
 2131SOL     OW17851   1.524   0.762   7.587 -0.6331  0.1952 -0.1889
 2131SOL    HW117852   1.555   0.671   7.582 -1.6907 -0.2528  1.7895
 2131SOL    HW217853   1.596   0.815   7.552 -1.3075 -0.0854 -1.9999
 2132SOL     OW17854   4.539   2.920  16.595 -0.0291 -0.1459 -0.1111
 2132SOL    HW117855   4.450   2.892  16.616  0.2661  0.1659  1.5933
 2132SOL    HW217856   4.544   2.915  16.500  1.3737 -0.0079 -0.0337
 2133SOL     OW17857   1.050   1.153   5.269  0.0719 -0.5992  0.5550
 2133SOL    HW117858   1.014   1.162   5.356  0.0922 -1.4535  0.6556
 2133SOL    HW217859   0.974   1.149   5.211  2.1260  1.2820 -2.3202
 2134SOL     OW17860   0.118   0.545   5.638  0.0241  0.0853 -0.5566
 2134SOL    HW117861   0.136   0.468   5.584  1.4185 -0.1099  0.1921
 2134SOL    HW217862   0.149   0.522   5.725 -0.7020 -1.8216 -0.8127
 2135SOL     OW17863   3.884   1.907   4.425  0.6390 -0.0626  0.0486
 2135SOL    HW117864   3.890   1.959   4.506  1.2738 -1.2959  0.7865
 2135SOL    HW217865   3.965   1.938   4.383 -0.4565  0.8622 -1.3631
 2136SOL     OW17866   0.249   1.141   9.283 -0.4386  0.0125  0.2212
 2136SOL    HW117867   0.321   1.192   9.247  0.7723 -1.1049  1.0796
 2136SOL    HW217868   0.294   1.108   9.361  2.6603  0.3487 -1.4157
 2137SOL     OW17869   0.921   4.142   5.425  0.5216  0.1496 -0.1269
 2137SOL    HW117870   0.988   4.203   5.394  1.4832 -1.2070 -0.7391
 2137SOL    HW217871   0.875   4.119   5.344  1.1703  0.0452 -0.4614
 2138SOL     OW17872   3.200   3.054   7.370  0.4968  1.1091  0.0382
 2138SOL    HW117873   3.283   3.097   7.392  0.0241  0.5868  2.8762
 2138SOL    HW217874   3.241   2.982   7.322 -2.8804  0.9575 -2.6781
 2139SOL     OW17875   1.928   2.918   8.412  0.3910  0.3917  0.5244
 2139SOL    HW117876   1.994   2.849   8.402 -0.1279 -0.0033 -0.1405
 2139SOL    HW217877   1.950   2.970   8.335 -0.9425  2.9719  1.8816
 2140SOL     OW17878   2.664   0.996  15.043  0.0802  0.3765 -0.7040
 2140SOL    HW117879   2.722   0.922  15.026  1.5976  0.9439  1.8506
 2140SOL    HW217880   2.677   1.011  15.137 -1.6815 -0.9377 -0.2513
 2141SOL     OW17881   1.416   1.966   5.115  0.5815  0.1142 -0.0955
 2141SOL    HW117882   1.473   1.993   5.187 -0.1723  0.7199  0.2765
 2141SOL    HW217883   1.451   1.880   5.092 -1.8194 -1.8034  3.4146
 2142SOL     OW17884   3.263   2.982   8.711 -0.0304  0.3385  0.3479
 2142SOL    HW117885   3.192   3.047   8.705 -0.3092 -0.0120 -0.1722
 2142SOL    HW217886   3.333   3.036   8.749 -0.3645  0.8825  0.1949
 2143SOL     OW17887   4.060   2.948   7.014 -0.2319 -0.6553 -0.1898
 2143SOL    HW117888   4.107   2.905   7.086 -0.1965  2.4095  1.6607
 2143SOL    HW217889   4.036   3.028   7.062  3.3078 -0.4215  1.1706
 2144SOL     OW17890   0.142   2.047   4.612 -0.1339 -0.5454  0.0845
 2144SOL    HW117891   0.216   2.091   4.570  1.4766 -2.4639  0.9119
 2144SOL    HW217892   0.189   1.986   4.668  0.0941 -0.0657  0.4208
 2145SOL     OW17893   2.964   0.836   5.189 -0.2270  0.0519 -0.5310
 2145SOL    HW117894   3.057   0.830   5.167 -0.2763 -1.4078 -0.3324
 2145SOL    HW217895   2.944   0.905   5.127 -1.0982  0.7525  0.5263
 2146SOL     OW17896   1.821   3.775   3.517  0.8217 -0.3118 -0.3679
 2146SOL    HW117897   1.847   3.822   3.596  0.3223 -0.7702  0.0699
 2146SOL    HW217898   1.800   3.692   3.560  0.6380  0.9270  1.9150
 2147SOL     OW17899   3.881   4.555   7.542  0.3694  0.0718 -0.3744
 2147SOL    HW117900   3.841   4.610   7.475 -2.4067 -0.6528  0.6914
 2147SOL    HW217901   3.878   4.616   7.616  0.0509  0.4730 -0.7177
 2148SOL     OW17902   0.942   0.137   6.523  0.5473  0.6004 -0.0847
 2148SOL    HW117903   0.853   0.139   6.490 -0.1694  1.4867  1.9165
 2148SOL    HW217904   0.970   0.227   6.507 -0.5383  1.1772  1.3736
 2149SOL     OW17905   1.431   0.991   5.392 -0.2591  0.2639  0.2406
 2149SOL    HW117906   1.361   0.938   5.430  0.0862  0.3828  1.0323
 2149SOL    HW217907   1.396   1.024   5.309  0.6914 -1.0150 -0.6469
 2150SOL     OW17908   3.103   0.254   1.106  0.1740 -0.1701 -0.3425
 2150SOL    HW117909   3.030   0.282   1.162 -0.5204  1.3079 -1.9706
 2150SOL    HW217910   3.150   0.192   1.161 -0.8897 -0.8065 -0.1591
 2151SOL     OW17911   3.848   0.210   6.917 -0.2975  1.0421  0.3957
 2151SOL    HW117912   3.820   0.120   6.932 -0.3037  1.0601  0.4965
 2151SOL    HW217913   3.776   0.251   6.967 -0.4652 -0.5139  1.4365
 2152SOL     OW17914   1.676   0.200   3.489  0.2124  0.6311  0.4238
 2152SOL    HW117915   1.733   0.125   3.476 -1.4174 -0.4562 -0.5027
 2152SOL    HW217916   1.703   0.256   3.416  1.2666 -1.0584 -0.4817
 2153SOL     OW17917   0.272   0.736   8.342  0.4378 -0.4733 -0.3031
 2153SOL    HW117918   0.364   0.721   8.359  1.0319  2.5831 -0.8772
 2153SOL    HW217919   0.274   0.790   8.263  0.4307 -1.0432 -0.6928
 2154SOL     OW17920   0.331   2.538   4.393  0.6724  0.3598  0.7053
 2154SOL    HW117921   0.423   2.519   4.413  0.4629  0.9828  2.2255
 2154SOL    HW217922   0.329   2.551   4.298  0.3410 -2.2196  0.3475
 2155SOL     OW17923   2.511   3.262  10.453 -0.4417 -0.2682 -0.0831
 2155SOL    HW117924   2.426   3.301  10.474 -0.5518  0.2875 -1.5871
 2155SOL    HW217925   2.542   3.315  10.380  0.7873  0.0882  0.6947
 2156SOL     OW17926   3.602   2.018  13.489  0.0186 -0.0362 -0.5443
 2156SOL    HW117927   3.653   2.091  13.456  0.8110  0.4847  1.8615
 2156SOL    HW217928   3.520   2.053  13.523  1.8346 -0.4023  4.0842
 2157SOL     OW17929   3.192   2.232   6.156  0.2589  0.2170 -0.3932
 2157SOL    HW117930   3.116   2.192   6.113 -0.5500  0.5174  0.7693
 2157SOL    HW217931   3.189   2.185   6.239 -0.3093  0.9078 -0.0212
 2158SOL     OW17932   1.260   3.661   2.884 -0.1458 -0.5438  0.0980
 2158SOL    HW117933   1.255   3.745   2.840 -1.7493 -1.6654 -1.8953
 2158SOL    HW217934   1.179   3.626   2.845  0.0464 -0.8549 -0.0232
 2159SOL     OW17935   1.438   1.126   4.387 -0.0400  0.0284 -0.2282
 2159SOL    HW117936   1.466   1.152   4.299  2.7038 -0.2278  0.5731
 2159SOL    HW217937   1.458   1.034   4.400 -0.5128  0.0015  0.3133
 2160SOL     OW17938   1.604   0.657  10.995 -0.3297 -0.2293  0.1815
 2160SOL    HW117939   1.518   0.687  10.967  0.3177 -0.9042 -2.5305
 2160SOL    HW217940   1.584   0.563  10.988 -0.2540 -0.3013  0.9675
 2161SOL     OW17941   4.691   0.218  13.286  0.4908  0.5110 -0.1289
 2161SOL    HW117942   0.018   0.210  13.205  1.3142  1.1086  0.3082
 2161SOL    HW217943   0.024   0.277  13.338  2.8908 -0.0093 -2.0913
 2162SOL     OW17944   3.655   1.043   3.971  0.0498 -0.2343 -0.0701
 2162SOL    HW117945   3.598   1.115   3.942  0.5846  0.6754  1.1238
 2162SOL    HW217946   3.705   1.094   4.035 -0.5206  0.6844 -0.3564
 2163SOL     OW17947   1.311   0.196   3.164 -0.6025  0.3486 -0.3594
 2163SOL    HW117948   1.234   0.140   3.166 -2.6925  3.2711  1.7980
 2163SOL    HW217949   1.264   0.279   3.175  0.2895  0.9668 -1.1411
 2164SOL     OW17950   3.252   2.896   3.238 -0.4601 -0.1973  0.1323
 2164SOL    HW117951   3.213   2.949   3.168 -0.9224 -0.4298  0.2153
 2164SOL    HW217952   3.190   2.823   3.240  2.1379 -2.4102 -1.6298
 2165SOL     OW17953   4.108   0.699  15.879  0.4768  0.0545  0.3772
 2165SOL    HW117954   4.109   0.785  15.920 -1.3176 -0.8074  2.1963
 2165SOL    HW217955   4.024   0.677  15.919  0.2744  3.9017  1.9983
 2166SOL     OW17956   4.315   1.250  15.916  0.3643 -0.1531  0.2110
 2166SOL    HW117957   4.251   1.187  15.884 -0.2153 -0.5718  2.2526
 2166SOL    HW217958   4.278   1.331  15.881 -0.0214 -0.4858 -0.1488
 2167SOL     OW17959   0.581   0.929   7.437  0.2223 -0.2117  0.9001
 2167SOL    HW117960   0.610   0.948   7.348 -2.5898  0.1559  0.0568
 2167SOL    HW217961   0.651   0.946   7.499  0.8620 -0.6073  0.2864
 2168SOL     OW17962   3.839   4.440  12.640 -0.7791 -0.5152 -0.1332
 2168SOL    HW117963   3.820   4.496  12.715 -1.3487  0.8579 -1.3240
 2168SOL    HW217964   3.806   4.486  12.563  2.7777 -1.5406 -2.3108
 2169SOL     OW17965   0.092   0.642   5.351  0.1553  0.3974  0.3122
 2169SOL    HW117966   0.048   0.566   5.313  0.2953 -0.2072  1.3591
 2169SOL    HW217967   0.135   0.602   5.426 -1.9534 -1.9271  0.2666
 2170SOL     OW17968   4.540   0.347   3.394  0.1838  0.6687  0.0351
 2170SOL    HW117969   4.632   0.367   3.379 -0.1218  1.9659 -0.1275
 2170SOL    HW217970   4.528   0.303   3.310 -0.6755 -2.4294  1.7927
 2171SOL     OW17971   2.906   0.645   4.139  0.4195  0.0529 -0.1932
 2171SOL    HW117972   2.861   0.595   4.206  1.3566 -0.0123  0.3949
 2171SOL    HW217973   2.855   0.726   4.142 -1.6182 -1.1430 -2.5897
 2172SOL     OW17974   3.423   0.493  11.771 -0.1463  0.6901 -0.1065
 2172SOL    HW117975   3.502   0.537  11.802 -2.4063  3.0319  2.2619
 2172SOL    HW217976   3.427   0.501  11.676 -0.8877 -3.3032 -0.5064
 2173SOL     OW17977   2.175   0.850   4.575 -0.0709 -0.2450 -0.6692
 2173SOL    HW117978   2.244   0.786   4.587 -0.1996 -0.2661 -0.0819
 2173SOL    HW217979   2.107   0.805   4.625  1.0297 -0.0374  0.9779
 2174SOL     OW17980   1.685   3.154   5.214 -0.1815 -0.3334 -0.3056
 2174SOL    HW117981   1.704   3.088   5.147 -0.2522 -0.6318 -0.0301
 2174SOL    HW217982   1.596   3.185   5.193 -1.8127 -2.4609  3.5398
 2175SOL     OW17983   1.917   0.517   8.668 -0.5196 -0.6192  0.3310
 2175SOL    HW117984   1.938   0.428   8.641  0.5461  0.4480 -2.3479
 2175SOL    HW217985   2.000   0.549   8.705  1.0511 -0.5031 -3.2567
 2176SOL     OW17986   1.266   3.930   7.457  0.7944  1.1009  0.3389
 2176SOL    HW117987   1.173   3.909   7.451  0.7648  1.3582 -0.1612
 2176SOL    HW217988   1.289   3.977   7.377  1.1638  1.7473  0.8272
 2177SOL     OW17989   0.232   1.074   6.081 -0.4538  0.2078 -0.3357
 2177SOL    HW117990   0.305   1.056   6.022 -0.3332  0.5968 -0.3061
 2177SOL    HW217991   0.223   0.997   6.136 -2.0686  0.3903 -0.3510
 2178SOL     OW17992   1.333   2.561   6.071 -0.1187  0.1403 -0.1241
 2178SOL    HW117993   1.260   2.510   6.107  0.6024 -1.0111 -0.3017
 2178SOL    HW217994   1.286   2.627   6.019  0.3165  1.1590  0.7634
 2179SOL     OW17995   4.720   1.797   5.170 -0.0632  0.1084  0.2292
 2179SOL    HW117996   4.667   1.777   5.247  0.9643 -0.5299  0.7781
 2179SOL    HW217997   0.041   1.875   5.203 -1.2644  0.8955 -0.0613
 2180SOL     OW17998   0.286   4.598   4.466 -0.0353 -0.0761 -0.1386
 2180SOL    HW117999   0.209   4.655   4.464  0.5132  0.5658 -2.2021
 2180SOL    HW218000   0.317   4.608   4.377 -0.6646 -2.5717 -0.6237
 2181SOL     OW18001   3.034   2.378   2.316 -0.3271  0.5200 -0.5144
 2181SOL    HW118002   3.074   2.426   2.243  0.7453  0.7808  0.2569
 2181SOL    HW218003   3.033   2.289   2.279 -1.3061 -0.9182  3.0153
 2182SOL     OW18004   3.878   3.737   2.795  0.3057  0.3937  0.4143
 2182SOL    HW118005   3.966   3.701   2.802  0.5664  1.2115  1.2240
 2182SOL    HW218006   3.832   3.679   2.856  1.3414 -1.3579 -0.4609
 2183SOL     OW18007   0.548   0.905   1.154 -0.4986 -0.9683 -0.5409
 2183SOL    HW118008   0.560   0.977   1.215  1.1921 -0.8751 -0.9829
 2183SOL    HW218009   0.599   0.833   1.192 -1.8503 -2.0131 -0.6841
 2184SOL     OW18010   1.107   1.721   3.047  0.2441  0.5326  0.5174
 2184SOL    HW118011   1.181   1.666   3.071  0.4495 -0.1985 -1.8001
 2184SOL    HW218012   1.041   1.654   3.030 -2.3069  2.6023  2.1610
 2185SOL     OW18013   2.308   4.285   8.837 -0.3326 -0.1758  0.1449
 2185SOL    HW118014   2.230   4.338   8.853  0.4261  0.3532  2.0486
 2185SOL    HW218015   2.267   4.216   8.785 -3.0654  1.8140 -0.3219
 2186SOL     OW18016   1.555   0.592   4.677 -0.0452  0.2477  0.0784
 2186SOL    HW118017   1.529   0.505   4.648  1.7111 -0.8734  1.8852
 2186SOL    HW218018   1.474   0.640   4.692  0.4575  1.3677 -0.7306
 2187SOL     OW18019   3.335   0.279   3.999  0.2467  0.3752  0.1363
 2187SOL    HW118020   3.302   0.241   3.918 -0.0955 -0.1697  0.5346
 2187SOL    HW218021   3.295   0.367   3.996  1.2499  0.8157 -0.1585
 2188SOL     OW18022   3.409   2.114   5.006 -0.2334 -0.5749  0.2299
 2188SOL    HW118023   3.341   2.073   5.059 -0.4615 -1.9669 -1.1593
 2188SOL    HW218024   3.448   2.036   4.967  0.2979 -0.5696  0.7489
 2189SOL     OW18025   3.322   0.883   8.854 -0.8561  0.0501  0.1698
 2189SOL    HW118026   3.338   0.869   8.947  2.4220  1.6050 -0.1688
 2189SOL    HW218027   3.308   0.793   8.824 -0.6826  1.2168 -3.5036
 2190SOL     OW18028   2.864   2.385   4.632  0.2067 -0.0040  0.1424
 2190SOL    HW118029   2.820   2.346   4.707  1.0282 -2.2624 -0.5703
 2190SOL    HW218030   2.827   2.473   4.624 -1.1548 -0.5701  0.1596
 2191SOL     OW18031   1.407   0.408   7.764 -0.3657  0.2946 -0.0458
 2191SOL    HW118032   1.427   0.327   7.810 -3.1092  0.4297  1.4078
 2191SOL    HW218033   1.466   0.470   7.807  0.9349 -1.3019  0.4527
 2192SOL     OW18034   1.374   2.937  12.474 -0.2852 -0.0124 -0.1031
 2192SOL    HW118035   1.396   3.022  12.436  1.3946 -0.3686  0.0864
 2192SOL    HW218036   1.281   2.950  12.492 -0.1577  0.2716  0.3575
 2193SOL     OW18037   3.316   2.412  12.433 -0.3178  1.1119  0.2717
 2193SOL    HW118038   3.282   2.329  12.468  0.4341  0.5961 -0.2383
 2193SOL    HW218039   3.257   2.480  12.467 -0.5257  0.4044  1.3350
 2194SOL     OW18040   2.969   1.058   1.938 -0.0667 -0.2047 -0.3669
 2194SOL    HW118041   2.980   0.975   1.891 -3.0033  0.0906 -1.6183
 2194SOL    HW218042   2.980   1.116   1.863 -1.2899  2.5492  1.6012
 2195SOL     OW18043   4.017   2.298   9.253 -0.3055  0.2844 -0.3775
 2195SOL    HW118044   3.962   2.293   9.175 -0.0603 -2.4378 -0.3902
 2195SOL    HW218045   3.978   2.224   9.300 -0.8170  0.0485 -1.1751
 2196SOL     OW18046   4.654   3.417  15.886 -0.1115 -0.1789 -0.1694
 2196SOL    HW118047   4.650   3.437  15.793 -0.8032 -0.5920 -0.2311
 2196SOL    HW218048   0.021   3.388  15.899 -0.7061 -1.7443  0.5622
 2197SOL     OW18049   0.676   3.910   8.049  0.6321 -0.2656 -0.5157
 2197SOL    HW118050   0.691   3.974   7.979  0.8073  0.0824 -0.1606
 2197SOL    HW218051   0.629   3.966   8.111 -1.4370 -0.5875 -1.8062
 2198SOL     OW18052   4.152   3.137   2.758  0.1677 -0.4503 -0.1351
 2198SOL    HW118053   4.235   3.102   2.725 -0.9723 -2.6884 -0.5873
 2198SOL    HW218054   4.096   3.066   2.728  1.4927 -2.0657  1.2121
 2199SOL     OW18055   3.043   3.228  12.068  0.2337 -0.1802  0.2024
 2199SOL    HW118056   2.964   3.262  12.110  0.0810  0.9810 -1.0212
 2199SOL    HW218057   2.997   3.186  11.995 -1.3112  0.8118  0.6183
 2200SOL     OW18058   2.663   0.314   5.470  0.4041 -0.5481 -0.2640
 2200SOL    HW118059   2.729   0.333   5.537 -0.3940  0.0934  0.3333
 2200SOL    HW218060   2.589   0.357   5.511  0.0983  0.4343 -1.8343
 2201SOL     OW18061   2.482   1.565   0.695  0.2728 -0.1217 -0.0312
 2201SOL    HW118062   2.539   1.627   0.741  0.0185 -0.8794  1.2944
 2201SOL    HW218063   2.429   1.535   0.770  0.4870  0.6715  0.4432
 2202SOL     OW18064   0.357   0.249   3.591 -0.5925 -0.1928 -0.2278
 2202SOL    HW118065   0.279   0.305   3.591 -0.3227  0.1739 -2.0476
 2202SOL    HW218066   0.422   0.308   3.554 -0.5390 -0.8836 -1.2425
 2203SOL     OW18067   1.273   1.282   8.748 -0.4304  0.3056 -0.6026
 2203SOL    HW118068   1.212   1.299   8.819  0.1972 -1.0957  0.2874
 2203SOL    HW218069   1.234   1.214   8.694 -2.0221 -0.6296  1.7102
 2204SOL     OW18070   0.030   2.929   4.469 -0.3171  0.6348  0.6200
 2204SOL    HW118071   4.691   2.886   4.528 -0.6027 -0.1202 -0.2300
 2204SOL    HW218072   0.108   2.903   4.519 -0.7714 -2.4794 -0.3321
 2205SOL     OW18073   4.667   1.089   2.355 -0.0263 -0.4766 -0.0670
 2205SOL    HW118074   0.028   1.077   2.310  0.2162 -1.1392  0.5509
 2205SOL    HW218075   4.679   1.174   2.395 -0.1342  1.4108 -4.0318
 2206SOL     OW18076   3.731   3.711   9.743 -0.2455  0.1163 -0.1298
 2206SOL    HW118077   3.769   3.790   9.704  0.1128 -0.6541 -1.3328
 2206SOL    HW218078   3.703   3.666   9.664 -1.5820  0.2567  0.2620
 2207SOL     OW18079   1.712   4.130   7.057 -0.4197 -0.4437 -0.1057
 2207SOL    HW118080   1.761   4.049   7.073 -3.5034 -2.1854  0.5068
 2207SOL    HW218081   1.780   4.189   7.025 -0.4404 -0.4294 -0.1230
 2208SOL     OW18082   0.978   1.557  16.065  0.1397  0.5484 -0.0575
 2208SOL    HW118083   0.959   1.611  15.988 -0.1988 -1.7692 -1.6048
 2208SOL    HW218084   1.033   1.613  16.120 -1.0282  0.4821  1.1739
 2209SOL     OW18085   4.649   2.866   7.718  0.4501  1.1181  0.0127
 2209SOL    HW118086   4.604   2.785   7.694  0.9126  0.1349  2.4280
 2209SOL    HW218087   4.717   2.861   7.650 -0.8322  3.3352 -1.4373
 2210SOL     OW18088   3.056   1.264   6.276 -0.2956  0.0420 -0.3566
 2210SOL    HW118089   2.970   1.305   6.267 -0.8833 -1.0132  0.3398
 2210SOL    HW218090   3.064   1.249   6.182  1.7712 -0.4735 -0.1083
 2211SOL     OW18091   3.784   1.321   8.174  0.6315  0.6501  0.2606
 2211SOL    HW118092   3.729   1.370   8.235 -2.7581 -1.4921 -1.0739
 2211SOL    HW218093   3.798   1.241   8.225 -1.1664  0.2768  0.1762
 2212SOL     OW18094   3.000   0.820   4.353 -0.0264 -0.0102  0.1630
 2212SOL    HW118095   2.932   0.883   4.328  0.0960 -0.6897 -1.9034
 2212SOL    HW218096   3.027   0.787   4.267  2.5024  0.8218  0.6169
 2213SOL     OW18097   4.374   2.514   3.775  0.2890 -0.0524 -0.0927
 2213SOL    HW118098   4.372   2.609   3.768 -0.7418  0.2022  3.8598
 2213SOL    HW218099   4.350   2.491   3.685  2.9443  0.6398 -0.9697
 2214SOL     OW18100   2.267   1.761   4.565 -0.1637 -0.3795  0.2142
 2214SOL    HW118101   2.175   1.750   4.589 -0.8291 -0.3887 -2.3426
 2214SOL    HW218102   2.267   1.856   4.564  2.6441 -0.3772 -0.8649
 2215SOL     OW18103   2.593   0.195   7.738  0.0983 -0.5494 -0.3366
 2215SOL    HW118104   2.675   0.168   7.780  0.1917  0.7222  0.2951
 2215SOL    HW218105   2.570   0.126   7.676 -2.9034  0.6987 -0.5948
 2216SOL     OW18106   1.428   1.215   9.370 -0.4299  0.3555  0.3840
 2216SOL    HW118107   1.464   1.182   9.452 -0.9164 -1.7096 -0.2448
 2216SOL    HW218108   1.360   1.273   9.404 -0.2961  0.7876 -0.0746
 2217SOL     OW18109   3.111   1.112   5.789  0.1646 -0.0844 -0.3293
 2217SOL    HW118110   3.134   1.187   5.734  0.5451 -0.2091 -0.3336
 2217SOL    HW218111   3.198   1.097   5.827 -0.1801 -0.6403  0.2508
 2218SOL     OW18112   3.518   3.042  15.418 -0.3083  0.1694 -0.1772
 2218SOL    HW118113   3.466   2.981  15.471  3.0903 -1.4633  1.2645
 2218SOL    HW218114   3.456   3.068  15.350 -0.9883  0.5583  0.5901
 2219SOL     OW18115   0.213   2.196  10.289 -0.0965 -0.0372 -0.0738
 2219SOL    HW118116   0.185   2.111  10.323  0.2639  0.4037  1.3385
 2219SOL    HW218117   0.137   2.251  10.307  0.1799  0.6665 -1.0189
 2220SOL     OW18118   3.077   3.789   1.163  0.0023 -0.4332  0.1055
 2220SOL    HW118119   3.089   3.715   1.103  0.6101  0.0382 -0.3544
 2220SOL    HW218120   3.000   3.837   1.133 -0.6078 -1.1696  0.4985
 2221SOL     OW18121   0.160   4.312   4.375 -0.0881  0.5945  0.3118
 2221SOL    HW118122   0.098   4.247   4.343  1.5898 -0.2433 -1.2561
 2221SOL    HW218123   0.239   4.288   4.326  0.4869  1.6423  0.7233
 2222SOL     OW18124   1.967   4.314   7.331 -0.1507  0.3276  0.3785
 2222SOL    HW118125   1.883   4.278   7.303 -1.2826  1.2553  2.5765
 2222SOL    HW218126   2.024   4.276   7.265  0.1244  0.3447  0.6053
 2223SOL     OW18127   4.649   2.768  10.374 -0.1935  0.0570 -0.5781
 2223SOL    HW118128   0.011   2.776  10.330  0.1352 -0.6152 -0.0693
 2223SOL    HW218129   4.657   2.708  10.448 -0.1107 -0.3810 -0.9441
 2224SOL     OW18130   1.105   4.585   5.571 -0.4223 -0.1050  0.3242
 2224SOL    HW118131   1.018   4.564   5.538 -0.0518 -1.4400  0.2324
 2224SOL    HW218132   1.125   4.651   5.504 -0.2207 -0.5649 -0.0651
 2225SOL     OW18133   1.412   2.448   0.358  0.0445 -0.1572  0.0203
 2225SOL    HW118134   1.406   2.505   0.282  0.1880  0.1515  0.2419
 2225SOL    HW218135   1.329   2.474   0.396  1.2357  0.9489  1.8698
 2226SOL     OW18136   2.214   3.243   8.635  0.1963 -0.1480 -0.0487
 2226SOL    HW118137   2.235   3.210   8.548  0.8828  0.3653 -0.0811
 2226SOL    HW218138   2.125   3.274   8.618  0.7293  0.9968 -0.7866
 2227SOL     OW18139   3.654   1.506   7.318  0.0127  0.5322  0.0137
 2227SOL    HW118140   3.691   1.538   7.236  1.0480  1.2583  0.7649
 2227SOL    HW218141   3.576   1.563   7.319  0.8439  1.6812 -0.8538
 2228SOL     OW18142   4.245   4.667   6.424  0.1877  0.2655  0.2505
 2228SOL    HW118143   4.208   4.588   6.465 -0.9016  1.4179  1.4820
 2228SOL    HW218144   4.168   0.001   6.414  1.5475  2.5247  2.6988
 2229SOL     OW18145   4.264   1.859  11.634 -0.3674 -0.2559 -0.2949
 2229SOL    HW118146   4.227   1.941  11.667 -1.6275  0.3818 -3.2852
 2229SOL    HW218147   4.217   1.853  11.551 -0.9021  0.0196 -0.0099
 2230SOL     OW18148   3.194   2.345   9.000  0.0847  0.2933  0.3856
 2230SOL    HW118149   3.100   2.358   8.991  0.0477 -0.5566 -0.4831
 2230SOL    HW218150   3.189   2.282   9.072 -0.6470 -1.0028 -0.8064
 2231SOL     OW18151   2.595   2.533   1.103 -0.0172 -0.4926 -0.1330
 2231SOL    HW118152   2.627   2.512   1.016 -2.9184 -0.2918 -1.2698
 2231SOL    HW218153   2.669   2.519   1.161  0.3816  0.4329 -0.4112
 2232SOL     OW18154   4.068   4.350   4.124  0.0667 -0.4776 -0.6111
 2232SOL    HW118155   4.115   4.283   4.075 -0.1531 -1.1964  0.1732
 2232SOL    HW218156   4.088   4.419   4.060 -0.0399 -1.6925 -1.9340
 2233SOL     OW18157   4.262   0.901   3.771  0.1017 -0.1957 -0.0878
 2233SOL    HW118158   4.354   0.893   3.748  0.3013  0.7455  0.3611
 2233SOL    HW218159   4.213   0.863   3.698  2.0663 -0.8751 -1.0378
 2234SOL     OW18160   3.257   0.826   4.869  0.5837  0.0957 -0.1933
 2234SOL    HW118161   3.321   0.895   4.853 -0.7921  1.1668 -1.1247
 2234SOL    HW218162   3.220   0.819   4.780 -0.5369  0.0409  0.2812
 2235SOL     OW18163   1.129   3.081   5.942 -0.0430  0.3803 -0.1655
 2235SOL    HW118164   1.165   3.170   5.939  0.8344  0.0310  0.0990
 2235SOL    HW218165   1.050   3.091   5.995  0.0254 -1.6486  0.2855
 2236SOL     OW18166   1.167   3.968   0.160  0.0520 -0.0988  0.1359
 2236SOL    HW118167   1.148   4.032   0.229 -1.5856  0.4382 -0.8071
 2236SOL    HW218168   1.091   3.911   0.170 -1.0736  1.4956  0.7307
 2237SOL     OW18169   1.231   0.495  11.296  0.0248 -0.0217  0.6172
 2237SOL    HW118170   1.294   0.532  11.358  1.1921  0.6404 -0.9620
 2237SOL    HW218171   1.232   0.564  11.231 -0.5545 -1.4686 -0.9244
 2238SOL     OW18172   0.871   2.293  10.592  0.2200  0.3878  0.1793
 2238SOL    HW118173   0.880   2.380  10.552 -0.5852 -1.1432 -3.3483
 2238SOL    HW218174   0.875   2.314  10.685 -0.8884  0.6905  0.1630
 2239SOL     OW18175   2.484   4.707   8.750  0.0146  0.4941 -0.6504
 2239SOL    HW118176   2.391   4.711   8.725 -0.1286 -0.1798 -0.2054
 2239SOL    HW218177   2.480   0.039   8.828  1.6406  0.3006 -0.4340
 2240SOL     OW18178   3.758   3.455   0.413  0.2113 -0.1394 -0.5890
 2240SOL    HW118179   3.723   3.377   0.457 -1.0274  0.6579 -0.1415
 2240SOL    HW218180   3.850   3.434   0.423  0.4597  1.6983  1.0766
 2241SOL     OW18181   2.047   0.785  11.702  0.3267 -0.0422  0.2741
 2241SOL    HW118182   2.048   0.863  11.647  0.7105 -0.4168 -0.2654
 2241SOL    HW218183   1.973   0.807  11.759 -0.4494 -1.1749 -0.2915
 2242SOL     OW18184   3.129   3.184   7.895 -0.6528 -0.1590 -0.5269
 2242SOL    HW118185   3.115   3.245   7.968 -0.3298  2.3919 -2.5885
 2242SOL    HW218186   3.223   3.168   7.898  0.2688  4.8529 -1.5670
 2243SOL     OW18187   1.526   1.076  10.302  0.2601  0.1361 -0.0300
 2243SOL    HW118188   1.518   1.165  10.269 -0.6064  1.0178  2.5523
 2243SOL    HW218189   1.612   1.090  10.341 -0.4303  2.0174  0.8199
 2244SOL     OW18190   1.389   2.243   5.746  0.9547  0.2943 -0.0202
 2244SOL    HW118191   1.338   2.322   5.726  0.7238  0.2979  0.5904
 2244SOL    HW218192   1.469   2.284   5.777  1.2597  0.0150 -0.4445
 2245SOL     OW18193   1.159   1.114   7.493 -0.2193 -0.8196 -0.4211
 2245SOL    HW118194   1.183   1.136   7.583 -1.5843 -1.3212  0.0660
 2245SOL    HW218195   1.206   1.173   7.434 -0.1129 -0.4022  0.0726
 2246SOL     OW18196   0.051   0.034   4.453 -0.0415  0.0105  0.3252
 2246SOL    HW118197   0.015   0.003   4.370 -0.7442 -0.5934  0.8576
 2246SOL    HW218198   4.706   0.093   4.486  0.3770  0.0866  1.0718
 2247SOL     OW18199   1.407   2.455   3.476  0.8166  0.6109 -0.2809
 2247SOL    HW118200   1.449   2.419   3.397  1.7215 -0.0225  0.4923
 2247SOL    HW218201   1.356   2.380   3.505  0.3824  0.8866 -0.3425
 2248SOL     OW18202   3.716   4.661   3.606  0.9576 -0.0230 -0.3573
 2248SOL    HW118203   3.761   0.015   3.639  0.1772  0.1873  0.2035
 2248SOL    HW218204   3.744   4.596   3.670 -1.2208 -1.1688 -0.5406
 2249SOL     OW18205   4.263   1.686   5.417 -0.1817  1.0405 -0.4534
 2249SOL    HW118206   4.239   1.680   5.325 -0.4107 -0.1161 -0.3317
 2249SOL    HW218207   4.187   1.731   5.456  0.5381  2.9024 -1.2282
 2250SOL     OW18208   3.889   4.631   5.762 -0.1805  0.2122  0.4506
 2250SOL    HW118209   3.958   4.600   5.820 -0.1569  0.7168  0.6930
 2250SOL    HW218210   3.901   0.002   5.744  0.8483 -0.1721 -0.8847
 2251SOL     OW18211   2.791   2.864   0.222  0.2153  0.4159  0.2541
 2251SOL    HW118212   2.755   2.950   0.244  0.3159  0.8188 -1.1847
 2251SOL    HW218213   2.884   2.871   0.242  0.3679 -0.5697 -0.1076
 2252SOL     OW18214   0.545   0.661   7.283  0.1460  0.1085 -0.3389
 2252SOL    HW118215   0.521   0.697   7.369 -0.4698 -3.3814  0.9649
 2252SOL    HW218216   0.561   0.743   7.237 -1.7816 -1.2156 -3.3576
 2253SOL     OW18217   2.260   0.605   3.342  0.5601  0.0835  0.0432
 2253SOL    HW118218   2.248   0.584   3.250  0.7511  1.6660 -0.3575
 2253SOL    HW218219   2.255   0.519   3.383  2.8352  0.1807  0.5380
 2254SOL     OW18220   4.157   2.544  10.242 -0.0645  0.4898 -0.2196
 2254SOL    HW118221   4.191   2.622  10.287 -0.3942 -0.0380  0.9371
 2254SOL    HW218222   4.157   2.473  10.306  1.2192  1.9577  1.3968
 2255SOL     OW18223   1.404   3.496   5.990  0.1114 -0.0461  0.4091
 2255SOL    HW118224   1.408   3.552   6.068  0.3336  0.1824  0.2354
 2255SOL    HW218225   1.400   3.566   5.925  1.5614  1.0248  1.4623
 2256SOL     OW18226   2.090   0.516   2.270  0.2902 -0.1864 -0.5185
 2256SOL    HW118227   2.148   0.505   2.346 -0.6509 -0.4900  0.1524
 2256SOL    HW218228   2.113   0.433   2.228 -0.2787 -0.5367 -0.1372
 2257SOL     OW18229   3.389   3.473  10.236  0.4446  0.0022 -0.0924
 2257SOL    HW118230   3.481   3.493  10.223  0.3775  1.6065  1.8398
 2257SOL    HW218231   3.372   3.539  10.304  1.8151 -0.7444  0.9724
 2258SOL     OW18232   4.137   3.032   3.712 -0.4656 -0.2351 -0.3873
 2258SOL    HW118233   4.114   3.023   3.804  0.1928 -0.4108 -0.2391
 2258SOL    HW218234   4.126   2.942   3.680 -1.4549  0.3271 -1.6227
 2259SOL     OW18235   2.013   1.522   6.795  0.0732  0.2317 -0.8764
 2259SOL    HW118236   2.093   1.471   6.779 -0.5408 -0.5666 -1.4562
 2259SOL    HW218237   2.042   1.591   6.854 -2.4812 -0.7311  1.5141
 2260SOL     OW18238   0.666   0.230   9.156 -0.3085  0.3052  0.0893
 2260SOL    HW118239   0.755   0.238   9.191 -0.3576  0.9734  0.0696
 2260SOL    HW218240   0.615   0.209   9.234 -0.6856 -1.3984 -0.6141
 2261SOL     OW18241   3.685   0.584  11.947  0.4841  0.5385  0.0412
 2261SOL    HW118242   3.685   0.680  11.953  1.1102  0.5395  0.0503
 2261SOL    HW218243   3.711   0.564  12.036  2.1267 -1.2001 -0.8440
 2262SOL     OW18244   1.223   2.380  10.754 -0.4700  0.4490 -0.2253
 2262SOL    HW118245   1.171   2.342  10.825 -0.3529 -0.7006 -0.7492
 2262SOL    HW218246   1.280   2.440  10.802 -0.7198  1.5501 -1.3114
 2263SOL     OW18247   3.453   2.641   5.742  0.1659  0.2417 -0.4846
 2263SOL    HW118248   3.422   2.554   5.768  0.7613  0.0616 -0.3610
 2263SOL    HW218249   3.483   2.680   5.824  1.1590 -1.3524 -0.0865
 2264SOL     OW18250   0.685   0.846  13.061 -0.3528  0.0810  0.0486
 2264SOL    HW118251   0.748   0.774  13.072 -1.9677 -1.6385 -1.9740
 2264SOL    HW218252   0.720   0.914  13.119 -1.6405 -0.9619  2.0221
 2265SOL     OW18253   1.796   0.283   5.026  0.1179 -0.5610  1.1497
 2265SOL    HW118254   1.864   0.247   5.084  2.7557  1.6723 -0.5308
 2265SOL    HW218255   1.715   0.285   5.077 -1.3742 -0.2326 -1.2309
 2266SOL     OW18256   3.392   2.027   1.405  0.1298  0.1195  0.3455
 2266SOL    HW118257   3.301   2.031   1.377 -0.1046  0.9448  1.2224
 2266SOL    HW218258   3.433   2.033   1.318  1.7423 -0.4145  1.0680
 2267SOL     OW18259   4.510   2.956   3.435 -0.2531 -0.2350  0.7744
 2267SOL    HW118260   4.426   2.921   3.403 -0.2101 -0.0700  0.4842
 2267SOL    HW218261   4.490   3.020   3.504 -2.7959 -0.3278  0.1208
 2268SOL     OW18262   4.195   4.209   7.754  0.3590 -0.3594 -0.3644
 2268SOL    HW118263   4.151   4.247   7.678 -1.2885 -1.7515 -0.1158
 2268SOL    HW218264   4.286   4.232   7.739  0.7793 -2.0838 -0.4245
 2269SOL     OW18265   2.564   4.656   6.526  0.0316 -0.6049  0.1396
 2269SOL    HW118266   2.639   4.598   6.539  0.0455 -0.9405 -1.4610
 2269SOL    HW218267   2.543   4.633   6.436 -0.1339 -0.5243  0.1572
 2270SOL     OW18268   0.439   0.952  17.678 -0.1007  0.0278  0.1027
 2270SOL    HW118269   0.441   1.046  17.692  0.6704 -0.3533  2.5759
 2270SOL    HW218270   0.353   0.946  17.636 -0.4745  1.9547  0.5903
 2271SOL     OW18271   0.660   3.511   4.002  0.1801 -0.7966  0.0464
 2271SOL    HW118272   0.690   3.564   4.076 -1.3065  0.3512 -0.1828
 2271SOL    HW218273   0.685   3.425   4.037  0.6108 -0.4627  0.5761
 2272SOL     OW18274   1.641   1.034   9.002  0.3967 -0.3384 -0.6544
 2272SOL    HW118275   1.662   0.963   8.941  2.1364  0.6541 -1.2208
 2272SOL    HW218276   1.683   1.110   8.961  0.7376 -1.7655 -2.9222
 2273SOL     OW18277   1.211   2.631   4.201  0.2781 -0.6420  0.8347
 2273SOL    HW118278   1.130   2.681   4.211 -1.6311 -3.0742 -2.2454
 2273SOL    HW218279   1.169   2.548   4.178  0.5491 -0.7222  0.6302
 2274SOL     OW18280   2.933   0.406  12.019 -0.5332 -0.6678 -0.2274
 2274SOL    HW118281   2.907   0.497  12.025 -0.1509 -0.6351  0.8944
 2274SOL    HW218282   3.003   0.421  11.956 -0.2157  3.0358  1.0424
 2275SOL     OW18283   1.086   3.174   7.458 -0.5472 -0.3632 -0.5457
 2275SOL    HW118284   1.102   3.088   7.418  1.2217 -1.1619  1.8849
 2275SOL    HW218285   1.072   3.228   7.380 -2.0148 -0.7545 -0.5696
 2276SOL     OW18286   0.817   3.613  12.206  0.0400  0.4058 -0.2001
 2276SOL    HW118287   0.803   3.693  12.258  1.4370  0.8538 -0.5018
 2276SOL    HW218288   0.857   3.652  12.128 -0.5076  2.0833  0.3549
 2277SOL     OW18289   3.878   4.715   6.436 -0.0182 -0.6674  0.2380
 2277SOL    HW118290   3.907   0.007   6.526  1.4099 -1.3541 -0.1234
 2277SOL    HW218291   3.808   4.651   6.452 -1.3078  1.0586  1.4921
 2278SOL     OW18292   2.039   2.801   9.099 -0.2594  0.2726 -0.1357
 2278SOL    HW118293   2.120   2.784   9.050  0.2258  0.3906  0.6314
 2278SOL    HW218294   1.982   2.761   9.033 -0.8678  0.5960  0.1949
 2279SOL     OW18295   0.967   1.055   6.410 -0.4864 -1.0988 -0.4912
 2279SOL    HW118296   0.878   1.087   6.427 -0.5575 -1.3119 -0.4689
 2279SOL    HW218297   0.994   1.105   6.332  1.4310 -2.0191 -0.4089
 2280SOL     OW18298   1.037   3.187   5.207  0.3190  0.0959  0.4724
 2280SOL    HW118299   1.056   3.115   5.146 -1.7053 -0.0896  0.0562
 2280SOL    HW218300   0.977   3.135   5.261 -0.4961  0.4849 -0.0745
 2281SOL     OW18301   0.416   0.021  11.813  0.1901  0.5260 -0.4940
 2281SOL    HW118302   0.326   0.045  11.790 -0.6543 -0.9072  1.3351
 2281SOL    HW218303   0.436   4.671  11.754  0.3548  0.6502 -0.5891
 2282SOL     OW18304   4.150   1.736   9.037 -0.3392 -0.0166 -0.3889
 2282SOL    HW118305   4.098   1.725   8.957 -0.9223 -2.0364  0.2988
 2282SOL    HW218306   4.233   1.773   9.007  0.4257 -0.5503  1.1040
 2283SOL     OW18307   3.153   1.536   4.609  0.7772  0.1202 -0.1435
 2283SOL    HW118308   3.158   1.456   4.555 -1.1967 -0.6187  0.7552
 2283SOL    HW218309   3.216   1.597   4.572 -0.6669  2.3150  1.0285
 2284SOL     OW18310   0.900   3.387   7.753  0.4224  1.1737 -0.2065
 2284SOL    HW118311   0.948   3.461   7.789  0.5210  0.2612  1.5265
 2284SOL    HW218312   0.977   3.336   7.729  0.1379 -0.1269  1.6175
 2285SOL     OW18313   1.814   2.918   3.741  0.5085 -0.0213  0.3564
 2285SOL    HW118314   1.733   2.868   3.732 -0.1887  1.1247  0.3390
 2285SOL    HW218315   1.780   3.004   3.766 -0.5376  0.1026 -1.4983
 2286SOL     OW18316   2.968   4.559   7.036 -0.2958  0.2849  0.6467
 2286SOL    HW118317   3.062   4.576   7.043 -0.6128  1.8067  1.3308
 2286SOL    HW218318   2.928   4.632   6.988  0.3977 -0.4134 -1.0119
 2287SOL     OW18319   0.246   3.190  16.776 -0.3295  0.2771 -0.3304
 2287SOL    HW118320   0.224   3.129  16.845 -0.5459  2.9644  1.9871
 2287SOL    HW218321   0.249   3.272  16.826 -0.4186 -0.5577  1.0402
 2288SOL     OW18322   2.830   1.398   6.216 -0.2103  0.1980  0.3823
 2288SOL    HW118323   2.761   1.354   6.265  1.4428 -2.9779 -0.0873
 2288SOL    HW218324   2.792   1.484   6.196  0.6486  0.4169 -0.3333
 2289SOL     OW18325   4.182   2.434   3.347 -0.1852  0.3203  0.1473
 2289SOL    HW118326   4.107   2.472   3.300 -0.6489 -0.9961 -0.1894
 2289SOL    HW218327   4.181   2.340   3.330 -0.0138  0.0758  1.4912
 2290SOL     OW18328   1.400   1.271   2.325  0.0734 -0.6030  0.6429
 2290SOL    HW118329   1.403   1.357   2.282 -0.9791 -0.9875 -0.2102
 2290SOL    HW218330   1.477   1.239   2.278 -0.7996  2.1797 -2.6989
 2291SOL     OW18331   4.648   0.951   1.377 -0.1747  0.4033 -0.7348
 2291SOL    HW118332   4.653   0.970   1.471  2.3008 -0.3950 -0.7031
 2291SOL    HW218333   4.576   1.005   1.345 -0.7714  0.0853  0.0705
 2292SOL     OW18334   1.119   2.196   3.220 -0.5621  0.6800  0.9724
 2292SOL    HW118335   1.072   2.240   3.149  1.4422  0.2662 -0.5966
 2292SOL    HW218336   1.178   2.142   3.167  1.4427  3.6527  0.2059
 2293SOL     OW18337   3.687   1.534  17.279 -0.0052  0.2586  0.1915
 2293SOL    HW118338   3.758   1.573  17.330 -1.2254  0.6378  1.6082
 2293SOL    HW218339   3.740   1.491  17.212  2.6200  2.8623  0.5763
 2294SOL     OW18340   1.012   0.142   7.217  0.3256 -0.7110 -0.2998
 2294SOL    HW118341   1.077   0.192   7.265 -0.7270 -0.9432  1.3635
 2294SOL    HW218342   1.077   0.093   7.167  0.0476 -0.5278 -0.8464
 2295SOL     OW18343   3.392   2.119   4.662 -0.7571  0.0111  0.0963
 2295SOL    HW118344   3.479   2.157   4.668 -1.9871  2.8705  0.1943
 2295SOL    HW218345   3.351   2.191   4.711 -0.6629  1.1155 -1.4045
 2296SOL     OW18346   1.068   2.513  13.401 -0.3539 -0.5380 -0.3942
 2296SOL    HW118347   1.048   2.476  13.315 -0.9985 -1.3750  0.1129
 2296SOL    HW218348   1.056   2.435  13.454 -0.2678  0.5540  1.2234
 2297SOL     OW18349   0.603   2.430   6.043  0.2732  0.2530  0.0481
 2297SOL    HW118350   0.621   2.456   5.953 -0.4253 -1.5584 -0.6181
 2297SOL    HW218351   0.538   2.495   6.071  0.1118  0.4276 -0.7228
 2298SOL     OW18352   3.677   3.743   0.001  0.0264  0.0633  0.3520
 2298SOL    HW118353   3.703   3.683   0.071  0.5680  0.0256  0.1245
 2298SOL    HW218354   3.714   3.684  17.627  1.2283  1.6945 -0.4213
 2299SOL     OW18355   3.009   1.024  10.385 -0.6141 -0.2735 -0.8130
 2299SOL    HW118356   3.084   0.978  10.422 -2.5906 -1.8386  1.2992
 2299SOL    HW218357   2.936   0.971  10.417  0.6494 -2.5829 -1.7367
 2300SOL     OW18358   1.109   1.183   6.638  0.8874 -0.4855 -0.3740
 2300SOL    HW118359   1.083   1.147   6.553 -0.1892 -1.3520  0.3148
 2300SOL    HW218360   1.164   1.260   6.625 -0.0177  0.3286  0.6428
 2301SOL     OW18361   0.950   1.048   2.646  0.2035  0.1474 -0.9966
 2301SOL    HW118362   1.036   1.012   2.665 -0.2982 -0.5787 -0.0583
 2301SOL    HW218363   0.936   1.047   2.551 -1.5743 -1.7256 -0.7203
 2302SOL     OW18364   2.744   3.236   6.807  0.3254 -0.5349  0.2419
 2302SOL    HW118365   2.714   3.212   6.719  1.6315  0.5817 -0.5188
 2302SOL    HW218366   2.769   3.327   6.791 -0.5441 -0.2632  0.4523
 2303SOL     OW18367   0.532   4.220  16.161  0.1642 -0.1827 -0.3195
 2303SOL    HW118368   0.576   4.146  16.120  0.2861  0.2820 -1.0222
 2303SOL    HW218369   0.525   4.195  16.253  0.7558 -1.5403 -0.6487
 2304SOL     OW18370   3.895   3.363   6.362  0.1391  0.1509  0.1591
 2304SOL    HW118371   3.951   3.402   6.295 -2.1333 -1.1733 -2.5288
 2304SOL    HW218372   3.881   3.439   6.419  0.2286 -0.0435  0.4410
 2305SOL     OW18373   1.733   1.675   5.217  0.3263 -0.1605  0.8630
 2305SOL    HW118374   1.821   1.653   5.246  0.1283 -0.7843  0.9925
 2305SOL    HW218375   1.675   1.612   5.258 -0.8234  0.5284  0.3203
 2306SOL     OW18376   2.616   3.467   6.410 -0.0947 -0.3051  0.2455
 2306SOL    HW118377   2.600   3.509   6.325 -0.4343  3.1081  1.9932
 2306SOL    HW218378   2.650   3.537   6.466 -1.2253  2.2958 -2.2561
 2307SOL     OW18379   2.482   3.100   6.593  0.2480 -0.0825  0.3640
 2307SOL    HW118380   2.407   3.044   6.573 -0.1163  0.9329 -1.1880
 2307SOL    HW218381   2.480   3.148   6.509  1.2322 -1.9429 -0.7085
 2308SOL     OW18382   2.616   4.676   8.505 -0.0031  0.3104 -0.0717
 2308SOL    HW118383   2.572   4.686   8.589  0.2131 -0.1377  0.0969
 2308SOL    HW218384   2.618   4.581   8.491  2.8992  0.3829 -0.1348
 2309SOL     OW18385   1.901   1.367  17.090 -0.0050  0.4758 -0.2924
 2309SOL    HW118386   1.826   1.309  17.103 -0.1830  0.8347  0.2958
 2309SOL    HW218387   1.973   1.329  17.141 -1.5095  0.4336  1.8428
 2310SOL     OW18388   0.084   0.649  13.591  0.2476 -0.2001  0.2678
 2310SOL    HW118389   0.050   0.592  13.522  0.1526 -2.0608  1.8605
 2310SOL    HW218390   0.024   0.722  13.577  0.7635  0.2184  0.2246
 2311SOL     OW18391   0.622   0.895   7.122  0.1328 -0.4669 -0.4141
 2311SOL    HW118392   0.560   0.935   7.061  1.5692  1.5650 -0.5334
 2311SOL    HW218393   0.673   0.837   7.067  0.6464 -3.0755  2.7999
 2312SOL     OW18394   2.717   2.389   5.423 -0.3181 -0.2085 -0.4407
 2312SOL    HW118395   2.740   2.328   5.354 -1.9769 -0.6170 -0.6479
 2312SOL    HW218396   2.800   2.425   5.455 -0.1641  0.1302 -1.2461
 2313SOL     OW18397   1.716   1.415  16.607 -0.2580  0.0717  0.3478
 2313SOL    HW118398   1.638   1.361  16.616 -0.6454  0.9063  1.8545
 2313SOL    HW218399   1.730   1.442  16.697  0.1025  3.3392 -0.6749
 2314SOL     OW18400   3.918   0.518   3.171 -0.0391 -0.0012 -1.0813
 2314SOL    HW118401   3.888   0.472   3.092  2.3133  0.4487 -2.2394
 2314SOL    HW218402   3.896   0.446   3.230 -0.6556 -2.1332 -3.9221
 2315SOL     OW18403   2.435   0.141   7.371  0.4759  0.4136  0.3472
 2315SOL    HW118404   2.354   0.106   7.407  0.1680  0.2836 -0.4639
 2315SOL    HW218405   2.466   0.057   7.337 -0.5775  0.5735 -1.0195
 2316SOL     OW18406   2.091   0.697  17.170 -0.0266 -0.6898 -0.0516
 2316SOL    HW118407   2.172   0.745  17.188 -0.7577  0.2352  0.7995
 2316SOL    HW218408   2.067   0.654  17.253 -0.5979 -1.4522 -0.6091
 2317SOL     OW18409   0.976   1.592   6.823 -0.3064 -0.0270  0.2698
 2317SOL    HW118410   1.029   1.603   6.902 -1.0251  0.9609  0.6087
 2317SOL    HW218411   0.972   1.497   6.815 -0.1540 -0.0389  0.3319
 2318SOL     OW18412   2.300   3.266  14.889 -0.2815  0.1445  0.1841
 2318SOL    HW118413   2.237   3.282  14.959  1.1480  0.1639  1.4605
 2318SOL    HW218414   2.251   3.290  14.810  1.1950 -0.9647 -1.0749
 2319SOL     OW18415   3.421   2.179   7.223  0.2320  0.2089  0.0601
 2319SOL    HW118416   3.404   2.270   7.247 -0.0776 -0.5470  2.7063
 2319SOL    HW218417   3.456   2.139   7.303 -0.3506 -2.4949 -1.0336
 2320SOL     OW18418   1.464   4.306  11.482 -0.5260 -0.4575  0.1644
 2320SOL    HW118419   1.420   4.294  11.397 -0.3362  1.4265 -0.2160
 2320SOL    HW218420   1.397   4.340  11.541  1.4986 -0.1778  2.2955
 2321SOL     OW18421   4.123   1.994  11.410  0.2365  0.3833  0.1420
 2321SOL    HW118422   4.202   1.966  11.364  0.6467  0.3612  0.8569
 2321SOL    HW218423   4.084   2.056  11.348 -2.2123 -2.7591 -1.4994
 2322SOL     OW18424   4.127   4.096  13.718  0.5755 -0.1599  0.3341
 2322SOL    HW118425   4.082   4.137  13.644 -1.9144 -0.1459  1.8406
 2322SOL    HW218426   4.083   4.129  13.796  1.9955 -0.4695  1.2593
 2323SOL     OW18427   0.918   2.510   5.008 -0.5203  0.1324 -0.0755
 2323SOL    HW118428   0.897   2.453   5.082 -0.7953 -0.2072 -0.4183
 2323SOL    HW218429   0.869   2.474   4.934  0.4586  1.1439 -1.2319
 2324SOL     OW18430   1.146   4.314   1.292  0.3704  0.0486 -0.2284
 2324SOL    HW118431   1.219   4.368   1.262 -0.6696  0.8010 -1.4067
 2324SOL    HW218432   1.069   4.352   1.250 -1.1773  0.5867  3.1834
 2325SOL     OW18433   1.592   2.792   0.305 -0.3408 -0.4288  0.2868
 2325SOL    HW118434   1.658   2.761   0.367  1.2494 -0.2509 -1.3197
 2325SOL    HW218435   1.623   2.756   0.222  0.2039  4.0766 -1.4681
 2326SOL     OW18436   0.560   0.740   2.610  0.5396 -0.9125  0.2308
 2326SOL    HW118437   0.509   0.670   2.652  0.8589 -1.0673  0.3686
 2326SOL    HW218438   0.634   0.761   2.668  2.8208 -1.6234 -2.4268
 2327SOL     OW18439   2.213   2.225   4.772  0.1197  0.2057 -0.4480
 2327SOL    HW118440   2.131   2.265   4.801  0.2259  0.6759 -0.7789
 2327SOL    HW218441   2.241   2.308   4.731  0.4143  1.0611  1.5020
 2328SOL     OW18442   2.532   3.585   6.702  0.1091 -0.4743 -0.0634
 2328SOL    HW118443   2.489   3.640   6.636 -0.2502  1.0965  1.4781
 2328SOL    HW218444   2.622   3.591   6.670  0.6260 -0.8749  1.3346
 2329SOL     OW18445   0.792   2.990   2.285 -0.0800  0.2240  0.6254
 2329SOL    HW118446   0.859   2.924   2.305  1.0288  1.8137  2.1841
 2329SOL    HW218447   0.814   3.029   2.201  1.0467 -1.6668  0.0581
 2330SOL     OW18448   3.014   1.690   7.913  0.2207 -0.2600 -0.0801
 2330SOL    HW118449   3.023   1.742   7.993 -0.7198 -1.8560  1.0631
 2330SOL    HW218450   2.931   1.714   7.872  1.2625 -0.0410 -2.0209
 2331SOL     OW18451   0.588   1.053  10.806  0.2020 -0.0695 -0.0652
 2331SOL    HW118452   0.580   1.025  10.715 -0.4856  1.0306 -0.3469
 2331SOL    HW218453   0.625   1.141  10.799 -0.2703 -0.0217 -1.7217
 2332SOL     OW18454   0.785   4.480   6.875 -0.0637 -0.2409  0.3153
 2332SOL    HW118455   0.876   4.494   6.846  0.1778 -2.5731 -0.0320
 2332SOL    HW218456   0.738   4.480   6.791  0.3175  1.2623  0.0921
 2333SOL     OW18457   4.530   3.129   7.231  0.0005 -0.0231 -0.1892
 2333SOL    HW118458   4.587   3.158   7.160  0.6866 -1.5895 -0.2782
 2333SOL    HW218459   4.574   3.158   7.311  1.2075 -1.0206 -0.4800
 2334SOL     OW18460   0.255   0.807   8.081  0.9977 -0.4589 -0.4780
 2334SOL    HW118461   0.268   0.887   8.031 -2.5456 -0.0143 -0.7042
 2334SOL    HW218462   0.308   0.755   8.021 -0.4997 -0.7034 -1.5710
 2335SOL     OW18463   3.802   2.386  14.637  0.1138  0.2274  0.0530
 2335SOL    HW118464   3.840   2.473  14.647 -0.2779  0.8561 -3.8953
 2335SOL    HW218465   3.723   2.387  14.691 -1.8178  1.9291 -2.8339
 2336SOL     OW18466   4.452   2.890  10.247 -0.3842 -0.4215 -0.3647
 2336SOL    HW118467   4.515   2.844  10.303 -0.3991 -2.0471 -1.6625
 2336SOL    HW218468   4.426   2.960  10.306  2.2536  0.5293 -0.3354
 2337SOL     OW18469   3.443   3.631   2.413 -0.0133  0.5254 -0.4097
 2337SOL    HW118470   3.405   3.719   2.421  1.5539  1.1086  0.6644
 2337SOL    HW218471   3.365   3.578   2.403 -1.4578  1.9328  3.5825
 2338SOL     OW18472   0.672   3.025   2.586  0.5495  0.1027 -0.4090
 2338SOL    HW118473   0.690   3.009   2.494  1.0548 -1.5163 -0.0248
 2338SOL    HW218474   0.757   3.057   2.617 -0.3963 -0.1635  2.4480
 2339SOL     OW18475   4.574   4.478   2.058  0.0261  0.3205 -1.1214
 2339SOL    HW118476   4.489   4.436   2.075  0.5254  0.9050  2.9329
 2339SOL    HW218477   4.557   4.533   1.982  0.2786  0.6750 -0.9194
 2340SOL     OW18478   4.571   2.899  12.065 -0.3423 -0.3065 -0.9269
 2340SOL    HW118479   4.594   2.809  12.089  0.3413  0.2290  0.4374
 2340SOL    HW218480   4.477   2.896  12.079  0.1863  0.1509  2.7135
 2341SOL     OW18481   2.238   0.595   3.769 -0.4378 -0.4485  0.1531
 2341SOL    HW118482   2.328   0.564   3.762 -0.3921  0.4678 -3.2711
 2341SOL    HW218483   2.249   0.650   3.847 -2.4388  0.3745 -0.1383
 2342SOL     OW18484   1.267   4.628   4.435  0.4485  0.1032 -0.1160
 2342SOL    HW118485   1.232   4.557   4.489  1.4449 -0.3665 -0.0920
 2342SOL    HW218486   1.219   4.627   4.353  0.1837  5.3943 -0.0609
 2343SOL     OW18487   2.829   2.913   2.911 -0.5311 -0.3184  0.0424
 2343SOL    HW118488   2.854   2.925   2.820  1.0499 -1.2047  0.3576
 2343SOL    HW218489   2.881   2.971   2.966  0.8370  0.2236 -1.8304
 2344SOL     OW18490   2.194   0.405   7.670  0.3846 -0.1053 -0.1635
 2344SOL    HW118491   2.116   0.363   7.635 -0.2625  0.4616  0.5873
 2344SOL    HW218492   2.250   0.333   7.700 -0.4361 -1.8345 -2.8646
 2345SOL     OW18493   2.087   3.149  17.379  0.1625  0.0604 -0.0796
 2345SOL    HW118494   2.018   3.095  17.417  0.9487 -0.7673  0.1773
 2345SOL    HW218495   2.137   3.079  17.337 -0.6131 -0.1223 -0.7009
 2346SOL     OW18496   2.249   0.130   8.783  0.4050  0.0227 -0.1024
 2346SOL    HW118497   2.192   0.064   8.822  1.8141 -2.1143 -1.6324
 2346SOL    HW218498   2.302   0.151   8.860  3.1770  1.1454 -2.2954
 2347SOL     OW18499   0.662   0.931  16.387  0.0486  0.0439  0.2707
 2347SOL    HW118500   0.622   0.957  16.304 -0.3104  3.0328  1.3677
 2347SOL    HW218501   0.748   0.903  16.358  0.2569  0.2234  0.7188
 2348SOL     OW18502   2.816   2.494   7.939 -0.2648 -0.0240 -0.5946
 2348SOL    HW118503   2.788   2.433   8.008 -0.6980 -1.3378 -1.9226
 2348SOL    HW218504   2.888   2.446   7.899 -0.8236 -0.1576 -1.4309
 2349SOL     OW18505   1.801   2.002   1.789  0.0974  0.1341 -0.3567
 2349SOL    HW118506   1.725   1.948   1.810 -0.2172  0.7559  0.1193
 2349SOL    HW218507   1.867   1.935   1.809  0.4229  0.2862 -0.9411
 2350SOL     OW18508   0.070   4.279   2.523  0.0589 -0.6488  0.2901
 2350SOL    HW118509   0.156   4.252   2.490  0.8858  1.1515  0.9337
 2350SOL    HW218510   0.033   4.205   2.569  0.3280 -1.2890 -0.5197
 2351SOL     OW18511   1.370   2.408   7.744  0.1127  0.4569  0.1054
 2351SOL    HW118512   1.323   2.332   7.710 -0.6456  0.5758  0.8863
 2351SOL    HW218513   1.456   2.373   7.764  0.7237  1.9323  0.0661
 2352SOL     OW18514   0.515   0.556   2.844 -0.8128 -0.1276 -0.8842
 2352SOL    HW118515   0.557   0.470   2.855 -0.9399  0.4437  3.8801
 2352SOL    HW218516   0.439   0.537   2.789 -0.2440 -1.9750 -1.0476
 2353SOL     OW18517   2.050   1.390  13.643 -0.0544  0.6514  0.1456
 2353SOL    HW118518   2.028   1.314  13.589 -0.3007  1.4560 -0.8902
 2353SOL    HW218519   2.038   1.345  13.726  1.9624  0.9199  0.5630
 2354SOL     OW18520   2.338   0.110  11.838 -0.7522  0.5871 -0.1888
 2354SOL    HW118521   2.252   0.067  11.833 -0.2267 -0.9362  3.6952
 2354SOL    HW218522   2.330   0.179  11.773 -0.0632 -0.1935 -1.1109
 2355SOL     OW18523   3.850   0.598   0.783  0.2980 -0.3746 -0.2572
 2355SOL    HW118524   3.846   0.668   0.848 -1.0530 -0.1874 -0.5422
 2355SOL    HW218525   3.944   0.614   0.773  0.0021  0.6917 -1.4481
 2356SOL     OW18526   4.501   2.076  11.543 -1.1310  0.5302  0.6982
 2356SOL    HW118527   4.531   2.160  11.509  1.8853  0.1280  2.3212
 2356SOL    HW218528   4.436   2.120  11.598  0.1511 -0.4620  3.0247
 2357SOL     OW18529   0.142   0.657   8.561  0.6154  0.6739  0.0096
 2357SOL    HW118530   0.159   0.571   8.525  0.1571 -0.2976  2.0909
 2357SOL    HW218531   0.156   0.707   8.481  0.3670 -0.0790 -0.5002
 2358SOL     OW18532   4.111   2.965   4.752 -0.1044 -0.2439  0.3099
 2358SOL    HW118533   4.150   3.037   4.803  0.5865  0.7849 -1.6698
 2358SOL    HW218534   4.036   3.010   4.715 -0.7034 -0.9621  0.6603
 2359SOL     OW18535   3.777   1.970   3.616  0.2717 -0.2297  0.0792
 2359SOL    HW118536   3.698   1.916   3.608 -0.5762  0.8789  0.9532
 2359SOL    HW218537   3.843   1.911   3.580  1.6877  1.5043 -0.1807
 2360SOL     OW18538   0.722   0.478   3.956  0.0562  0.0995  0.1349
 2360SOL    HW118539   0.664   0.554   3.965  0.9368  0.5084  2.4782
 2360SOL    HW218540   0.798   0.509   3.906 -1.4846  2.5638 -0.6501
 2361SOL     OW18541   3.697   3.682   5.857  0.9646  0.2449  0.1538
 2361SOL    HW118542   3.729   3.667   5.768  0.2632  0.8883 -0.2004
 2361SOL    HW218543   3.607   3.666   5.831  1.1992  0.7493 -0.9488
 2362SOL     OW18544   1.703   3.355   4.608  0.1983  0.0238 -0.2840
 2362SOL    HW118545   1.757   3.371   4.531  0.9098 -0.8142  0.0347
 2362SOL    HW218546   1.623   3.404   4.586 -0.0490 -0.2504 -0.0004
 2363SOL     OW18547   3.658   0.223   7.166 -0.0753 -0.3385 -0.0430
 2363SOL    HW118548   3.707   0.289   7.215  0.0467 -0.0766 -0.5175
 2363SOL    HW218549   3.593   0.279   7.125 -0.3964 -0.2531  0.5902
 2364SOL     OW18550   1.265   0.498  12.156  0.2075  0.1942 -0.2346
 2364SOL    HW118551   1.274   0.451  12.074 -2.9657  1.2416 -1.1883
 2364SOL    HW218552   1.193   0.446  12.191 -0.5541  1.7005  0.3993
 2365SOL     OW18553   2.295   0.215   8.303  0.0170  0.5864  0.1636
 2365SOL    HW118554   2.354   0.185   8.233 -0.3045 -0.8968  0.5283
 2365SOL    HW218555   2.336   0.297   8.330  0.5163  1.1352 -2.3009
 2366SOL     OW18556   0.291   1.736   8.752 -0.3063 -0.2995  0.5917
 2366SOL    HW118557   0.273   1.808   8.813 -2.3703 -1.8393  1.7564
 2366SOL    HW218558   0.316   1.793   8.679  1.6810 -1.6787  0.2008
 2367SOL     OW18559   3.294   0.585   3.708 -0.1855  0.1602  0.1415
 2367SOL    HW118560   3.227   0.523   3.735  1.5254 -1.0200  1.6743
 2367SOL    HW218561   3.235   0.655   3.681 -0.7905 -0.0171  1.0124
 2368SOL     OW18562   3.978   2.921   3.000 -0.2872 -0.4718 -0.0062
 2368SOL    HW118563   3.952   2.933   2.909 -1.9297 -0.0991  0.5133
 2368SOL    HW218564   3.889   2.919   3.036 -0.6938 -2.3446 -1.0626
 2369SOL     OW18565   1.419   3.157  12.358 -0.1087 -0.3240 -0.2161
 2369SOL    HW118566   1.443   3.161  12.265 -0.3897  0.4666 -0.2549
 2369SOL    HW218567   1.402   3.248  12.385 -0.8261 -0.7657  0.8180
 2370SOL     OW18568   2.806   2.950   9.711  0.0168 -0.3637  0.7784
 2370SOL    HW118569   2.722   2.907   9.725 -0.7392  0.7381 -0.4169
 2370SOL    HW218570   2.791   3.025   9.769  1.6233 -0.0331  0.7754
 2371SOL     OW18571   2.847   1.405  12.534  0.3534  0.0725 -0.1538
 2371SOL    HW118572   2.779   1.394  12.469  0.4841  0.2641 -0.3228
 2371SOL    HW218573   2.903   1.335  12.499 -0.8769 -1.2943  0.6166
 2372SOL     OW18574   0.325   2.565   9.656 -0.0134  0.1536 -0.0185
 2372SOL    HW118575   0.315   2.635   9.591  0.6928  0.5063  0.2505
 2372SOL    HW218576   0.405   2.528   9.618  0.2977 -0.1209  0.9145
 2373SOL     OW18577   4.237   3.082  11.832  0.1619 -0.5325 -0.1548
 2373SOL    HW118578   4.179   3.050  11.901  1.0257  0.6886  1.1362
 2373SOL    HW218579   4.256   3.173  11.857  1.9633 -1.1551  0.7843
 2374SOL     OW18580   4.269   2.964   8.092 -0.0990  0.3769 -0.2570
 2374SOL    HW118581   4.328   2.925   8.029 -1.4295  1.4731 -2.1801
 2374SOL    HW218582   4.223   2.897   8.143  1.9778 -1.8769 -1.3797
 2375SOL     OW18583   2.821   3.700   2.628 -0.1270 -0.0204 -0.0841
 2375SOL    HW118584   2.784   3.684   2.541 -0.9593  1.6962 -0.0286
 2375SOL    HW218585   2.775   3.634   2.681  1.2781 -0.7524  0.2114
 2376SOL     OW18586   0.922   4.034   0.633  1.1003  0.7173  0.5031
 2376SOL    HW118587   1.001   4.089   0.628  2.1048 -1.0908 -2.8798
 2376SOL    HW218588   0.885   4.071   0.714 -0.8016 -1.5534  0.6550
 2377SOL     OW18589   0.726   0.524   8.016  0.1061 -0.2140 -0.3657
 2377SOL    HW118590   0.798   0.586   8.024 -1.4143  1.3556  1.1323
 2377SOL    HW218591   0.666   0.570   7.958  0.2354 -0.1513 -0.4496
 2378SOL     OW18592   1.701   1.716  10.226  0.3277  0.0026  0.0490
 2378SOL    HW118593   1.739   1.636  10.264 -0.8581  0.0644  1.3651
 2378SOL    HW218594   1.683   1.776  10.298  1.5301  0.6358 -0.1751
 2379SOL     OW18595   1.416   0.211  10.849  0.3123  0.1950 -0.1578
 2379SOL    HW118596   1.376   0.279  10.904 -0.4572  0.0419 -0.5160
 2379SOL    HW218597   1.446   0.257  10.771  1.2140 -0.0970  0.0277
 2380SOL     OW18598   3.421   0.357   8.263 -0.3253 -0.3013 -0.5841
 2380SOL    HW118599   3.340   0.346   8.312 -0.5900 -2.5557 -1.5279
 2380SOL    HW218600   3.461   0.275   8.291 -0.8132 -0.0033  0.9559
 2381SOL     OW18601   3.401   1.338   6.868  0.2096 -0.3581 -0.2244
 2381SOL    HW118602   3.408   1.425   6.908  1.9565 -0.4918 -0.2651
 2381SOL    HW218603   3.472   1.349   6.805  0.4322  0.7955  0.2083
 2382SOL     OW18604   2.146   2.312   7.830 -0.0542 -0.3441  0.6198
 2382SOL    HW118605   2.110   2.348   7.749 -0.0318 -2.1288 -0.1922
 2382SOL    HW218606   2.066   2.303   7.881 -0.5029  2.0262  0.2890
 2383SOL     OW18607   0.610   2.957   5.062 -0.6182 -0.1979 -0.2052
 2383SOL    HW118608   0.682   2.897   5.045 -1.3706 -1.2297  0.2989
 2383SOL    HW218609   0.648   3.040   5.032 -0.4357 -0.0868  0.3473
 2384SOL     OW18610   1.621   3.211  12.801  0.5485 -0.9555  0.7994
 2384SOL    HW118611   1.702   3.183  12.846 -0.0080 -0.6964  1.9687
 2384SOL    HW218612   1.628   3.303  12.823 -2.6006 -1.3307  3.3522
 2385SOL     OW18613   1.845   0.087  11.049  0.1685 -0.5961 -0.1461
 2385SOL    HW118614   1.789   0.009  11.046  1.3104 -1.4227 -0.1059
 2385SOL    HW218615   1.813   0.128  11.129  3.1259 -2.5194  2.0713
 2386SOL     OW18616   4.487   3.019   2.057 -0.2017  0.3042 -0.1229
 2386SOL    HW118617   4.399   2.991   2.084 -0.6866  0.3949 -1.6283
 2386SOL    HW218618   4.489   3.010   1.962  1.9425  1.2810 -0.1567
 2387SOL     OW18619   1.944   3.357   1.276  0.0937  0.2838  0.5369
 2387SOL    HW118620   1.990   3.400   1.348  1.5671 -2.1095  1.0244
 2387SOL    HW218621   1.854   3.389   1.288  0.3879  1.2225  0.2585
 2388SOL     OW18622   0.154   3.798   9.232  0.0856  0.1342 -0.2238
 2388SOL    HW118623   0.179   3.732   9.297  0.3384  0.3908 -0.0606
 2388SOL    HW218624   0.126   3.869   9.289 -1.5088  0.0295 -0.8942
 2389SOL     OW18625   0.592   4.226   2.221 -0.7290 -0.0372 -0.1591
 2389SOL    HW118626   0.524   4.262   2.278  0.3772  0.8650  0.5950
 2389SOL    HW218627   0.639   4.171   2.284  0.5489  1.2348  0.0029
 2390SOL     OW18628   1.501   3.301   2.051 -0.8215 -0.7117  0.2279
 2390SOL    HW118629   1.460   3.347   1.978  0.5456  0.5105  0.2181
 2390SOL    HW218630   1.558   3.370   2.085  0.0106 -1.5636  0.5788
 2391SOL     OW18631   4.666   1.487   4.676 -0.0457 -0.0394  0.4944
 2391SOL    HW118632   4.585   1.499   4.626  0.7666  0.1954 -0.7612
 2391SOL    HW218633   4.685   1.394   4.661 -0.2454 -0.2115  1.3078
 2392SOL     OW18634   1.375   2.320   4.086 -0.7438  0.7349 -0.1441
 2392SOL    HW118635   1.391   2.226   4.097  1.0672  1.2760  1.7154
 2392SOL    HW218636   1.280   2.321   4.071 -0.9995 -0.7985  1.4927
 2393SOL     OW18637   0.643   3.512  10.077 -0.2688  0.8713  0.3897
 2393SOL    HW118638   0.697   3.517  10.156 -1.3446 -1.3920  1.2744
 2393SOL    HW218639   0.698   3.446  10.035 -0.6271 -0.2810  1.7114
 2394SOL     OW18640   1.275   0.085   5.645  0.6875  0.5842  0.9452
 2394SOL    HW118641   1.261   0.134   5.563 -2.2089  1.1431  1.7954
 2394SOL    HW218642   1.204   0.021   5.641  2.8517 -1.7749  0.5348
 2395SOL     OW18643   2.746   4.241   8.652  0.2940  0.5890  0.0955
 2395SOL    HW118644   2.677   4.300   8.681  1.0565  2.3163 -1.6593
 2395SOL    HW218645   2.694   4.164   8.629 -0.4575  1.3105 -0.5837
 2396SOL     OW18646   2.552   2.407   7.062  0.6302 -0.4913 -0.1744
 2396SOL    HW118647   2.535   2.314   7.049  0.2057 -0.2298 -1.4655
 2396SOL    HW218648   2.647   2.412   7.063  0.4913  1.5338  4.5080
 2397SOL     OW18649   2.510   0.936   0.526 -0.0472  0.0161 -0.7515
 2397SOL    HW118650   2.568   0.865   0.499 -0.4510 -0.0924 -1.3266
 2397SOL    HW218651   2.577   1.005   0.522 -0.7232  0.6881 -0.5890
 2398SOL     OW18652   3.122   3.797   2.228 -0.0992  0.7367 -0.5027
 2398SOL    HW118653   3.185   3.814   2.299 -0.7394 -1.1137  0.5220
 2398SOL    HW218654   3.166   3.832   2.151 -2.3645  0.7636 -1.7767
 2399SOL     OW18655   3.034   1.769  17.306 -0.0042  0.4658 -0.1008
 2399SOL    HW118656   3.011   1.719  17.227  1.2304  0.1421 -0.2451
 2399SOL    HW218657   2.972   1.736  17.371 -0.1517  1.7913  0.4369
 2400SOL     OW18658   3.271   3.060  17.531 -0.1162 -0.5521 -0.1547
 2400SOL    HW118659   3.288   3.136  17.586  1.2798 -1.3438  0.4983
 2400SOL    HW218660   3.176   3.058  17.538 -0.2051  1.1381 -0.6807
 2401SOL     OW18661   0.242   3.320   8.309  0.1277 -0.5423 -0.1406
 2401SOL    HW118662   0.261   3.314   8.216  1.5208 -3.4533  0.3239
 2401SOL    HW218663   0.288   3.403   8.325 -0.5471 -0.7575  3.0105
 2402SOL     OW18664   3.284   1.629  17.466 -0.2341  0.4812  0.2596
 2402SOL    HW118665   3.373   1.658  17.444  0.0448  0.2129  1.0121
 2402SOL    HW218666   3.244   1.684  17.399  2.5333 -1.4168 -2.9774
 2403SOL     OW18667   1.425   1.767   6.760  0.0302 -0.3867  0.8467
 2403SOL    HW118668   1.440   1.820   6.681  1.1992 -3.2767 -0.8903
 2403SOL    HW218669   1.344   1.807   6.791 -0.7018 -2.3034  1.3737
 2404SOL     OW18670   1.190   2.677   9.772  0.3175  0.1980  0.3667
 2404SOL    HW118671   1.225   2.760   9.740 -2.4307  0.5037 -1.8213
 2404SOL    HW218672   1.239   2.667   9.854  1.8099 -2.3917 -0.8203
 2405SOL     OW18673   1.275   2.873  16.066  0.0409  0.3168 -0.1603
 2405SOL    HW118674   1.246   2.799  16.013  0.4803 -0.5771  0.8374
 2405SOL    HW218675   1.207   2.868  16.132  0.1714 -1.7181 -0.1731
 2406SOL     OW18676   1.112   2.755  14.641  0.3097 -0.2644  0.4584
 2406SOL    HW118677   1.036   2.760  14.584 -0.4570  1.1227  1.5868
 2406SOL    HW218678   1.124   2.661  14.626  0.0611  0.0700 -1.7279
 2407SOL     OW18679   3.084   3.864   5.575 -0.5201  0.0685 -0.3552
 2407SOL    HW118680   3.086   3.847   5.669  2.4304 -0.4537 -0.5039
 2407SOL    HW218681   3.131   3.786   5.546 -0.4340  0.2488 -0.6949
 2408SOL     OW18682   0.008   3.341  16.673 -0.1239  0.0210  0.2731
 2408SOL    HW118683   0.029   3.391  16.752 -0.9015  0.6353  0.0964
 2408SOL    HW218684   0.094   3.303  16.661 -0.6440 -1.0022 -0.2101
 2409SOL     OW18685   3.484   1.463   8.152 -0.2300  0.5789  0.0747
 2409SOL    HW118686   3.404   1.472   8.203  1.3539 -0.1477  2.6772
 2409SOL    HW218687   3.527   1.411   8.220 -0.4157 -0.7830 -0.8531
 2410SOL     OW18688   4.682   2.308   8.654 -0.4673  0.1705 -0.7648
 2410SOL    HW118689   4.642   2.222   8.638 -2.3474  0.8765  0.1571
 2410SOL    HW218690   4.599   2.354   8.664 -0.3051  0.6334 -1.5860
 2411SOL     OW18691   3.438   1.448   6.579 -0.0075  0.0488 -0.0584
 2411SOL    HW118692   3.427   1.513   6.509  0.8106  1.3378  1.0297
 2411SOL    HW218693   3.347   1.418   6.584 -0.5710  1.2542 -3.1520
 2412SOL     OW18694   2.994   4.094  15.762 -0.0982  0.1556 -0.6885
 2412SOL    HW118695   3.071   4.110  15.707 -0.5552 -2.3162 -2.0674
 2412SOL    HW218696   3.038   4.055  15.837 -1.4581  1.9777  1.0355
 2413SOL     OW18697   4.121   0.251   2.615  0.4867 -0.4599 -1.1837
 2413SOL    HW118698   4.091   0.223   2.702  1.8018  2.2262  0.1446
 2413SOL    HW218699   4.200   0.295   2.646 -1.7858  2.8012  0.0181
 2414SOL     OW18700   0.880   0.322   0.990  0.0146  0.1752  0.9805
 2414SOL    HW118701   0.842   0.236   0.975  0.1721  0.4266 -0.7855
 2414SOL    HW218702   0.862   0.324   1.084 -0.3510  1.6477  0.8709
 2415SOL     OW18703   0.671   4.666   4.751  0.5550 -0.1732  0.3634
 2415SOL    HW118704   0.750   4.612   4.742  0.6891  0.0438  0.2476
 2415SOL    HW218705   0.698   0.035   4.755 -5.1457  1.5343  0.8002
 2416SOL     OW18706   0.144   3.253   6.630  0.0889 -0.4954 -0.3360
 2416SOL    HW118707   0.177   3.317   6.694 -0.2589  1.2556 -1.9269
 2416SOL    HW218708   0.178   3.270   6.543 -2.0449 -1.8826 -1.4340
 2417SOL     OW18709   0.688   0.047  15.740  0.1574  0.4112 -0.6216
 2417SOL    HW118710   0.772   0.088  15.761 -0.5233  0.3624  2.1425
 2417SOL    HW218711   0.684   4.718  15.820 -0.1781 -0.3108 -1.1040
 2418SOL     OW18712   4.259   4.058   9.520  0.1713  0.2864  0.3461
 2418SOL    HW118713   4.234   3.966   9.528  1.3190  0.1255  2.0945
 2418SOL    HW218714   4.222   4.091   9.602  1.8387  1.6691  0.5407
 2419SOL     OW18715   4.405   2.880  14.427 -0.1998 -0.2572 -0.3960
 2419SOL    HW118716   4.340   2.950  14.421  0.5185  0.4258 -0.0560
 2419SOL    HW218717   4.417   2.865  14.333  2.7953 -0.5282  0.0274
 2420SOL     OW18718   0.218   0.579  14.028  0.1426 -0.2547  0.2113
 2420SOL    HW118719   0.128   0.553  14.047  0.6841 -2.6215 -0.3717
 2420SOL    HW218720   0.269   0.566  14.108  0.0769 -2.7094 -0.1282
 2421SOL     OW18721   4.181   4.523  13.100  0.4956  0.3024  0.2020
 2421SOL    HW118722   4.267   4.540  13.062 -0.1938 -1.2126 -2.0194
 2421SOL    HW218723   4.168   4.440  13.054  1.4475  0.4677 -0.3675
 2422SOL     OW18724   2.571   4.685  11.888  0.5110  0.3773 -0.5550
 2422SOL    HW118725   2.608   0.014  11.816  1.4796  0.0755 -0.2599
 2422SOL    HW218726   2.500   0.024  11.909  1.2475  2.0982 -3.0879
 2423SOL     OW18727   2.097   3.363  17.217 -0.3094  0.1054 -0.0234
 2423SOL    HW118728   2.100   3.282  17.268 -3.7404  1.6982  2.7699
 2423SOL    HW218729   2.071   3.433  17.278  0.7083 -0.5371  1.1485
 2424SOL     OW18730   1.155   1.556   0.009 -0.0094  0.3874 -0.2256
 2424SOL    HW118731   1.067   1.523   0.028  0.6286  0.0933  2.2052
 2424SOL    HW218732   1.130   1.614  17.629  0.4068  1.4266  0.4621
 2425SOL     OW18733   1.118   3.109   8.370 -0.6873  0.1283  0.1546
 2425SOL    HW118734   1.127   3.014   8.376  0.4178  0.3274  1.7089
 2425SOL    HW218735   1.049   3.118   8.304  0.0671  2.4885 -0.3208
 2426SOL     OW18736   3.630   2.248   5.112  0.0976 -0.3611 -0.1524
 2426SOL    HW118737   3.547   2.201   5.104  0.5533 -1.2634  0.4059
 2426SOL    HW218738   3.621   2.321   5.051 -1.3652 -0.3433  0.0818
 2427SOL     OW18739   1.760   0.592  11.452 -0.3896  0.1270 -0.2614
 2427SOL    HW118740   1.750   0.570  11.359 -1.5825  2.2955 -0.6345
 2427SOL    HW218741   1.844   0.552  11.473 -1.5568 -2.3032 -0.2711
 2428SOL     OW18742   0.977   4.171   7.604 -0.3498 -0.1382  0.1923
 2428SOL    HW118743   1.058   4.202   7.563  0.3341 -0.8625  1.0059
 2428SOL    HW218744   0.996   4.191   7.695 -1.2132  0.6609  0.1956
 2429SOL     OW18745   1.337   2.739   7.003  0.3285 -0.7903 -0.7841
 2429SOL    HW118746   1.359   2.814   7.059 -0.2828 -0.4130 -1.0412
 2429SOL    HW218747   1.417   2.687   7.009  1.9947  1.4860 -3.4215
 2430SOL     OW18748   3.450   0.579   4.881 -0.4804  0.3066 -0.0374
 2430SOL    HW118749   3.510   0.607   4.950  2.0626 -2.6868 -0.9797
 2430SOL    HW218750   3.367   0.599   4.923 -1.0419  2.0435 -1.9688
 2431SOL     OW18751   0.762   0.798   9.782  0.1622  0.4735 -0.3838
 2431SOL    HW118752   0.751   0.766   9.872  0.4320  1.1992 -0.0827
 2431SOL    HW218753   0.679   0.846   9.786  0.2848  0.8328 -2.1073
 2432SOL     OW18754   1.346   2.476   8.001  0.5253  0.1873 -0.3237
 2432SOL    HW118755   1.356   2.441   7.912  0.6805 -0.0296 -0.2221
 2432SOL    HW218756   1.435   2.474   8.034  1.2200 -2.3271 -2.3034
 2433SOL     OW18757   2.566   4.366   8.113 -0.5370 -0.4212 -0.2304
 2433SOL    HW118758   2.646   4.416   8.101 -1.0150  0.3673 -0.0964
 2433SOL    HW218759   2.606   4.279   8.114  2.0327  0.7550 -0.7730
 2434SOL     OW18760   1.460   2.784   9.719  0.4734 -0.0681  0.2072
 2434SOL    HW118761   1.483   2.725   9.647 -1.4447 -1.3141  0.6082
 2434SOL    HW218762   1.456   2.723   9.793 -1.9509  0.0189  0.1486
 2435SOL     OW18763   4.002   3.776  14.383 -0.7763  0.0218 -0.1533
 2435SOL    HW118764   3.922   3.829  14.372 -0.2800  1.0429  1.1440
 2435SOL    HW218765   3.968   3.693  14.417 -1.8789  0.7188  0.4682
 2436SOL     OW18766   2.444   2.119  12.079 -0.2271 -0.2167 -0.4752
 2436SOL    HW118767   2.410   2.174  12.150 -0.6554  0.9237 -1.5747
 2436SOL    HW218768   2.369   2.117  12.020 -1.5557  1.6851  1.1372
 2437SOL     OW18769   2.422   3.053  17.474 -0.3704  0.0310  0.2050
 2437SOL    HW118770   2.416   3.029  17.567 -0.8000  0.2072  0.2198
 2437SOL    HW218771   2.340   3.018  17.439 -0.9994  2.2402 -0.5316
 2438SOL     OW18772   2.014   1.073   6.720 -0.6094  0.2927  0.2159
 2438SOL    HW118773   2.096   1.115   6.696  0.5013 -1.4502  0.9904
 2438SOL    HW218774   1.955   1.149   6.716 -1.4408 -0.2768  1.6986
 2439SOL     OW18775   0.314   2.633   5.215 -0.3617  0.1112 -0.5888
 2439SOL    HW118776   0.401   2.665   5.240 -0.6274  0.5750 -0.2636
 2439SOL    HW218777   0.327   2.600   5.126  2.0273 -0.6098  0.0208
 2440SOL     OW18778   2.628   2.852   7.647 -0.3251 -0.5051  0.2709
 2440SOL    HW118779   2.674   2.780   7.691  3.1346  1.1108 -0.7291
 2440SOL    HW218780   2.660   2.846   7.557  2.2139 -1.1648  1.2194
 2441SOL     OW18781   1.794   0.314   0.798  0.3242  0.2924  0.0637
 2441SOL    HW118782   1.773   0.220   0.790 -0.5576  0.4400  0.6985
 2441SOL    HW218783   1.765   0.353   0.716 -2.1471  1.0507  1.3211
 2442SOL     OW18784   0.537   3.275   0.391  0.2395  0.1027 -0.5195
 2442SOL    HW118785   0.442   3.265   0.382  0.7035 -1.4010 -3.8620
 2442SOL    HW218786   0.542   3.360   0.348 -0.1200  0.4359  0.0998
 2443SOL     OW18787   0.567   3.446   8.721 -0.7122  0.2750 -0.2969
 2443SOL    HW118788   0.477   3.448   8.687 -0.3854  0.5877 -1.1266
 2443SOL    HW218789   0.575   3.353   8.742 -1.4812  0.2881  0.0906
 2444SOL     OW18790   3.223   3.690   1.856 -0.0744 -0.2025  0.2826
 2444SOL    HW118791   3.273   3.611   1.875  0.8173  0.5186  0.9081
 2444SOL    HW218792   3.133   3.661   1.870  0.5438 -1.2636  2.0598
 2445SOL     OW18793   4.176   1.894   5.123 -0.1287 -0.0442  0.0067
 2445SOL    HW118794   4.264   1.897   5.085  0.0557  1.0174  0.5041
 2445SOL    HW218795   4.154   1.801   5.123  0.7201 -0.2512 -1.6876
 2446SOL     OW18796   2.259   0.731   6.905 -0.5178  0.2443 -0.5231
 2446SOL    HW118797   2.208   0.658   6.939 -0.2068  0.2785  0.0144
 2446SOL    HW218798   2.271   0.785   6.983 -1.3633  1.3720 -1.1759
 2447SOL     OW18799   2.536   1.925   4.773  0.1746  0.5014 -0.1911
 2447SOL    HW118800   2.464   1.956   4.828  0.9305 -1.0876  1.6728
 2447SOL    HW218801   2.591   1.880   4.836 -0.2979 -0.6418 -0.6006
 2448SOL     OW18802   3.363   4.653   3.296  0.0380 -0.0332 -0.8631
 2448SOL    HW118803   3.391   0.019   3.317  1.6583 -0.4964 -1.0442
 2448SOL    HW218804   3.446   4.608   3.313  0.2181  2.3538  4.2484
 2449SOL     OW18805   1.207   1.190  16.766 -0.1982 -0.1699 -0.4632
 2449SOL    HW118806   1.242   1.239  16.691 -0.5061 -0.5415 -0.8445
 2449SOL    HW218807   1.180   1.256  16.830  0.0429 -0.5332  0.0103
 2450SOL     OW18808   4.452   0.656   6.571 -0.2141 -0.5225 -0.1149
 2450SOL    HW118809   4.511   0.666   6.497 -0.3492  0.6008 -0.0704
 2450SOL    HW218810   4.502   0.606   6.635 -0.5670 -4.1329 -2.6911
 2451SOL     OW18811   4.101   2.807   0.091 -0.1276  0.4096 -0.4500
 2451SOL    HW118812   4.082   2.857   0.171  0.3100 -1.8186  1.0410
 2451SOL    HW218813   4.176   2.753   0.116 -1.8403 -0.9839  1.6498
 2452SOL     OW18814   3.683   2.828   7.191 -0.1781  0.1766  0.2540
 2452SOL    HW118815   3.689   2.800   7.100  0.2763 -2.3366  1.0720
 2452SOL    HW218816   3.595   2.866   7.197 -0.2279 -0.0285  0.8825
 2453SOL     OW18817   3.903   0.191   5.694 -0.1021 -0.4312 -0.2995
 2453SOL    HW118818   3.990   0.215   5.728 -0.5378  1.0681 -0.2195
 2453SOL    HW218819   3.894   0.272   5.644 -3.1003 -1.5639 -1.5395
 2454SOL     OW18820   1.006   3.721  15.402  0.4408  0.0080  0.1202
 2454SOL    HW118821   1.010   3.649  15.465 -0.6604 -3.0130 -3.2506
 2454SOL    HW218822   0.951   3.788  15.445 -0.4932 -0.7799  0.1434
 2455SOL     OW18823   0.029   2.602  15.854  0.7550 -0.3574  0.1252
 2455SOL    HW118824   4.716   2.677  15.900 -2.5899 -2.9117  1.7239
 2455SOL    HW218825   0.027   2.630  15.763  0.5755 -1.0595 -0.0869
 2456SOL     OW18826   4.595   3.093  11.879 -0.5066 -0.1253 -0.3668
 2456SOL    HW118827   4.628   3.155  11.944 -0.3411  1.8615 -2.3482
 2456SOL    HW218828   4.583   3.017  11.936  2.3826 -0.4996 -0.2770
 2457SOL     OW18829   2.796   2.677   7.738 -0.4525  0.4811 -0.0887
 2457SOL    HW118830   2.830   2.748   7.792  0.0276 -0.4200  0.7765
 2457SOL    HW218831   2.800   2.605   7.801  2.2486  0.7297  0.0149
 2458SOL     OW18832   1.688   3.492   3.366  0.1461  0.1903  0.4658
 2458SOL    HW118833   1.654   3.522   3.450  1.3856 -0.9029  1.3607
 2458SOL    HW218834   1.652   3.558   3.307  1.2821  0.1710 -0.2556
 2459SOL     OW18835   3.218   3.740   6.069 -0.1911  0.1442 -0.1696
 2459SOL    HW118836   3.267   3.670   6.114 -1.1686 -0.3464  0.1314
 2459SOL    HW218837   3.284   3.808   6.058  1.7873 -1.8979 -0.9208
 2460SOL     OW18838   3.669   0.193   7.525 -0.4351  0.6120 -0.1323
 2460SOL    HW118839   3.749   0.246   7.527 -1.1414  1.7214 -1.0783
 2460SOL    HW218840   3.604   0.263   7.531 -1.3595 -0.1766 -0.9230
 2461SOL     OW18841   4.314   2.878  15.873 -0.3527 -0.4289  0.4694
 2461SOL    HW118842   4.342   2.941  15.806 -0.2046 -0.7994  0.1822
 2461SOL    HW218843   4.234   2.913  15.911 -1.2096 -1.3105 -0.5333
 2462SOL     OW18844   3.695   2.461   1.896 -0.0485 -0.2577  0.3018
 2462SOL    HW118845   3.614   2.437   1.942  0.3811 -2.3688 -0.0546
 2462SOL    HW218846   3.685   2.390   1.832 -2.2361 -0.1329  0.4956
 2463SOL     OW18847   3.607   2.087   5.909  0.0648  0.2050 -0.3938
 2463SOL    HW118848   3.574   2.011   5.958 -1.5652  0.8748 -0.4459
 2463SOL    HW218849   3.522   2.131   5.901 -0.4642 -0.6505  0.4070
 2464SOL     OW18850   3.971   3.483  16.817 -0.3220  0.3307 -0.0941
 2464SOL    HW118851   3.949   3.443  16.733 -0.1156  0.8784 -0.4091
 2464SOL    HW218852   3.991   3.571  16.786  0.9191 -0.4049 -1.3417
 2465SOL     OW18853   0.625   4.230  12.919  0.7123  0.3669 -0.1631
 2465SOL    HW118854   0.718   4.229  12.896 -0.0643 -1.7195 -3.2232
 2465SOL    HW218855   0.598   4.319  12.898  1.9175  1.4438  2.9668
 2466SOL     OW18856   3.629   3.698   6.713 -0.5929  0.1750 -0.4304
 2466SOL    HW118857   3.609   3.755   6.787  3.4632  1.4592 -0.3549
 2466SOL    HW218858   3.578   3.620   6.734  1.2023 -1.5612 -2.5828
 2467SOL     OW18859   3.767   3.175  16.206 -0.0778 -0.5457 -0.0688
 2467SOL    HW118860   3.840   3.177  16.145  1.6135  0.6491  2.0111
 2467SOL    HW218861   3.759   3.265  16.237 -0.5685 -0.0274 -1.6943
 2468SOL     OW18862   4.149   4.087   3.515  0.4274  0.1748  0.3013
 2468SOL    HW118863   4.119   4.112   3.428  0.9044  0.8077  0.3192
 2468SOL    HW218864   4.219   4.025   3.493 -0.0968 -0.6625  0.9620
 2469SOL     OW18865   3.164   0.693  17.000  0.7451  0.2554 -0.8562
 2469SOL    HW118866   3.094   0.719  16.940  0.4495  1.2261 -0.0922
 2469SOL    HW218867   3.209   0.624  16.951  0.6325  0.5150 -1.3344
 2470SOL     OW18868   4.324   1.208  11.676  0.4040  0.2145 -0.1117
 2470SOL    HW118869   4.364   1.189  11.591  0.2954 -1.1689  0.1441
 2470SOL    HW218870   4.272   1.128  11.686 -0.2373  0.7580  0.9276
 2471SOL     OW18871   2.751   4.365   0.407 -0.4210  0.0166  0.0288
 2471SOL    HW118872   2.662   4.364   0.373 -0.7553 -0.9019  0.9606
 2471SOL    HW218873   2.720   4.415   0.482 -0.5935  1.1739 -0.8023
 2472SOL     OW18874   1.115   0.516  11.816  0.1449  0.3040  0.2427
 2472SOL    HW118875   1.054   0.483  11.881  0.3283 -1.2393 -0.3813
 2472SOL    HW218876   1.102   0.464  11.737 -0.9416 -1.2283  1.4345
 2473SOL     OW18877   4.200   3.022   5.229 -0.0294 -0.0773  0.3512
 2473SOL    HW118878   4.264   2.955   5.254  0.1827  0.1574  0.4435
 2473SOL    HW218879   4.148   3.038   5.308 -0.1729 -0.5073  0.3432
 2474SOL     OW18880   0.631   2.654   5.821  0.0893 -0.1524  0.7322
 2474SOL    HW118881   0.605   2.720   5.885 -0.5908  0.7341 -0.4664
 2474SOL    HW218882   0.703   2.694   5.771  0.8629 -1.3393  0.8900
 2475SOL     OW18883   2.116   3.795   6.099  0.1475  0.3430  0.0698
 2475SOL    HW118884   2.131   3.885   6.070  1.1444 -0.0313 -0.6053
 2475SOL    HW218885   2.066   3.758   6.026  1.0413 -0.0357 -0.3581
 2476SOL     OW18886   2.750   3.625   2.917 -0.2226 -0.5190 -0.0980
 2476SOL    HW118887   2.762   3.719   2.924  2.8456 -0.7724 -2.0385
 2476SOL    HW218888   2.657   3.609   2.899 -0.4108  0.0491  0.3683
 2477SOL     OW18889   2.422   0.426   5.515  0.9180  0.1439  0.1285
 2477SOL    HW118890   2.341   0.385   5.485  1.9285 -1.2214 -0.7228
 2477SOL    HW218891   2.395   0.512   5.546 -0.8365  0.2640 -1.7161
 2478SOL     OW18892   2.340   0.085   6.416  0.2786 -0.0043 -0.5044
 2478SOL    HW118893   2.417   0.142   6.424  1.0970 -0.8959 -2.1573
 2478SOL    HW218894   2.377   4.723   6.439 -0.4145 -1.1856 -3.7609
 2479SOL     OW18895   4.547   1.795  15.305  0.6426  0.1184 -0.0520
 2479SOL    HW118896   4.583   1.838  15.228  1.1995  0.5673  0.4506
 2479SOL    HW218897   4.592   1.710  15.301 -0.6025 -0.5115 -0.5130
 2480SOL     OW18898   2.885   3.407   8.193 -0.4609  0.0011 -0.6628
 2480SOL    HW118899   2.879   3.313   8.178 -1.2597 -0.2453  1.2265
 2480SOL    HW218900   2.810   3.415   8.251 -0.9127 -1.2190 -1.0736
 2481SOL     OW18901   1.868   1.928   3.566  0.5793  0.5695  0.3265
 2481SOL    HW118902   1.865   1.832   3.570 -2.7769  0.7257  1.5375
 2481SOL    HW218903   1.904   1.940   3.653 -1.3713 -0.4782  1.2710
 2482SOL     OW18904   1.918   1.200   4.849  0.1477 -0.2928  0.2205
 2482SOL    HW118905   1.930   1.290   4.818  0.4291  0.0822  1.3880
 2482SOL    HW218906   1.915   1.157   4.764 -0.8962  1.9162 -0.8373
 2483SOL     OW18907   0.736   0.232   1.910  0.1401 -0.1066 -0.2638
 2483SOL    HW118908   0.690   0.172   1.969 -1.0654 -3.0214 -4.2147
 2483SOL    HW218909   0.820   0.188   1.899 -0.1816 -0.5788 -0.8047
 2484SOL     OW18910   1.812   0.375   1.082  0.0173  0.0066 -0.3536
 2484SOL    HW118911   1.802   0.354   0.990  0.5669 -0.8122 -0.2343
 2484SOL    HW218912   1.842   0.291   1.118 -1.5308 -0.5072 -0.2464
 2485SOL     OW18913   4.181   1.688  11.137 -0.4691  0.1737 -0.5108
 2485SOL    HW118914   4.268   1.721  11.161 -0.3576 -0.0567 -0.6029
 2485SOL    HW218915   4.136   1.707  11.219 -1.2370  0.5159 -1.0175
 2486SOL     OW18916   3.078   3.264   9.243  0.2603 -0.0172 -0.2669
 2486SOL    HW118917   3.059   3.206   9.170  0.0343  1.0794 -1.0848
 2486SOL    HW218918   3.037   3.345   9.211  1.2442 -0.6171 -2.9692
 2487SOL     OW18919   0.199   4.399   1.822  0.2468 -0.3223  0.2670
 2487SOL    HW118920   0.202   4.483   1.867 -1.6635 -0.3795  0.4978
 2487SOL    HW218921   0.263   4.345   1.868  1.3363  1.6878  1.1065
 2488SOL     OW18922   1.842   0.621   5.146 -0.2035 -0.3188 -0.2006
 2488SOL    HW118923   1.807   0.627   5.057  0.5711  0.9796 -0.4079
 2488SOL    HW218924   1.762   0.648   5.193 -0.5250 -1.4363 -0.0951
 2489SOL     OW18925   0.923   4.197   2.869 -0.0433 -0.3663  0.0449
 2489SOL    HW118926   1.017   4.214   2.860 -0.0486  0.4732  1.5170
 2489SOL    HW218927   0.902   4.177   2.778 -3.1162  0.2249  0.6048
 2490SOL     OW18928   1.934   3.336  14.297 -0.3689 -0.1531 -0.1898
 2490SOL    HW118929   1.860   3.388  14.266 -2.4470 -3.5480 -1.0247
 2490SOL    HW218930   1.976   3.386  14.367 -0.6246 -1.5124  0.9448
 2491SOL     OW18931   3.904   0.972   2.088  0.1487 -0.3576  0.1459
 2491SOL    HW118932   3.903   0.901   2.152  0.2111  0.7630  1.3799
 2491SOL    HW218933   3.944   1.044   2.136  1.6904 -0.7044 -0.6191
 2492SOL     OW18934   0.498   4.475   9.135  0.6995  0.0433 -0.4591
 2492SOL    HW118935   0.430   4.477   9.067 -1.8189 -0.7220  2.0692
 2492SOL    HW218936   0.444   4.507   9.207  1.5409  0.1426  0.1163
 2493SOL     OW18937   3.413   4.644  14.165  0.1426  0.2077  0.0205
 2493SOL    HW118938   3.362   4.596  14.101  2.4667 -0.4603 -1.3333
 2493SOL    HW218939   3.382   0.009  14.143 -1.8039  0.3132  3.1794
 2494SOL     OW18940   0.832   0.564  14.015  0.9236 -0.5932 -0.3696
 2494SOL    HW118941   0.843   0.501  14.086  2.4875  0.3303  0.2123
 2494SOL    HW218942   0.796   0.500  13.953  1.0454 -0.8332 -0.1933
 2495SOL     OW18943   2.831   3.934   4.462  0.3802 -0.0665 -0.6248
 2495SOL    HW118944   2.855   3.892   4.379 -0.4879 -1.0567 -0.3741
 2495SOL    HW218945   2.911   3.943   4.514  0.0792  2.0199 -0.5398
 2496SOL     OW18946   4.662   3.125   8.373 -0.1806  0.3786 -0.2829
 2496SOL    HW118947   4.706   3.188   8.429 -1.4898  0.5844  0.5107
 2496SOL    HW218948   0.004   3.056   8.356 -1.9060 -1.0721 -0.9241
 2497SOL     OW18949   4.338   3.753  14.939 -0.0104  0.1514  0.3354
 2497SOL    HW118950   4.328   3.661  14.964  1.2339 -0.7202 -2.3820
 2497SOL    HW218951   4.254   3.790  14.966 -1.3743 -0.4954 -3.0314
 2498SOL     OW18952   3.573   0.088  17.146  0.3775 -0.3626  0.5695
 2498SOL    HW118953   3.634   0.014  17.145  0.4899 -0.2838  1.1502
 2498SOL    HW218954   3.634   0.153  17.112  1.3051 -2.0287 -0.9683
 2499SOL     OW18955   2.237   4.238   5.957  0.3222 -0.1834 -0.0039
 2499SOL    HW118956   2.309   4.283   5.912  0.6701 -0.3845  0.3561
 2499SOL    HW218957   2.162   4.287   5.925  0.8060  0.8389  0.4374
 2500SOL     OW18958   3.059   0.847   0.082  0.1443 -0.3640 -0.1569
 2500SOL    HW118959   3.069   0.814  17.686  1.7311  1.4797 -0.6750
 2500SOL    HW218960   3.149   0.837   0.113 -0.0548 -0.3890  0.4140
 2501SOL     OW18961   0.125   0.018   0.593  0.1753  0.2065 -0.3386
 2501SOL    HW118962   0.112   0.110   0.571  0.3930  0.5259  0.8192
 2501SOL    HW218963   0.216   0.005   0.564  0.6420  0.7289  0.8778
 2502SOL     OW18964   2.893   0.819   3.917  0.0667  0.0354  0.2218
 2502SOL    HW118965   2.929   0.770   3.991 -0.3717  0.2971  0.6074
 2502SOL    HW218966   2.966   0.819   3.856  0.1310  0.8418  0.2933
 2503SOL     OW18967   2.256   1.511   5.505  0.6258 -0.2178 -0.2965
 2503SOL    HW118968   2.320   1.447   5.476 -0.6395 -1.2326 -0.8586
 2503SOL    HW218969   2.256   1.582   5.440  1.3296 -0.4994 -0.6012
 2504SOL     OW18970   4.566   2.577   6.328 -0.5938  0.1952  0.1150
 2504SOL    HW118971   4.527   2.647   6.382  1.9565 -0.3888  2.7043
 2504SOL    HW218972   4.653   2.616   6.318 -0.7893  0.5605 -0.1902
 2505SOL     OW18973   0.297   3.185   8.526  0.2817  0.2374  0.0998
 2505SOL    HW118974   0.297   3.092   8.503 -0.0016  0.6062 -1.4286
 2505SOL    HW218975   0.280   3.221   8.439  0.9750 -0.8323 -0.4755
 2506SOL     OW18976   3.836   0.147   9.268  0.2513  0.1585 -0.1438
 2506SOL    HW118977   3.822   0.233   9.228 -2.4256 -1.0128 -1.7503
 2506SOL    HW218978   3.924   0.119   9.244  0.4553 -0.8787  1.8210
 2507SOL     OW18979   1.638   3.410   8.711  0.1918  0.1500  0.0297
 2507SOL    HW118980   1.561   3.439   8.660 -0.6229 -0.6171  0.8246
 2507SOL    HW218981   1.610   3.454   8.791  0.4191 -0.1847  0.2924
 2508SOL     OW18982   1.641   3.521   8.376  0.5807  0.0157  0.4457
 2508SOL    HW118983   1.616   3.594   8.434 -1.6723 -1.0913  0.8439
 2508SOL    HW218984   1.595   3.535   8.293 -0.0638  3.7201  1.4363
 2509SOL     OW18985   0.084   1.340   2.440  0.1724  0.6099  0.6936
 2509SOL    HW118986   0.170   1.309   2.469 -0.9831 -3.6909 -0.4321
 2509SOL    HW218987   0.098   1.422   2.392  0.7463 -0.4938 -1.0188
 2510SOL     OW18988   4.099   3.446  15.957 -0.0291  0.2395  0.5089
 2510SOL    HW118989   4.161   3.497  16.009  1.4304 -2.1212  1.0767
 2510SOL    HW218990   4.048   3.504  15.901  1.9262 -0.8061 -2.3644
 2511SOL     OW18991   4.194   1.739   7.796 -0.2962  0.6579 -0.5994
 2511SOL    HW118992   4.288   1.742   7.777 -0.1912  1.3921  0.0344
 2511SOL    HW218993   4.189   1.679   7.870  0.7493  1.9176  0.4991
 2512SOL     OW18994   4.591   4.625   0.675 -0.0867 -0.7205  0.3462
 2512SOL    HW118995   4.682   4.655   0.666 -0.8992  1.0179 -1.8172
 2512SOL    HW218996   4.575   4.664   0.761  1.8720  3.1210 -1.0502
 2513SOL     OW18997   1.530   1.077   1.892 -0.1478 -0.0119  0.4195
 2513SOL    HW118998   1.501   1.167   1.881 -2.6382 -1.3164 -3.7240
 2513SOL    HW218999   1.570   1.076   1.979  1.3965 -2.3003 -0.3272
 2514SOL     OW19000   0.250   3.983   6.175 -0.2357  0.2777 -0.0903
 2514SOL    HW119001   0.159   3.960   6.193  0.3082  0.0898  2.4982
 2514SOL    HW219002   0.295   3.940   6.248 -3.8893  0.3406  2.1955
 2515SOL     OW19003   3.637   4.326   5.260 -0.3317  0.7665 -0.3587
 2515SOL    HW119004   3.610   4.299   5.348  3.5886 -1.1236  0.2980
 2515SOL    HW219005   3.629   4.421   5.264  0.7904  0.7845  1.4447
 2516SOL     OW19006   2.495   4.568   6.291  0.3051  0.0527  0.4493
 2516SOL    HW119007   2.512   4.534   6.204 -1.2491 -0.7135  0.4387
 2516SOL    HW219008   2.432   4.502   6.320  0.4014 -0.9237 -1.5929
 2517SOL     OW19009   2.693   0.666  11.099  0.2625  0.0820  0.3510
 2517SOL    HW119010   2.702   0.612  11.021 -0.8315 -0.8292  0.8585
 2517SOL    HW219011   2.661   0.601  11.162  3.3530  0.4799  2.3328
 2518SOL     OW19012   1.384   3.527   3.784 -0.3409  0.6899 -0.0602
 2518SOL    HW119013   1.377   3.565   3.696 -0.6250  1.0889  0.1369
 2518SOL    HW219014   1.415   3.440   3.758  0.6380  1.8737 -2.9062
 2519SOL     OW19015   1.130   3.250   8.626 -0.7231 -0.2840 -0.0498
 2519SOL    HW119016   1.062   3.239   8.692  1.5616  2.9320  2.8695
 2519SOL    HW219017   1.093   3.200   8.554 -0.8901  2.6694 -1.9995
 2520SOL     OW19018   0.579   1.382   3.813  0.1948 -0.1763  0.1370
 2520SOL    HW119019   0.594   1.302   3.864  0.8614 -0.5608 -0.6488
 2520SOL    HW219020   0.495   1.365   3.771 -0.5732  0.7039  1.3223
 2521SOL     OW19021   2.150   3.225   6.738  0.1372 -0.6224  0.1685
 2521SOL    HW119022   2.126   3.224   6.645  2.0672 -0.8201 -0.3340
 2521SOL    HW219023   2.100   3.151   6.773  0.8320 -0.1490  2.1741
 2522SOL     OW19024   3.857   0.120   4.687  0.3085 -0.5767 -0.1473
 2522SOL    HW119025   3.775   0.113   4.735 -0.3341  1.9169 -0.8943
 2522SOL    HW219026   3.865   0.215   4.677 -0.1372 -0.3553  1.6616
 2523SOL     OW19027   0.717   3.516   1.013  0.1893 -0.1545  0.0374
 2523SOL    HW119028   0.682   3.584   1.070 -0.9098 -1.8493  1.3584
 2523SOL    HW219029   0.632   3.487   0.981 -0.2345  2.3267 -1.1274
 2524SOL     OW19030   3.390   2.146  10.286  0.0722  0.2252 -0.2239
 2524SOL    HW119031   3.360   2.223  10.334  1.8599  0.0945  1.0881
 2524SOL    HW219032   3.465   2.113  10.335  0.3656  0.9469 -0.1906
 2525SOL     OW19033   0.715   3.909   2.700 -0.1659  0.6278  0.4321
 2525SOL    HW119034   0.786   3.893   2.638 -1.9739  1.4665 -1.8545
 2525SOL    HW219035   0.725   4.004   2.708  1.8904  0.4960 -0.4638
 2526SOL     OW19036   4.360   3.995   8.560  0.2219 -0.1450 -0.1732
 2526SOL    HW119037   4.286   4.053   8.576 -0.1768 -0.7934  0.3070
 2526SOL    HW219038   4.324   3.907   8.568 -2.4577  0.9894  0.4069
 2527SOL     OW19039   1.082   2.996   4.997  0.4429 -0.4591  0.5133
 2527SOL    HW119040   1.068   2.907   5.029  1.8593 -1.7669 -2.4483
 2527SOL    HW219041   1.115   2.979   4.909 -1.4681  0.9829 -0.4699
 2528SOL     OW19042   3.508   4.131   1.737 -0.5421  0.2790  0.2208
 2528SOL    HW119043   3.584   4.135   1.795  1.6831  1.6104 -2.7833
 2528SOL    HW219044   3.488   4.037   1.742  0.9882 -0.0767 -0.1922
 2529SOL     OW19045   0.551   1.547   8.674 -0.4476 -1.0534  0.3323
 2529SOL    HW119046   0.516   1.628   8.639  3.6593  0.3329 -0.5054
 2529SOL    HW219047   0.462   1.521   8.697 -0.8324  1.2489  1.4061
 2530SOL     OW19048   3.261   1.072   6.956  0.2380  0.5882  0.0422
 2530SOL    HW119049   3.191   1.094   7.018 -0.9142  1.4900 -1.5821
 2530SOL    HW219050   3.289   1.163   6.940  1.9301 -0.0407 -0.5523
 2531SOL     OW19051   1.248   1.397   2.747  0.2739  0.0866 -0.2571
 2531SOL    HW119052   1.221   1.306   2.740  0.0068  0.0053  2.0224
 2531SOL    HW219053   1.239   1.423   2.655 -2.4904  3.6948  1.0028
 2532SOL     OW19054   4.329   4.484   8.257  0.3288  0.2808 -0.2614
 2532SOL    HW119055   4.338   4.430   8.336  2.7075  2.9427  1.3172
 2532SOL    HW219056   4.234   4.495   8.252  0.3504  0.2735 -0.6713
 2533SOL     OW19057   0.727   3.589  16.341  0.5684  0.1730 -0.4411
 2533SOL    HW119058   0.638   3.595  16.306  0.4761 -1.0986 -0.4022
 2533SOL    HW219059   0.737   3.677  16.377 -0.4528  1.3702 -3.1245
 2534SOL     OW19060   4.617   3.590   8.418 -0.4496  0.1636 -0.2363
 2534SOL    HW119061   4.575   3.567   8.335  0.6321 -0.9734 -0.4636
 2534SOL    HW219062   4.659   3.675   8.406  0.3071 -0.3868 -1.4659
 2535SOL     OW19063   4.514   3.154  16.743  0.0967 -0.4270 -0.1410
 2535SOL    HW119064   4.536   3.086  16.680 -0.2442 -0.6085 -0.0658
 2535SOL    HW219065   4.586   3.212  16.719 -1.1743  1.3529  0.3925
 2536SOL     OW19066   2.716   4.321   2.483  0.1977  0.5122 -0.1063
 2536SOL    HW119067   2.703   4.246   2.541  1.3008 -0.6584 -1.3704
 2536SOL    HW219068   2.737   4.267   2.407 -2.0789 -0.0588 -0.3054
 2537SOL     OW19069   2.872   3.030  16.826  0.2170  0.7504  0.2019
 2537SOL    HW119070   2.904   2.960  16.883  0.8957  0.5574 -0.4150
 2537SOL    HW219071   2.849   3.092  16.895 -0.6674  1.7901 -1.0320
 2538SOL     OW19072   1.739   1.190  11.414  0.1205 -0.0257  0.1149
 2538SOL    HW119073   1.835   1.187  11.406 -0.0993 -2.4073 -1.4309
 2538SOL    HW219074   1.725   1.235  11.330 -3.8065 -2.7634 -0.6674
 2539SOL     OW19075   3.088   4.437   5.052 -0.4938  0.1403 -0.0332
 2539SOL    HW119076   3.013   4.464   4.998 -0.1918  4.9278  1.9279
 2539SOL    HW219077   3.049   4.421   5.139  1.0471 -1.0881  0.4404
 2540SOL     OW19078   4.378   2.593   3.094 -0.3666 -0.2691  0.0558
 2540SOL    HW119079   4.448   2.608   3.157 -0.0153 -0.2568 -0.3346
 2540SOL    HW219080   4.307   2.647   3.129 -0.8296 -0.2687 -0.8852
 2541SOL     OW19081   3.637   3.479   0.768 -0.4332  0.6107 -0.2925
 2541SOL    HW119082   3.655   3.559   0.817  2.9059 -0.3717  0.1015
 2541SOL    HW219083   3.624   3.407   0.830  1.2592  0.6585  0.1204
 2542SOL     OW19084   2.587   3.374   4.399 -0.3284 -0.0084 -0.8805
 2542SOL    HW119085   2.668   3.404   4.442 -0.8667 -1.9649  1.5396
 2542SOL    HW219086   2.514   3.399   4.455  0.8748 -0.5574  0.9777
 2543SOL     OW19087   0.621   2.245   0.616  0.3588 -0.1756 -0.3078
 2543SOL    HW119088   0.610   2.339   0.626  0.4156 -0.2755  0.7265
 2543SOL    HW219089   0.686   2.221   0.683 -0.5685  0.1440  0.6949
 2544SOL     OW19090   1.265   3.212   1.528  0.5936 -0.3594  0.2630
 2544SOL    HW119091   1.226   3.289   1.569 -2.9832 -1.2652 -1.4271
 2544SOL    HW219092   1.356   3.203   1.559  0.9046 -0.7565 -0.7723
 2545SOL     OW19093   3.214   3.578   8.372  0.3122  0.0969  0.5868
 2545SOL    HW119094   3.307   3.564   8.385  0.5650  0.5541 -0.7221
 2545SOL    HW219095   3.174   3.491   8.379  0.3722  0.1328  1.3577
 2546SOL     OW19096   4.069   0.387   6.197  0.6615 -0.4876 -0.0492
 2546SOL    HW119097   4.019   0.316   6.156  1.4528 -0.5808 -0.8660
 2546SOL    HW219098   4.039   0.387   6.288 -2.8917 -1.6736 -1.2149
 2547SOL     OW19099   0.642   0.744   8.960  0.2445  0.5560 -0.0572
 2547SOL    HW119100   0.720   0.795   8.939 -0.2027  1.5519  0.7411
 2547SOL    HW219101   0.672   0.653   8.964 -2.7381 -0.4582 -0.2793
 2548SOL     OW19102   1.496   0.251  11.826 -0.4393 -0.6314 -0.2522
 2548SOL    HW119103   1.534   0.294  11.749 -2.7563  0.8338 -0.5669
 2548SOL    HW219104   1.424   0.304  11.860 -0.9831 -0.7073 -1.2883
 2549SOL     OW19105   1.375   0.127   8.838 -0.1800 -0.0383  0.3913
 2549SOL    HW119106   1.297   0.177   8.813  0.3717  0.8409  0.4228
 2549SOL    HW219107   1.432   0.202   8.857 -1.0400  0.1675  2.1545
 2550SOL     OW19108   1.088   3.203   3.238 -0.3438 -0.2281  0.0649
 2550SOL    HW119109   1.016   3.171   3.292  1.2990 -1.1837  1.7061
 2550SOL    HW219110   1.096   3.292   3.273  0.7240 -0.7337  1.1095
 2551SOL     OW19111   0.057   0.469   3.325  0.2343  0.1530 -0.3604
 2551SOL    HW119112   0.021   0.521   3.253  1.3277  0.9172 -0.3635
 2551SOL    HW219113   0.131   0.528   3.342  0.4149 -0.5224  1.1583
 2552SOL     OW19114   0.589   0.132  16.170  0.3623 -0.1114 -0.0858
 2552SOL    HW119115   0.538   0.172  16.100 -0.0188 -1.4612 -0.5770
 2552SOL    HW219116   0.615   0.053  16.123 -1.4748 -1.5831  1.3732
 2553SOL     OW19117   3.616   3.383   6.318 -0.0103  0.0232 -0.2550
 2553SOL    HW119118   3.708   3.395   6.341  0.0334 -1.7045  0.5168
 2553SOL    HW219119   3.609   3.435   6.238 -3.2272 -0.5458 -0.3155
 2554SOL     OW19120   2.806   3.273   2.415  0.2347 -0.2288  0.3580
 2554SOL    HW119121   2.793   3.279   2.320 -3.0462  0.0877  0.8486
 2554SOL    HW219122   2.896   3.305   2.409 -0.3810  1.4586  0.1018
 2555SOL     OW19123   0.839   2.562   1.982  0.3762  0.2734  0.1136
 2555SOL    HW119124   0.744   2.562   1.990  0.1607  0.3024 -2.5488
 2555SOL    HW219125   0.849   2.495   1.914 -0.2386 -0.9421  1.2178
 2556SOL     OW19126   3.689   3.052  13.933  0.3632 -0.8637  0.0571
 2556SOL    HW119127   3.775   3.084  13.906 -0.2395  0.4989 -0.2621
 2556SOL    HW219128   3.643   3.052  13.849  0.0174 -0.1664  0.2415
 2557SOL     OW19129   1.228   1.237   1.786  0.3021 -0.3829  0.3769
 2557SOL    HW119130   1.145   1.261   1.827  0.6827 -0.7230  1.3477
 2557SOL    HW219131   1.260   1.326   1.770  1.7812 -0.7413  1.2952
 2558SOL     OW19132   2.857   0.193   4.117 -0.6857  0.4475 -0.1023
 2558SOL    HW119133   2.937   0.182   4.167  0.5333  1.0024 -1.9314
 2558SOL    HW219134   2.839   0.107   4.080  2.6077  0.2455 -1.2218
 2559SOL     OW19135   3.084   3.566   0.972  0.1470 -0.2888 -0.0984
 2559SOL    HW119136   3.025   3.493   0.987  0.2943 -0.2984  0.4359
 2559SOL    HW219137   3.170   3.523   0.976  0.6503  0.4236 -3.1965
 2560SOL     OW19138   1.202   4.050   5.142 -0.0509 -0.0734 -0.2689
 2560SOL    HW119139   1.217   4.125   5.199 -1.7609 -1.4636  2.0089
 2560SOL    HW219140   1.108   4.052   5.126  0.2311  0.2083 -1.8591
 2561SOL     OW19141   1.338   3.259  12.089  0.7951 -0.5727  0.2084
 2561SOL    HW119142   1.351   3.351  12.114 -0.1977 -0.3049 -0.2544
 2561SOL    HW219143   1.359   3.278  11.998  0.0224  3.3599  0.8468
 2562SOL     OW19144   2.006   1.963   7.060  0.1896 -0.1405  0.1081
 2562SOL    HW119145   1.975   1.962   7.150 -0.5500 -0.2384 -0.1533
 2562SOL    HW219146   2.030   2.055   7.047 -1.6929  0.4168  0.5353
 2563SOL     OW19147   3.295   2.667   1.387  0.1152  0.1455  0.4387
 2563SOL    HW119148   3.381   2.706   1.400  0.4906 -0.1581 -1.0894
 2563SOL    HW219149   3.234   2.739   1.370  0.2770  0.1571 -0.0862
 2564SOL     OW19150   2.510   0.405   4.641  0.0124 -0.1612 -0.2083
 2564SOL    HW119151   2.527   0.445   4.556  1.3929  2.6626  1.4103
 2564SOL    HW219152   2.595   0.433   4.675 -1.5335  1.4151  2.3864
 2565SOL     OW19153   2.274   4.332  12.282 -0.2930 -0.4637 -0.1599
 2565SOL    HW119154   2.225   4.327  12.364 -0.2206  1.3808 -0.0075
 2565SOL    HW219155   2.233   4.410  12.244 -2.2616 -0.7754  1.3262
 2566SOL     OW19156   0.754   0.218   6.729 -0.0490 -0.0032 -0.0933
 2566SOL    HW119157   0.820   0.150   6.715 -1.5692 -1.8795  1.7655
 2566SOL    HW219158   0.749   0.234   6.823 -1.0136  1.6687 -0.4229
 2567SOL     OW19159   1.212   1.087   8.573  0.0859  0.1362  0.6867
 2567SOL    HW119160   1.160   1.068   8.496  2.1003 -0.7002 -0.4683
 2567SOL    HW219161   1.195   1.008   8.624  0.6494  2.3247  4.2538
 2568SOL     OW19162   3.143   0.724   2.646 -0.1881  0.5627  0.2163
 2568SOL    HW119163   3.231   0.696   2.623 -1.6434 -2.1085 -1.9929
 2568SOL    HW219164   3.145   0.701   2.739 -2.0566 -2.5558 -0.5115
 2569SOL     OW19165   3.839   3.204   0.790 -0.4327 -0.5045 -0.0540
 2569SOL    HW119166   3.925   3.216   0.830 -1.1180 -0.3025  1.3708
 2569SOL    HW219167   3.800   3.291   0.791  1.3987  0.2743  1.9344
 2570SOL     OW19168   1.486   3.724  10.794  0.2259 -0.7575 -0.2451
 2570SOL    HW119169   1.540   3.668  10.849  0.5107 -0.6551 -0.4192
 2570SOL    HW219170   1.418   3.657  10.779 -0.9303  0.1426  1.0392
 2571SOL     OW19171   1.910   1.474  10.254  0.2818  0.1706 -0.1104
 2571SOL    HW119172   1.899   1.394  10.203  1.8431  0.6418 -1.1842
 2571SOL    HW219173   1.974   1.510  10.193  1.5711 -4.8637 -1.7096
 2572SOL     OW19174   1.522   0.887  10.770  0.1058  0.0951 -0.3348
 2572SOL    HW119175   1.554   0.977  10.768  0.6974 -0.0159  3.5313
 2572SOL    HW219176   1.483   0.866  10.854 -1.5563 -0.8864 -1.3549
 2573SOL     OW19177   0.615   2.072  11.002  0.1282 -0.0560 -0.0294
 2573SOL    HW119178   0.627   1.994  11.057  1.4015 -0.6395 -1.1376
 2573SOL    HW219179   0.554   2.127  11.051 -0.8780 -3.3330  2.3769
 2574SOL     OW19180   3.859   3.591  15.038 -0.2404  0.2924 -0.4061
 2574SOL    HW119181   3.769   3.564  15.057 -0.5904  0.0089 -2.5018
 2574SOL    HW219182   3.910   3.525  15.084 -0.5782  0.2350 -0.1156
 2575SOL     OW19183   4.098   2.953   7.529  0.2101  0.3898 -0.0565
 2575SOL    HW119184   4.018   2.953   7.477  1.0937  0.7996 -1.4001
 2575SOL    HW219185   4.154   3.005   7.472 -0.3892  1.0079 -0.0905
 2576SOL     OW19186   0.122   0.676   4.789  0.2292 -0.0677 -0.4219
 2576SOL    HW119187   0.068   0.739   4.743  0.5515 -0.9023 -1.9568
 2576SOL    HW219188   0.072   0.601   4.820 -0.4900  0.5224 -0.1694
 2577SOL     OW19189   0.367   3.500   2.683 -0.1593  0.2752  0.1075
 2577SOL    HW119190   0.422   3.576   2.701  0.3779  0.1409 -0.9773
 2577SOL    HW219191   0.325   3.520   2.599 -0.4939  4.1451  1.2019
 2578SOL     OW19192   1.801   1.020   3.252 -0.1395 -0.1775 -0.0194
 2578SOL    HW119193   1.824   1.018   3.345 -2.6399  0.7552  0.6168
 2578SOL    HW219194   1.757   0.935   3.250  0.0893 -0.2866 -0.6876
 2579SOL     OW19195   3.496   1.851  13.705 -0.4122  0.1665 -0.6856
 2579SOL    HW119196   3.513   1.757  13.698  2.0220  0.7231 -2.2606
 2579SOL    HW219197   3.556   1.883  13.637  0.6594 -1.0225 -0.2811
 2580SOL     OW19198   1.626   4.096  16.920  0.0761 -0.5950 -0.3751
 2580SOL    HW119199   1.623   4.145  17.002  1.0519  1.7149 -1.6994
 2580SOL    HW219200   1.639   4.007  16.950 -0.9098 -0.9053 -0.8655
 2581SOL     OW19201   0.677   1.838   4.627  0.2663  0.0967 -0.2567
 2581SOL    HW119202   0.764   1.871   4.606  0.3578  1.0616  1.6861
 2581SOL    HW219203   0.705   1.748   4.645 -0.7418 -0.1153  0.2470
 2582SOL     OW19204   2.312   1.330   3.291  0.2638  0.1921 -0.1621
 2582SOL    HW119205   2.333   1.271   3.218  0.1712  0.2384 -0.2271
 2582SOL    HW219206   2.251   1.278   3.344 -0.2633  2.2870  1.2912
 2583SOL     OW19207   4.092   0.999   3.385  0.2659  0.1558 -0.7478
 2583SOL    HW119208   4.045   0.917   3.396  0.5242  0.7750  4.8721
 2583SOL    HW219209   4.018   1.057   3.364 -0.4891 -1.0277 -1.4039
 2584SOL     OW19210   4.081   1.722   2.834  0.1625  0.2181 -0.3362
 2584SOL    HW119211   4.107   1.712   2.926 -2.2124  0.6073  0.3658
 2584SOL    HW219212   3.989   1.722   2.859  0.2161 -0.0661 -0.1358
 2585SOL     OW19213   0.641   0.086   3.572 -0.1448  0.3700 -0.0931
 2585SOL    HW119214   0.551   0.116   3.586 -0.0308  0.3392  0.7246
 2585SOL    HW219215   0.693   0.167   3.569  0.2968 -0.0205 -2.7020
 2586SOL     OW19216   3.087   1.070   2.816 -0.2537  0.3377 -0.6652
 2586SOL    HW119217   3.128   1.016   2.749 -0.9719 -1.6862  0.5200
 2586SOL    HW219218   2.997   1.039   2.807  0.4079 -1.6210 -0.3578
 2587SOL     OW19219   1.566   1.094   7.470 -0.1802  0.1526 -0.1912
 2587SOL    HW119220   1.521   1.046   7.540 -0.9842 -1.2597 -1.6790
 2587SOL    HW219221   1.646   1.042   7.464  1.8950  3.3550 -0.1430
 2588SOL     OW19222   0.365   0.211   4.817 -0.5232 -0.7107 -0.4032
 2588SOL    HW119223   0.401   0.254   4.739 -0.9135  1.4749  0.6227
 2588SOL    HW219224   0.398   0.121   4.812 -1.3735 -1.0060 -0.6179
 2589SOL     OW19225   4.275   3.488  16.917 -0.4138  0.2114 -0.6468
 2589SOL    HW119226   4.220   3.439  16.978  1.2833  1.3701  1.8525
 2589SOL    HW219227   4.264   3.434  16.839 -2.0319  2.1886 -1.7872
 2590SOL     OW19228   1.422   0.968   0.360 -0.3370  0.0911  0.2130
 2590SOL    HW119229   1.346   0.914   0.380  0.2692 -1.1655 -0.8545
 2590SOL    HW219230   1.384   1.033   0.301 -2.0646 -1.5388 -0.4267
 2591SOL     OW19231   1.988   0.120   0.944  0.0815 -0.6839 -0.5265
 2591SOL    HW119232   2.002   0.074   0.861  0.2439  1.0507 -1.4600
 2591SOL    HW219233   1.984   0.211   0.916  2.1508  0.3253  2.4530
 2592SOL     OW19234   3.894   3.563  10.006  0.0563  0.1838 -0.2371
 2592SOL    HW119235   3.971   3.510   9.988 -2.0486 -2.6663 -0.9233
 2592SOL    HW219236   3.863   3.595   9.922  0.7707  1.2800 -0.0814
 2593SOL     OW19237   0.690   4.287   7.521 -0.7997  0.1535 -0.5400
 2593SOL    HW119238   0.659   4.307   7.610  0.1878  2.4986 -0.7101
 2593SOL    HW219239   0.708   4.193   7.522 -1.9293 -0.0588  0.1261
 2594SOL     OW19240   4.578   3.999   7.440  0.5320  0.2878  0.2892
 2594SOL    HW119241   4.597   4.022   7.531  2.9679  1.0521 -0.4161
 2594SOL    HW219242   4.594   4.086   7.403  0.2083 -0.2559 -1.1129
 2595SOL     OW19243   0.979   4.239   6.976 -0.2969 -0.2096  0.6510
 2595SOL    HW119244   0.935   4.309   7.024  2.3271  1.8063  0.1342
 2595SOL    HW219245   0.989   4.173   7.045 -0.5521  0.0615  0.9449
 2596SOL     OW19246   3.113   1.129  10.150  0.1971  0.1656 -0.5923
 2596SOL    HW119247   3.204   1.125  10.181  0.1499 -2.4409 -0.7876
 2596SOL    HW219248   3.076   1.090  10.229 -0.7887  0.2031 -1.0354
 2597SOL     OW19249   0.042   1.542   7.423 -0.0205  0.1172 -0.4243
 2597SOL    HW119250   0.072   1.455   7.450  1.0754  0.7237  0.3007
 2597SOL    HW219251   0.103   1.596   7.473 -1.7978  0.6125  1.2157
 2598SOL     OW19252   0.834   2.238   5.106 -0.3794  0.9261  0.1204
 2598SOL    HW119253   0.910   2.214   5.158 -0.9760 -0.1013  0.5237
 2598SOL    HW219254   0.858   2.185   5.030  1.6007  0.7228  0.8974
 2599SOL     OW19255   2.769   2.485  13.385 -0.7200  0.8937 -0.2072
 2599SOL    HW119256   2.856   2.458  13.414 -1.2494 -0.2706  0.3153
 2599SOL    HW219257   2.741   2.523  13.468  0.7187 -2.1464  1.6531
 2600SOL     OW19258   1.636   3.606  11.016  0.9484 -0.1107 -0.3014
 2600SOL    HW119259   1.728   3.583  11.030  1.2461 -0.3056 -2.5247
 2600SOL    HW219260   1.608   3.581  11.103 -0.8334  0.5878 -0.6758
 2601SOL     OW19261   1.778   4.437   6.353 -0.4832  0.0896  0.1485
 2601SOL    HW119262   1.745   4.523   6.328 -1.5601 -0.4316 -0.2294
 2601SOL    HW219263   1.701   4.396   6.395 -0.5497  1.0770  1.0036
 2602SOL     OW19264   3.267   2.422  16.104 -0.3767 -0.5600  0.1342
 2602SOL    HW119265   3.347   2.450  16.149  0.0811  0.6174 -1.4031
 2602SOL    HW219266   3.256   2.495  16.043  0.8850 -0.8507 -0.4479
 2603SOL     OW19267   2.608   3.425  11.382  0.4136  0.0179  0.1649
 2603SOL    HW119268   2.609   3.480  11.304  0.0595 -0.8628 -0.4694
 2603SOL    HW219269   2.699   3.440  11.405  0.4940  3.0548 -2.2065
 2604SOL     OW19270   2.420   1.029   3.945  0.6044 -0.1810 -0.1076
 2604SOL    HW119271   2.477   1.105   3.937 -1.1919  1.2221  0.5460
 2604SOL    HW219272   2.488   0.963   3.939  0.5829 -0.2118 -0.0192
 2605SOL     OW19273   0.026   2.329  13.635 -0.4941  0.1983  0.5572
 2605SOL    HW119274   4.670   2.380  13.616 -1.3415 -0.3673  2.5639
 2605SOL    HW219275   4.715   2.243  13.660  0.7115 -0.2544  0.6031
 2606SOL     OW19276   0.718   1.952   3.952  0.1720 -0.5467 -0.0663
 2606SOL    HW119277   0.716   1.956   3.856 -2.4267 -1.8806 -0.0740
 2606SOL    HW219278   0.680   1.865   3.966  0.5001 -0.4901  1.1311
 2607SOL     OW19279   0.768   4.479   2.865  0.2767 -0.3651 -0.5391
 2607SOL    HW119280   0.829   4.470   2.939 -1.4671  0.2604  0.9633
 2607SOL    HW219281   0.686   4.466   2.912 -0.0722 -2.1574 -1.6585
 2608SOL     OW19282   1.210   3.116   2.531  0.8656  0.4007  0.2886
 2608SOL    HW119283   1.209   3.093   2.623  2.6110 -3.7278 -0.7102
 2608SOL    HW219284   1.300   3.148   2.522  0.5506  0.8405 -1.4490
 2609SOL     OW19285   3.420   0.178  13.714  0.3243 -0.4922  0.2072
 2609SOL    HW119286   3.408   0.249  13.652  3.0392 -1.8554 -1.8835
 2609SOL    HW219287   3.515   0.192  13.721  0.2294 -0.7340  2.0011
 2610SOL     OW19288   2.314   3.269   3.885  0.3386 -0.7876 -0.8913
 2610SOL    HW119289   2.394   3.320   3.879 -0.0562  0.2269  2.2019
 2610SOL    HW219290   2.347   3.180   3.877  1.0818 -0.6987  1.1810
 2611SOL     OW19291   4.013   4.265  13.534 -0.0531 -0.4166  0.0384
 2611SOL    HW119292   4.062   4.310  13.466  1.0934 -1.8229 -0.0702
 2611SOL    HW219293   3.953   4.334  13.563  0.5890 -0.2717  1.0286
 2612SOL     OW19294   2.937   0.083  14.929 -0.0932 -0.5367 -0.0817
 2612SOL    HW119295   3.025   0.072  14.892 -0.1334 -2.4518  0.3734
 2612SOL    HW219296   2.901   4.718  14.940  0.4941 -0.4520  2.4169
 2613SOL     OW19297   1.382   2.624   1.576  0.4710 -0.2559  1.0023
 2613SOL    HW119298   1.438   2.628   1.498 -0.6566  2.6583  0.3459
 2613SOL    HW219299   1.380   2.529   1.588 -1.1883 -0.0762  2.0857
 2614SOL     OW19300   1.686   0.616   5.690 -0.5437 -0.6743  0.6681
 2614SOL    HW119301   1.712   0.540   5.638 -0.2672  0.6922 -1.1791
 2614SOL    HW219302   1.645   0.591   5.773  2.3684 -0.9629  2.0204
 2615SOL     OW19303   0.432   1.605   0.613 -0.0419  0.1170 -0.1183
 2615SOL    HW119304   0.358   1.661   0.589 -0.4436 -1.0471 -1.6170
 2615SOL    HW219305   0.478   1.673   0.662  1.1779 -0.0985 -0.9272
 2616SOL     OW19306   3.560   3.140  17.465 -0.8040 -0.6762 -0.2465
 2616SOL    HW119307   3.599   3.079  17.528  1.1817  0.1830 -0.6259
 2616SOL    HW219308   3.512   3.202  17.520 -0.8120 -1.1119  0.2454
 2617SOL     OW19309   1.679   3.014   4.962  0.3391  1.0446  0.2562
 2617SOL    HW119310   1.725   3.083   4.914 -1.2986  3.0234  1.5338
 2617SOL    HW219311   1.717   2.937   4.920 -1.8657  0.8225 -1.3225
 2618SOL     OW19312   2.467   0.316  16.152  0.6293  0.2075  0.5936
 2618SOL    HW119313   2.534   0.336  16.087 -2.0291  1.8305 -1.6515
 2618SOL    HW219314   2.478   0.398  16.201  1.3428  0.7390 -0.4578
 2619SOL     OW19315   0.885   2.823   1.942  0.6258 -0.1001 -0.4060
 2619SOL    HW119316   0.866   2.735   1.975  0.8399  0.7998  2.1271
 2619SOL    HW219317   0.976   2.829   1.969  0.7974  0.5437 -1.1243
 2620SOL     OW19318   0.199   1.147  14.412 -0.5065  0.7959 -0.4145
 2620SOL    HW119319   0.183   1.056  14.390 -0.7467  0.4276  1.2565
 2620SOL    HW219320   0.222   1.135  14.504  1.2206  0.8561 -0.8357
 2621SOL     OW19321   2.330   2.725   6.226  0.0722 -0.9693 -0.2306
 2621SOL    HW119322   2.388   2.732   6.301  0.1227  0.0186 -0.3619
 2621SOL    HW219323   2.380   2.764   6.154 -0.0864  0.9873  0.7071
 2622SOL     OW19324   3.115   2.562  17.123  0.3815 -0.2809 -0.3067
 2622SOL    HW119325   3.118   2.504  17.047 -0.4742  0.9683 -1.3021
 2622SOL    HW219326   3.091   2.499  17.192 -1.1973 -1.6611 -2.1021
 2623SOL     OW19327   0.041   0.976   6.462  0.7832 -0.2456 -0.2531
 2623SOL    HW119328   0.061   0.958   6.554  0.7747 -0.1711 -0.2370
 2623SOL    HW219329   0.038   1.072   6.456 -0.1829 -0.2046  0.9474
 2624SOL     OW19330   2.571   1.668   5.891 -0.2839 -0.1105  0.2648
 2624SOL    HW119331   2.516   1.591   5.902 -0.6951  0.4677  2.3085
 2624SOL    HW219332   2.589   1.657   5.798  1.3498 -0.1478  0.5753
 2625SOL     OW19333   2.530   4.035   2.924 -0.0543 -0.2443 -0.1381
 2625SOL    HW119334   2.461   4.083   2.970 -0.9148 -1.6205  0.0293
 2625SOL    HW219335   2.495   4.026   2.836 -1.7000 -0.1695  0.5124
 2626SOL     OW19336   3.803   1.106   8.343  0.1257 -0.0548  0.0802
 2626SOL    HW119337   3.714   1.077   8.326 -0.0325  1.3924 -1.5874
 2626SOL    HW219338   3.852   1.024   8.333 -3.9420 -2.3590 -0.7967
 2627SOL     OW19339   0.761   3.637   9.570 -0.4845 -0.0674  0.3148
 2627SOL    HW119340   0.746   3.602   9.658 -0.5787 -0.3815  0.1733
 2627SOL    HW219341   0.700   3.595   9.510 -1.5076 -1.7328  2.5225
 2628SOL     OW19342   1.412   3.870  16.895  0.1248 -0.1030 -0.4471
 2628SOL    HW119343   1.495   3.878  16.943 -1.6245 -1.7705  2.9030
 2628SOL    HW219344   1.358   3.918  16.958  1.1758 -1.6926  1.7020
 2629SOL     OW19345   2.313   0.524   7.175  0.0083  0.0056 -0.2175
 2629SOL    HW119346   2.313   0.542   7.269  0.6403  0.8047 -0.3635
 2629SOL    HW219347   2.355   0.439   7.184  1.1314  0.6056  0.2080
 2630SOL     OW19348   2.015   0.331   8.419 -0.0498  0.0924 -0.0454
 2630SOL    HW119349   2.103   0.312   8.451  0.3508  3.1245  0.6056
 2630SOL    HW219350   2.024   0.385   8.342 -0.1616  0.2186  0.0294
 2631SOL     OW19351   4.215   3.513   7.059  0.4212  0.3239  0.1845
 2631SOL    HW119352   4.304   3.520   7.023  0.1816  0.2826 -0.4167
 2631SOL    HW219353   4.226   3.564   7.140  1.9276 -1.4877  1.1228
 2632SOL     OW19354   4.482   3.399  13.135 -0.0283 -0.1958 -0.2042
 2632SOL    HW119355   4.555   3.389  13.074  0.9210  0.8812  0.7540
 2632SOL    HW219356   4.477   3.312  13.174  0.9062 -0.8496 -1.5466
 2633SOL     OW19357   4.660   3.240  17.286  0.4980  0.0234  0.5151
 2633SOL    HW119358   0.002   3.170  17.294  0.1843 -0.2766  0.3716
 2633SOL    HW219359   4.652   3.266  17.377  2.3638 -2.3341  1.3527
 2634SOL     OW19360   1.950   1.479   6.279 -0.2564 -0.2569 -0.2003
 2634SOL    HW119361   1.950   1.452   6.371  0.2746 -2.7035 -0.8973
 2634SOL    HW219362   2.018   1.416   6.252 -2.2139 -2.5641  0.2217
 2635SOL     OW19363   4.659   1.402  10.322 -0.5624 -0.2101  0.2694
 2635SOL    HW119364   4.570   1.373  10.340 -0.7673 -0.4359 -1.0942
 2635SOL    HW219365   4.693   1.318  10.290 -2.2340 -0.6075 -0.4793
 2636SOL     OW19366   3.821   1.369   5.299 -0.0732 -0.5689  0.3017
 2636SOL    HW119367   3.839   1.446   5.353 -1.4973  0.2388 -0.3662
 2636SOL    HW219368   3.908   1.336   5.277 -0.5354 -1.1408 -0.6727
 2637SOL     OW19369   3.975   0.467   5.179 -0.1792 -0.5323  0.6364
 2637SOL    HW119370   3.907   0.490   5.242 -1.1404 -0.0807 -0.5608
 2637SOL    HW219371   4.050   0.471   5.238 -0.6804  1.2234  1.1528
 2638SOL     OW19372   0.458   1.793   3.134 -0.3775  0.1448  0.5638
 2638SOL    HW119373   0.457   1.837   3.049 -0.8172 -0.2925  0.3450
 2638SOL    HW219374   0.552   1.777   3.147 -0.8337 -1.5424  1.7971
 2639SOL     OW19375   3.755   1.095   1.252 -0.4225  0.1024 -0.5558
 2639SOL    HW119376   3.771   1.001   1.263 -1.9506 -0.1061 -0.1217
 2639SOL    HW219377   3.754   1.114   1.159 -0.0241  1.6971 -0.2327
 2640SOL     OW19378   0.748   0.388   8.939 -0.3023  0.1354  0.0097
 2640SOL    HW119379   0.766   0.315   8.880  0.1360 -0.7398  1.2284
 2640SOL    HW219380   0.715   0.338   9.014  1.6374 -1.2520 -0.0671
 2641SOL     OW19381   1.866   2.143   1.571  0.2299  0.2537  0.7190
 2641SOL    HW119382   1.923   2.214   1.601 -1.4851  2.1095 -0.4897
 2641SOL    HW219383   1.822   2.116   1.652 -0.4813 -1.2436 -0.1795
 2642SOL     OW19384   2.400   0.974   3.611 -0.0954 -0.5963 -0.7413
 2642SOL    HW119385   2.469   0.908   3.607  0.9109  0.5474 -2.3040
 2642SOL    HW219386   2.328   0.931   3.565 -0.5876 -0.3552 -0.1982
 2643SOL     OW19387   1.207   2.052   0.523 -0.7952  0.0939 -0.4054
 2643SOL    HW119388   1.269   2.122   0.543 -0.9492  0.2383 -0.4342
 2643SOL    HW219389   1.240   1.999   0.450 -0.7588  0.6727 -0.8072
 2644SOL     OW19390   1.655   2.412  12.084 -0.2837  0.1224 -0.0015
 2644SOL    HW119391   1.596   2.347  12.046  1.6788 -1.5267 -0.1929
 2644SOL    HW219392   1.619   2.501  12.075 -0.3104 -0.0232 -1.3229
 2645SOL     OW19393   0.265   1.528   5.658  0.5640 -0.4206  0.2249
 2645SOL    HW119394   0.192   1.538   5.598  1.5391  0.5789 -0.7901
 2645SOL    HW219395   0.333   1.570   5.606 -0.3660  0.5516 -0.2101
 2646SOL     OW19396   2.345   2.949   3.045 -0.2616 -0.1540  0.1983
 2646SOL    HW119397   2.365   2.855   3.045  2.6510  0.4381 -2.7028
 2646SOL    HW219398   2.307   2.960   3.132  0.4315  1.3998  0.3059
 2647SOL     OW19399   0.890   1.810  17.666  0.6173  0.8159  0.4437
 2647SOL    HW119400   0.936   1.834   0.054  0.6659 -0.8852  0.9214
 2647SOL    HW219401   0.962   1.776  17.612  0.1833  1.1552 -0.3443
 2648SOL     OW19402   3.362   0.500  11.488 -0.0081 -0.7410 -1.2090
 2648SOL    HW119403   3.349   0.406  11.490  0.9387 -0.8251  1.3283
 2648SOL    HW219404   3.439   0.516  11.433  1.2035 -1.9258  0.1433
 2649SOL     OW19405   2.904   2.231   6.827 -1.8228  0.3588  0.6166
 2649SOL    HW119406   2.808   2.233   6.836 -1.6999  0.5200  1.9624
 2649SOL    HW219407   2.918   2.143   6.792  0.4487  1.2653 -0.7208
 2650SOL     OW19408   2.754   0.699  13.100  0.3563  0.2048  0.5410
 2650SOL    HW119409   2.822   0.766  13.099  1.3969 -0.9017 -2.7996
 2650SOL    HW219410   2.803   0.617  13.097  0.4665  0.2939 -0.1275
 2651SOL     OW19411   2.996   2.639  11.635  0.1571 -0.5937  0.1512
 2651SOL    HW119412   3.075   2.635  11.581  0.7911  0.8972  0.9783
 2651SOL    HW219413   3.006   2.720  11.685  0.3536 -1.2187  1.1115
 2652SOL     OW19414   1.726   3.757   4.041 -0.2314  0.2841 -0.4139
 2652SOL    HW119415   1.762   3.790   3.959  0.2582  2.1322  0.5587
 2652SOL    HW219416   1.703   3.836   4.089 -1.7576  0.0245 -0.7105
 2653SOL     OW19417   1.992   0.472   4.968 -0.1787 -0.1278 -0.2723
 2653SOL    HW119418   1.937   0.510   5.037  0.1247 -0.3993  0.1216
 2653SOL    HW219419   1.952   0.386   4.960  0.0552 -0.2239 -0.3861
 2654SOL     OW19420   0.984   1.751  10.114  0.5083  0.6105 -0.1218
 2654SOL    HW119421   1.018   1.825  10.163 -2.0994  1.4863  0.3921
 2654SOL    HW219422   0.890   1.773  10.114 -0.0133 -1.5992 -0.5426
 2655SOL     OW19423   3.463   1.939   5.326  0.1715 -0.0303  0.2791
 2655SOL    HW119424   3.506   1.902   5.249  2.6517  0.6956  1.3140
 2655SOL    HW219425   3.422   2.013   5.283 -1.0781  0.7169  2.7500
 2656SOL     OW19426   2.642   3.773   7.154 -0.3023  0.2501 -0.4149
 2656SOL    HW119427   2.676   3.686   7.133 -1.3959 -0.3541  0.2974
 2656SOL    HW219428   2.649   3.772   7.250 -0.2426  0.6658 -0.4121
 2657SOL     OW19429   3.387   2.216   2.581 -0.5759  0.0040  0.5101
 2657SOL    HW119430   3.389   2.236   2.487 -3.6887  3.1848  1.1406
 2657SOL    HW219431   3.476   2.193   2.609 -0.3045 -1.7614 -1.7409
 2658SOL     OW19432   3.351   2.568  16.761 -0.1481 -0.5288  0.0539
 2658SOL    HW119433   3.270   2.523  16.737  0.2598 -0.4282 -1.4891
 2658SOL    HW219434   3.402   2.557  16.681 -0.4341 -1.2947 -0.0226
 2659SOL     OW19435   0.768   3.596   4.230  0.6012  0.2926  0.0990
 2659SOL    HW119436   0.805   3.668   4.280  1.2699  1.4151 -1.9962
 2659SOL    HW219437   0.846   3.545   4.207  0.4871  0.3878 -0.5001
 2660SOL     OW19438   1.316   1.786   2.078 -0.2818 -0.2510  0.3809
 2660SOL    HW119439   1.335   1.875   2.107 -0.2767 -0.1775  0.1520
 2660SOL    HW219440   1.262   1.803   2.001 -3.0456  0.7683  2.5505
 2661SOL     OW19441   1.605   3.888   2.879  0.4993  0.5279 -0.0028
 2661SOL    HW119442   1.682   3.852   2.836 -0.9512 -0.3417 -1.8402
 2661SOL    HW219443   1.621   3.982   2.887  1.6061  0.4490 -1.5052
 2662SOL     OW19444   0.409   4.236  13.945 -0.4114  0.2996  0.9178
 2662SOL    HW119445   0.489   4.272  13.985  0.1463  1.1032 -0.9401
 2662SOL    HW219446   0.341   4.290  13.985  1.1785  0.9633  2.7400
 2663SOL     OW19447   3.652   2.133   2.658 -0.1930  0.4188 -0.3352
 2663SOL    HW119448   3.718   2.083   2.610 -1.0944 -2.8178  1.7630
 2663SOL    HW219449   3.699   2.196   2.712 -0.7071  0.9000 -0.4457
 2664SOL     OW19450   2.351   0.153  13.380 -0.6929  0.1970  0.1024
 2664SOL    HW119451   2.435   0.126  13.417 -1.1247 -1.1740  0.0752
 2664SOL    HW219452   2.314   0.204  13.452  0.4453 -0.4412  1.1640
 2665SOL     OW19453   0.019   2.779   9.522  0.2259 -0.2351 -0.3801
 2665SOL    HW119454   4.708   2.726   9.450  1.9998 -2.5849  0.5209
 2665SOL    HW219455   4.666   2.806   9.573 -0.3224 -1.2603 -0.6518
 2666SOL     OW19456   3.190   1.361  16.578 -0.0841  0.5163 -0.2829
 2666SOL    HW119457   3.162   1.390  16.664  0.7367  0.8725 -0.1369
 2666SOL    HW219458   3.176   1.267  16.589 -1.1519  0.6117 -0.8162
 2667SOL     OW19459   1.224   1.984   3.082  0.0648 -0.4590  0.3961
 2667SOL    HW119460   1.188   1.910   3.035 -0.9963  0.0353  0.4357
 2667SOL    HW219461   1.311   1.985   3.042  0.2578 -0.1482  0.8165
 2668SOL     OW19462   1.675   3.151   1.126  0.2636  0.3815  0.6425
 2668SOL    HW119463   1.596   3.140   1.072 -0.4075  0.4003  1.6238
 2668SOL    HW219464   1.710   3.232   1.089  1.4338  0.0374  1.0117
 2669SOL     OW19465   1.168   4.357   8.176 -0.4067 -0.6403 -0.1102
 2669SOL    HW119466   1.099   4.295   8.201 -0.4715 -0.5178  0.0184
 2669SOL    HW219467   1.135   4.441   8.208  1.9701 -0.7304  2.5183
 2670SOL     OW19468   4.485   3.588  10.924 -0.4996  0.0406  0.1665
 2670SOL    HW119469   4.468   3.659  10.862  0.1383 -1.7853 -2.0991
 2670SOL    HW219470   4.479   3.622  11.014 -0.2711 -2.0635  0.9840
 2671SOL     OW19471   2.173   1.478   5.754 -0.3329  0.1783  0.4170
 2671SOL    HW119472   2.224   1.485   5.674 -0.1342  1.5951  0.6670
 2671SOL    HW219473   2.126   1.561   5.752  2.2622  1.5909 -1.2469
 2672SOL     OW19474   4.464   3.695   3.971 -0.6770  0.2451 -0.0950
 2672SOL    HW119475   4.451   3.690   3.876  0.6732  2.2986 -0.3920
 2672SOL    HW219476   4.377   3.685   4.009  1.1949 -3.1222  3.2796
 2673SOL     OW19477   1.831   0.010  15.712 -0.1811 -0.3643  0.4806
 2673SOL    HW119478   1.849   0.060  15.633 -0.5348 -3.1967 -1.4020
 2673SOL    HW219479   1.812   0.078  15.776 -1.5109 -0.1787 -0.1107
 2674SOL     OW19480   3.110   3.488  13.913  0.4169  0.3419  0.3054
 2674SOL    HW119481   3.055   3.507  13.836  0.2061 -0.1014  0.3512
 2674SOL    HW219482   3.059   3.496  13.993  0.0206 -1.2072  0.2015
 2675SOL     OW19483   4.305   3.717  17.050 -0.3151  0.2735  0.0893
 2675SOL    HW119484   4.232   3.696  17.108  0.2076 -2.8797 -0.4185
 2675SOL    HW219485   4.304   3.635  17.001 -1.9936 -0.3978  1.2378
 2676SOL     OW19486   0.537   2.277   9.227 -0.0472 -0.3179 -0.0777
 2676SOL    HW119487   0.480   2.353   9.238 -1.8114 -1.4159 -1.6108
 2676SOL    HW219488   0.620   2.324   9.222 -0.5746  0.5030 -1.2620
 2677SOL     OW19489   0.590   2.968   0.429  0.1621  0.7591  0.2312
 2677SOL    HW119490   0.680   2.979   0.460  0.1690  0.5688  0.2759
 2677SOL    HW219491   0.578   3.056   0.392  0.0988 -0.6156 -3.0355
 2678SOL     OW19492   1.637   2.255   9.130  0.2448  0.2229  0.3815
 2678SOL    HW119493   1.579   2.263   9.055  2.2210  1.9343 -0.9626
 2678SOL    HW219494   1.579   2.251   9.207  0.2807  0.2194  0.4083
 2679SOL     OW19495   0.112   2.928   8.344 -0.2311  0.1474 -0.0229
 2679SOL    HW119496   0.122   2.862   8.276 -0.3946 -1.1476  1.2028
 2679SOL    HW219497   0.110   2.878   8.426  1.9505 -0.0868 -0.1057
 2680SOL     OW19498   1.634   0.398   4.401  0.4260  0.2229 -0.1745
 2680SOL    HW119499   1.554   0.408   4.349 -0.2458  1.5276  1.1121
 2680SOL    HW219500   1.592   0.344   4.468 -0.1877 -0.1118 -0.8283
 2681SOL     OW19501   3.789   1.905  17.224  0.3251  0.0279 -0.5852
 2681SOL    HW119502   3.836   1.827  17.253 -0.2709 -0.5196 -1.0866
 2681SOL    HW219503   3.863   1.954  17.189  0.0815  0.7307 -0.1169
 2682SOL     OW19504   0.024   4.064   8.936  0.9074  0.2091  0.3429
 2682SOL    HW119505   4.657   4.073   8.901  0.9443  1.3291  0.5520
 2682SOL    HW219506   0.024   3.978   8.979 -0.4526 -0.1827 -0.4065
 2683SOL     OW19507   0.214   1.296   7.056 -0.2843 -0.5311 -0.6836
 2683SOL    HW119508   0.148   1.280   6.990  1.0786 -0.2930 -2.1101
 2683SOL    HW219509   0.251   1.209   7.070  1.9337  0.7602  1.6185
 2684SOL     OW19510   1.265   1.989   3.569  0.5051  0.0178 -0.1517
 2684SOL    HW119511   1.329   1.918   3.571  1.4429  0.8900  1.9152
 2684SOL    HW219512   1.192   1.962   3.513 -0.3497  0.9224  0.5219
 2685SOL     OW19513   1.406   3.225   0.627 -0.0771  0.4473  0.3031
 2685SOL    HW119514   1.427   3.314   0.654  0.3239  0.7880 -1.1603
 2685SOL    HW219515   1.344   3.247   0.557  0.8568  1.3253 -0.2467
 2686SOL     OW19516   4.420   1.170   4.481  0.3097  0.4885 -0.2430
 2686SOL    HW119517   4.398   1.250   4.530  2.7192  0.1924  1.3450
 2686SOL    HW219518   4.459   1.204   4.401  1.5888  2.3227  1.1381
 2687SOL     OW19519   2.857   0.444   3.973 -0.0683  0.1345  0.2168
 2687SOL    HW119520   2.879   0.372   4.033  1.0389  0.1243 -0.2193
 2687SOL    HW219521   2.879   0.516   4.032  0.7270 -0.0257  0.1118
 2688SOL     OW19522   4.025   4.035   6.418 -0.4078 -0.1633 -0.4713
 2688SOL    HW119523   3.977   4.099   6.365 -1.4659  0.3062  1.0518
 2688SOL    HW219524   4.110   4.079   6.418 -0.8862  0.7581 -0.3177
 2689SOL     OW19525   2.167   3.279   4.111 -0.1529  0.1565 -0.5987
 2689SOL    HW119526   2.223   3.303   4.037  0.2291 -0.1240 -0.4004
 2689SOL    HW219527   2.180   3.357   4.166 -1.7390 -0.6972  0.9789
 2690SOL     OW19528   3.114   1.482   3.347  0.3451  0.3382 -0.6825
 2690SOL    HW119529   3.157   1.458   3.265 -0.0607 -0.8562 -0.5442
 2690SOL    HW219530   3.035   1.428   3.351  1.6188 -1.6429 -1.9552
 2691SOL     OW19531   2.840   0.770   0.202  0.1867  0.0671 -0.5912
 2691SOL    HW119532   2.861   0.677   0.197 -0.6773 -0.2350  1.6620
 2691SOL    HW219533   2.906   0.802   0.141 -0.5051 -0.6932 -1.7407
 2692SOL     OW19534   0.783   2.111   8.307  0.0529  0.0694  0.1291
 2692SOL    HW119535   0.689   2.099   8.304 -0.1180  1.8719 -1.7503
 2692SOL    HW219536   0.800   2.120   8.401  0.8517  1.5565 -0.1604
 2693SOL     OW19537   3.746   3.823  10.742  0.4267  0.0370  0.3779
 2693SOL    HW119538   3.660   3.843  10.779  0.3935 -0.2641  0.4621
 2693SOL    HW219539   3.801   3.817  10.819 -0.8704  0.2912  1.3275
 2694SOL     OW19540   4.106   2.369  17.484 -0.0879  0.5104 -0.5051
 2694SOL    HW119541   4.044   2.383  17.555  2.7501  0.2102  2.0494
 2694SOL    HW219542   4.171   2.435  17.508 -2.3131  2.4977  0.0455
 2695SOL     OW19543   1.775   2.462   4.728 -0.4452  0.4369 -0.4065
 2695SOL    HW119544   1.685   2.494   4.729 -0.2319  0.9137  1.8280
 2695SOL    HW219545   1.816   2.535   4.773 -2.0554 -0.8474  3.1078
 2696SOL     OW19546   0.205   0.401   9.960 -0.7791 -0.4594 -0.5548
 2696SOL    HW119547   0.144   0.328   9.965 -1.7361  0.3275 -0.7275
 2696SOL    HW219548   0.254   0.382  10.040 -0.6401 -0.3299 -0.6090
 2697SOL     OW19549   1.966   4.350  12.629  0.2854 -0.2371 -0.0814
 2697SOL    HW119550   1.945   4.443  12.621 -2.6208 -1.0309 -1.6100
 2697SOL    HW219551   1.902   4.314  12.568 -0.0551  1.5605 -0.7926
 2698SOL     OW19552   0.577   3.556   5.714  0.8828 -0.3431 -0.3489
 2698SOL    HW119553   0.533   3.639   5.734  0.8934 -0.4756  0.2246
 2698SOL    HW219554   0.605   3.543   5.805 -0.7536  1.8590  0.4842
 2699SOL     OW19555   4.595   0.859   7.863  0.5531 -0.1313 -0.6523
 2699SOL    HW119556   4.554   0.902   7.938 -0.4188  0.2998 -1.4342
 2699SOL    HW219557   4.517   0.856   7.807  0.8640  0.0090 -1.0910
 2700SOL     OW19558   1.563   1.054   2.700  0.6837  0.1908  0.3715
 2700SOL    HW119559   1.538   1.141   2.669  0.0257 -0.5132 -1.0793
 2700SOL    HW219560   1.610   1.021   2.624 -1.5912  0.8648 -1.3420
 2701SOL     OW19561   4.624   2.178   9.393 -0.0988  0.2151  0.4909
 2701SOL    HW119562   4.681   2.134   9.331  1.2396  0.8899  1.2468
 2701SOL    HW219563   4.555   2.202   9.330 -1.1418 -1.3979  1.0256
 2702SOL     OW19564   2.681   3.007  13.175 -0.2604  0.2304 -0.5019
 2702SOL    HW119565   2.720   3.028  13.090  1.0476 -3.6827 -0.8747
 2702SOL    HW219566   2.679   2.912  13.164  1.0695  0.0872  0.4457
 2703SOL     OW19567   4.637   3.560   4.138  0.3580 -0.3552  0.3118
 2703SOL    HW119568   4.612   3.468   4.132  1.8069 -0.7447  0.1696
 2703SOL    HW219569   4.570   3.606   4.088  0.7923  2.1651  2.0801
 2704SOL     OW19570   0.291   1.455   8.797 -0.1442  0.2116 -0.2246
 2704SOL    HW119571   0.252   1.433   8.881  1.9944 -1.2859  0.3631
 2704SOL    HW219572   0.264   1.546   8.784 -2.6366 -0.5165 -0.1456
 2705SOL     OW19573   3.783   0.114  11.128 -0.1451 -0.2095 -0.3695
 2705SOL    HW119574   3.761   0.183  11.066 -0.3814 -0.3873 -0.4808
 2705SOL    HW219575   3.843   0.171  11.177 -2.2657 -0.2986  2.2910
 2706SOL     OW19576   2.532   4.154  14.218  0.5780 -0.0923 -0.2303
 2706SOL    HW119577   2.505   4.178  14.307 -0.7875  0.9538 -0.9192
 2706SOL    HW219578   2.543   4.240  14.177 -2.8014  0.7875  0.6407
 2707SOL     OW19579   0.708   0.776  15.121  0.3000  0.1358 -0.3128
 2707SOL    HW119580   0.711   0.757  15.027 -1.3582 -3.2995  0.3515
 2707SOL    HW219581   0.613   0.768  15.125  0.3544 -0.9578 -1.0556
 2708SOL     OW19582   0.183   3.940  10.847  0.2320 -0.5295  0.5225
 2708SOL    HW119583   0.183   3.884  10.769  1.6993 -0.5405  0.5391
 2708SOL    HW219584   0.241   4.010  10.819 -0.5348 -0.4945 -0.9432
 2709SOL     OW19585   3.477   1.629   3.312  0.4813 -0.5227 -0.4778
 2709SOL    HW119586   3.455   1.720   3.294  2.0916 -0.1645 -0.6436
 2709SOL    HW219587   3.572   1.633   3.320  0.4385 -0.0284 -0.2106
 2710SOL     OW19588   2.246   2.516   2.736 -0.0464  0.2963 -0.3811
 2710SOL    HW119589   2.307   2.573   2.782 -1.5485  0.5215  1.3334
 2710SOL    HW219590   2.221   2.574   2.664  0.1206 -0.1533 -0.7985
 2711SOL     OW19591   2.098   2.024   5.060  0.3333 -0.4428 -0.2597
 2711SOL    HW119592   2.031   2.022   4.991  0.5849 -2.0683 -0.4445
 2711SOL    HW219593   2.039   2.023   5.135 -0.1340 -0.8275 -0.6285
 2712SOL     OW19594   0.242   3.324   5.608  0.4126  0.5860 -0.0198
 2712SOL    HW119595   0.214   3.235   5.626  2.1945  0.7857  3.9015
 2712SOL    HW219596   0.314   3.302   5.549 -0.2530 -1.3608 -0.0855
 2713SOL     OW19597   2.805   4.584   5.994 -0.4780 -0.3724 -0.7750
 2713SOL    HW119598   2.818   4.662   6.049  1.5234 -1.3776  0.2029
 2713SOL    HW219599   2.888   4.586   5.946  0.3923 -0.9532  0.6764
 2714SOL     OW19600   0.419   2.539   7.241  0.3744  0.1587  0.2966
 2714SOL    HW119601   0.361   2.487   7.185 -0.6556  0.8076  0.7763
 2714SOL    HW219602   0.354   2.593   7.286 -1.4711 -1.3547 -0.5355
 2715SOL     OW19603   3.623   2.659   9.953  0.3534  0.3183 -0.4061
 2715SOL    HW119604   3.550   2.598   9.941  0.6269  0.3405 -2.1437
 2715SOL    HW219605   3.576   2.736   9.984  0.5678  0.0404  0.5966
 2716SOL     OW19606   2.408   4.142   3.823 -0.0254 -0.2692  0.9822
 2716SOL    HW119607   2.391   4.234   3.805 -1.0939 -0.6489  0.0751
 2716SOL    HW219608   2.353   4.107   3.754  1.6204  0.1870 -0.5496
 2717SOL     OW19609   2.997   3.816   4.826 -0.4609  0.0300 -0.1832
 2717SOL    HW119610   3.028   3.855   4.745 -0.0444 -0.4231 -0.2454
 2717SOL    HW219611   3.078   3.770   4.850 -1.7845 -2.2366 -0.1117
 2718SOL     OW19612   3.934   1.482  10.983 -0.6713 -0.5809 -0.3890
 2718SOL    HW119613   3.986   1.563  10.977 -1.4662  0.0661  1.5175
 2718SOL    HW219614   3.981   1.435  11.052 -1.1524 -2.5597 -1.4143
 2719SOL     OW19615   4.402   0.416   5.660 -0.0473 -0.0665 -0.2349
 2719SOL    HW119616   4.445   0.436   5.577  0.8688  1.2835  0.5689
 2719SOL    HW219617   4.450   0.466   5.726 -1.3800  1.4340 -0.3871
 2720SOL     OW19618   0.469   4.283  13.264 -0.2754  0.0890 -0.0107
 2720SOL    HW119619   0.376   4.302  13.254 -0.0555  0.9184 -0.4664
 2720SOL    HW219620   0.511   4.365  13.290  0.2532 -0.1059 -0.2494
 2721SOL     OW19621   4.496   0.182  12.663 -0.0094  0.2859  0.1543
 2721SOL    HW119622   4.407   0.209  12.639 -0.3177  0.4924  1.5144
 2721SOL    HW219623   4.474   0.122  12.735 -0.4509  0.8779  0.5144
 2722SOL     OW19624   2.202   2.756   8.886  0.2559  0.0589 -0.5398
 2722SOL    HW119625   2.157   2.722   8.808 -1.5165  1.6084 -0.2022
 2722SOL    HW219626   2.223   2.844   8.853 -0.3530  0.5606  0.4171
 2723SOL     OW19627   1.115   1.920   4.111 -0.1766 -0.1120 -0.2074
 2723SOL    HW119628   1.210   1.906   4.106 -0.3169 -0.5231 -1.7281
 2723SOL    HW219629   1.086   1.832   4.086  1.1224  0.3600 -3.3228
 2724SOL     OW19630   1.979   3.326   5.708  0.4609  0.0846 -0.7168
 2724SOL    HW119631   1.887   3.327   5.680 -0.2569 -3.4654  1.4313
 2724SOL    HW219632   2.009   3.244   5.669  1.7424  0.2647 -0.0941
 2725SOL     OW19633   2.123   2.007  14.288 -0.3725  0.1138  0.1276
 2725SOL    HW119634   2.132   1.988  14.381 -0.1185 -0.6699 -0.0606
 2725SOL    HW219635   2.045   2.062  14.289 -1.0492 -0.9312  2.8574
 2726SOL     OW19636   3.981   3.121   5.367 -0.1137  0.0779  0.6690
 2726SOL    HW119637   3.920   3.182   5.408  0.1222  0.1807  0.8662
 2726SOL    HW219638   3.938   3.114   5.282  0.6238  0.4881  0.2636
 2727SOL     OW19639   2.069   4.395   8.871 -0.0764  0.8568 -0.2317
 2727SOL    HW119640   2.021   4.353   8.800 -1.3617  2.9660 -0.6212
 2727SOL    HW219641   2.054   4.488   8.854 -1.6694  0.8721  1.2736
 2728SOL     OW19642   0.831   4.091  14.772 -0.0568  0.0153 -0.2979
 2728SOL    HW119643   0.781   4.016  14.740  2.3675 -1.3806 -0.8584
 2728SOL    HW219644   0.825   4.152  14.699  0.5325 -0.2923 -0.6094
 2729SOL     OW19645   0.426   1.911   4.388  0.1106  0.2448  0.7088
 2729SOL    HW119646   0.403   1.879   4.475  1.4170 -1.4611  0.4221
 2729SOL    HW219647   0.439   1.825   4.349 -0.8124  1.2082 -1.7645
 2730SOL     OW19648   3.244   2.868   0.131 -0.1483 -0.1365 -0.1994
 2730SOL    HW119649   3.271   2.870   0.039 -0.8265  2.1566 -0.3364
 2730SOL    HW219650   3.328   2.847   0.173  0.1344  1.9314  0.2490
 2731SOL     OW19651   4.003   1.296   8.463 -0.1500  0.1602 -0.7093
 2731SOL    HW119652   3.963   1.366   8.515  2.8306  1.0354  0.4591
 2731SOL    HW219653   3.926   1.248   8.435 -0.3373 -0.0348  0.1469
 2732SOL     OW19654   3.429   2.555   5.351  0.4684  0.0290  0.2286
 2732SOL    HW119655   3.517   2.554   5.390  0.9934  3.0239 -0.9220
 2732SOL    HW219656   3.382   2.623   5.399 -1.8646 -0.5593 -1.2560
 2733SOL     OW19657   3.060   0.801  17.212 -0.0409 -0.6126  0.1050
 2733SOL    HW119658   2.991   0.738  17.231  0.2859 -1.3682 -1.2165
 2733SOL    HW219659   3.094   0.770  17.128 -0.3762  1.7863 -0.9092
 2734SOL     OW19660   1.624   3.413  16.583 -0.7776  0.0517 -0.0339
 2734SOL    HW119661   1.646   3.417  16.676  2.2451 -0.5707 -0.7417
 2734SOL    HW219662   1.529   3.401  16.588 -0.4427 -2.6730 -0.1904
 2735SOL     OW19663   4.195   3.679   6.713 -0.2789  0.9403  0.0531
 2735SOL    HW119664   4.179   3.612   6.647 -2.4790  0.7758  0.7469
 2735SOL    HW219665   4.177   3.758   6.662  1.0450  0.0861 -1.6888
 2736SOL     OW19666   1.441   4.112   5.965 -0.0826  0.5220  0.2262
 2736SOL    HW119667   1.442   4.205   5.942  1.4093  0.6451  0.7999
 2736SOL    HW219668   1.484   4.120   6.050  3.2641 -2.8942 -1.1030
 2737SOL     OW19669   2.150   2.254   5.631 -0.6343 -0.4115 -0.4966
 2737SOL    HW119670   2.087   2.280   5.699 -1.0674  0.6865 -1.3200
 2737SOL    HW219671   2.228   2.288   5.676 -1.7509  1.9666 -0.3400
 2738SOL     OW19672   3.038   4.569   5.825 -0.2474  0.5353  0.9373
 2738SOL    HW119673   3.087   4.651   5.818  0.2061  0.0119 -2.0937
 2738SOL    HW219674   3.104   4.507   5.853 -2.0412 -1.8630 -0.1421
 2739SOL     OW19675   0.690   4.713   4.415 -0.0798 -0.5389 -0.4378
 2739SOL    HW119676   0.734   4.642   4.368 -0.0635  0.8204 -2.4628
 2739SOL    HW219677   0.678   4.673   4.501 -1.5664  2.1751  0.5955
 2740SOL     OW19678   1.923   1.650  10.458 -0.4657  0.5812 -0.0619
 2740SOL    HW119679   1.834   1.678  10.480 -1.8853 -3.1122 -1.1055
 2740SOL    HW219680   1.900   1.580  10.397 -0.1242  1.4638 -1.2063
 2741SOL     OW19681   2.411   1.276  15.317 -0.0192 -0.3592 -0.0994
 2741SOL    HW119682   2.474   1.216  15.355  2.1670  1.9794 -0.0807
 2741SOL    HW219683   2.333   1.243  15.362 -0.1407  0.4200  0.2545
 2742SOL     OW19684   1.658   3.165  13.629 -0.5722  0.5586 -0.1816
 2742SOL    HW119685   1.685   3.215  13.707  1.3168  0.3558 -0.7009
 2742SOL    HW219686   1.746   3.145  13.599 -0.0404  1.2487  0.9034
 2743SOL     OW19687   0.145   3.679   5.529  0.4105 -0.4706  0.5720
 2743SOL    HW119688   0.216   3.663   5.466  1.1461 -0.5877  1.4267
 2743SOL    HW219689   0.083   3.731   5.478  1.1261  0.6840  0.8961
 2744SOL     OW19690   4.677   2.776   3.289 -0.7335 -0.2147 -0.3572
 2744SOL    HW119691   4.627   2.814   3.362  1.2915 -1.4552  1.6942
 2744SOL    HW219692   4.679   2.854   3.234  0.1171 -0.4808 -0.7052
 2745SOL     OW19693   3.294   2.591  17.638 -0.5512  0.8515  0.0438
 2745SOL    HW119694   3.324   2.679  17.616 -1.4703  1.4478  1.2071
 2745SOL    HW219695   3.376   2.542  17.625  0.5465  2.9494 -0.9188
 2746SOL     OW19696   0.146   2.750   6.041 -0.3909  0.0131 -0.6756
 2746SOL    HW119697   0.064   2.705   6.060  1.4702 -2.7552  0.7673
 2746SOL    HW219698   0.121   2.808   5.970  1.3866 -0.2667 -1.5237
 2747SOL     OW19699   2.704   3.754  10.595 -0.1572  0.2330  0.7625
 2747SOL    HW119700   2.647   3.797  10.659  1.4638  0.6690  1.9133
 2747SOL    HW219701   2.706   3.664  10.627  1.8073 -0.3182 -0.9511
 2748SOL     OW19702   3.796   3.162   2.964  0.0366 -0.5647 -0.5024
 2748SOL    HW119703   3.811   3.092   2.901 -0.7725 -0.2457 -1.0473
 2748SOL    HW219704   3.716   3.196   2.923  0.1922  0.1934 -0.1689
 2749SOL     OW19705   4.422   2.637   2.238 -0.0805  0.4463  0.1198
 2749SOL    HW119706   4.506   2.676   2.214  0.0914  0.4341  0.6831
 2749SOL    HW219707   4.405   2.589   2.158 -0.4627  0.4028  0.2269
 2750SOL     OW19708   0.553   0.247   6.540  0.0555 -0.0311 -0.6744
 2750SOL    HW119709   0.589   0.205   6.462  2.2110 -1.5429  1.1279
 2750SOL    HW219710   0.634   0.252   6.591 -0.6390 -1.4376  0.5534
 2751SOL     OW19711   3.462   1.331   6.050  0.0788  0.0433  0.1340
 2751SOL    HW119712   3.425   1.316   6.137  1.3997 -0.6661  0.5721
 2751SOL    HW219713   3.493   1.242   6.030 -2.8060 -0.4174 -2.4118
 2752SOL     OW19714   4.617   4.080   8.522 -0.3498 -0.1835  0.2048
 2752SOL    HW119715   4.532   4.045   8.548  1.3325 -4.4848 -0.2182
 2752SOL    HW219716   4.595   4.147   8.457  2.2884  1.1766  0.7316
 2753SOL     OW19717   1.907   2.147  14.235 -0.1657  0.2239 -0.1497
 2753SOL    HW119718   1.816   2.134  14.208  0.3438  0.6026 -2.0237
 2753SOL    HW219719   1.917   2.239  14.212  0.5111 -0.4559 -2.5852
 2754SOL     OW19720   4.015   0.090  11.749 -0.2452  0.2476  0.3038
 2754SOL    HW119721   4.038   0.012  11.697  1.4850 -0.4904  2.1580
 2754SOL    HW219722   4.009   0.051  11.836  1.9375  0.8523  0.7459
 2755SOL     OW19723   2.284   1.379  10.055  0.1023  0.3112  0.1300
 2755SOL    HW119724   2.303   1.371  10.149 -0.1051 -1.4382  0.0190
 2755SOL    HW219725   2.198   1.421  10.063 -1.4126 -3.1575  1.7955
 2756SOL     OW19726   4.704   2.733   2.464  0.3766  0.2224  0.4115
 2756SOL    HW119727   0.055   2.766   2.515  0.1840 -0.4687  1.1386
 2756SOL    HW219728   4.703   2.785   2.383  1.2555 -1.3060 -0.5798
 2757SOL     OW19729   1.936   1.299   3.400  0.0273 -0.7237 -0.0804
 2757SOL    HW119730   2.019   1.252   3.398 -1.5919 -3.6984  2.7559
 2757SOL    HW219731   1.890   1.236   3.455 -1.8935  1.8321  1.2649
 2758SOL     OW19732   2.186   0.988   1.277 -0.2243  0.2139 -0.2101
 2758SOL    HW119733   2.267   1.003   1.326  1.1522 -0.1935 -2.3701
 2758SOL    HW219734   2.163   1.071   1.236  1.4626  0.0053 -1.5964
 2759SOL     OW19735   1.721   3.279   4.853  0.2448 -0.0969  0.1959
 2759SOL    HW119736   1.650   3.325   4.897  0.6362  0.9276 -0.2406
 2759SOL    HW219737   1.702   3.311   4.765  1.2217  0.4986  0.1983
 2760SOL     OW19738   3.863   2.039  15.223  0.0998  0.1626  0.0041
 2760SOL    HW119739   3.857   2.125  15.265  1.2343  0.0920  0.3110
 2760SOL    HW219740   3.958   2.027  15.235 -0.0320 -1.0012 -0.1602
 2761SOL     OW19741   1.708   2.635  14.675  0.2312  0.0435  0.0266
 2761SOL    HW119742   1.769   2.592  14.734  2.4508  1.0922 -1.5197
 2761SOL    HW219743   1.648   2.562  14.661 -0.6070  0.3682  1.9005
 2762SOL     OW19744   1.179   1.156   9.891  0.4387  0.1546  0.4628
 2762SOL    HW119745   1.215   1.174   9.805 -0.8166 -0.3934 -0.1806
 2762SOL    HW219746   1.251   1.114   9.937  2.1874 -0.3481 -2.7878
 2763SOL     OW19747   2.469   3.933   7.835  0.4335  0.6995  0.5280
 2763SOL    HW119748   2.478   4.023   7.866 -1.7828  1.0867  0.0040
 2763SOL    HW219749   2.402   3.931   7.768  1.7850 -1.6735 -0.7599
 2764SOL     OW19750   0.799   3.340   5.450 -0.7834  0.3230 -0.1943
 2764SOL    HW119751   0.820   3.254   5.414  0.2606 -0.1814  1.5905
 2764SOL    HW219752   0.756   3.306   5.529 -0.3993  1.6700  0.6106
 2765SOL     OW19753   2.070   0.208  12.678  0.1273  0.2562 -0.5570
 2765SOL    HW119754   2.144   0.159  12.643  1.7204  2.6373 -0.5717
 2765SOL    HW219755   2.095   0.294  12.645 -0.3249  1.0190  1.0927
 2766SOL     OW19756   1.185   1.980  14.938 -0.4246 -0.2535 -0.0974
 2766SOL    HW119757   1.194   2.060  14.887 -2.7735  0.4593  0.5847
 2766SOL    HW219758   1.267   1.982  14.988 -0.3414  0.4268 -0.2627
 2767SOL     OW19759   3.247   3.707   9.283  0.4889 -0.0157 -0.4815
 2767SOL    HW119760   3.308   3.665   9.223 -1.4836  0.2595 -2.6897
 2767SOL    HW219761   3.196   3.630   9.307  1.6049 -1.0218 -1.3801
 2768SOL     OW19762   2.248   3.074   0.455 -0.4009 -0.6373  0.1471
 2768SOL    HW119763   2.166   3.121   0.470  1.1407  2.0651  0.1184
 2768SOL    HW219764   2.205   3.006   0.403  0.0448 -1.1052  0.3874
 2769SOL     OW19765   4.701   3.511   4.734  0.4306  0.3261  0.6193
 2769SOL    HW119766   4.641   3.571   4.689  0.0057  0.2385  1.0669
 2769SOL    HW219767   4.645   3.474   4.802  2.4479  0.4502  2.3338
 2770SOL     OW19768   0.924   1.924   4.612 -0.2717  0.1680 -0.0657
 2770SOL    HW119769   1.019   1.933   4.621 -0.2588 -1.9336  1.7473
 2770SOL    HW219770   0.924   1.954   4.521  1.3966 -1.2994 -0.5312
 2771SOL     OW19771   1.605   4.397  12.157 -0.3512  0.3059  0.2475
 2771SOL    HW119772   1.555   4.370  12.233  0.3117 -3.3240 -0.6417
 2771SOL    HW219773   1.644   4.311  12.144  0.2681  0.9444 -2.2002
 2772SOL     OW19774   2.738   3.175   5.830  0.6324  0.2243 -0.1283
 2772SOL    HW119775   2.772   3.122   5.902  0.0914 -0.9583 -0.7539
 2772SOL    HW219776   2.816   3.226   5.805  1.6208 -0.8973  0.6654
 2773SOL     OW19777   1.970   0.251   7.154 -0.1138  0.3466  0.1917
 2773SOL    HW119778   2.044   0.253   7.094  0.3484 -2.5278  0.6687
 2773SOL    HW219779   1.943   0.161   7.135  0.8196  0.6104 -2.4068
 2774SOL     OW19780   2.585   3.221   2.589 -0.0572 -0.1421 -0.1641
 2774SOL    HW119781   2.665   3.246   2.542  0.6246 -0.0342  1.0385
 2774SOL    HW219782   2.577   3.134   2.549  1.5245  0.7795 -2.4881
 2775SOL     OW19783   1.177   3.374  17.122  0.6862 -0.0824  0.0150
 2775SOL    HW119784   1.127   3.439  17.072 -0.8650  1.4380  3.5437
 2775SOL    HW219785   1.180   3.305  17.056  1.5850  0.5025 -0.5659
 2776SOL     OW19786   4.061   1.835   3.569  0.3213 -0.5480  0.7322
 2776SOL    HW119787   4.033   1.767   3.630 -0.3564 -2.5871 -1.8414
 2776SOL    HW219788   4.113   1.780   3.510  0.3337 -0.0128  0.2417
 2777SOL     OW19789   0.320   1.484   9.484 -0.6478  0.1596 -0.2348
 2777SOL    HW119790   0.352   1.395   9.502  0.1718  0.1273 -1.8753
 2777SOL    HW219791   0.374   1.536   9.543 -0.5454 -0.9768  0.6820
 2778SOL     OW19792   1.840   1.955   0.354  0.0606  0.0583  0.1066
 2778SOL    HW119793   1.877   1.878   0.398 -0.6508 -0.4761 -0.2166
 2778SOL    HW219794   1.825   2.017   0.425  1.1519  1.3817 -0.8398
 2779SOL     OW19795   1.464   1.106   1.403  0.1888 -0.1768 -0.0086
 2779SOL    HW119796   1.396   1.171   1.385  0.6014  0.5890  1.1353
 2779SOL    HW219797   1.411   1.028   1.387 -0.7044  0.4165  0.0544
 2780SOL     OW19798   2.786   2.210  13.046 -0.2562 -0.4017  0.2789
 2780SOL    HW119799   2.699   2.179  13.018 -1.4824  0.6437  2.9217
 2780SOL    HW219800   2.811   2.137  13.101  1.3433 -0.1498 -0.1115
 2781SOL     OW19801   3.949   2.894  12.391  0.3077  0.2688  0.5733
 2781SOL    HW119802   3.889   2.855  12.454 -1.2171  0.2673 -0.8795
 2781SOL    HW219803   4.000   2.824  12.351  1.0108  0.7677  0.6007
 2782SOL     OW19804   4.473   4.043   2.948 -0.7222  0.0144  0.2643
 2782SOL    HW119805   4.461   3.950   2.964  0.4855 -0.5135 -1.8846
 2782SOL    HW219806   4.491   4.034   2.854  2.7238  3.4838  0.5892
 2783SOL     OW19807   0.303   4.042   2.920  0.2416  0.0857 -0.1538
 2783SOL    HW119808   0.357   4.081   2.989  0.4176  0.5417 -0.5461
 2783SOL    HW219809   0.345   4.065   2.837  1.6629  2.6299  1.2516
 2784SOL     OW19810   4.075   1.305   4.952 -0.0536 -0.3634 -0.1736
 2784SOL    HW119811   3.995   1.263   4.922 -0.8333 -0.4361  1.9723
 2784SOL    HW219812   4.064   1.300   5.047 -0.7510  0.4926 -0.2065
 2785SOL     OW19813   3.866   1.879   6.835  0.6618  0.4381  0.2129
 2785SOL    HW119814   3.881   1.945   6.902 -2.1664 -1.4700  2.7628
 2785SOL    HW219815   3.792   1.830   6.872  2.1837 -2.2462 -0.2528
 2786SOL     OW19816   0.993   3.741   9.518 -0.0688 -0.3455 -1.1204
 2786SOL    HW119817   1.043   3.662   9.494  0.7881 -0.5056  1.1622
 2786SOL    HW219818   0.910   3.697   9.538  0.9320 -0.6585  2.3141
 2787SOL     OW19819   2.055   2.364   1.622 -0.0979 -0.1352  0.3975
 2787SOL    HW119820   2.085   2.450   1.651  3.6551 -0.5201 -2.3906
 2787SOL    HW219821   2.108   2.313   1.683  0.4991  0.4685  0.3781
 2788SOL     OW19822   2.911   4.279   7.336  0.5577  0.0942  0.0224
 2788SOL    HW119823   2.886   4.203   7.388 -1.3552  1.3482  0.9328
 2788SOL    HW219824   2.984   4.305   7.392  1.1683  0.0515 -0.7568
 2789SOL     OW19825   3.046   3.054   7.646  0.0481  0.0238  0.3011
 2789SOL    HW119826   3.093   3.069   7.728  2.2264 -0.2169 -0.9035
 2789SOL    HW219827   3.117   3.047   7.582  0.7143  0.1087  1.0423
 2790SOL     OW19828   2.063   2.965  16.597 -0.5464 -0.1002  0.1504
 2790SOL    HW119829   2.056   3.033  16.664  2.7214  0.7074 -0.3225
 2790SOL    HW219830   2.152   2.931  16.607  0.5852  2.9012  0.3512
 2791SOL     OW19831   0.047   3.946   7.957 -0.6813  0.0156 -0.1035
 2791SOL    HW119832   0.006   4.019   8.002  0.6408  0.5115  0.3159
 2791SOL    HW219833   0.067   3.884   8.027  0.1581 -0.0611 -0.3972
 2792SOL     OW19834   1.562   2.197   4.921 -0.2767  0.2811  0.3122
 2792SOL    HW119835   1.633   2.132   4.919  0.1195  0.7455 -0.3839
 2792SOL    HW219836   1.582   2.223   4.831  0.8863  1.5699  0.9354
 2793SOL     OW19837   2.415   3.605  15.430  0.2636  0.2649  0.4861
 2793SOL    HW119838   2.380   3.567  15.511  0.5053 -1.8369 -0.3837
 2793SOL    HW219839   2.445   3.692  15.456  0.7395 -0.3405  1.9466
 2794SOL     OW19840   0.851   1.939   0.727 -0.2454 -0.7198 -0.2943
 2794SOL    HW119841   0.877   1.976   0.643  0.3265  1.8790  1.0238
 2794SOL    HW219842   0.825   2.022   0.766  1.1612 -0.9585  1.1233
 2795SOL     OW19843   2.420   0.106  15.967 -0.1683  0.0022  0.2408
 2795SOL    HW119844   2.402   0.184  16.021  1.9341  0.3678  0.4236
 2795SOL    HW219845   2.448   0.150  15.887 -0.6808 -1.4648 -0.7381
 2796SOL     OW19846   4.365   3.025   2.580 -0.2104 -0.3233  0.1531
 2796SOL    HW119847   4.408   3.080   2.514 -2.7137  0.7436 -0.5708
 2796SOL    HW219848   4.346   2.950   2.523  2.8417 -1.8731  1.1834
 2797SOL     OW19849   1.039   0.506   1.981 -0.5605  0.0783  0.0195
 2797SOL    HW119850   1.049   0.579   1.919  0.0287 -0.3859 -0.4413
 2797SOL    HW219851   1.033   0.556   2.062 -1.0615 -1.6377  1.0443
 2798SOL     OW19852   3.050   1.742   1.320  0.5393  0.2570 -0.0423
 2798SOL    HW119853   2.964   1.727   1.357  1.5076 -3.2421  0.7396
 2798SOL    HW219854   3.101   1.661   1.320 -1.0436 -0.7226  2.1730
 2799SOL     OW19855   1.099   0.369   9.029  0.0400 -0.3635 -0.5326
 2799SOL    HW119856   1.068   0.445   9.078  0.7338 -0.6023  0.2965
 2799SOL    HW219857   1.026   0.309   9.048 -1.0856  0.6743 -1.6199
 2800SOL     OW19858   3.317   1.202   7.206 -0.3709 -0.0659  0.4259
 2800SOL    HW119859   3.392   1.155   7.171  1.1893  0.8940  2.4825
 2800SOL    HW219860   3.276   1.127   7.251 -0.1185  0.6599  1.8620
 2801SOL     OW19861   2.912   0.303  17.661 -0.0941 -0.0294 -0.0307
 2801SOL    HW119862   2.857   0.277   0.042 -1.2510  1.5807 -0.3194
 2801SOL    HW219863   2.898   0.238  17.593 -0.0212  0.3419 -0.4059
 2802SOL     OW19864   0.215   0.453   6.762  0.1678 -0.0694 -0.1403
 2802SOL    HW119865   0.171   0.536   6.743  0.0958 -0.3844 -1.3222
 2802SOL    HW219866   0.282   0.439   6.695  0.1177  0.9629 -0.4088
 2803SOL     OW19867   3.900   3.896  15.190 -0.1469  0.3861  0.2889
 2803SOL    HW119868   3.924   3.931  15.276 -1.6678  0.5739  0.6436
 2803SOL    HW219869   3.837   3.833  15.225  1.6163 -1.7400 -0.3742
 2804SOL     OW19870   1.078   2.398   4.130 -0.0917  0.0509 -0.0330
 2804SOL    HW119871   1.070   2.333   4.199  0.9903  1.1709  1.1638
 2804SOL    HW219872   1.010   2.454   4.167 -0.3127 -0.5222  0.4314
 2805SOL     OW19873   0.314   4.357   4.590  0.1236 -0.1846 -0.2566
 2805SOL    HW119874   0.274   4.322   4.510  1.0124  1.0964 -1.2774
 2805SOL    HW219875   0.315   4.450   4.569  1.4808 -0.1253  0.0325
 2806SOL     OW19876   3.441   1.265   1.148 -0.5452  0.1113  0.1705
 2806SOL    HW119877   3.432   1.178   1.111 -0.1892 -0.4883  1.5018
 2806SOL    HW219878   3.439   1.315   1.066  3.0393  0.2702  0.1735
 2807SOL     OW19879   0.079   1.235  15.843 -0.3734 -0.2854 -0.1687
 2807SOL    HW119880   0.012   1.228  15.775 -0.4641  0.3841 -0.1462
 2807SOL    HW219881   0.028   1.207  15.919 -0.1480 -2.4432 -0.7966
 2808SOL     OW19882   1.451   2.681  12.995  0.2473 -0.4845  0.3105
 2808SOL    HW119883   1.521   2.742  13.015  0.9144 -0.4575 -2.0525
 2808SOL    HW219884   1.483   2.598  13.030 -0.0109 -1.5425 -1.9482
 2809SOL     OW19885   0.229   0.025   4.160  0.0367  0.4132 -0.2203
 2809SOL    HW119886   0.186   0.103   4.126  1.0517 -0.4590 -3.4310
 2809SOL    HW219887   0.316   0.037   4.120  0.4424 -0.7816  0.2940
 2810SOL     OW19888   0.936   0.957  14.739 -0.4648  0.0719 -0.2358
 2810SOL    HW119889   0.928   1.039  14.689 -0.9694  0.4587  0.4921
 2810SOL    HW219890   1.012   0.930  14.688  1.2776  0.8854  1.9732
 2811SOL     OW19891   1.310   0.866   9.805 -0.3756 -0.2248  0.3397
 2811SOL    HW119892   1.308   0.898   9.895 -0.3302 -0.3135  0.3725
 2811SOL    HW219893   1.385   0.807   9.805  2.0836  2.8773  1.6122
 2812SOL     OW19894   0.303   1.036   5.277 -0.2517  0.0966  0.0822
 2812SOL    HW119895   0.374   1.049   5.215 -0.9199 -1.2679 -0.9552
 2812SOL    HW219896   0.329   0.985   5.355 -2.7860 -0.9404  0.2387
 2813SOL     OW19897   3.086   2.236   5.752 -0.5672 -0.0917  0.3323
 2813SOL    HW119898   3.113   2.214   5.663 -0.9673  0.1651  0.1451
 2813SOL    HW219899   3.107   2.152   5.793 -2.4351  0.6769  2.8476
 2814SOL     OW19900   2.843   2.872   3.904 -0.2903 -0.0147  0.2318
 2814SOL    HW119901   2.817   2.852   3.814 -0.1236  1.3180 -0.1146
 2814SOL    HW219902   2.925   2.916   3.879  0.6285 -0.3262  2.7310
 2815SOL     OW19903   3.205   0.756   5.112 -0.3016  0.5156 -0.3617
 2815SOL    HW119904   3.234   0.666   5.124 -0.0976  0.7350  0.7877
 2815SOL    HW219905   3.233   0.771   5.022 -0.4110 -0.4056 -0.5410
 2816SOL     OW19906   2.161   2.507   6.550 -0.6794 -0.3827  0.0870
 2816SOL    HW119907   2.200   2.594   6.561 -0.2035 -0.6121  0.2201
 2816SOL    HW219908   2.079   2.551   6.529  0.5345  1.8800  0.1201
 2817SOL     OW19909   3.698   0.711   3.103  0.2473 -0.0205 -0.3269
 2817SOL    HW119910   3.746   0.643   3.149  1.0951  0.0440 -1.1239
 2817SOL    HW219911   3.739   0.716   3.016  0.3968 -1.7216 -0.3476
 2818SOL     OW19912   1.141   3.301   7.678 -0.1621  0.1204 -0.2321
 2818SOL    HW119913   1.123   3.246   7.602  1.0412 -1.6148  0.7424
 2818SOL    HW219914   1.210   3.247   7.718  0.8703  0.8238 -1.0763
 2819SOL     OW19915   0.283   3.359   4.470  0.2887  0.0534  0.2481
 2819SOL    HW119916   0.352   3.410   4.429  1.7845 -0.3497  2.2587
 2819SOL    HW219917   0.278   3.402   4.556 -1.0966 -1.9112  1.1468
 2820SOL     OW19918   3.335   0.117  10.316 -0.3675 -0.2338  0.1485
 2820SOL    HW119919   3.248   0.156  10.316 -1.4660 -2.6640 -1.9032
 2820SOL    HW219920   3.323   0.043  10.256  0.4735  0.5228 -0.9694
 2821SOL     OW19921   3.398   1.407   1.722  0.2827 -0.2301 -0.4184
 2821SOL    HW119922   3.339   1.333   1.737 -1.4012  1.0224 -0.8812
 2821SOL    HW219923   3.349   1.489   1.724 -1.5519 -1.3176 -0.8777
 2822SOL     OW19924   3.927   2.079   9.396 -0.4389 -0.1549 -0.6784
 2822SOL    HW119925   3.956   1.996   9.358 -1.4393 -0.0229 -1.7496
 2822SOL    HW219926   3.961   2.083   9.485  3.6712  0.8994 -2.2822
 2823SOL     OW19927   1.169   0.543   1.161 -0.1228 -0.1415 -0.2294
 2823SOL    HW119928   1.146   0.456   1.129 -0.2614 -0.6853  1.3621
 2823SOL    HW219929   1.261   0.528   1.183 -0.3709 -1.4953 -0.1091
 2824SOL     OW19930   1.677   1.002   2.458 -0.1579  0.3866 -0.0791
 2824SOL    HW119931   1.719   1.088   2.467  2.3666 -0.6220 -2.1935
 2824SOL    HW219932   1.709   0.981   2.370 -2.5350 -1.8452 -0.4003
 2825SOL     OW19933   2.611   3.747   4.500  0.0921  0.1989  0.0697
 2825SOL    HW119934   2.666   3.669   4.508  0.2109  0.1119 -1.5838
 2825SOL    HW219935   2.669   3.823   4.510  0.2619 -0.1020  1.3220
 2826SOL     OW19936   4.026   1.146   8.811  0.2137  0.3710 -0.1613
 2826SOL    HW119937   4.061   1.078   8.753  0.1611 -0.2914  0.5888
 2826SOL    HW219938   4.034   1.104   8.897 -0.0136 -0.0251 -0.3369
 2827SOL     OW19939   2.100   0.575   6.115  0.0652  0.1489  0.0904
 2827SOL    HW119940   2.121   0.654   6.166  0.0390  1.2532 -1.5919
 2827SOL    HW219941   2.033   0.542   6.175  0.5475  0.2533  0.6889
 2828SOL     OW19942   4.607   2.590  12.232 -0.0796  0.3454  0.0237
 2828SOL    HW119943   4.620   2.669  12.284  1.7627  0.5174 -0.6885
 2828SOL    HW219944   4.516   2.572  12.255  0.3711 -2.4673 -0.3960
 2829SOL     OW19945   0.907   4.461   1.247 -0.3636 -0.3452  0.5329
 2829SOL    HW119946   0.901   4.538   1.303  0.1103  1.9922 -2.6502
 2829SOL    HW219947   0.934   4.497   1.163 -0.9972 -4.3108 -1.3626
 2830SOL     OW19948   0.718   4.211   4.784  0.3665  0.1549  0.2219
 2830SOL    HW119949   0.790   4.172   4.735 -0.2476 -1.1316  0.3361
 2830SOL    HW219950   0.764   4.244   4.861 -1.9183  2.3136  0.6723
 2831SOL     OW19951   1.171   3.386   5.315 -0.2815 -0.7598  0.0436
 2831SOL    HW119952   1.119   3.402   5.394  0.7815 -0.6384  0.7230
 2831SOL    HW219953   1.130   3.306   5.284  0.2906 -0.9537 -0.2136
 2832SOL     OW19954   4.674   3.848   3.429 -0.1903  0.2869 -0.8257
 2832SOL    HW119955   0.046   3.844   3.417 -0.1649 -0.2262 -0.4910
 2832SOL    HW219956   4.667   3.813   3.518  1.7092  0.1571 -0.7337
 2833SOL     OW19957   0.657   0.890   5.222 -0.3918 -0.2180 -0.1508
 2833SOL    HW119958   0.628   0.799   5.221 -2.4901  0.4027  2.5225
 2833SOL    HW219959   0.588   0.922   5.164  0.5707 -1.2524 -1.8509
 2834SOL     OW19960   4.098   0.897   7.867  0.2943  0.1928  0.0944
 2834SOL    HW119961   4.111   0.913   7.774  1.0564  2.8351  0.6557
 2834SOL    HW219962   4.094   0.980   7.915 -1.3045  0.4195 -0.4247
 2835SOL     OW19963   2.993   2.224   3.800 -0.0308  0.0847  0.3249
 2835SOL    HW119964   2.991   2.202   3.707  1.3587  3.2201 -0.4456
 2835SOL    HW219965   3.061   2.161   3.825  0.5320  0.0055 -1.3873
 2836SOL     OW19966   3.422   0.552   5.178  0.2804  0.1499  0.3819
 2836SOL    HW119967   3.399   0.587   5.264 -1.1829  0.4028 -0.1110
 2836SOL    HW219968   3.396   0.460   5.182  0.0879  0.2380  1.1157
 2837SOL     OW19969   2.197   4.578   2.399 -0.3144 -0.5512  0.2302
 2837SOL    HW119970   2.130   4.589   2.332  0.7803  3.3332 -0.2660
 2837SOL    HW219971   2.249   4.512   2.354 -0.1025 -0.7085  0.7008
 2838SOL     OW19972   0.576   2.530   3.632  0.4039  0.5795 -0.3718
 2838SOL    HW119973   0.573   2.504   3.724 -0.5920  0.9475 -0.2927
 2838SOL    HW219974   0.514   2.468   3.592 -0.3814  0.4752  0.9921
 2839SOL     OW19975   0.929   3.118  16.260  0.6865 -0.1480  0.1261
 2839SOL    HW119976   0.845   3.089  16.295 -0.7020 -0.3160 -3.3644
 2839SOL    HW219977   0.894   3.188  16.206 -2.1839 -1.6323  0.0726
 2840SOL     OW19978   1.535   0.292   6.325 -0.1610 -0.0684 -0.4615
 2840SOL    HW119979   1.573   0.354   6.388  0.4326 -0.4337 -0.4579
 2840SOL    HW219980   1.459   0.339   6.292 -1.7635 -1.7447  0.8463
 2841SOL     OW19981   3.131   2.719   6.416  0.0092 -0.5403  0.1638
 2841SOL    HW119982   3.085   2.683   6.492 -2.3237  0.4446 -0.7802
 2841SOL    HW219983   3.060   2.740   6.354  2.5379  0.5596 -2.3443
 2842SOL     OW19984   2.890   1.037  14.644  0.6640 -0.8381 -0.0337
 2842SOL    HW119985   2.956   1.026  14.576  1.9647 -2.9351  1.5943
 2842SOL    HW219986   2.949   1.042  14.718  2.6653 -0.3995 -1.6529
 2843SOL     OW19987   3.576   0.533   6.704 -0.0827 -0.3182  0.8697
 2843SOL    HW119988   3.500   0.505   6.654  0.7166 -0.4739 -0.2535
 2843SOL    HW219989   3.636   0.557   6.634  1.3221 -0.7775  1.9180
 2844SOL     OW19990   0.428   2.971  15.357 -0.3266  0.4838 -0.2783
 2844SOL    HW119991   0.498   2.907  15.368  0.9716  1.9235 -0.1668
 2844SOL    HW219992   0.352   2.916  15.371  0.5627 -0.3773  1.1638
 2845SOL     OW19993   2.290   4.069   2.427 -0.3314  0.2899  0.2527
 2845SOL    HW119994   2.204   4.109   2.443 -0.9605 -1.1498  0.4405
 2845SOL    HW219995   2.266   3.988   2.382 -1.7443  1.1203 -0.4967
 2846SOL     OW19996   2.456   4.054   6.904  0.3419 -1.2227  0.3384
 2846SOL    HW119997   2.504   4.019   6.829  0.3214  3.3594 -1.8342
 2846SOL    HW219998   2.416   3.979   6.946  1.3345 -0.7378  2.1410
 2847SOL     OW19999   2.736   0.699   2.152  0.1999 -0.8601 -0.0131
 2847SOL    HW120000   2.725   0.794   2.159 -1.4752 -1.1383  1.0755
 2847SOL    HW220001   2.668   0.676   2.089 -0.9131 -0.6965  1.1341
 2848SOL     OW20002   1.571   2.353  14.935  0.2693 -0.0165 -0.0926
 2848SOL    HW120003   1.596   2.263  14.912 -3.3875 -1.1300  0.2702
 2848SOL    HW220004   1.544   2.378  14.847 -1.1777 -2.3319 -0.3064
 2849SOL     OW20005   3.327   1.157   2.313 -0.3993  0.3227 -0.3843
 2849SOL    HW120006   3.250   1.121   2.268 -0.0757 -1.0859  0.1664
 2849SOL    HW220007   3.353   1.091   2.378 -2.3223  0.1347  0.1989
 2850SOL     OW20008   0.199   1.696   7.572  0.0993 -0.0770  0.5002
 2850SOL    HW120009   0.220   1.773   7.624 -1.9757  0.8491 -0.0261
 2850SOL    HW220010   0.275   1.696   7.513  1.1426  0.4627  1.8261
 2851SOL     OW20011   3.133   2.550   2.953 -0.4851  0.6504  0.0013
 2851SOL    HW120012   3.126   2.569   2.860  0.0169 -0.3585 -0.2424
 2851SOL    HW220013   3.165   2.460   2.947  0.8432  1.1494 -0.4514
 2852SOL     OW20014   3.337   0.055   6.158  0.0719 -0.3505 -0.2781
 2852SOL    HW120015   3.259   0.100   6.125  0.0547 -1.3909 -1.6623
 2852SOL    HW220016   3.374   0.019   6.077  0.3029  0.2118 -0.4188
 2853SOL     OW20017   1.113   4.462   9.368  0.1871  0.1099  0.0122
 2853SOL    HW120018   1.138   4.448   9.459  0.3730  1.6804  0.2080
 2853SOL    HW220019   1.097   4.556   9.365 -1.3724 -0.1288  1.1951
 2854SOL     OW20020   3.660   0.497  16.990  0.3349  0.3668 -0.3545
 2854SOL    HW120021   3.659   0.412  16.945  0.4701 -0.5421  1.3640
 2854SOL    HW220022   3.753   0.519  16.997  0.2410  0.0936  1.6611
 2855SOL     OW20023   3.450   2.836   0.284  0.2135  0.3110 -0.6311
 2855SOL    HW120024   3.460   2.850   0.378 -0.8462 -0.5722 -0.3932
 2855SOL    HW220025   3.542   2.820   0.263  0.8100 -0.3009  2.4533
 2856SOL     OW20026   2.151   0.207   5.659 -0.1723 -0.1248  0.1823
 2856SOL    HW120027   2.161   0.282   5.601  0.5717 -0.8595 -0.6473
 2856SOL    HW220028   2.131   0.136   5.597  0.2887 -0.3218  0.2550
 2857SOL     OW20029   2.755   4.128   8.019  0.6126  1.0792 -0.4591
 2857SOL    HW120030   2.820   4.082   8.072  0.6914  0.7998 -0.7922
 2857SOL    HW220031   2.786   4.091   7.936 -0.8637 -0.1187 -0.4570
 2858SOL     OW20032   4.494   2.292   7.794 -0.3059 -0.2292  0.1896
 2858SOL    HW120033   4.436   2.319   7.723  0.4486 -0.8649 -0.6627
 2858SOL    HW220034   4.483   2.372   7.846 -0.0185 -0.4845  0.6400
 2859SOL     OW20035   1.772   2.221   4.083 -0.3396 -0.5563  0.0518
 2859SOL    HW120036   1.770   2.313   4.057 -2.3220 -0.7000 -0.2760
 2859SOL    HW220037   1.697   2.204   4.139 -0.5181  0.1191  0.0196
 2860SOL     OW20038   1.214   0.394   2.166  0.5389 -0.1483 -0.5249
 2860SOL    HW120039   1.174   0.441   2.093 -0.6750  0.6658  0.6695
 2860SOL    HW220040   1.308   0.400   2.148  0.7832  1.0206  1.2372
 2861SOL     OW20041   1.440   3.428   9.167  0.1330  0.2185 -0.3407
 2861SOL    HW120042   1.403   3.364   9.107  0.7269  1.1103 -1.6529
 2861SOL    HW220043   1.456   3.378   9.247 -3.1910  0.6112  0.5588
 2862SOL     OW20044   3.605   4.426   6.981 -0.0600  0.4736 -0.5014
 2862SOL    HW120045   3.676   4.371   6.948 -0.4346  0.2849 -0.9964
 2862SOL    HW220046   3.654   4.499   7.019 -0.0174  0.0606  0.2392
 2863SOL     OW20047   3.382   2.421   6.054 -0.0887 -0.2131 -0.3717
 2863SOL    HW120048   3.312   2.370   6.095  0.0353  0.2951  0.4666
 2863SOL    HW220049   3.320   2.491   6.031  1.8569  1.7834  0.4959
 2864SOL     OW20050   2.080   3.144   7.132  0.0139 -0.0524  0.6698
 2864SOL    HW120051   2.008   3.131   7.194 -0.8122  1.9217  0.1354
 2864SOL    HW220052   2.150   3.079   7.136  0.5832  0.7209  3.2099
 2865SOL     OW20053   1.078   3.336   6.261  0.1138 -0.1796  0.6418
 2865SOL    HW120054   1.108   3.252   6.228 -0.3122  0.6327 -1.7927
 2865SOL    HW220055   0.983   3.325   6.255  0.0976 -0.6526  1.6806
 2866SOL     OW20056   0.077   3.367   5.953  0.0074 -0.1578  0.6373
 2866SOL    HW120057   0.088   3.431   6.024  0.5821  0.8780 -0.3849
 2866SOL    HW220058   0.150   3.386   5.894  0.2236  0.7733  1.2027
 2867SOL     OW20059   4.031   3.399   0.426 -0.4061  0.3645 -0.0500
 2867SOL    HW120060   4.046   3.318   0.475  1.2394  1.7103  1.7030
 2867SOL    HW220061   4.109   3.396   0.370 -0.8585 -0.7345 -0.5992
 2868SOL     OW20062   2.850   4.565   7.272  0.2417  0.9466 -0.1562
 2868SOL    HW120063   2.889   4.484   7.303  0.3444  0.9350 -0.3135
 2868SOL    HW220064   2.890   4.560   7.185  0.4299  1.8045 -0.1211
 2869SOL     OW20065   2.257   1.108   6.571  0.1529  0.2247 -0.1193
 2869SOL    HW120066   2.240   1.179   6.509  2.0513 -0.5894 -1.5836
 2869SOL    HW220067   2.351   1.112   6.592  0.3440  1.5850 -1.1898
 2870SOL     OW20068   0.795   0.791   7.807 -0.3981  0.1374 -0.5460
 2870SOL    HW120069   0.785   0.863   7.744 -0.3549  0.4981 -0.1406
 2870SOL    HW220070   0.808   0.842   7.887 -0.6328  0.5638 -0.7769
 2871SOL     OW20071   3.064   1.890   6.240  0.3629  0.3364 -0.3661
 2871SOL    HW120072   2.969   1.878   6.236  0.2987  0.3157  1.1700
 2871SOL    HW220073   3.074   1.960   6.305  1.9311 -1.5398  1.4157
 2872SOL     OW20074   2.218   3.052   3.544 -0.0475 -0.4883 -0.9715
 2872SOL    HW120075   2.167   3.037   3.624  1.1189 -0.7274 -0.2777
 2872SOL    HW220076   2.290   2.990   3.556  0.6597  0.6891  0.8200
 2873SOL     OW20077   0.342   0.370  10.869 -0.2759  0.1050  0.5331
 2873SOL    HW120078   0.256   0.333  10.848 -0.9432  0.7328  2.2156
 2873SOL    HW220079   0.397   0.295  10.844 -1.9465 -0.9677  0.0926
 2874SOL     OW20080   3.874   1.675   7.689 -0.3479  0.3094  0.3856
 2874SOL    HW120081   3.906   1.720   7.767  0.3460 -0.6846  0.6729
 2874SOL    HW220082   3.949   1.617   7.681 -1.1382 -1.3419  4.7778
 2875SOL     OW20083   4.346   3.243  17.199  0.0554 -0.5591 -0.3660
 2875SOL    HW120084   4.439   3.225  17.213  0.1415  0.4797  0.3650
 2875SOL    HW220085   4.320   3.289  17.279 -2.8684  0.0899 -1.6802
 2876SOL     OW20086   4.271   3.787  10.108 -0.0168  0.3163  0.6098
 2876SOL    HW120087   4.365   3.773  10.114 -0.0745 -0.8098 -1.1152
 2876SOL    HW220088   4.259   3.798  10.203 -0.1151  0.6727  0.5577
 2877SOL     OW20089   4.246   4.024   5.555 -0.3881 -0.2969 -0.1180
 2877SOL    HW120090   4.312   4.094   5.557 -0.5745 -0.1051 -0.7973
 2877SOL    HW220091   4.214   4.021   5.465 -0.0539  0.2544 -0.2598
 2878SOL     OW20092   4.117   0.881  17.672  0.0986 -0.1914  0.4012
 2878SOL    HW120093   4.187   0.842  17.620  0.7550  2.2127 -0.5216
 2878SOL    HW220094   4.109   0.814   0.047  2.3181 -1.7475 -0.8852
 2879SOL     OW20095   1.588   2.669   6.640  0.0991 -0.4920 -0.4970
 2879SOL    HW120096   1.681   2.654   6.657  0.3306  1.0713 -0.3073
 2879SOL    HW220097   1.557   2.614   6.712  0.4570  1.2571  1.0060
 2880SOL     OW20098   4.028   2.160   2.906  0.0602 -0.3961  0.2082
 2880SOL    HW120099   4.083   2.238   2.892  0.9709 -0.8928  1.0645
 2880SOL    HW220100   4.079   2.099   2.853 -0.0066 -0.6928  0.4850
 2881SOL     OW20101   1.472   0.065   4.949 -0.2002  0.3297  0.1393
 2881SOL    HW120102   1.421   4.707   4.956  1.0036 -0.3550  0.8064
 2881SOL    HW220103   1.414   0.120   4.895 -0.0123  2.2353  1.8626
 2882SOL     OW20104   3.395   1.112   4.283 -0.4078 -0.4310 -0.2785
 2882SOL    HW120105   3.403   1.022   4.251  0.4987 -1.2594  2.3190
 2882SOL    HW220106   3.468   1.165   4.250  0.7737 -0.7035  1.9304
 2883SOL     OW20107   2.147   4.047   7.431  0.0436 -0.1645 -0.3428
 2883SOL    HW120108   2.087   3.994   7.379 -1.8854  0.7470  0.9204
 2883SOL    HW220109   2.216   4.058   7.366 -1.9568  2.4707 -2.0586
 2884SOL     OW20110   4.049   2.274  14.631 -0.1236 -0.1015 -0.4427
 2884SOL    HW120111   4.082   2.347  14.683  2.3312 -1.7400  0.3192
 2884SOL    HW220112   3.954   2.283  14.636 -0.0798 -0.3683  0.8979
 2885SOL     OW20113   4.285   3.099   4.311  0.6246 -0.3497  0.0893
 2885SOL    HW120114   4.318   3.013   4.284 -0.5406 -1.4194  2.0945
 2885SOL    HW220115   4.191   3.085   4.305  0.8307 -0.8852 -1.8908
 2886SOL     OW20116   2.907   2.452   9.016 -0.4153  0.4985 -0.3198
 2886SOL    HW120117   2.835   2.447   8.953  0.5259 -1.0365 -1.2874
 2886SOL    HW220118   2.904   2.547   9.028 -0.9354  0.3619  0.5590
 2887SOL     OW20119   1.238   1.686   8.119  0.2490  0.0787 -0.1648
 2887SOL    HW120120   1.244   1.592   8.137 -0.0049  0.3343  1.2894
 2887SOL    HW220121   1.280   1.721   8.197  0.7269  0.6061 -0.6663
 2888SOL     OW20122   3.009   0.675   1.595  0.1393 -0.0106 -0.7900
 2888SOL    HW120123   2.972   0.694   1.509 -0.6775 -0.1836 -0.4721
 2888SOL    HW220124   3.012   0.579   1.596  3.1923  0.1039  2.7165
 2889SOL     OW20125   3.489   1.915   7.987 -0.2859  0.8252  0.2306
 2889SOL    HW120126   3.552   1.868   7.933 -0.1247 -0.6003  1.6592
 2889SOL    HW220127   3.425   1.939   7.920 -2.5832  1.6008  2.6914
 2890SOL     OW20128   4.711   1.183  13.831 -0.4054 -0.2886  0.9589
 2890SOL    HW120129   4.686   1.127  13.758  1.0314 -1.3885  1.2938
 2890SOL    HW220130   4.637   1.241  13.819  1.2796  1.2643 -2.0970
 2891SOL     OW20131   3.826   0.728   7.241 -0.0128  0.1415  0.7059
 2891SOL    HW120132   3.748   0.730   7.186  0.9777  1.3005 -0.6499
 2891SOL    HW220133   3.787   0.798   7.294 -1.3154 -0.8499  1.0421
 2892SOL     OW20134   2.718   1.926   4.226  0.0998  0.3354 -0.3758
 2892SOL    HW120135   2.659   1.929   4.150 -0.4209 -0.0351  0.0133
 2892SOL    HW220136   2.665   1.905   4.302  1.5418  1.7899  1.0233
 2893SOL     OW20137   1.792   1.556  15.552  0.2852  0.2864  0.3607
 2893SOL    HW120138   1.737   1.604  15.615 -1.4978 -0.9616 -0.2650
 2893SOL    HW220139   1.732   1.483  15.540  0.2396  0.6735 -1.6910
 2894SOL     OW20140   1.797   0.801   4.627 -0.1803  0.2270  0.2759
 2894SOL    HW120141   1.718   0.753   4.653  0.0597 -0.2283  0.1547
 2894SOL    HW220142   1.860   0.769   4.690  1.2775  0.0304 -1.2936
 2895SOL     OW20143   2.024   0.486  16.986  0.2688 -0.3586  0.2682
 2895SOL    HW120144   2.038   0.534  16.904 -0.3631  0.8821  0.8843
 2895SOL    HW220145   2.072   0.545  17.044 -0.6954  2.4014 -1.6963
 2896SOL     OW20146   2.220   0.328   3.279 -0.2336 -0.1194  0.1103
 2896SOL    HW120147   2.287   0.294   3.220  1.6601  2.1132  0.9735
 2896SOL    HW220148   2.138   0.309   3.234  0.4070 -0.5044 -0.8895
 2897SOL     OW20149   3.214   1.726   4.914 -0.2025  0.4472  0.3347
 2897SOL    HW120150   3.224   1.631   4.910  2.1546  0.6825  0.5727
 2897SOL    HW220151   3.271   1.741   4.839 -3.2093 -0.1195 -2.0641
 2898SOL     OW20152   2.518   1.808   6.415 -0.0459 -0.1164 -0.1295
 2898SOL    HW120153   2.551   1.865   6.485 -3.7912  1.7996  0.0650
 2898SOL    HW220154   2.423   1.804   6.423  0.0496  0.7777  1.5422
 2899SOL     OW20155   3.529   3.635   7.337 -0.2302 -0.2508 -0.4061
 2899SOL    HW120156   3.616   3.619   7.374 -0.5937 -0.2785  0.4365
 2899SOL    HW220157   3.462   3.589   7.387 -0.8951  1.1018 -0.0413
 2900SOL     OW20158   1.937   4.093  13.742 -0.0825  0.0158 -0.2586
 2900SOL    HW120159   1.862   4.094  13.801  0.2620  0.8561  0.1700
 2900SOL    HW220160   1.906   4.024  13.683  0.4733  0.0789 -0.6270
 2901SOL     OW20161   1.018   3.422   0.061 -0.0163  0.0842  0.1618
 2901SOL    HW120162   1.042   3.455  17.667 -1.2002 -2.5078 -1.1418
 2901SOL    HW220163   1.100   3.426   0.110 -0.1993  0.8429  0.4207
 2902SOL     OW20164   2.394   4.498   3.131  0.2609 -0.3185  0.0430
 2902SOL    HW120165   2.488   4.510   3.140  0.3874 -0.1810 -1.4144
 2902SOL    HW220166   2.395   4.403   3.143 -1.5943 -0.4462 -0.7974
 2903SOL     OW20167   4.581   0.698   5.173 -0.1834  0.3808  0.7141
 2903SOL    HW120168   4.535   0.739   5.247 -1.8245 -2.3173  1.2097
 2903SOL    HW220169   4.671   0.730   5.172  0.7657 -2.2248  2.4521
 2904SOL     OW20170   2.506   0.588   4.408 -0.1729 -0.2892  0.3570
 2904SOL    HW120171   2.562   0.635   4.346 -1.7101 -0.3359 -1.0538
 2904SOL    HW220172   2.422   0.626   4.380 -0.6963 -1.7247 -0.0425
 2905SOL     OW20173   2.759   0.021   7.014 -0.1551 -0.1725 -0.8609
 2905SOL    HW120174   2.807   0.095   7.049  2.1668 -1.3163 -1.5780
 2905SOL    HW220175   2.704   0.050   6.942  2.4073 -0.5980 -3.0076
 2906SOL     OW20176   2.397   3.631   7.820  0.0637  0.1450 -0.2836
 2906SOL    HW120177   2.404   3.546   7.776 -1.2232 -0.3832  0.5500
 2906SOL    HW220178   2.480   3.667   7.787  1.8193 -0.2950  3.6975
 2907SOL     OW20179   3.447   3.005   6.139 -0.0600  0.0050 -0.7347
 2907SOL    HW120180   3.427   2.985   6.230  0.7828  1.2041 -0.2836
 2907SOL    HW220181   3.524   3.060   6.152 -0.8399  0.6983  0.9822
 2908SOL     OW20182   1.949   3.330  15.056 -0.3325  0.1631 -0.1201
 2908SOL    HW120183   1.917   3.337  15.146  0.8533  2.0681  0.1450
 2908SOL    HW220184   1.884   3.269  15.021 -1.4497  1.6242 -0.6108
 2909SOL     OW20185   0.206   4.675   3.335  0.3536  0.2345 -0.7799
 2909SOL    HW120186   0.250   4.627   3.405  1.4444  2.4935  0.0904
 2909SOL    HW220187   0.184   0.037   3.374 -0.1107 -0.1901 -0.1128
 2910SOL     OW20188   0.929   4.479   7.992 -0.4530  0.1357 -0.0057
 2910SOL    HW120189   0.912   4.417   8.063  0.9506  0.1824  0.3630
 2910SOL    HW220190   0.865   4.550   7.998 -0.7179  0.0004 -1.3161
 2911SOL     OW20191   0.994   1.572   5.555  0.5836 -0.4858 -0.2192
 2911SOL    HW120192   0.983   1.612   5.641  1.6886  0.7965 -0.6746
 2911SOL    HW220193   1.048   1.643   5.520  0.8604 -0.2850  0.6089
 2912SOL     OW20194   1.747   3.813  16.183 -0.1304 -0.1571  0.0742
 2912SOL    HW120195   1.808   3.863  16.128 -3.3305  2.9211 -0.6659
 2912SOL    HW220196   1.753   3.727  16.141 -0.5483  0.1582 -0.6430
 2913SOL     OW20197   4.611   1.349  16.740  0.4194 -0.2648  0.0617
 2913SOL    HW120198   4.576   1.358  16.651  3.4906  0.6915 -1.0512
 2913SOL    HW220199   4.685   1.410  16.735 -0.7989  1.1874 -0.0628
 2914SOL     OW20200   0.874   1.310   0.473  0.1420 -0.7460 -0.4018
 2914SOL    HW120201   0.779   1.299   0.478  0.0548 -1.2207 -3.4356
 2914SOL    HW220202   0.896   1.239   0.534 -2.0157  1.7284  3.2798
 2915SOL     OW20203   0.582   1.537   1.719 -0.0286 -0.2330  0.6157
 2915SOL    HW120204   0.607   1.629   1.712  0.1083 -0.2593  0.7430
 2915SOL    HW220205   0.604   1.535   1.813  1.6436 -1.6227  0.1946
 2916SOL     OW20206   1.236   3.321   5.900  1.1037 -0.4402  0.0401
 2916SOL    HW120207   1.187   3.393   5.860  1.4650 -1.3325 -2.0056
 2916SOL    HW220208   1.299   3.381   5.940  1.8643  0.1175 -2.0513
 2917SOL     OW20209   1.613   0.164   1.794 -0.6994 -0.7893  0.6856
 2917SOL    HW120210   1.643   0.159   1.884 -0.9762  1.5041  0.9163
 2917SOL    HW220211   1.526   0.124   1.796 -0.3615 -1.5450  0.0737
 2918SOL     OW20212   1.146   2.757  13.521 -0.2808  0.0852 -0.0109
 2918SOL    HW120213   1.057   2.791  13.520  0.0251  0.9288  2.5030
 2918SOL    HW220214   1.141   2.667  13.488 -2.6362  0.1842  0.0637
 2919SOL     OW20215   0.764   3.793  14.714 -0.2437  0.1930 -0.3943
 2919SOL    HW120216   0.760   3.702  14.744  0.1820 -0.4545 -2.2998
 2919SOL    HW220217   0.831   3.776  14.647  1.1157  0.2073  0.9637
 2920SOL     OW20218   3.989   2.645   6.261  0.4915  0.0717 -0.0056
 2920SOL    HW120219   3.942   2.706   6.204  0.3515  0.5196  0.5874
 2920SOL    HW220220   3.984   2.566   6.207 -0.3801 -0.2103  0.4841
 2921SOL     OW20221   2.887   4.244   4.511 -0.0043 -0.1206 -0.2303
 2921SOL    HW120222   2.881   4.314   4.576 -0.4609 -0.4833  0.1219
 2921SOL    HW220223   2.973   4.210   4.536 -0.8585 -0.5002  2.2321
 2922SOL     OW20224   1.313   2.988  15.264 -0.0665 -0.3386  0.4169
 2922SOL    HW120225   1.353   3.066  15.226 -1.3034 -1.2465 -2.7907
 2922SOL    HW220226   1.378   2.963  15.329  0.9855  3.1021  0.6525
 2923SOL     OW20227   2.288   1.154  12.173  0.1800 -0.1357 -0.2051
 2923SOL    HW120228   2.353   1.191  12.233 -1.3616  0.1406  1.2899
 2923SOL    HW220229   2.206   1.164  12.221  1.5642 -0.1301  2.1839
 2924SOL     OW20230   3.803   1.902   8.821  0.4350  0.0005  0.1149
 2924SOL    HW120231   3.788   1.879   8.913  1.0419 -1.1445 -0.0675
 2924SOL    HW220232   3.724   1.861   8.786  0.6080  0.1755 -0.4741
 2925SOL     OW20233   4.591   0.594  15.186  0.1058 -0.4757  0.3844
 2925SOL    HW120234   4.677   0.566  15.155 -0.5268 -0.0025 -1.8493
 2925SOL    HW220235   4.599   0.586  15.281  1.6219 -1.5838  0.1629
 2926SOL     OW20236   0.373   0.749  12.390  0.7525  0.6995  0.0265
 2926SOL    HW120237   0.451   0.767  12.339  0.7228 -2.9787 -1.3163
 2926SOL    HW220238   0.391   0.788  12.475  1.1109  0.7549 -0.0775
 2927SOL     OW20239   0.829   0.544   5.223 -0.0051  0.1801 -0.0740
 2927SOL    HW120240   0.908   0.548   5.276 -0.8295 -2.0256  1.3542
 2927SOL    HW220241   0.758   0.558   5.287  0.7212  1.7535  0.3737
 2928SOL     OW20242   0.210   2.810   2.688  0.5246 -0.3453 -0.9383
 2928SOL    HW120243   0.175   2.899   2.691  1.3343 -0.1629  2.9039
 2928SOL    HW220244   0.185   2.764   2.769  1.0046 -0.8224 -1.0630
 2929SOL     OW20245   4.614   4.000   4.604  0.0478  0.0598 -0.3181
 2929SOL    HW120246   4.617   4.004   4.509  0.7883  0.2931 -0.2879
 2929SOL    HW220247   4.540   4.059   4.615  1.5617  1.9372 -0.0676
 2930SOL     OW20248   4.562   3.916   9.965  0.4197  0.1160  0.3206
 2930SOL    HW120249   4.546   4.010   9.951 -1.9799 -0.4725 -1.0347
 2930SOL    HW220250   4.498   3.874   9.906 -0.2666  0.9801  0.4453
 2931SOL     OW20251   0.837   3.323  16.091  0.6208  0.1389  0.4286
 2931SOL    HW120252   0.753   3.360  16.121  1.0622  0.9871  0.6202
 2931SOL    HW220253   0.832   3.328  15.996 -1.1950  1.1814  0.5777
 2932SOL     OW20254   1.636   4.207  12.938  0.4527  0.2798  0.2685
 2932SOL    HW120255   1.693   4.282  12.955  1.0679 -0.6679  2.4345
 2932SOL    HW220256   1.615   4.231  12.848 -2.2175 -1.2664  0.4861
 2933SOL     OW20257   1.789   0.608   0.685 -0.1847  0.2310  0.2882
 2933SOL    HW120258   1.811   0.630   0.775  1.1808  0.7922 -0.1850
 2933SOL    HW220259   1.710   0.660   0.670 -0.4488 -0.5919 -1.2255
 2934SOL     OW20260   2.238   2.766   6.892 -0.0541  0.4013 -0.4090
 2934SOL    HW120261   2.323   2.733   6.921 -0.3500  0.8868  0.9872
 2934SOL    HW220262   2.251   2.757   6.797  0.6404  2.6815 -0.5281
 2935SOL     OW20263   4.277   1.666   6.173  0.0865  0.5268  0.6102
 2935SOL    HW120264   4.312   1.720   6.244  0.3301  0.6830  0.3683
 2935SOL    HW220265   4.213   1.724   6.133  0.8796  1.4617  0.7007
 2936SOL     OW20266   3.402   3.688  15.443 -0.1600  0.1243 -0.6355
 2936SOL    HW120267   3.331   3.625  15.459  0.8774 -1.0197 -0.5008
 2936SOL    HW220268   3.412   3.686  15.348  2.0800 -1.5555 -0.3564
 2937SOL     OW20269   0.329   3.538   8.449 -0.2760  0.0071  0.3802
 2937SOL    HW120270   0.282   3.621   8.446  0.3991  0.3589 -0.6170
 2937SOL    HW220271   0.297   3.515   8.536 -2.1279 -0.8241 -0.5278
 2938SOL     OW20272   3.253   1.432   3.121  0.2557  0.3891  0.2545
 2938SOL    HW120273   3.223   1.513   3.079 -1.4747 -1.3799 -1.9589
 2938SOL    HW220274   3.343   1.435   3.090 -0.2374 -1.5430 -1.3194
 2939SOL     OW20275   1.037   1.925  14.493 -0.5363  0.1418 -0.0995
 2939SOL    HW120276   1.049   1.887  14.405 -0.6238 -1.5712  0.6229
 2939SOL    HW220277   1.127   1.955  14.506 -0.0483 -0.3123 -2.3366
 2940SOL     OW20278   2.697   0.793   1.507  0.2626  0.0766  0.2730
 2940SOL    HW120279   2.640   0.715   1.511  0.1884  0.1024 -0.3553
 2940SOL    HW220280   2.769   0.744   1.469 -0.8115 -0.4967 -1.0062
 2941SOL     OW20281   0.163   0.352   5.469 -0.1048 -0.0253  0.3207
 2941SOL    HW120282   0.252   0.333   5.497 -0.1749 -0.7878  0.0084
 2941SOL    HW220283   0.174   0.309   5.385 -0.7225 -0.9808  0.7265
 2942SOL     OW20284   3.455   0.061   7.249 -0.3357 -0.4322  0.3080
 2942SOL    HW120285   3.548   0.084   7.244 -0.6192  0.7380  0.3575
 2942SOL    HW220286   3.419   0.133   7.302 -0.2119 -0.1247 -0.0266
 2943SOL     OW20287   3.493   0.414   6.349 -0.4487 -0.2275  0.5396
 2943SOL    HW120288   3.457   0.397   6.262  0.1099  2.1030 -0.1437
 2943SOL    HW220289   3.576   0.367   6.349 -0.9773 -1.1448  1.2097
 2944SOL     OW20290   1.274   2.802  14.067  0.6023  0.0374  0.1396
 2944SOL    HW120291   1.228   2.768  13.990  0.6396 -1.9489  0.9795
 2944SOL    HW220292   1.205   2.854  14.109 -0.1530 -0.6961 -0.1780
 2945SOL     OW20293   0.010   3.365  13.012 -0.1776  0.4271  0.5454
 2945SOL    HW120294   0.028   3.328  12.926  0.9742 -2.7377  2.1727
 2945SOL    HW220295   0.040   3.455  12.995 -1.8873  0.8173 -0.4032
 2946SOL     OW20296   4.507   2.092   8.971  0.2522  0.2049 -0.2893
 2946SOL    HW120297   4.474   2.101   8.881  1.7090 -2.7858 -1.0960
 2946SOL    HW220298   4.500   1.998   8.981  0.7676 -0.1010 -2.6297
 2947SOL     OW20299   2.294   2.631   2.246 -0.1589 -0.4076  0.0418
 2947SOL    HW120300   2.231   2.699   2.222 -0.3489 -0.5262  0.2053
 2947SOL    HW220301   2.244   2.555   2.277  0.1669 -1.1198 -1.1890
 2948SOL     OW20302   3.707   2.256   1.735 -0.0244  0.2234  0.0125
 2948SOL    HW120303   3.686   2.279   1.645  0.8690 -1.6765 -0.6698
 2948SOL    HW220304   3.730   2.163   1.732 -0.7204  0.0552 -0.3099
 2949SOL     OW20305   3.773   3.408   1.197 -0.5161 -0.1646 -0.2927
 2949SOL    HW120306   3.807   3.473   1.136  0.5627  0.2058  0.7256
 2949SOL    HW220307   3.691   3.455   1.215 -0.2529 -0.6140  2.0530
 2950SOL     OW20308   3.141   3.385   5.906 -0.0460  0.5516 -0.1544
 2950SOL    HW120309   3.131   3.416   5.996  1.6991  1.5846 -0.2986
 2950SOL    HW220310   3.224   3.338   5.912  0.1832  1.3180  2.4192
 2951SOL     OW20311   3.855   3.084  17.244  0.3610  0.2759  0.1991
 2951SOL    HW120312   3.809   3.005  17.272  1.0850  0.5259  2.0561
 2951SOL    HW220313   3.933   3.097  17.297  0.9204  0.1361 -0.6026
 2952SOL     OW20314   4.608   2.192   4.204 -0.1724  0.6010 -0.1338
 2952SOL    HW120315   4.646   2.280   4.208  1.5608 -0.1010 -1.0622
 2952SOL    HW220316   4.670   2.144   4.149  0.6025  1.8386 -0.3371
 2953SOL     OW20317   0.551   0.556  14.228 -0.3355 -0.3474  0.0027
 2953SOL    HW120318   0.623   0.516  14.275  1.9587  1.1098 -2.2833
 2953SOL    HW220319   0.588   0.559  14.140 -0.7141 -0.9142 -0.1748
 2954SOL     OW20320   3.458   1.661   0.628  0.4101  0.1980 -0.2346
 2954SOL    HW120321   3.533   1.685   0.574  0.0449  0.6960 -0.5214
 2954SOL    HW220322   3.435   1.749   0.656  2.3324  0.5154  0.3617
 2955SOL     OW20323   4.208   3.882   4.171 -0.3314 -0.3006  1.0554
 2955SOL    HW120324   4.134   3.865   4.230 -0.2710 -1.7632  0.6985
 2955SOL    HW220325   4.202   3.802   4.120 -2.5468 -0.4402  1.5003
 2956SOL     OW20326   1.744   4.130   7.992  0.9802 -0.3324  0.3649
 2956SOL    HW120327   1.706   4.204   7.944 -0.0651 -1.2072 -0.1447
 2956SOL    HW220328   1.812   4.114   7.926 -0.1594 -0.5094 -0.7524
 2957SOL     OW20329   0.355   0.187   5.787 -0.3582 -0.3746 -0.2506
 2957SOL    HW120330   0.430   0.182   5.727  0.7958  0.1565  1.1447
 2957SOL    HW220331   0.283   0.197   5.725  0.1694 -1.5738 -1.0591
 2958SOL     OW20332   2.929   3.838   9.102 -0.0643 -0.2587  0.3941
 2958SOL    HW120333   2.877   3.771   9.146 -1.0839  0.2881  0.0338
 2958SOL    HW220334   2.864   3.903   9.075 -1.2969 -1.8600 -0.4586
 2959SOL     OW20335   3.171   2.159   5.496  0.3471 -0.1174 -0.4667
 2959SOL    HW120336   3.258   2.166   5.457  0.5075  1.0548  0.0835
 2959SOL    HW220337   3.123   2.085   5.459  1.1378 -1.5322  1.3498
 2960SOL     OW20338   2.923   2.638  14.451 -0.3193 -0.0460  0.2007
 2960SOL    HW120339   2.932   2.592  14.368  1.5873 -0.4023  0.6018
 2960SOL    HW220340   2.843   2.687  14.437  0.1581  0.1997 -1.6195
 2961SOL     OW20341   2.381   1.093   4.200 -0.3474  0.6818  0.1345
 2961SOL    HW120342   2.304   1.052   4.239 -0.1867 -0.9469 -1.2666
 2961SOL    HW220343   2.361   1.085   4.106 -1.1017 -0.1136  0.3620
 2962SOL     OW20344   2.757   0.799   8.260  0.3342 -0.3507 -0.1673
 2962SOL    HW120345   2.731   0.796   8.168  1.9115 -0.0482 -0.6240
 2962SOL    HW220346   2.716   0.880   8.291  0.6090  0.6924 -2.5173
 2963SOL     OW20347   4.319   2.365   7.611 -0.1482 -0.6798 -0.3013
 2963SOL    HW120348   4.253   2.296   7.602 -0.6798 -0.4260  1.5003
 2963SOL    HW220349   4.337   2.382   7.519  1.1229 -1.9211 -0.2866
 2964SOL     OW20350   4.616   3.451   2.764  0.0815 -0.4165  0.7750
 2964SOL    HW120351   4.669   3.423   2.839  1.0384  2.6227  1.2390
 2964SOL    HW220352   4.616   3.546   2.777  1.3187 -0.3932  0.6180
 2965SOL     OW20353   2.325   0.811   7.407  0.1882  0.2184 -0.4399
 2965SOL    HW120354   2.309   0.717   7.398  0.8180 -0.1338  2.1362
 2965SOL    HW220355   2.274   0.829   7.486  2.1811  0.3521  0.8212
 2966SOL     OW20356   1.597   2.648   5.842  0.2862  0.2301  0.6994
 2966SOL    HW120357   1.536   2.720   5.829  0.8188  0.6704  0.6507
 2966SOL    HW220358   1.594   2.620   5.751  0.1606  0.5445  0.6102
 2967SOL     OW20359   0.183   3.485  15.670  0.1262  0.0549  0.4767
 2967SOL    HW120360   0.214   3.405  15.713 -0.5628  0.2698  1.3791
 2967SOL    HW220361   0.199   3.483  15.576  1.7450 -0.8171  0.7746
 2968SOL     OW20362   3.617   4.483   7.325  0.3161  0.6326  0.6431
 2968SOL    HW120363   3.572   4.523   7.250  1.2195 -2.5339 -1.5713
 2968SOL    HW220364   3.665   4.562   7.346 -1.1619  1.9153 -0.7724
 2969SOL     OW20365   0.960   0.009   0.782 -0.1476  0.0191  0.0670
 2969SOL    HW120366   0.867   4.707   0.786  0.4008 -1.7654  1.8044
 2969SOL    HW220367   0.962   0.056   0.698 -0.6715 -0.0162  0.0307
 2970SOL     OW20368   2.557   1.983  11.878  0.6249 -0.1952 -0.4862
 2970SOL    HW120369   2.527   2.022  11.960  0.7120  4.1969 -2.5518
 2970SOL    HW220370   2.640   2.030  11.873  1.4953 -1.9338 -2.5617
 2971SOL     OW20371   3.832   4.072   1.307  0.2164  0.0892 -0.7334
 2971SOL    HW120372   3.909   4.042   1.356  0.8730  1.7812 -0.7156
 2971SOL    HW220373   3.781   4.124   1.368 -1.9614 -3.0570  0.1569
 2972SOL     OW20374   1.271   3.846   5.409 -0.0698 -0.0931 -0.1573
 2972SOL    HW120375   1.285   3.805   5.324  0.9266  0.9863 -0.5111
 2972SOL    HW220376   1.255   3.935   5.377 -1.3846 -0.6177 -0.9847
 2973SOL     OW20377   2.708   4.102   0.613 -0.3234  0.1222  0.1252
 2973SOL    HW120378   2.777   4.147   0.664  0.6310 -0.4919 -0.6200
 2973SOL    HW220379   2.751   4.061   0.539 -1.3936  1.3784 -1.1882
 2974SOL     OW20380   3.498   1.251   3.916  0.2064 -0.4284  0.0194
 2974SOL    HW120381   3.551   1.324   3.884 -0.5745  0.0695 -0.1393
 2974SOL    HW220382   3.436   1.254   3.842  0.7290 -0.8805 -0.4402
 2975SOL     OW20383   1.156   1.462   5.047  0.2988 -0.6969  0.6380
 2975SOL    HW120384   1.148   1.392   4.981  2.5773  0.1413 -0.5421
 2975SOL    HW220385   1.217   1.519   4.999 -0.9763  0.0781 -0.0741
 2976SOL     OW20386   2.233   1.686   6.405  0.1051  0.1401 -0.1241
 2976SOL    HW120387   2.152   1.729   6.376  0.3064  1.4062  1.2128
 2976SOL    HW220388   2.216   1.663   6.496  0.0944  0.2935 -0.0869
 2977SOL     OW20389   4.013   4.647  11.042 -0.1788  0.1858 -0.6979
 2977SOL    HW120390   4.005   4.555  11.069 -1.7277  0.8671  1.2361
 2977SOL    HW220391   4.108   4.643  11.036 -0.1352 -0.3089  0.1882
 2978SOL     OW20392   0.778   1.778  11.861  0.2947 -0.1208  0.0659
 2978SOL    HW120393   0.818   1.789  11.775 -0.4690  2.4168  0.0387
 2978SOL    HW220394   0.694   1.741  11.838  0.7938 -2.4355  2.0029
 2979SOL     OW20395   2.077   2.185   6.891  0.2685 -0.3471 -0.1602
 2979SOL    HW120396   2.104   2.111   6.836  1.8926  0.8768 -1.0001
 2979SOL    HW220397   2.129   2.248   6.841  0.6516  0.8258  1.7261
 2980SOL     OW20398   1.705   0.315  10.250 -0.1312  0.3618  0.3742
 2980SOL    HW120399   1.755   0.349  10.324  1.1682 -0.9968  0.1334
 2980SOL    HW220400   1.692   0.396  10.201  1.7024  1.4714  1.7183
 2981SOL     OW20401   1.065   4.366  15.916 -0.3192 -0.2136 -0.4623
 2981SOL    HW120402   1.138   4.406  15.962 -2.7069  1.2523  2.0547
 2981SOL    HW220403   1.023   4.447  15.888  1.2628  0.5013 -0.7121
 2982SOL     OW20404   1.417   2.841   5.763 -0.5168 -0.0989  0.1825
 2982SOL    HW120405   1.373   2.832   5.679  2.1181  0.2744 -1.2195
 2982SOL    HW220406   1.454   2.928   5.751  0.0319 -0.5459 -1.2437
 2983SOL     OW20407   3.903   3.884   9.561  0.0032 -0.2712 -0.0457
 2983SOL    HW120408   3.905   3.958   9.621 -0.4702 -0.1138 -0.2251
 2983SOL    HW220409   3.821   3.913   9.520  0.2993 -0.8595 -1.0509
 2984SOL     OW20410   2.493   4.568   0.419  0.4621  0.4177  0.3163
 2984SOL    HW120411   2.418   4.543   0.473  0.0287 -0.4715 -0.6818
 2984SOL    HW220412   2.554   4.578   0.492  0.6652 -3.9881  0.7439
 2985SOL     OW20413   0.829   1.503   5.949 -0.5260 -0.1134 -0.1243
 2985SOL    HW120414   0.915   1.533   5.979 -0.0144 -0.4064 -1.2840
 2985SOL    HW220415   0.809   1.439   6.017  0.4929 -2.1030 -1.7018
 2986SOL     OW20416   1.178   3.515  12.323  0.5059  0.0548  0.1543
 2986SOL    HW120417   1.228   3.526  12.242  1.1320  1.5087  0.7300
 2986SOL    HW220418   1.225   3.440  12.359  1.0428 -0.0556 -0.7982
 2987SOL     OW20419   2.543   3.414   7.273  0.4622  0.1228 -0.3372
 2987SOL    HW120420   2.459   3.460   7.280 -0.0563 -0.8778 -0.0467
 2987SOL    HW220421   2.558   3.431   7.180 -1.3342  2.2054 -0.2481
 2988SOL     OW20422   4.322   2.761   3.300  0.2212 -0.2845  0.5664
 2988SOL    HW120423   4.316   2.828   3.233  2.9482 -0.9708 -0.3742
 2988SOL    HW220424   4.233   2.776   3.331  0.2076 -0.0103  0.3913
 2989SOL     OW20425   0.491   0.940   2.369  0.1174 -0.0994 -0.5593
 2989SOL    HW120426   0.543   0.917   2.292  0.4201  0.9166 -0.6523
 2989SOL    HW220427   0.526   0.870   2.424 -0.5501  1.0131  1.2636
 2990SOL     OW20428   2.461   4.407  10.993  0.2911 -0.1141  0.5393
 2990SOL    HW120429   2.517   4.476  11.028  0.1571  0.5877 -0.6459
 2990SOL    HW220430   2.439   4.354  11.070 -0.9443 -1.6592 -0.8798
 2991SOL     OW20431   4.123   3.954   5.274  0.1936  0.2641  0.2234
 2991SOL    HW120432   4.201   3.981   5.226 -1.1808  0.0227 -2.1155
 2991SOL    HW220433   4.128   3.859   5.267 -2.1379  0.3761 -2.5632
 2992SOL     OW20434   3.776   1.142  11.828  0.2616 -0.3505  0.2928
 2992SOL    HW120435   3.866   1.126  11.800  0.1147 -0.4245 -0.1387
 2992SOL    HW220436   3.782   1.229  11.866  0.2898 -0.2200 -0.0094
 2993SOL     OW20437   2.281   4.482  12.563 -0.0114 -0.5974  0.8373
 2993SOL    HW120438   2.246   4.393  12.564 -0.4886 -0.4120  0.6257
 2993SOL    HW220439   2.335   4.480  12.642 -0.5421 -2.4467  1.1523
 2994SOL     OW20440   4.002   1.408  16.021  0.4590 -0.0044  0.5484
 2994SOL    HW120441   4.057   1.385  16.096  2.8530 -1.3170 -1.6503
 2994SOL    HW220442   4.074   1.428  15.962  2.6156  0.8536  3.4836
 2995SOL     OW20443   4.009   1.309   4.435  0.3319 -0.3641  0.9503
 2995SOL    HW120444   3.919   1.296   4.405  0.4324  0.9584  0.1049
 2995SOL    HW220445   3.987   1.364   4.510  0.9459 -0.7583  1.4202
 2996SOL     OW20446   1.765   0.881   7.469 -0.2714 -0.5832  0.9923
 2996SOL    HW120447   1.781   0.793   7.434 -0.0019 -0.5728  1.0924
 2996SOL    HW220448   1.792   0.936   7.396 -2.9767  1.0960  1.2534
 2997SOL     OW20449   3.458   2.928   2.615 -0.3320  0.0047 -0.5009
 2997SOL    HW120450   3.516   2.857   2.644 -2.0105 -1.3080 -0.3706
 2997SOL    HW220451   3.515   2.986   2.565 -0.8439 -0.6301 -1.8293
 2998SOL     OW20452   3.541   1.121   7.989 -0.6189  0.1087 -0.1907
 2998SOL    HW120453   3.606   1.063   8.029  0.9273  1.7450 -0.3391
 2998SOL    HW220454   3.595   1.200   7.987 -1.7692  0.9484  1.5032
 2999SOL     OW20455   4.550   4.385   0.545  0.7204 -0.1025 -0.2829
 2999SOL    HW120456   4.513   4.324   0.609 -2.5352  2.1225 -0.0324
 2999SOL    HW220457   4.577   4.462   0.594 -2.2421  0.9936 -0.3718
 3000SOL     OW20458   0.849   0.862   3.212  0.4664  0.1085  0.0889
 3000SOL    HW120459   0.930   0.887   3.255  1.5889  0.8730 -2.4816
 3000SOL    HW220460   0.825   0.777   3.249 -2.4183  0.2467 -1.4032
 3001SOL     OW20461   1.907   3.347   8.726 -0.3524 -0.0201 -0.1866
 3001SOL    HW120462   1.908   3.317   8.635  3.0027 -0.1728 -0.1143
 3001SOL    HW220463   1.814   3.348   8.746  0.3417  1.2958  2.9678
 3002SOL     OW20464   1.542   1.817   4.624 -0.1819  0.2007 -0.2734
 3002SOL    HW120465   1.481   1.839   4.694 -3.0863 -0.0079 -2.7654
 3002SOL    HW220466   1.518   1.871   4.548  3.4219  1.4898 -0.4865
 3003SOL     OW20467   0.429   1.861   8.025 -0.1473 -0.1476 -0.1574
 3003SOL    HW120468   0.378   1.936   8.056  0.0454  0.1532 -0.5656
 3003SOL    HW220469   0.418   1.856   7.930 -2.0247  0.8410  0.0063
 3004SOL     OW20470   3.620   1.375   8.369 -0.0167  0.5272 -0.0117
 3004SOL    HW120471   3.565   1.309   8.412  2.7243 -0.3838  2.1155
 3004SOL    HW220472   3.621   1.442   8.438  0.1556 -0.0491  0.5519
 3005SOL     OW20473   1.772   4.230  10.135 -0.1985 -0.2849 -0.2938
 3005SOL    HW120474   1.695   4.220  10.079  0.6636 -1.2562 -1.3220
 3005SOL    HW220475   1.765   4.156  10.195 -2.6471 -0.4541 -0.8131
 3006SOL     OW20476   4.682   1.243   1.087 -0.0564  0.3221  0.4234
 3006SOL    HW120477   0.017   1.167   1.091 -1.8341 -1.0822 -0.6775
 3006SOL    HW220478   0.032   1.299   1.060 -0.8474  1.4519  0.6268
 3007SOL     OW20479   3.095   4.557  15.840  0.2140  0.3098 -0.1806
 3007SOL    HW120480   3.037   4.481  15.842  0.1167  0.4529  2.8097
 3007SOL    HW220481   3.178   4.512  15.821  0.6020  0.4110  1.2595
 3008SOL     OW20482   2.842   3.081   4.759 -0.5213  0.9408  0.3564
 3008SOL    HW120483   2.910   3.148   4.755  1.8055 -1.3881  0.4676
 3008SOL    HW220484   2.795   3.100   4.678 -1.7937  1.3090  1.1799
 3009SOL     OW20485   0.023   3.690   9.611 -0.5385 -0.6245 -0.2990
 3009SOL    HW120486   0.007   3.722   9.700 -0.6952  0.1188 -0.5865
 3009SOL    HW220487   4.663   3.676   9.564 -1.9311 -1.2134  2.3232
 3010SOL     OW20488   2.043   3.203   7.727 -0.0544 -0.2857  0.1185
 3010SOL    HW120489   2.129   3.176   7.696  0.3540  0.8742  0.2214
 3010SOL    HW220490   2.062   3.244   7.812 -1.8114  1.1450 -0.1799
 3011SOL     OW20491   0.444   3.474   9.555  0.2829  0.0425 -0.3974
 3011SOL    HW120492   0.371   3.521   9.513 -1.1332 -0.2291  1.7293
 3011SOL    HW220493   0.505   3.479   9.482 -0.3985  0.3014 -0.9568
 3012SOL     OW20494   2.461   3.494   5.658  0.0546 -0.0669  0.2347
 3012SOL    HW120495   2.422   3.561   5.601  1.6378  1.5531  1.0390
 3012SOL    HW220496   2.523   3.451   5.598 -0.5224 -0.9125  0.2473
 3013SOL     OW20497   1.366   2.464  11.043 -0.6610 -0.2615 -0.6140
 3013SOL    HW120498   1.409   2.380  11.024 -0.0699 -0.0037 -0.4227
 3013SOL    HW220499   1.278   2.434  11.066 -0.2348 -0.5744  0.6126
 3014SOL     OW20500   2.254   0.520  10.761 -0.7526 -0.1233  0.0942
 3014SOL    HW120501   2.188   0.523  10.831  0.3630 -1.8812  1.2134
 3014SOL    HW220502   2.314   0.586  10.797  1.4940 -1.6354 -0.9014
 3015SOL     OW20503   3.023   0.044   1.748 -0.1173 -0.0698  0.3749
 3015SOL    HW120504   3.031   0.081   1.660 -1.0963  2.9818  1.5429
 3015SOL    HW220505   2.982   4.681   1.732  1.6366 -1.1420  1.6734
 3016SOL     OW20506   1.284   4.291  15.634  0.5123  0.2198  0.1531
 3016SOL    HW120507   1.200   4.244  15.631  1.3237 -1.2422  0.3464
 3016SOL    HW220508   1.262   4.382  15.614 -1.6426  0.0027  1.5155
 3017SOL     OW20509   3.782   2.619   7.387 -0.1659 -0.1390  0.2201
 3017SOL    HW120510   3.746   2.531   7.396 -1.4104  0.5854  2.2363
 3017SOL    HW220511   3.779   2.631   7.292  3.3414  1.3448  0.3089
 3018SOL     OW20512   1.712   2.508   3.944 -0.5881 -0.4047  0.1151
 3018SOL    HW120513   1.748   2.596   3.957  0.0259 -0.4772 -1.1161
 3018SOL    HW220514   1.768   2.473   3.874 -1.5654 -1.9119  0.0820
 3019SOL     OW20515   4.046   3.441   8.926  0.2596  0.3752  0.0528
 3019SOL    HW120516   4.086   3.477   8.847  1.3387  0.1254  0.4863
 3019SOL    HW220517   3.993   3.518   8.946 -0.1773  0.0596  0.0956
 3020SOL     OW20518   0.271   1.229  13.133 -0.5051 -0.2405  0.1804
 3020SOL    HW120519   0.213   1.167  13.086 -1.3578  0.2945  0.5305
 3020SOL    HW220520   0.308   1.177  13.204  0.7329 -1.3793 -1.2784
 3021SOL     OW20521   1.806   4.151   5.478  0.6906 -0.0589  0.7236
 3021SOL    HW120522   1.766   4.187   5.557  0.7006 -1.5797  1.4166
 3021SOL    HW220523   1.889   4.199   5.467  0.3687  0.8048  2.0235
 3022SOL     OW20524   0.231   0.225   6.363  0.5331  0.0932 -0.1810
 3022SOL    HW120525   0.140   0.223   6.334  1.3114  0.6050 -2.6337
 3022SOL    HW220526   0.277   0.156   6.315 -0.6453 -0.1921 -0.9212
 3023SOL     OW20527   0.531   1.312   7.069 -0.0583  0.1113  0.1540
 3023SOL    HW120528   0.455   1.320   7.126  0.8792 -1.1932  1.5826
 3023SOL    HW220529   0.530   1.400   7.031  0.3631 -0.0868 -0.3204
 3024SOL     OW20530   0.704   1.472   4.087 -0.4078 -0.4985  0.5883
 3024SOL    HW120531   0.767   1.402   4.101 -0.0256 -0.0414  1.1425
 3024SOL    HW220532   0.705   1.507   4.176  2.5893 -3.2438  1.6231
 3025SOL     OW20533   4.332   2.590   0.956  0.1186 -0.5903 -0.0840
 3025SOL    HW120534   4.357   2.650   1.027 -1.0374 -0.1720 -0.0350
 3025SOL    HW220535   4.341   2.651   0.883  1.7410 -1.0081 -0.2284
 3026SOL     OW20536   2.323   0.948  15.119  0.0427 -0.4966  0.3346
 3026SOL    HW120537   2.297   1.004  15.046 -3.6329  0.9754  2.7255
 3026SOL    HW220538   2.351   0.874  15.066  2.6655  0.2862  0.6383
 3027SOL     OW20539   2.522   0.134  12.173 -0.1931  0.5780 -0.4537
 3027SOL    HW120540   2.603   0.151  12.125 -0.0600 -1.1756 -0.8574
 3027SOL    HW220541   2.468   0.208  12.147  0.5011  1.2371 -0.0441
 3028SOL     OW20542   1.698   0.620   6.007 -0.3214 -1.2531  0.6214
 3028SOL    HW120543   1.766   0.623   6.074 -1.4493 -1.3819  1.7638
 3028SOL    HW220544   1.716   0.539   5.960  0.6773 -0.8995  0.3872
 3029SOL     OW20545   1.641   1.363   6.762  0.5136 -0.6175  0.0992
 3029SOL    HW120546   1.648   1.453   6.792  0.1506 -0.9835  1.2859
 3029SOL    HW220547   1.578   1.334   6.828 -1.0867  1.1776 -0.6274
 3030SOL     OW20548   2.095   0.996  17.330  0.1405 -0.1534  0.1495
 3030SOL    HW120549   2.175   0.957  17.294  0.5534 -0.0328  0.9362
 3030SOL    HW220550   2.085   0.944  17.409 -4.8687  0.1883 -0.2873
 3031SOL     OW20551   1.264   4.099   6.631 -0.1928  0.0759 -0.2628
 3031SOL    HW120552   1.284   4.116   6.539 -0.0943 -1.7610 -0.5853
 3031SOL    HW220553   1.197   4.163   6.652 -1.5468 -1.3999 -0.0551
 3032SOL     OW20554   4.474   2.703   8.707  0.4550  0.2376  0.2519
 3032SOL    HW120555   4.514   2.719   8.622  3.3848 -1.7905  1.2248
 3032SOL    HW220556   4.450   2.613   8.686 -0.1844  0.3215  0.6383
 3033SOL     OW20557   1.333   0.948   4.089  0.3122  0.2537  0.3070
 3033SOL    HW120558   1.404   0.884   4.086  0.2400  0.2677 -1.3463
 3033SOL    HW220559   1.270   0.901   4.035 -2.3134 -1.4264  4.8089
 3034SOL     OW20560   2.361   1.198  17.572  0.3903  0.5509 -0.3589
 3034SOL    HW120561   2.392   1.111  17.547  1.2268  1.1639 -1.4274
 3034SOL    HW220562   2.432   1.226  17.631  0.3847  2.7875 -1.4159
 3035SOL     OW20563   3.703   0.430   8.106 -0.2811  0.3120 -0.0917
 3035SOL    HW120564   3.715   0.353   8.162 -0.5847  0.3440  0.0135
 3035SOL    HW220565   3.786   0.477   8.122  0.0281 -1.6242  3.9329
 3036SOL     OW20566   3.035   3.249   4.744  0.2224 -0.1652 -0.2629
 3036SOL    HW120567   3.115   3.257   4.691 -1.4165  0.5782 -2.6487
 3036SOL    HW220568   3.015   3.339   4.769 -1.4832 -0.6776  0.2618
 3037SOL     OW20569   2.145   4.124   9.852 -0.0422  0.1084  0.4632
 3037SOL    HW120570   2.117   4.043   9.894 -1.0910  1.0041  1.4972
 3037SOL    HW220571   2.069   4.141   9.796  0.7028 -0.6037 -0.7497
 3038SOL     OW20572   2.833   2.831   5.424  0.3364  0.2459  0.0597
 3038SOL    HW120573   2.920   2.804   5.455  0.3637  2.1983  1.6311
 3038SOL    HW220574   2.814   2.884   5.501  1.4957  0.0518  0.4918
 3039SOL     OW20575   3.911   0.403   4.730  0.0056 -0.3966  0.1172
 3039SOL    HW120576   3.983   0.413   4.793  0.8037  0.3782 -0.9015
 3039SOL    HW220577   3.840   0.426   4.790  0.8688 -1.9528  1.7293
 3040SOL     OW20578   2.838   1.344  17.170 -0.1449  0.4748  0.0623
 3040SOL    HW120579   2.813   1.365  17.260 -2.4398 -2.6212  0.1894
 3040SOL    HW220580   2.897   1.269  17.183 -0.2893  0.5530  1.1343
 3041SOL     OW20581   1.673   0.317   9.303 -0.2242 -0.2595 -0.0684
 3041SOL    HW120582   1.680   0.403   9.345 -0.9774  0.7205 -1.9556
 3041SOL    HW220583   1.694   0.265   9.381 -1.4863  0.8666  1.0234
 3042SOL     OW20584   2.673   2.858   6.910 -0.0083 -0.2146  0.3334
 3042SOL    HW120585   2.696   2.893   6.824  1.5834  1.0101  1.2502
 3042SOL    HW220586   2.644   2.939   6.953  0.3402 -0.4328  0.9681
 3043SOL     OW20587   2.676   0.290  13.136 -0.1757 -0.0275  0.5475
 3043SOL    HW120588   2.727   0.213  13.161  0.1214 -0.2070 -0.6204
 3043SOL    HW220589   2.731   0.365  13.158 -1.2857  0.6658  0.9153
 3044SOL     OW20590   0.210   1.907  10.049 -0.5690  0.5674  0.2959
 3044SOL    HW120591   0.292   1.882  10.008 -0.0102  0.8847  1.1955
 3044SOL    HW220592   0.209   1.998  10.018 -0.2228  0.5670  0.2901
 3045SOL     OW20593   4.372   0.426  15.158 -0.7304  0.3777 -0.3988
 3045SOL    HW120594   4.315   0.456  15.228 -0.0442 -0.6809  0.6208
 3045SOL    HW220595   4.433   0.500  15.148  1.0780 -0.7964  1.8099
 3046SOL     OW20596   2.232   3.344   1.271  0.2115  0.4625 -0.3455
 3046SOL    HW120597   2.205   3.321   1.360 -1.0213 -0.1157 -0.8599
 3046SOL    HW220598   2.146   3.365   1.235 -0.6176  1.3484  2.1385
 3047SOL     OW20599   1.728   3.132   2.788  0.1054  0.1401  0.0453
 3047SOL    HW120600   1.692   3.141   2.700  1.1337 -0.5073 -0.4380
 3047SOL    HW220601   1.717   3.220   2.822  1.4259  1.3235 -2.6569
 3048SOL     OW20602   0.054   0.724   9.856  0.4935  0.3209 -0.6737
 3048SOL    HW120603   0.074   0.711   9.763  0.1206 -0.5725 -0.6301
 3048SOL    HW220604   4.683   0.709   9.866  0.9767 -2.4871 -0.2223
 3049SOL     OW20605   4.420   1.285  16.902  0.0107  0.2481 -0.3958
 3049SOL    HW120606   4.481   1.327  16.842  0.2861  1.7932  0.9838
 3049SOL    HW220607   4.418   1.204  16.850  1.6226  0.8008 -1.3276
 3050SOL     OW20608   1.906   2.451   6.055  0.1500 -0.0278  0.0369
 3050SOL    HW120609   1.964   2.378   6.031  0.4890  0.6507 -1.1806
 3050SOL    HW220610   1.878   2.420   6.141  1.9414 -1.4203  0.1268
 3051SOL     OW20611   3.564   2.426  17.617 -0.1448  0.0214 -0.2288
 3051SOL    HW120612   3.556   2.352  17.678 -1.3744  0.7098  0.4419
 3051SOL    HW220613   3.627   2.396  17.552 -2.1402 -1.7680 -1.3153
 3052SOL     OW20614   1.950   1.432   7.744  0.2457 -0.7192 -0.2065
 3052SOL    HW120615   1.869   1.390   7.713  0.4681 -0.5877 -0.9787
 3052SOL    HW220616   1.997   1.420   7.661 -0.4465  0.8139 -0.8217
 3053SOL     OW20617   1.608   0.104  10.085  0.4907  0.7041 -0.4776
 3053SOL    HW120618   1.528   0.088  10.136  1.8133 -0.7358  1.1759
 3053SOL    HW220619   1.658   0.167  10.137 -0.6035 -0.5523  2.1344
 3054SOL     OW20620   4.630   1.651  13.420 -1.0204  0.0501  0.7724
 3054SOL    HW120621   4.583   1.703  13.355 -1.2662  2.1752  2.6281
 3054SOL    HW220622   4.575   1.573  13.429 -0.3238 -0.3921  1.2110
 3055SOL     OW20623   4.039   0.527   3.718 -0.2839 -0.1578  0.5216
 3055SOL    HW120624   4.069   0.446   3.678 -0.2110  0.0018  0.2486
 3055SOL    HW220625   3.957   0.508   3.764 -1.6153 -0.9353 -2.2156
 3056SOL     OW20626   2.743   1.784  15.068 -0.1957 -0.1295  0.0848
 3056SOL    HW120627   2.654   1.761  15.044 -0.6241 -0.1158  1.6733
 3056SOL    HW220628   2.789   1.715  15.021 -0.3687 -1.8389  2.4107
 3057SOL     OW20629   2.193   1.391  15.031 -0.3241 -0.3896  0.1923
 3057SOL    HW120630   2.115   1.428  15.072 -1.0749 -1.6209 -0.1384
 3057SOL    HW220631   2.144   1.313  15.005  0.4491  0.0688 -2.6297
 3058SOL     OW20632   4.585   1.966   7.010 -0.0649  0.1326  0.2192
 3058SOL    HW120633   4.539   1.958   6.926  0.5051  0.0858 -0.0899
 3058SOL    HW220634   4.607   2.058   7.000  1.0618 -0.4613 -2.8738
 3059SOL     OW20635   3.007   4.397   8.746  0.3096 -0.5462 -0.5052
 3059SOL    HW120636   3.047   4.418   8.831 -0.4211 -2.1431  0.2410
 3059SOL    HW220637   2.957   4.318   8.768 -1.4784  0.6070 -0.4317
 3060SOL     OW20638   4.670   3.088  13.153 -0.3048 -0.0912 -0.0424
 3060SOL    HW120639   4.716   3.169  13.175 -1.6647  0.2699  1.4453
 3060SOL    HW220640   0.007   3.055  13.086  1.4514 -1.5210  2.2193
 3061SOL     OW20641   1.397   0.401   1.390 -0.0771 -0.3912  0.1306
 3061SOL    HW120642   1.350   0.464   1.445  0.2064  0.3117 -0.4485
 3061SOL    HW220643   1.489   0.406   1.416 -0.8890  3.6310  2.1668
 3062SOL     OW20644   2.184   3.913   4.377  0.4585  0.2903  0.2403
 3062SOL    HW120645   2.266   3.864   4.380 -0.8772 -2.0055 -0.5018
 3062SOL    HW220646   2.130   3.834   4.365  0.7363 -0.4273  3.5896
 3063SOL     OW20647   3.754   1.949   7.168  0.3684  0.1499 -0.3855
 3063SOL    HW120648   3.777   1.857   7.156 -0.8720 -0.4480  1.7764
 3063SOL    HW220649   3.744   1.945   7.263  1.9663 -3.2592 -0.3700
 3064SOL     OW20650   1.426   4.585   5.255 -0.2360  0.5175 -0.2888
 3064SOL    HW120651   1.516   4.612   5.235 -0.0622  0.6482  0.6518
 3064SOL    HW220652   1.439   4.500   5.213  0.9885 -0.1240  1.3419
 3065SOL     OW20653   1.513   0.039   0.907  0.9736 -0.2067  0.1192
 3065SOL    HW120654   1.434   0.060   0.856  0.7756 -0.3790  0.3514
 3065SOL    HW220655   1.575   0.035   0.834 -0.2547 -0.2675 -0.9282
 3066SOL     OW20656   2.924   3.568   2.356  0.0770  0.3193  0.4050
 3066SOL    HW120657   2.962   3.574   2.268 -0.6572 -0.7661  0.0116
 3066SOL    HW220658   2.942   3.478   2.382  0.8854  0.6473  0.9530
 3067SOL     OW20659   3.858   1.806   5.837  0.2114  0.0208  0.4525
 3067SOL    HW120660   3.782   1.808   5.895  1.0402  0.1819  1.5426
 3067SOL    HW220661   3.862   1.722   5.791  0.1828 -0.4628  1.3401
 3068SOL     OW20662   0.721   1.276  14.831 -0.0592  0.3122  0.1170
 3068SOL    HW120663   0.716   1.185  14.861 -3.8239  0.0356 -1.2633
 3068SOL    HW220664   0.641   1.275  14.777 -1.2308 -0.8885  1.8885
 3069SOL     OW20665   3.794   0.887   1.517 -0.3677  0.3794 -0.0269
 3069SOL    HW120666   3.826   0.972   1.549 -0.8127  0.2246  0.8108
 3069SOL    HW220667   3.874   0.837   1.535  0.3037  1.3239 -0.3709
 3070SOL     OW20668   0.707   3.999   8.898  0.5420  0.2815  0.6557
 3070SOL    HW120669   0.646   4.030   8.965 -1.0827 -0.7544 -0.3350
 3070SOL    HW220670   0.772   4.068   8.900 -0.7179  1.4548  1.0568
 3071SOL     OW20671   3.682   2.408  17.378  0.0255  0.1494  0.1916
 3071SOL    HW120672   3.700   2.502  17.378  0.5544  0.0518  0.3463
 3071SOL    HW220673   3.760   2.379  17.330  0.6907  1.2551  0.5875
 3072SOL     OW20674   1.486   3.475   4.528  0.2579 -0.9295 -0.1375
 3072SOL    HW120675   1.488   3.466   4.433  1.7762 -0.2221 -0.1752
 3072SOL    HW220676   1.394   3.472   4.555  0.2479 -1.6213 -0.2439
 3073SOL     OW20677   0.800   3.197   0.405  0.2161  0.1350  0.8049
 3073SOL    HW120678   0.823   3.187   0.498  2.6040  1.5319  0.3504
 3073SOL    HW220679   0.710   3.230   0.408  0.0348 -0.5051  2.9651
 3074SOL     OW20680   4.286   4.112   7.469  0.0169 -0.2285  0.0316
 3074SOL    HW120681   4.345   4.138   7.398  0.8094  0.0356  0.7907
 3074SOL    HW220682   4.301   4.188   7.524 -0.3131  0.9541 -1.5139
 3075SOL     OW20683   4.676   0.187   6.288 -0.2526 -0.2857  0.1557
 3075SOL    HW120684   4.612   0.126   6.324  0.1010  0.5179  2.1605
 3075SOL    HW220685   4.635   0.186   6.202  0.8330 -2.2383 -0.3468
 3076SOL     OW20686   1.978   2.753   5.456 -0.5901 -0.2074  1.0382
 3076SOL    HW120687   1.927   2.813   5.510 -1.9791 -0.7469  0.3290
 3076SOL    HW220688   2.059   2.803   5.465 -2.1572  2.3816  0.6607
 3077SOL     OW20689   3.338   4.600  11.529 -0.0485 -0.3842 -0.3725
 3077SOL    HW120690   3.413   4.659  11.532  1.2744 -1.9779 -2.1460
 3077SOL    HW220691   3.366   4.537  11.596  0.0583 -0.4594 -0.4880
 3078SOL     OW20692   0.172   4.589  12.801  0.3530 -0.2271 -0.1022
 3078SOL    HW120693   0.249   4.561  12.752  1.9326  2.3479  0.8905
 3078SOL    HW220694   0.168   4.680  12.772  1.4818  0.5890  2.2573
 3079SOL     OW20695   3.575   0.818   8.589  0.1862  0.4407 -0.5119
 3079SOL    HW120696   3.639   0.809   8.518  1.8754  4.2678  0.4914
 3079SOL    HW220697   3.494   0.832   8.540 -0.8366  0.4204  1.1749
 3080SOL     OW20698   4.356   1.932   9.258 -0.0434 -0.4252 -0.1425
 3080SOL    HW120699   4.350   2.028   9.255  0.1715 -0.4143 -0.2401
 3080SOL    HW220700   4.417   1.928   9.184  0.1309  0.6042 -0.0655
 3081SOL     OW20701   1.980   1.171   7.109  0.0618  0.2389 -0.1823
 3081SOL    HW120702   1.979   1.182   7.014 -1.0143 -0.4245 -0.2533
 3081SOL    HW220703   1.905   1.226   7.134  0.8777  1.6105 -0.7763
 3082SOL     OW20704   1.409   3.093   5.544  0.3723  0.5370  0.6773
 3082SOL    HW120705   1.402   3.034   5.469  1.1011  0.9173  0.3127
 3082SOL    HW220706   1.419   3.181   5.508  0.8766 -0.8467 -2.5617
 3083SOL     OW20707   4.088   2.672   2.965 -0.2552  0.2742  0.3160
 3083SOL    HW120708   4.038   2.749   2.989  0.1463  0.5693  0.2014
 3083SOL    HW220709   4.164   2.713   2.925 -0.0535 -0.0850  0.3301
 3084SOL     OW20710   1.288   2.209  15.070  1.1507  0.0553 -0.8787
 3084SOL    HW120711   1.281   2.244  14.981  3.8839 -0.6753 -1.3908
 3084SOL    HW220712   1.220   2.256  15.118  0.1729 -0.4806 -1.7505
 3085SOL     OW20713   4.690   4.169  11.506 -0.4624  0.3481  0.3311
 3085SOL    HW120714   4.716   4.249  11.461 -1.7343  0.9034  0.5567
 3085SOL    HW220715   0.044   4.113  11.494 -0.3735  1.0271 -2.2413
 3086SOL     OW20716   0.802   4.450  14.442 -0.1993  0.6584  0.5743
 3086SOL    HW120717   0.707   4.463  14.436 -0.4151 -0.2007  2.1580
 3086SOL    HW220718   0.806   4.382  14.509  1.5641 -1.2384 -1.4565
 3087SOL     OW20719   2.561   0.278   6.452 -0.3946 -0.0652  0.5226
 3087SOL    HW120720   2.563   0.365   6.412 -1.0610 -0.4438 -0.3363
 3087SOL    HW220721   2.652   0.250   6.444 -0.3643  0.4337 -0.9226
 3088SOL     OW20722   1.418   3.817   8.575 -0.0977  0.5503 -0.2754
 3088SOL    HW120723   1.369   3.854   8.502 -1.0600  1.3882  0.7928
 3088SOL    HW220724   1.508   3.819   8.542  0.0332  2.9876  0.2526
 3089SOL     OW20725   1.563   2.935   1.228 -0.3797 -0.2546  0.2385
 3089SOL    HW120726   1.477   2.976   1.219 -0.5608 -0.5491  0.6291
 3089SOL    HW220727   1.612   3.013   1.202  1.0620  0.0973  3.9887
 3090SOL     OW20728   4.550   0.969   7.441  0.2999 -0.0021  0.0104
 3090SOL    HW120729   4.645   0.957   7.448  0.1358  0.0594  2.4677
 3090SOL    HW220730   4.538   1.062   7.425  2.7664  0.1849 -0.6693
 3091SOL     OW20731   0.962   0.321   5.131 -0.0255  0.2892 -0.3831
 3091SOL    HW120732   0.950   0.334   5.037  1.2033 -0.9078 -0.7078
 3091SOL    HW220733   0.903   0.390   5.159  0.2646  0.1516  0.5578
 3092SOL     OW20734   3.937   2.106  11.234 -0.1503  0.3640  0.6269
 3092SOL    HW120735   3.849   2.144  11.232  0.8944  2.8007  0.5770
 3092SOL    HW220736   3.988   2.150  11.165 -0.2286 -0.6401 -0.0680
 3093SOL     OW20737   2.922   2.577   9.301 -0.7086  0.4607 -0.6919
 3093SOL    HW120738   2.952   2.604   9.214  0.4952  0.0129 -0.4240
 3093SOL    HW220739   2.935   2.653   9.358  2.1102 -1.2841  1.0167
 3094SOL     OW20740   1.624   3.100   6.826 -0.2136  0.5078  0.4769
 3094SOL    HW120741   1.542   3.142   6.850 -1.0350 -0.6757 -0.2723
 3094SOL    HW220742   1.608   3.056   6.742 -0.5003  1.8965 -0.1948
 3095SOL     OW20743   1.955   1.041   5.859  0.4110 -0.4284 -0.3669
 3095SOL    HW120744   1.932   0.969   5.801  0.9010 -1.1450  0.3368
 3095SOL    HW220745   1.868   1.058   5.896  1.9431  1.7514  2.2153
 3096SOL     OW20746   4.601   3.562   7.624 -0.4997  0.1920 -0.3570
 3096SOL    HW120747   4.627   3.542   7.714  1.4944  0.5538 -0.8553
 3096SOL    HW220748   4.666   3.508   7.578  1.5509 -1.4797  4.4534
 3097SOL     OW20749   1.515   2.522   8.297  0.0956 -0.5612  0.0932
 3097SOL    HW120750   1.585   2.458   8.309  0.2098 -0.9135 -2.2854
 3097SOL    HW220751   1.530   2.557   8.209  0.1478 -0.5903  0.0903
 3098SOL     OW20752   2.784   1.187   9.488  0.0676  0.2706  0.2899
 3098SOL    HW120753   2.762   1.162   9.398 -0.3926 -1.6890  0.9344
 3098SOL    HW220754   2.759   1.279   9.492  0.9306  0.4959  0.3969
 3099SOL     OW20755   2.210   1.695   0.754 -0.5503  0.8149 -0.1000
 3099SOL    HW120756   2.249   1.633   0.816  2.7147  1.9110 -1.0608
 3099SOL    HW220757   2.185   1.766   0.813 -1.3521  0.3189  0.1538
 3100SOL     OW20758   3.301   3.923   2.047 -0.0347 -0.1743  0.0702
 3100SOL    HW120759   3.349   3.841   2.033  1.9468  1.0358 -0.2808
 3100SOL    HW220760   3.247   3.941   1.970  1.3082  1.1667 -0.5679
 3101SOL     OW20761   4.135   3.147   4.958  0.3431  0.1289 -0.0702
 3101SOL    HW120762   4.081   3.099   5.021  2.0516  1.4525  2.3770
 3101SOL    HW220763   4.202   3.179   5.017 -0.7084 -0.0984  1.2426
 3102SOL     OW20764   0.687   2.567  13.990 -0.1554  0.8884 -0.2277
 3102SOL    HW120765   0.625   2.574  14.062 -0.9454 -0.2350 -0.8006
 3102SOL    HW220766   0.626   2.552  13.918  0.1824  1.4172 -0.6223
 3103SOL     OW20767   1.238   1.000   9.431  0.2584  0.3310 -0.0882
 3103SOL    HW120768   1.295   0.996   9.354 -0.2145  2.1956 -0.5439
 3103SOL    HW220769   1.154   1.038   9.404  0.0968 -0.8571 -1.2472
 3104SOL     OW20770   1.150   0.879   8.724 -0.2893 -0.5869  0.2595
 3104SOL    HW120771   1.091   0.821   8.676 -0.9907  1.5180 -1.4330
 3104SOL    HW220772   1.208   0.814   8.764  2.2222  1.1870 -0.4914
 3105SOL     OW20773   0.967   0.412  12.026  0.0619 -0.1720 -0.0047
 3105SOL    HW120774   1.007   0.389  12.110  0.2897  0.7630  0.1389
 3105SOL    HW220775   0.892   0.353  12.032  1.0080 -1.1824  1.8981
 3106SOL     OW20776   0.353   3.596   7.652 -0.1181  0.0468 -0.5313
 3106SOL    HW120777   0.389   3.617   7.738 -0.4363  1.4301 -0.7341
 3106SOL    HW220778   0.416   3.533   7.618 -1.5424 -1.2710 -0.7351
 3107SOL     OW20779   0.279   4.430  14.538 -0.6180 -0.6783  0.2016
 3107SOL    HW120780   0.229   4.502  14.501 -2.0514 -0.8948  1.7284
 3107SOL    HW220781   0.279   4.460  14.629  0.0887  2.5952 -0.8946
 3108SOL     OW20782   1.519   1.465   4.541 -0.2781  0.0435  0.6037
 3108SOL    HW120783   1.464   1.543   4.537 -1.6470 -0.8447  2.1237
 3108SOL    HW220784   1.506   1.443   4.449 -1.3898 -0.1129  0.7981
 3109SOL     OW20785   0.692   1.662   5.738  0.3373  0.3501  0.2430
 3109SOL    HW120786   0.787   1.664   5.747  0.7007  2.1122 -3.9569
 3109SOL    HW220787   0.675   1.747   5.698 -0.0666  0.0075 -0.3105
 3110SOL     OW20788   4.193   4.135   3.998 -0.1388 -0.3427 -0.0743
 3110SOL    HW120789   4.222   4.139   3.907  0.5969 -1.0249  0.1329
 3110SOL    HW220790   4.241   4.057   4.026 -0.4004 -0.7983 -0.8737
 3111SOL     OW20791   2.414   4.310   7.008 -0.5731 -0.2060 -0.5667
 3111SOL    HW120792   2.423   4.229   6.958  0.9898  0.3949 -1.2509
 3111SOL    HW220793   2.481   4.298   7.074 -2.6234  0.7771  1.6995
 3112SOL     OW20794   1.453   4.226   8.555  0.1166  0.2886 -0.0919
 3112SOL    HW120795   1.515   4.226   8.629  0.0352  0.4138 -0.0237
 3112SOL    HW220796   1.511   4.226   8.479 -1.9221  0.5091 -1.6367
 3113SOL     OW20797   3.634   2.210  12.251  0.8406  0.3069  0.4137
 3113SOL    HW120798   3.570   2.155  12.205  0.1340  0.6816  0.9411
 3113SOL    HW220799   3.708   2.177  12.201 -0.9543 -1.9818 -0.7561
 3114SOL     OW20800   0.276   3.802   4.083 -0.1864 -0.4004 -0.4110
 3114SOL    HW120801   0.222   3.874   4.051  0.0362  0.0609  0.2553
 3114SOL    HW220802   0.343   3.847   4.135  1.1009 -2.1878 -0.4972
 3115SOL     OW20803   3.076   3.009   9.764 -0.1101 -0.0749 -0.2128
 3115SOL    HW120804   2.989   2.974   9.746  0.4834 -1.7550  0.1455
 3115SOL    HW220805   3.072   3.089   9.712 -0.4437 -1.5082 -2.3894
 3116SOL     OW20806   2.967   1.791   1.068 -0.4305  0.1966 -0.4212
 3116SOL    HW120807   3.032   1.733   1.028  1.2153  1.9205 -0.2240
 3116SOL    HW220808   2.986   1.784   1.161 -0.4537  1.0358 -0.3497
 3117SOL     OW20809   1.143   3.134   9.540 -0.1347 -0.0374  0.2818
 3117SOL    HW120810   1.121   3.060   9.483  0.5084 -1.3054  1.6634
 3117SOL    HW220811   1.131   3.098   9.628 -1.3343 -0.0116  0.1154
 3118SOL     OW20812   4.668   2.141   6.319 -0.0452 -0.0612 -0.7541
 3118SOL    HW120813   4.628   2.093   6.246 -0.4682  1.6167 -1.6262
 3118SOL    HW220814   4.607   2.213   6.326 -1.2776 -1.0569 -1.2185
 3119SOL     OW20815   3.014   0.014   9.972 -0.3265 -0.7347  0.2918
 3119SOL    HW120816   3.101   0.020   9.932 -0.7880  1.4842 -0.3490
 3119SOL    HW220817   2.980   0.089   9.923  0.4324 -0.3496  0.3506
 3120SOL     OW20818   1.864   0.836   0.020  0.3460 -0.0803 -0.3928
 3120SOL    HW120819   1.932   0.793  17.660  1.3877 -0.3386  1.1562
 3120SOL    HW220820   1.796   0.769   0.019 -0.9706  1.2481 -0.3429
 3121SOL     OW20821   0.242   3.717   3.715 -0.5255 -0.1140  0.3058
 3121SOL    HW120822   0.232   3.812   3.707  2.3102  0.2126  0.7077
 3121SOL    HW220823   0.336   3.704   3.704 -0.7290 -0.6161 -0.8309
 3122SOL     OW20824   2.714   0.882   5.771  0.3689  0.3580  0.5497
 3122SOL    HW120825   2.619   0.884   5.774  0.3209  0.2251 -0.8225
 3122SOL    HW220826   2.733   0.807   5.827 -0.3299  0.0620  0.3887
 3123SOL     OW20827   2.893   4.635   4.058  0.5348  0.3276  0.3252
 3123SOL    HW120828   2.849   4.572   4.115  1.3837 -0.2494  0.3363
 3123SOL    HW220829   2.983   4.617   4.086  0.7504 -0.2659 -0.7592
 3124SOL     OW20830   4.378   0.863   8.483 -0.7010  0.0511  0.3638
 3124SOL    HW120831   4.456   0.835   8.436 -0.0341 -1.3348  2.3184
 3124SOL    HW220832   4.350   0.776   8.513  1.3777  0.2035  2.6868
 3125SOL     OW20833   1.336   0.755   8.064  0.4533 -0.0873 -0.2883
 3125SOL    HW120834   1.430   0.761   8.078  0.1778  0.1061  1.4909
 3125SOL    HW220835   1.320   0.844   8.035 -2.9962 -1.1468 -1.6198
 3126SOL     OW20836   2.503   0.300   7.171 -0.1581  0.0084  0.7303
 3126SOL    HW120837   2.468   0.237   7.234  0.2847 -0.0312  0.9384
 3126SOL    HW220838   2.583   0.327   7.216  0.1989  1.2489 -0.6628
 3127SOL     OW20839   2.753   1.274  14.599  0.5210  0.3542  0.4939
 3127SOL    HW120840   2.710   1.250  14.681  2.2125 -0.3400  1.1845
 3127SOL    HW220841   2.804   1.194  14.584 -1.6024 -0.9274  0.1296
 3128SOL     OW20842   1.639   2.480   8.028  0.5247  0.2642 -0.5920
 3128SOL    HW120843   1.675   2.413   8.086  0.2568  0.0185 -0.7123
 3128SOL    HW220844   1.635   2.418   7.955  0.7752 -0.7398  0.2517
 3129SOL     OW20845   3.050   2.815   0.291 -0.1748  0.8086 -0.2242
 3129SOL    HW120846   3.118   2.826   0.224  0.4518 -1.1390  0.0925
 3129SOL    HW220847   3.084   2.889   0.340  1.4144 -0.1877  0.1696
 3130SOL     OW20848   3.523   2.424  17.148  0.1985  0.2830 -0.4521
 3130SOL    HW120849   3.536   2.515  17.122 -0.0763  0.3916 -0.2149
 3130SOL    HW220850   3.598   2.403  17.204  0.3668  1.0913 -0.3675
 3131SOL     OW20851   4.721   2.260   0.784 -0.1160 -0.1462  0.4779
 3131SOL    HW120852   4.629   2.239   0.801  0.1562 -1.4010  0.3480
 3131SOL    HW220853   0.004   2.356   0.782  1.5114 -0.2453  0.8589
 3132SOL     OW20854   3.340   0.517   9.058  0.3354 -0.4979 -0.4831
 3132SOL    HW120855   3.285   0.535   9.134  0.6454 -1.2230 -0.0903
 3132SOL    HW220856   3.426   0.555   9.079  0.4382 -0.9662 -0.0767
 3133SOL     OW20857   1.629   0.121  11.521 -0.3160  0.0037  0.6648
 3133SOL    HW120858   1.683   0.052  11.560 -0.4487 -0.1507  0.5758
 3133SOL    HW220859   1.565   0.067  11.474  1.0852 -0.3684 -0.8074
 3134SOL     OW20860   3.955   2.436   6.092  0.4029 -0.3720  0.1764
 3134SOL    HW120861   3.967   2.458   6.000 -2.8813  2.4168  0.4119
 3134SOL    HW220862   3.867   2.401   6.078  0.4165 -0.8610  1.2671
 3135SOL     OW20863   2.372   1.244  14.688 -0.3558 -0.0990  0.5614
 3135SOL    HW120864   2.450   1.204  14.727 -0.4656 -0.1004  0.7786
 3135SOL    HW220865   2.297   1.214  14.739 -0.7574  1.1492  0.7055
 3136SOL     OW20866   0.070   0.233   4.061  0.0892  0.1105 -0.2299
 3136SOL    HW120867   0.086   0.193   3.975  0.4479 -1.6343  0.6662
 3136SOL    HW220868   4.707   0.195   4.079 -0.6703  0.6669 -2.5578
 3137SOL     OW20869   4.196   3.881  16.851 -0.1660 -0.4545 -0.1265
 3137SOL    HW120870   4.219   3.823  16.778  0.4546 -0.2267 -0.1130
 3137SOL    HW220871   4.207   3.816  16.920  0.0554  0.8469  1.0521
 3138SOL     OW20872   2.138   4.144   8.663  0.0355 -0.1308 -0.1847
 3138SOL    HW120873   2.157   4.160   8.571  1.1740  0.0125  0.0738
 3138SOL    HW220874   2.042   4.145   8.659  0.0002  0.0081  0.6357
 3139SOL     OW20875   2.105   0.119  12.351  0.2723 -0.6054 -0.0715
 3139SOL    HW120876   2.037   0.174  12.388  0.1028 -0.3737 -0.7294
 3139SOL    HW220877   2.102   0.151  12.260  1.6050 -0.8164 -0.1990
 3140SOL     OW20878   1.891   3.568  15.814 -0.6864  0.0575 -0.1409
 3140SOL    HW120879   1.888   3.593  15.906 -2.0897 -4.8569  1.1759
 3140SOL    HW220880   1.841   3.486  15.813 -1.5672  0.6048 -0.3692
 3141SOL     OW20881   2.304   4.460  11.945  0.2649  0.1921  0.1047
 3141SOL    HW120882   2.288   4.543  11.989  3.8900 -0.2930  2.3500
 3141SOL    HW220883   2.369   4.419  12.002 -0.4325  1.9776  2.1798
 3142SOL     OW20884   2.660   4.572   1.171 -0.1044 -0.0538  0.2149
 3142SOL    HW120885   2.623   4.561   1.083  0.2183  0.7051 -0.0198
 3142SOL    HW220886   2.749   4.602   1.151  0.6313 -1.4588  1.3459
 3143SOL     OW20887   4.663   0.511  14.103 -0.6548 -0.5787 -0.8962
 3143SOL    HW120888   4.657   0.527  14.009  2.3242  0.9197 -0.8379
 3143SOL    HW220889   4.571   0.509  14.131 -0.8600 -0.6242 -1.5799
 3144SOL     OW20890   2.171   0.245   6.967  0.3187 -0.5660 -0.2521
 3144SOL    HW120891   2.123   0.254   6.885 -0.5564  2.8140  0.6057
 3144SOL    HW220892   2.209   0.158   6.951  0.9818 -0.1387 -1.0538
 3145SOL     OW20893   3.895   3.484   7.893 -0.2110  1.3416 -0.1907
 3145SOL    HW120894   3.901   3.507   7.986 -0.9794 -1.6027  0.5970
 3145SOL    HW220895   3.978   3.438   7.885 -1.8839 -1.9950  1.5429
 3146SOL     OW20896   1.232   1.411   5.548  0.6910 -0.0423 -0.4786
 3146SOL    HW120897   1.141   1.432   5.527  0.6763 -2.0391 -2.3983
 3146SOL    HW220898   1.265   1.428   5.460 -0.7765  0.1422 -0.9816
 3147SOL     OW20899   4.560   4.334   3.376 -0.0081 -0.1641  0.1455
 3147SOL    HW120900   4.637   4.371   3.334 -0.5378  2.0988  1.1828
 3147SOL    HW220901   4.510   4.315   3.297 -1.0728  0.4310  0.6683
 3148SOL     OW20902   1.983   2.015   7.610  0.1005 -0.5214  0.0834
 3148SOL    HW120903   1.951   1.964   7.684  0.5107 -0.8628  0.0251
 3148SOL    HW220904   2.067   2.040   7.648 -0.0501  1.9222 -1.1714
 3149SOL     OW20905   0.569   2.405   3.870  0.1734  0.3867  0.0963
 3149SOL    HW120906   0.551   2.318   3.837  0.0063  1.7061 -3.2800
 3149SOL    HW220907   0.659   2.390   3.898 -0.4379 -1.7715  0.8851
 3150SOL     OW20908   4.148   3.110   6.201  0.0709 -0.1249 -0.2422
 3150SOL    HW120909   4.200   3.071   6.131 -2.6375  0.5430 -2.6196
 3150SOL    HW220910   4.175   3.202   6.195 -2.5385  0.6723  0.4227
 3151SOL     OW20911   3.391   1.466   2.850  0.3317 -0.4186  0.4887
 3151SOL    HW120912   3.315   1.416   2.819  0.9248 -0.9420 -0.1243
 3151SOL    HW220913   3.453   1.441   2.781 -0.9683 -0.1088 -0.7952
 3152SOL     OW20914   2.725   3.610  13.668 -0.0139  0.0602 -0.5138
 3152SOL    HW120915   2.745   3.616  13.761 -0.5578  1.4567 -0.4999
 3152SOL    HW220916   2.671   3.531  13.662 -0.5595  0.2545  1.9563
 3153SOL     OW20917   2.414   1.610  17.559  0.5488  0.3541  0.3662
 3153SOL    HW120918   2.349   1.550  17.523 -0.4886  1.8411 -0.2787
 3153SOL    HW220919   2.483   1.548  17.579  0.1539 -0.9121 -2.1739
 3154SOL     OW20920   2.576   4.475  12.080  0.4031  0.4166 -0.2765
 3154SOL    HW120921   2.601   4.553  12.032 -1.0267  1.6976  1.0635
 3154SOL    HW220922   2.637   4.424  12.027 -0.6737 -0.6831 -0.4651
 3155SOL     OW20923   4.266   4.515  10.134  0.0582 -0.0657  0.0932
 3155SOL    HW120924   4.222   4.554  10.209  0.2726  0.5262 -0.0897
 3155SOL    HW220925   4.320   4.586  10.099 -0.9963  0.4144 -0.5744
 3156SOL     OW20926   0.799   0.080   7.369  0.0906  0.0686  0.2209
 3156SOL    HW120927   0.870   0.084   7.434 -1.5582 -2.6741  2.1762
 3156SOL    HW220928   0.858   0.111   7.300 -0.5829  1.6237  0.3495
 3157SOL     OW20929   3.743   2.766   8.596 -0.6666  0.7717  0.2223
 3157SOL    HW120930   3.687   2.701   8.554 -0.0123  0.3545 -0.0067
 3157SOL    HW220931   3.778   2.709   8.665  2.3399  0.5021 -1.5593
 3158SOL     OW20932   1.814   1.014   2.804  0.1644 -0.2987 -0.1987
 3158SOL    HW120933   1.834   1.108   2.801  0.6755 -0.3634  1.3620
 3158SOL    HW220934   1.722   1.008   2.777  0.8933 -0.6312 -2.6367
 3159SOL     OW20935   2.511   3.806   6.478  0.1385 -0.3268  0.6414
 3159SOL    HW120936   2.469   3.891   6.489  0.0297 -0.6432  2.5346
 3159SOL    HW220937   2.473   3.793   6.391 -0.9213 -0.0357  1.0653
 3160SOL     OW20938   2.917   4.120   4.014 -0.4037  0.5959 -0.2925
 3160SOL    HW120939   2.959   4.041   3.979  0.5595  0.8968  0.1803
 3160SOL    HW220940   2.930   4.194   3.955  0.5426  1.8738  1.5061
 3161SOL     OW20941   1.149   1.580   3.702  0.2895  0.2616  0.1108
 3161SOL    HW120942   1.187   1.543   3.781 -1.4796 -1.0047  0.3663
 3161SOL    HW220943   1.096   1.653   3.735 -0.5229  0.3646 -1.4011
 3162SOL     OW20944   3.213   4.069  16.895  0.7997  0.6885 -0.3330
 3162SOL    HW120945   3.204   4.134  16.966  2.6121 -0.0269  0.5653
 3162SOL    HW220946   3.130   4.084  16.850  0.1268  0.5224  0.8691
 3163SOL     OW20947   1.482   3.755  14.852 -0.2033  0.4652  0.3087
 3163SOL    HW120948   1.520   3.669  14.868 -0.9417  0.5850  2.6819
 3163SOL    HW220949   1.395   3.725  14.824 -0.2361  0.1127  0.7951
 3164SOL     OW20950   4.246   3.495   1.234 -0.2842 -0.4871 -0.3330
 3164SOL    HW120951   4.274   3.439   1.306  2.0901  1.9839  0.6272
 3164SOL    HW220952   4.260   3.577   1.280 -1.4606 -0.3850 -0.1553
 3165SOL     OW20953   1.870   4.079   8.546 -0.1408 -0.1403  0.6084
 3165SOL    HW120954   1.866   4.103   8.454  1.7784 -0.3208  0.4896
 3165SOL    HW220955   1.900   3.989   8.536  0.4109 -0.1490  2.2950
 3166SOL     OW20956   3.982   2.469   3.158 -0.1930 -0.2162  0.1151
 3166SOL    HW120957   3.925   2.545   3.174  1.2201  0.5495  1.4309
 3166SOL    HW220958   4.042   2.519   3.102 -2.8047  1.2116 -1.4431
 3167SOL     OW20959   4.152   1.238   7.151  0.2115 -0.0430  0.5002
 3167SOL    HW120960   4.102   1.319   7.142 -0.8258 -1.0444 -2.5475
 3167SOL    HW220961   4.237   1.282   7.148  0.5088 -0.6543  0.0006
 3168SOL     OW20962   1.087   3.855  13.678  0.2776 -0.2373 -0.0995
 3168SOL    HW120963   1.158   3.913  13.651 -1.3390  0.9124 -1.8252
 3168SOL    HW220964   1.112   3.773  13.635 -0.0946 -0.0120 -0.7422
 3169SOL     OW20965   1.887   2.809   3.318  0.0432 -0.1611 -0.1752
 3169SOL    HW120966   1.948   2.742   3.287 -0.7741  0.6851 -3.5816
 3169SOL    HW220967   1.924   2.892   3.288 -0.0698 -0.8573 -2.2461
 3170SOL     OW20968   0.648   2.497   6.559  0.4149  0.1217 -0.0152
 3170SOL    HW120969   0.683   2.586   6.553 -0.5691  0.5127 -0.0597
 3170SOL    HW220970   0.692   2.462   6.482 -0.3626  0.4943 -0.6328
 3171SOL     OW20971   1.380   4.122  15.857  0.3678  0.0422  0.1240
 3171SOL    HW120972   1.342   4.186  15.797  0.3482 -2.1498 -2.1840
 3171SOL    HW220973   1.361   4.043  15.805 -0.0393  0.8716 -0.9922
 3172SOL     OW20974   3.280   1.035   3.807 -0.1580  0.1040  0.5009
 3172SOL    HW120975   3.219   1.104   3.833  0.5730  1.1132 -0.4379
 3172SOL    HW220976   3.335   1.031   3.885  0.7090 -5.7108 -0.4307
 3173SOL     OW20977   2.518   0.059   9.544 -0.4155 -0.1203  0.6465
 3173SOL    HW120978   2.566   0.022   9.470 -1.7296  0.9161 -0.7134
 3173SOL    HW220979   2.427   0.040   9.519 -0.4195 -0.4005  0.8721
 3174SOL     OW20980   0.655   0.474   4.640 -0.9676 -0.1701 -0.2175
 3174SOL    HW120981   0.575   0.425   4.620 -0.5033 -0.6458 -0.8989
 3174SOL    HW220982   0.618   0.561   4.651 -1.8694 -0.8852  2.4675
 3175SOL     OW20983   4.468   1.982   2.110 -0.1482  0.5922 -0.4653
 3175SOL    HW120984   4.447   2.063   2.155 -0.3480  0.5245 -0.4373
 3175SOL    HW220985   4.385   1.936   2.094 -0.2067  0.2460  0.8423
 3176SOL     OW20986   3.286   2.625  15.935 -0.2749  0.4247 -0.0868
 3176SOL    HW120987   3.199   2.660  15.919 -1.4355 -1.9458  0.9856
 3176SOL    HW220988   3.323   2.621  15.847 -0.2717 -0.8770 -0.0351
 3177SOL     OW20989   3.415   3.448   9.393  0.2337  0.1017 -0.3500
 3177SOL    HW120990   3.394   3.355   9.383 -0.6160  0.4807 -2.0355
 3177SOL    HW220991   3.335   3.465   9.443  0.2244  0.0101 -0.3326
 3178SOL     OW20992   0.762   0.331  15.598 -0.0568 -0.2872 -0.6171
 3178SOL    HW120993   0.708   0.408  15.580 -1.3665 -1.3638 -1.3735
 3178SOL    HW220994   0.847   0.360  15.567  1.7829 -0.8031  3.9620
 3179SOL     OW20995   2.806   4.007   6.414  0.2240 -0.1690  0.4546
 3179SOL    HW120996   2.842   4.069   6.350 -0.9817 -0.9775 -0.9817
 3179SOL    HW220997   2.712   4.023   6.414  0.2286 -0.1935 -0.9675
 3180SOL     OW20998   2.093   3.922   4.651 -0.7701  0.0108  0.0089
 3180SOL    HW120999   2.114   3.918   4.558  0.5925 -1.2935  0.3814
 3180SOL    HW221000   2.143   3.847   4.683  1.8082  2.3190  1.3932
 3181SOL     OW21001   2.574   4.128   9.735  0.4290 -0.2627  0.3389
 3181SOL    HW121002   2.633   4.202   9.751  1.2968 -1.0887  0.9387
 3181SOL    HW221003   2.608   4.094   9.652  1.6253  1.1011  0.2638
 3182SOL     OW21004   0.003   3.381   8.581 -0.0937 -0.5584  0.1574
 3182SOL    HW121005   0.078   3.440   8.577  0.8830 -1.9804 -2.4229
 3182SOL    HW221006   4.663   3.436   8.533 -1.1044 -1.1204  0.8240
 3183SOL     OW21007   1.212   1.627   1.143  0.5288 -0.3951  0.5597
 3183SOL    HW121008   1.233   1.539   1.111 -3.8536 -0.9936 -0.6657
 3183SOL    HW221009   1.293   1.677   1.143  0.3992 -0.1781  1.2928
 3184SOL     OW21010   3.808   0.607   5.351 -0.1722  0.0352 -0.0120
 3184SOL    HW121011   3.732   0.665   5.354  0.8829  1.3137  1.5098
 3184SOL    HW221012   3.806   0.580   5.442 -0.2663 -0.5293 -0.1807
 3185SOL     OW21013   3.431   4.092  16.190 -0.1853 -0.4932 -0.1584
 3185SOL    HW121014   3.504   4.114  16.133 -1.8587  1.0303 -1.7012
 3185SOL    HW221015   3.372   4.166  16.180 -0.3801 -0.6813 -0.3900
 3186SOL     OW21016   4.413   3.957   2.684  0.0664  0.1092 -0.1479
 3186SOL    HW121017   4.344   3.893   2.665  1.0817 -1.4533  1.4215
 3186SOL    HW221018   4.437   3.969   2.592 -0.0002  0.5942 -0.1020
 3187SOL     OW21019   3.883   2.419   4.716  0.0383  0.0548 -0.3891
 3187SOL    HW121020   3.891   2.413   4.811 -0.0149  2.2630 -0.2412
 3187SOL    HW221021   3.927   2.499   4.687 -0.3299  1.0630  1.7693
 3188SOL     OW21022   0.215   4.700   8.659 -0.1697 -0.0140 -0.6106
 3188SOL    HW121023   0.305   4.722   8.682 -0.6344  1.0511  0.1776
 3188SOL    HW221024   0.220   4.624   8.600 -0.0669  2.0558 -3.2898
 3189SOL     OW21025   3.178   0.787   4.145 -0.0390  0.3540 -0.0442
 3189SOL    HW121026   3.210   0.728   4.077 -1.0717  1.8335 -1.8475
 3189SOL    HW221027   3.257   0.833   4.173  1.9307 -1.8863 -1.9006
 3190SOL     OW21028   3.262   0.245   7.115 -0.2825  0.4060  0.0798
 3190SOL    HW121029   3.320   0.247   7.192  0.5407  1.3731 -0.5672
 3190SOL    HW221030   3.205   0.318   7.139 -0.1992  0.5387 -0.1275
 3191SOL     OW21031   1.771   3.208  16.467  0.2769 -0.1661  0.4830
 3191SOL    HW121032   1.734   3.187  16.381  2.5889 -0.5955 -0.4001
 3191SOL    HW221033   1.720   3.286  16.490 -0.6495  0.0327 -2.2282
 3192SOL     OW21034   4.377   3.839   8.870  0.0941  0.3408  0.2405
 3192SOL    HW121035   4.410   3.890   8.944 -1.4410  1.2263  0.3194
 3192SOL    HW221036   4.346   3.761   8.916  0.5009 -0.0594 -0.1655
 3193SOL     OW21037   3.556   4.035   4.627 -0.2617 -0.2129  0.1874
 3193SOL    HW121038   3.473   3.990   4.611  0.7102 -2.0085  0.2172
 3193SOL    HW221039   3.612   3.978   4.575 -0.5606 -0.9107  0.6174
 3194SOL     OW21040   3.238   1.832   7.236 -0.5471 -0.0942 -0.6720
 3194SOL    HW121041   3.289   1.852   7.158  0.2693 -1.9405 -0.5857
 3194SOL    HW221042   3.228   1.924   7.262  2.2938 -0.1757  0.6765
 3195SOL     OW21043   0.141   2.902   1.816 -0.3880  0.2361 -0.1417
 3195SOL    HW121044   0.157   2.811   1.839 -0.7091 -0.0237 -0.9737
 3195SOL    HW221045   0.216   2.927   1.762  1.0190 -2.2444  0.6528
 3196SOL     OW21046   4.552   0.246  11.511  0.1390  0.0561  0.2463
 3196SOL    HW121047   4.478   0.233  11.452 -0.2233  1.4494  0.3941
 3196SOL    HW221048   4.599   0.316  11.467 -0.7426 -1.1248 -2.5379
 3197SOL     OW21049   4.631   0.431   7.866  0.4681  0.1330  0.7206
 3197SOL    HW121050   4.543   0.466   7.855  0.3956  0.1115  1.2241
 3197SOL    HW221051   4.621   0.346   7.910 -1.3004 -1.8228 -3.4671
 3198SOL     OW21052   2.759   2.279  11.433  0.0730 -0.0678  0.2462
 3198SOL    HW121053   2.735   2.186  11.424 -0.2953  0.2454 -2.0826
 3198SOL    HW221054   2.707   2.310  11.507  0.9801 -0.9413  1.2438
 3199SOL     OW21055   0.422   2.861   8.201 -0.7448  0.3317 -0.4692
 3199SOL    HW121056   0.362   2.792   8.173 -0.7469  0.4760 -0.8253
 3199SOL    HW221057   0.447   2.893   8.114  0.2886 -0.7962 -0.5777
 3200SOL     OW21058   4.360   2.602   4.610 -0.1036  0.0042  0.6355
 3200SOL    HW121059   4.377   2.532   4.673 -1.2499  0.2262  1.1903
 3200SOL    HW221060   4.398   2.560   4.533 -0.9126  2.4423 -1.0842
 3201SOL     OW21061   2.480   0.686  10.277 -0.0168 -0.5354  0.8048
 3201SOL    HW121062   2.506   0.655  10.364  1.3747 -1.2244  0.1414
 3201SOL    HW221063   2.559   0.703  10.226  0.4570  0.4619  1.8615
 3202SOL     OW21064   2.293   1.496   1.924  0.2220 -0.0546 -0.7377
 3202SOL    HW121065   2.353   1.426   1.899  1.7744  0.3063  1.9933
 3202SOL    HW221066   2.263   1.459   2.007 -3.4432 -0.0217 -2.0285
 3203SOL     OW21067   1.833   1.328  14.263  0.0478 -0.0694 -0.9810
 3203SOL    HW121068   1.853   1.276  14.341 -0.4503 -1.5997 -1.8881
 3203SOL    HW221069   1.749   1.285  14.248 -1.0508  1.5813  0.4311
 3204SOL     OW21070   3.798   2.279   3.977  0.2872  0.0625  0.0047
 3204SOL    HW121071   3.783   2.356   3.921 -0.4085 -1.1101 -1.4269
 3204SOL    HW221072   3.742   2.213   3.935 -0.8346  1.7696 -1.2035
 3205SOL     OW21073   0.663   1.911   3.677  0.1664  0.2255  0.4748
 3205SOL    HW121074   0.729   1.898   3.609 -0.9585  1.7139 -0.8965
 3205SOL    HW221075   0.581   1.885   3.635 -0.2002 -0.0716  1.3578
 3206SOL     OW21076   1.879   4.037   6.643  0.1870  0.0049 -0.4155
 3206SOL    HW121077   1.825   4.087   6.704 -0.5367  0.5201 -1.4635
 3206SOL    HW221078   1.821   3.961   6.644 -0.9470  0.8835  0.5059
 3207SOL     OW21079   4.553   3.449   4.451 -0.2708 -0.0473 -0.3563
 3207SOL    HW121080   4.591   3.476   4.367  3.1468  2.6326  2.0742
 3207SOL    HW221081   4.626   3.443   4.513  0.8898 -2.6656 -1.9467
 3208SOL     OW21082   1.553   4.337   7.935 -0.2104 -0.0288 -0.6532
 3208SOL    HW121083   1.471   4.292   7.958 -0.0200  0.5259  1.0982
 3208SOL    HW221084   1.551   4.410   7.997 -2.7998 -0.4271 -0.2489
 3209SOL     OW21085   2.067   4.333  15.369 -0.5739  0.4636 -0.7741
 3209SOL    HW121086   2.008   4.406  15.390 -0.0264  0.3434  1.2033
 3209SOL    HW221087   2.044   4.277  15.444  0.0834 -0.5624 -1.3361
 3210SOL     OW21088   3.626   4.555  15.363  0.1321  0.8867 -0.8579
 3210SOL    HW121089   3.717   4.556  15.336  0.4340 -1.8923  0.0117
 3210SOL    HW221090   3.609   4.647  15.345 -1.3278  0.9298  0.6945
 3211SOL     OW21091   2.210   0.506   1.546  0.1081 -0.9508 -0.5967
 3211SOL    HW121092   2.262   0.496   1.626  0.5540 -0.8610 -0.8768
 3211SOL    HW221093   2.121   0.519   1.578  0.6459  2.3315 -0.4372
 3212SOL     OW21094   3.433   4.617   3.652  0.0170 -0.1118 -0.1924
 3212SOL    HW121095   3.413   4.525   3.632  0.9902  0.0381 -1.8919
 3212SOL    HW221096   3.518   4.630   3.610 -0.0413  3.1692  0.7024
 3213SOL     OW21097   0.307   1.124  10.513 -0.2589  0.4238 -0.0936
 3213SOL    HW121098   0.243   1.186  10.547 -1.4481 -1.9214  2.0046
 3213SOL    HW221099   0.249   1.083  10.449 -1.2846  0.4698  0.7989
 3214SOL     OW21100   4.431   2.997   9.986 -0.3469 -0.0344  0.3314
 3214SOL    HW121101   4.521   2.975   9.962 -0.2211  0.2662  0.5247
 3214SOL    HW221102   4.442   2.984  10.081  1.1529 -0.8794  0.0494
 3215SOL     OW21103   1.471   3.329   6.791  0.1414 -0.2432 -0.1725
 3215SOL    HW121104   1.439   3.417   6.811  1.0805 -0.0183  0.3713
 3215SOL    HW221105   1.535   3.355   6.725  1.4670  0.5251  1.4070
 3216SOL     OW21106   2.464   1.817  16.023 -0.3629  0.5750 -0.1254
 3216SOL    HW121107   2.552   1.850  16.035 -0.3572  0.5633 -0.1345
 3216SOL    HW221108   2.423   1.894  15.983  2.8924  2.2515 -0.1977
 3217SOL     OW21109   2.531   0.424   3.982 -0.8095  0.0544  0.5011
 3217SOL    HW121110   2.471   0.358   3.947 -1.7990  1.0189  0.3841
 3217SOL    HW221111   2.582   0.386   4.053  0.9684 -1.7644 -1.7481
 3218SOL     OW21112   0.106   0.844   2.211 -0.2621 -0.1337 -0.0238
 3218SOL    HW121113   0.120   0.896   2.132  0.8797 -0.3224  0.0565
 3218SOL    HW221114   0.147   0.901   2.275 -0.2737  0.7121 -0.7736
 3219SOL     OW21115   1.487   4.696   2.204  0.0191 -0.0749 -0.3307
 3219SOL    HW121116   1.469   4.646   2.284 -0.7371  1.2589  0.3310
 3219SOL    HW221117   1.475   0.061   2.240 -1.1062  0.0784 -1.0632
 3220SOL     OW21118   3.105   0.167   6.063  0.6497 -0.0753  0.0936
 3220SOL    HW121119   3.069   0.253   6.086  0.6183  0.2495 -1.1663
 3220SOL    HW221120   3.036   0.111   6.098 -1.6335  2.0122 -1.0319
 3221SOL     OW21121   0.458   3.001   3.751  0.6859  0.1208  0.0103
 3221SOL    HW121122   0.468   3.044   3.836 -0.7381 -2.7322  1.6401
 3221SOL    HW221123   0.536   3.020   3.699  0.6921  1.7827  0.6203
 3222SOL     OW21124   0.986   2.895   2.529  0.2796  0.2460  0.4188
 3222SOL    HW121125   1.060   2.857   2.576 -0.1134 -0.4780  0.4408
 3222SOL    HW221126   0.986   2.980   2.573 -0.9029  0.5332 -0.1564
 3223SOL     OW21127   2.203   3.337  10.324  0.1488 -0.1270  0.0066
 3223SOL    HW121128   2.218   3.348  10.418  0.6165  0.9272 -0.1871
 3223SOL    HW221129   2.107   3.344  10.324  0.2303  1.0839  0.3974
 3224SOL     OW21130   0.094   2.694   5.417  0.0070 -0.8204  0.2730
 3224SOL    HW121131   0.180   2.715   5.454 -0.3165 -0.6389  0.9229
 3224SOL    HW221132   0.099   2.696   5.321  2.9350 -2.3192  0.3734
 3225SOL     OW21133   2.055   4.246  10.216 -0.4785 -0.1469  0.6722
 3225SOL    HW121134   2.043   4.154  10.242  0.9992 -0.4324  0.3370
 3225SOL    HW221135   1.962   4.256  10.195 -0.2495 -0.2621 -0.3970
 3226SOL     OW21136   0.837   3.756   8.898  0.0423 -0.6535  0.5173
 3226SOL    HW121137   0.811   3.738   8.807 -3.2243 -1.4021  1.6259
 3226SOL    HW221138   0.787   3.833   8.924  0.7603  0.5632 -1.6702
 3227SOL     OW21139   2.198   0.003  16.206  0.5276  0.2149  0.1114
 3227SOL    HW121140   2.180   4.639  16.244  1.5869  0.7363  1.7674
 3227SOL    HW221141   2.191   4.711  16.112 -0.7047  1.9263 -0.0533
 3228SOL     OW21142   1.786   1.952   6.596 -0.1909 -0.1120  0.4660
 3228SOL    HW121143   1.781   1.959   6.691  0.0440 -0.7309  0.5285
 3228SOL    HW221144   1.801   2.044   6.578 -0.2522 -0.1077  0.4355
 3229SOL     OW21145   2.620   1.976   6.610 -0.2152 -0.0388  0.0265
 3229SOL    HW121146   2.556   2.046   6.596  1.2575  0.9288 -1.7956
 3229SOL    HW221147   2.665   2.019   6.682  1.2386 -1.1311 -0.2408
 3230SOL     OW21148   2.044   3.038  10.981 -0.2292  0.2007  0.0211
 3230SOL    HW121149   2.079   2.973  11.041  2.2304  0.7931 -0.7913
 3230SOL    HW221150   2.011   2.976  10.916 -0.7426  1.7567 -1.2317
 3231SOL     OW21151   2.708   1.520   7.965 -0.4724 -0.3409 -0.0034
 3231SOL    HW121152   2.681   1.523   7.873 -0.8312  2.8142  0.1912
 3231SOL    HW221153   2.787   1.467   7.956 -1.6770 -2.0048 -0.7857
 3232SOL     OW21154   3.972   1.427   0.401 -0.3092 -0.2534 -0.5601
 3232SOL    HW121155   4.018   1.402   0.321 -1.7313  2.9216 -2.3702
 3232SOL    HW221156   3.961   1.521   0.390 -0.4830  0.0855  2.5284
 3233SOL     OW21157   3.279   0.530   8.000  0.4861  0.6474 -0.2614
 3233SOL    HW121158   3.191   0.554   8.027  0.3797 -0.1606  0.0829
 3233SOL    HW221159   3.309   0.471   8.069 -2.3065 -2.2463 -1.5605
 3234SOL     OW21160   4.400   3.759   2.210  0.0654  0.3482 -0.6606
 3234SOL    HW121161   4.316   3.715   2.222  0.4606 -0.1621  0.2766
 3234SOL    HW221162   4.459   3.683   2.206 -0.9236 -0.4128 -0.8338
 3235SOL     OW21163   2.777   4.676   3.523  0.6661  0.5369 -0.7956
 3235SOL    HW121164   2.765   0.047   3.536  0.8101  0.6431 -1.4400
 3235SOL    HW221165   2.785   4.641   3.611  1.5893  0.7789 -0.7836
 3236SOL     OW21166   0.881   2.422   0.951 -0.0654  0.6368 -0.3167
 3236SOL    HW121167   0.879   2.511   0.915  1.1395  1.1591  0.8972
 3236SOL    HW221168   0.961   2.425   1.004 -1.7136 -1.1011  2.2740
 3237SOL     OW21169   3.937   2.303   7.799  0.7306 -0.7811 -0.0358
 3237SOL    HW121170   3.997   2.306   7.724 -0.3232  0.3880 -0.8490
 3237SOL    HW221171   3.927   2.208   7.800 -1.5019 -0.5169  1.7967
 3238SOL     OW21172   2.081   2.804   6.308  0.1750 -0.5623  0.4999
 3238SOL    HW121173   2.016   2.760   6.255  2.7921  0.1363 -3.2785
 3238SOL    HW221174   2.153   2.746   6.283  1.8098  1.0632  1.4373
 3239SOL     OW21175   3.328   2.638   4.026 -0.1675  0.3812 -0.3878
 3239SOL    HW121176   3.233   2.643   4.017 -0.3457 -0.8580  0.8989
 3239SOL    HW221177   3.344   2.653   4.120  0.7296  1.2362 -0.6665
 3240SOL     OW21178   4.049   1.905   0.346 -0.3519 -0.0977 -0.2936
 3240SOL    HW121179   4.065   1.966   0.418  0.0467  0.1581 -0.5981
 3240SOL    HW221180   4.107   1.951   0.284 -1.5006 -0.1433 -1.4070
 3241SOL     OW21181   0.072   0.379   2.217 -0.1693  0.1102  0.1736
 3241SOL    HW121182   4.715   0.355   2.171  1.1441  0.2904 -2.1744
 3241SOL    HW221183   0.095   0.465   2.182  0.6468 -0.6494 -1.1486
 3242SOL     OW21184   3.132   4.093   3.776  0.1698  0.1788  0.1813
 3242SOL    HW121185   3.225   4.074   3.786 -0.0768 -0.7468  0.8008
 3242SOL    HW221186   3.125   4.186   3.755  0.5488  0.0543 -0.4796
 3243SOL     OW21187   3.913   1.448   7.338  0.4022 -0.3081  0.1386
 3243SOL    HW121188   3.823   1.481   7.337  1.0400  1.4206 -1.3860
 3243SOL    HW221189   3.965   1.517   7.298 -0.5159  0.9838  1.1461
 3244SOL     OW21190   4.213   4.501   7.808  0.3102  0.4972 -0.0882
 3244SOL    HW121191   4.201   4.412   7.843 -1.8137  0.9679  0.3724
 3244SOL    HW221192   4.136   4.535   7.853  0.9361  1.6665  0.0874
 3245SOL     OW21193   2.166   3.688   5.238 -0.6073 -0.1520  0.2190
 3245SOL    HW121194   2.178   3.682   5.333 -0.4674 -0.9176  0.1597
 3245SOL    HW221195   2.124   3.602   5.229 -2.4316  0.9791 -1.8251
 3246SOL     OW21196   3.385   4.322   8.738 -0.1637  0.2055 -0.0644
 3246SOL    HW121197   3.310   4.277   8.700  0.3419 -1.7699  1.2751
 3246SOL    HW221198   3.414   4.269   8.813 -0.4929 -0.1780 -0.2116
 3247SOL     OW21199   4.433   2.761   7.971 -0.0189 -0.1011  0.0223
 3247SOL    HW121200   4.483   2.840   7.949  0.9234 -1.0431 -1.1725
 3247SOL    HW221201   4.382   2.747   7.892  0.9860 -0.7737 -0.4985
 3248SOL     OW21202   1.303   2.073   6.890 -0.1560  0.3208 -0.4580
 3248SOL    HW121203   1.239   2.044   6.825 -0.0739  0.6207 -0.6733
 3248SOL    HW221204   1.318   2.162   6.859  3.6475  0.2568  1.1979
 3249SOL     OW21205   1.792   1.594   4.115  0.1121 -0.2858 -0.5514
 3249SOL    HW121206   1.786   1.502   4.140  0.6671  0.0896  0.9844
 3249SOL    HW221207   1.709   1.627   4.148  1.2712 -0.3116  2.4369
 3250SOL     OW21208   1.951   1.923   0.051  0.0080  0.6150  0.0213
 3250SOL    HW121209   1.907   1.846   0.086 -1.0330  1.1345 -0.1440
 3250SOL    HW221210   1.949   1.972   0.133 -2.5740  0.8464 -0.1658
 3251SOL     OW21211   2.222   3.857  14.624 -1.1919 -0.6483 -0.2591
 3251SOL    HW121212   2.154   3.797  14.595 -3.1187  0.7096  1.4988
 3251SOL    HW221213   2.254   3.813  14.703  1.5214  0.1744 -0.8983
 3252SOL     OW21214   2.172   1.771   2.729  0.1826 -0.0531  0.7863
 3252SOL    HW121215   2.220   1.781   2.811 -2.4507  0.6539  2.2606
 3252SOL    HW221216   2.210   1.841   2.676 -0.3662  0.2703  0.8177
 3253SOL     OW21217   1.604   1.480   0.977 -0.0572  0.1767  1.0414
 3253SOL    HW121218   1.680   1.503   1.030  0.4252  0.6810  0.1114
 3253SOL    HW221219   1.559   1.440   1.052  0.7199 -1.7782  0.4322
 3254SOL     OW21220   3.950   3.533   8.155 -0.0597 -0.2265 -0.1221
 3254SOL    HW121221   4.018   3.561   8.217 -0.2331  0.4551 -0.2409
 3254SOL    HW221222   3.930   3.619   8.117 -0.1674  0.2833  1.0759
 3255SOL     OW21223   0.832   4.136   2.582 -0.0579 -0.5318 -0.5626
 3255SOL    HW121224   0.911   4.111   2.534  1.4910  0.9320  1.2320
 3255SOL    HW221225   0.765   4.102   2.523  1.0495  1.2611 -2.8411
 3256SOL     OW21226   0.606   3.712   1.172  0.2032  0.4087  0.2980
 3256SOL    HW121227   0.614   3.796   1.218  0.9945 -0.5099  1.8478
 3256SOL    HW221228   0.561   3.664   1.242 -2.9868  2.0653 -0.6185
 3257SOL     OW21229   0.809   3.656   1.828  0.4821 -0.0749 -0.2331
 3257SOL    HW121230   0.856   3.737   1.807  1.0976 -0.6211 -0.9496
 3257SOL    HW221231   0.879   3.600   1.862  0.7012  1.1799  1.4179
 3258SOL     OW21232   4.323   2.508  17.535 -0.4864  0.5372 -0.4300
 3258SOL    HW121233   4.358   2.454  17.606  0.9812 -1.0212 -2.3336
 3258SOL    HW221234   4.379   2.585  17.529 -1.2102  1.1368  0.5219
 3259SOL     OW21235   2.863   2.658   8.182 -0.2105 -0.0240 -0.0417
 3259SOL    HW121236   2.941   2.667   8.236  0.0671  1.2389 -0.6645
 3259SOL    HW221237   2.860   2.573   8.137 -1.1252  0.5604 -1.0960
 3260SOL     OW21238   1.686   2.528  15.667 -0.0270  0.1005 -0.6213
 3260SOL    HW121239   1.601   2.532  15.623  1.0760  0.5951 -2.7282
 3260SOL    HW221240   1.659   2.489  15.750 -0.2448  1.9855  0.1886
 3261SOL     OW21241   2.680   0.303   8.994  0.9063 -0.4422 -0.1396
 3261SOL    HW121242   2.665   0.375   9.055  0.3355 -0.6954  0.0247
 3261SOL    HW221243   2.682   0.351   8.911 -0.5798 -0.6806 -0.3068
 3262SOL     OW21244   1.754   4.571  11.986  0.2167 -0.3236  0.0808
 3262SOL    HW121245   1.685   4.522  12.030  0.7576 -2.1773 -1.1599
 3262SOL    HW221246   1.718   4.658  11.968  0.4304 -0.2153  0.1628
 3263SOL     OW21247   1.639   1.861   2.262 -0.7241 -0.1862 -0.8186
 3263SOL    HW121248   1.554   1.820   2.243 -2.2734  2.2606  0.7120
 3263SOL    HW221249   1.609   1.926   2.326  4.1413  0.5539  0.6515
 3264SOL     OW21250   2.831   0.170  14.026 -0.5801  0.4360 -0.2810
 3264SOL    HW121251   2.884   0.148  14.103 -0.1906 -1.6105 -1.1217
 3264SOL    HW221252   2.758   0.216  14.066  0.1509  1.5416 -0.2108
 3265SOL     OW21253   0.275   1.131   3.781  0.4492 -0.4179  0.1343
 3265SOL    HW121254   0.279   1.072   3.706 -1.5234 -1.0098  0.4987
 3265SOL    HW221255   0.277   1.221   3.747  1.5017  0.4653  2.5633
 3266SOL     OW21256   2.073   1.855   9.890 -0.6446 -0.4785  0.2215
 3266SOL    HW121257   2.014   1.802   9.838  0.4172 -1.7237  0.2859
 3266SOL    HW221258   2.040   1.942   9.865 -0.3673 -1.8943 -5.0964
 3267SOL     OW21259   3.351   0.136  17.264  0.4836  0.5945  0.0759
 3267SOL    HW121260   3.427   0.113  17.212  0.8312  2.0126 -0.0519
 3267SOL    HW221261   3.327   0.217  17.218 -1.0733 -0.3537 -0.7743
 3268SOL     OW21262   2.753   3.681   6.558  0.1674  0.4766  0.2292
 3268SOL    HW121263   2.837   3.728   6.566 -0.4361  1.2973  1.8185
 3268SOL    HW221264   2.702   3.734   6.497  0.7528  1.3939  0.5160
 3269SOL     OW21265   3.468   2.760   9.643 -0.4200 -0.0930 -0.4885
 3269SOL    HW121266   3.519   2.781   9.722  0.0428  0.7831 -1.0244
 3269SOL    HW221267   3.381   2.739   9.678  1.1839 -1.8167  2.4993
 3270SOL     OW21268   0.783   2.216  11.621 -0.2396 -0.1892  0.1432
 3270SOL    HW121269   0.780   2.263  11.704 -0.7731 -0.3235  0.1973
 3270SOL    HW221270   0.730   2.137  11.626  0.8172 -0.8522  0.9630
 3271SOL     OW21271   4.286   0.240   2.943 -0.1002  0.4291  0.2125
 3271SOL    HW121272   4.208   0.208   2.899  1.6759  0.9635 -3.3622
 3271SOL    HW221273   4.357   0.185   2.909 -1.0310 -0.5817 -0.1049
 3272SOL     OW21274   1.717   2.440   2.681  0.0977  0.4663 -0.3640
 3272SOL    HW121275   1.681   2.390   2.754 -1.8914  1.6076 -0.5792
 3272SOL    HW221276   1.803   2.457   2.719 -0.0483  0.0867  0.1401
 3273SOL     OW21277   2.776   4.184  12.260  0.6807 -0.4960  0.8768
 3273SOL    HW121278   2.688   4.215  12.282  1.3262  0.8844  1.5051
 3273SOL    HW221279   2.814   4.181  12.348 -0.2545 -0.9893  1.2570
 3274SOL     OW21280   4.631   1.156   4.165 -0.2772  0.1040 -0.1561
 3274SOL    HW121281   4.682   1.159   4.084 -0.7380 -0.9445 -0.4936
 3274SOL    HW221282   4.690   1.196   4.228 -0.0036 -3.4055  1.7850
 3275SOL     OW21283   2.037   1.307   4.600  0.3475  0.5187 -0.3660
 3275SOL    HW121284   2.117   1.324   4.651  1.0662 -0.9101 -1.0142
 3275SOL    HW221285   2.054   1.262   4.517  2.7730  2.2095 -0.8154
 3276SOL     OW21286   2.753   3.610   3.887 -0.4905  0.2037  0.2437
 3276SOL    HW121287   2.803   3.625   3.807 -0.8956  1.5976  0.2470
 3276SOL    HW221288   2.787   3.523   3.907  1.6029  1.0253  0.2729
 3277SOL     OW21289   1.136   3.089   5.631  0.1606  0.1096  0.3359
 3277SOL    HW121290   1.228   3.100   5.607 -0.7621  1.7512 -2.3962
 3277SOL    HW221291   1.145   3.109   5.724  1.6418 -0.3773  0.2996
 3278SOL     OW21292   1.022   1.983   2.231  0.0639  0.3369  0.3804
 3278SOL    HW121293   1.000   2.024   2.147  0.2402  1.2099  0.7558
 3278SOL    HW221294   0.941   1.990   2.280  0.8772  2.6137  1.4179
 3279SOL     OW21295   3.079   2.457  16.873  0.6372  0.3011  0.2692
 3279SOL    HW121296   2.998   2.411  16.895 -0.3663  0.8424 -2.3067
 3279SOL    HW221297   3.082   2.465  16.778 -2.3195  1.0232  0.2331
 3280SOL     OW21298   3.218   4.391  10.619 -0.3747 -0.0004 -0.2274
 3280SOL    HW121299   3.304   4.428  10.605  0.3469 -2.3905 -2.1294
 3280SOL    HW221300   3.238   4.316  10.675 -1.3833  0.6427  0.9910
 3281SOL     OW21301   1.602   2.500   5.008  0.5507 -0.2886  0.0011
 3281SOL    HW121302   1.664   2.572   5.004 -2.7963  2.5454 -1.4289
 3281SOL    HW221303   1.519   2.548   5.019  1.0981  0.7113 -0.2259
 3282SOL     OW21304   2.226   0.636   7.771  0.4849  0.4913 -0.1764
 3282SOL    HW121305   2.214   0.547   7.739  0.9193 -0.6720  2.9183
 3282SOL    HW221306   2.199   0.691   7.697  1.1185  1.9566  0.6676
 3283SOL     OW21307   0.648   1.103   3.894  0.2759  0.4676  0.4207
 3283SOL    HW121308   0.712   1.044   3.934 -0.4892 -0.3573  0.4214
 3283SOL    HW221309   0.613   1.050   3.823  0.2244  0.5620  0.3761
 3284SOL     OW21310   1.810   2.418   4.402 -0.3420  0.2389  0.0309
 3284SOL    HW121311   1.895   2.428   4.358 -0.6898 -0.5007 -0.7993
 3284SOL    HW221312   1.758   2.488   4.363  0.2553  0.0175 -1.1547
 3285SOL     OW21313   1.632   0.454   9.602 -0.8461  0.2844 -0.1579
 3285SOL    HW121314   1.685   0.497   9.534 -0.3464 -2.0442 -1.2576
 3285SOL    HW221315   1.639   0.361   9.583 -2.2509  0.7565 -3.0238
 3286SOL     OW21316   0.613   3.991   3.287 -0.4202 -0.5884 -0.3171
 3286SOL    HW121317   0.596   3.978   3.193  0.8149  0.8284 -0.7457
 3286SOL    HW221318   0.605   4.085   3.300 -1.0711 -0.5519 -0.9505
 3287SOL     OW21319   0.847   2.477   3.181  0.0617 -0.2212 -0.9740
 3287SOL    HW121320   0.861   2.439   3.268  0.8647  0.4711 -0.7977
 3287SOL    HW221321   0.764   2.439   3.153 -0.9108  1.4128 -0.3465
 3288SOL     OW21322   2.950   2.245   5.171 -0.1678 -0.0415 -0.2614
 3288SOL    HW121323   2.935   2.256   5.077 -0.3161 -0.3540 -0.2751
 3288SOL    HW221324   3.023   2.303   5.194  0.6984 -0.4830 -1.9240
 3289SOL     OW21325   4.058   4.076   0.048  0.2510 -0.0274  0.3590
 3289SOL    HW121326   4.114   4.121   0.112  0.6828  1.6060 -1.1599
 3289SOL    HW221327   4.015   4.010   0.101 -0.2135  2.2387  2.8109
 3290SOL     OW21328   3.329   4.347   8.118  0.1611  0.2281 -0.2235
 3290SOL    HW121329   3.311   4.321   8.028 -0.5256  3.5897 -1.0708
 3290SOL    HW221330   3.422   4.326   8.115  0.3180  1.1788 -2.3754
 3291SOL     OW21331   1.196   3.512   9.030 -0.2472 -0.1428  0.5180
 3291SOL    HW121332   1.167   3.481   8.945 -1.1607  2.1945 -0.0360
 3291SOL    HW221333   1.191   3.429   9.077 -0.5835 -0.9069 -0.8923
 3292SOL     OW21334   2.319   2.137   0.530 -0.5758 -1.1768 -0.2384
 3292SOL    HW121335   2.363   2.128   0.446 -1.8970  1.1152 -1.1790
 3292SOL    HW221336   2.314   2.046   0.560  0.5240 -1.1483  0.0349
 3293SOL     OW21337   1.653   1.743  13.794  0.1754  0.3217 -0.0375
 3293SOL    HW121338   1.724   1.683  13.775  0.1902 -0.0034  1.0896
 3293SOL    HW221339   1.602   1.712  13.719  0.5298 -1.1023  0.3197
 3294SOL     OW21340   1.692   3.828   6.660  0.5699 -0.0496  0.2846
 3294SOL    HW121341   1.646   3.881   6.725 -0.0621 -1.0464  0.6420
 3294SOL    HW221342   1.764   3.797   6.714  0.3759 -0.2049  0.4512
 3295SOL     OW21343   3.582   3.919   5.217 -0.3295  0.1862 -0.1835
 3295SOL    HW121344   3.572   3.964   5.301 -0.6600  0.5166 -0.3985
 3295SOL    HW221345   3.677   3.922   5.208 -0.2892 -0.7396  0.0002
 3296SOL     OW21346   2.676   2.498   5.789 -0.9566 -0.4061  0.3247
 3296SOL    HW121347   2.667   2.444   5.711  0.6853 -1.4778  0.8738
 3296SOL    HW221348   2.628   2.577   5.764  0.8433 -0.2791 -2.7059
 3297SOL     OW21349   3.461   2.753   3.803 -0.5532  0.4852  0.1705
 3297SOL    HW121350   3.445   2.716   3.890  1.6995 -2.4962 -0.6845
 3297SOL    HW221351   3.399   2.823   3.786 -0.6540 -0.2754 -2.6031
 3298SOL     OW21352   4.265   3.692  16.651  0.3337 -0.1656  0.2595
 3298SOL    HW121353   4.219   3.621  16.606  0.7135 -0.8674  0.9889
 3298SOL    HW221354   4.345   3.644  16.672 -0.1375 -0.8126  0.5593
 3299SOL     OW21355   1.673   3.877  16.443 -0.6515 -0.2610  0.0861
 3299SOL    HW121356   1.671   3.825  16.363 -1.0958  0.6728 -0.5091
 3299SOL    HW221357   1.635   3.961  16.418 -0.0485 -0.0587 -0.1541
 3300SOL     OW21358   2.302   3.602  16.924 -0.0811 -0.3994 -0.1120
 3300SOL    HW121359   2.217   3.556  16.922 -0.2800  0.0243 -1.0800
 3300SOL    HW221360   2.354   3.544  16.980 -0.3324  0.4872  1.0399
 3301SOL     OW21361   3.739   0.946  15.250 -0.3665 -0.3089  0.2470
 3301SOL    HW121362   3.768   0.969  15.162 -0.3075 -0.3674  0.2508
 3301SOL    HW221363   3.816   0.895  15.275 -1.2217 -1.6326  0.1714
 3302SOL     OW21364   2.664   3.609   5.021 -0.2006  0.0908  0.0345
 3302SOL    HW121365   2.596   3.572   5.076 -0.2090 -0.7811 -0.5592
 3302SOL    HW221366   2.749   3.588   5.060 -1.4600 -0.8501  2.2669
 3303SOL     OW21367   4.575   0.498   4.241 -0.4639  0.3193 -0.4242
 3303SOL    HW121368   4.587   0.591   4.261 -1.2529 -0.1052  2.0527
 3303SOL    HW221369   4.612   0.463   4.322 -1.1465 -0.0231 -0.2621
 3304SOL     OW21370   0.752   3.894   9.702  0.2963  0.2101  0.2109
 3304SOL    HW121371   0.746   3.825   9.636 -3.6508  1.1029 -0.3753
 3304SOL    HW221372   0.753   3.841   9.781  1.9010 -0.6011 -0.3631
 3305SOL     OW21373   3.359   2.914   8.166  0.1616 -0.0776 -0.5468
 3305SOL    HW121374   3.422   2.930   8.236  1.1742 -0.5130 -1.3523
 3305SOL    HW221375   3.353   2.819   8.174 -0.6713  0.0620  0.4591
 3306SOL     OW21376   0.994   0.443   3.336 -0.0814 -0.4740  0.7809
 3306SOL    HW121377   1.058   0.406   3.274  1.0442 -1.6411  2.6321
 3306SOL    HW221378   1.047   0.468   3.412  1.1664 -1.3185  0.1954
 3307SOL     OW21379   3.351   0.402   6.092  0.2478 -0.2180 -0.1016
 3307SOL    HW121380   3.314   0.410   6.004 -3.4290 -0.4789  1.4088
 3307SOL    HW221381   3.296   0.332   6.128 -2.8329  2.9588  1.3660
 3308SOL     OW21382   1.915   4.378   5.775 -0.5725  0.2377 -0.2477
 3308SOL    HW121383   1.853   4.313   5.809  0.6557 -0.9354 -0.2664
 3308SOL    HW221384   1.868   4.448   5.821 -0.4070  0.2462 -0.0946
 3309SOL     OW21385   2.784   3.292   7.067 -0.3212  0.4516 -0.2503
 3309SOL    HW121386   2.821   3.231   7.131  0.3835  0.2425 -0.8630
 3309SOL    HW221387   2.766   3.234   6.993  2.8303 -0.3429 -0.3845
 3310SOL     OW21388   4.525   0.103   3.536 -0.2246  0.1071 -0.0210
 3310SOL    HW121389   4.588   0.079   3.468  0.0539  0.3910  0.1382
 3310SOL    HW221390   4.486   0.180   3.496  2.5152  2.3408  1.5859
 3311SOL     OW21391   3.721   1.324   3.109  0.0706  0.1526 -0.5355
 3311SOL    HW121392   3.697   1.279   3.028 -0.4880 -4.0937  1.9902
 3311SOL    HW221393   3.655   1.293   3.170 -0.1161  0.8282 -0.3980
 3312SOL     OW21394   4.465   1.420   3.528 -0.2684  0.2285 -0.3954
 3312SOL    HW121395   4.561   1.424   3.527 -0.1450 -2.3691  0.7614
 3312SOL    HW221396   4.446   1.334   3.490  1.1277 -0.3235  0.1348
 3313SOL     OW21397   2.001   1.536  17.503 -0.2868  0.1615 -0.3692
 3313SOL    HW121398   2.084   1.489  17.510 -0.0415  0.5252 -0.8834
 3313SOL    HW221399   1.959   1.497  17.580 -0.1613  1.4781  0.3688
 3314SOL     OW21400   1.314   2.583   3.912  0.3000 -0.0432  0.1848
 3314SOL    HW121401   1.347   2.622   3.993 -3.1270  0.5575  1.3202
 3314SOL    HW221402   1.377   2.513   3.896  0.7250  0.2695  0.5058
 3315SOL     OW21403   4.105   0.684   5.786 -0.1396 -0.2472  0.0172
 3315SOL    HW121404   4.190   0.657   5.819  0.2258  0.9830  0.0970
 3315SOL    HW221405   4.117   0.779   5.795  1.7280 -0.5162  0.2800
 3316SOL     OW21406   3.759   4.119  10.797 -0.9673  0.4592 -0.0925
 3316SOL    HW121407   3.826   4.076  10.744 -0.0198  0.4882  1.0701
 3316SOL    HW221408   3.692   4.145  10.734 -0.7442 -0.4735 -0.7132
 3317SOL     OW21409   2.010   1.049   9.921 -0.4049 -0.0917 -0.3906
 3317SOL    HW121410   1.958   0.985   9.969  0.7365 -1.2015 -0.6614
 3317SOL    HW221411   1.993   1.028   9.829  1.1121 -0.6913 -0.5381
 3318SOL     OW21412   3.527   2.406  10.240  0.2465  0.1411 -0.6748
 3318SOL    HW121413   3.467   2.375  10.173  1.3115 -1.8857 -0.6674
 3318SOL    HW221414   3.478   2.404  10.323  0.5596 -0.2095 -0.4998
 3319SOL     OW21415   1.122   2.162   2.739  0.5742  0.2845  0.0553
 3319SOL    HW121416   1.103   2.086   2.794  0.8782  0.0057 -0.2220
 3319SOL    HW221417   1.090   2.114   2.662 -2.5769 -0.9859  2.1263
 3320SOL     OW21418   2.229   3.718   3.363  0.2503  0.0892  0.7017
 3320SOL    HW121419   2.309   3.675   3.333 -0.0300 -1.1423  1.7491
 3320SOL    HW221420   2.165   3.683   3.301 -0.0534 -0.1489  1.1495
 3321SOL     OW21421   1.108   0.938   5.711  0.0784  0.4910 -0.4969
 3321SOL    HW121422   1.154   0.884   5.775 -1.9978 -1.5235 -0.7047
 3321SOL    HW221423   1.154   1.021   5.697 -0.5857  0.7914 -0.9006
 3322SOL     OW21424   1.299   0.598   2.948 -0.0799 -0.2561 -1.0423
 3322SOL    HW121425   1.254   0.550   2.879  1.5351 -1.8265 -1.0112
 3322SOL    HW221426   1.236   0.662   2.981 -1.3315 -2.4967  0.8732
 3323SOL     OW21427   1.363   2.825   7.516  0.5443 -0.2917 -0.3127
 3323SOL    HW121428   1.284   2.790   7.557  0.1441 -1.2189 -1.9219
 3323SOL    HW221429   1.411   2.750   7.483 -0.7719 -0.4808 -1.7485
 3324SOL     OW21430   3.619   1.407   1.313  0.0818 -0.0697  0.5333
 3324SOL    HW121431   3.570   1.343   1.262  0.3777 -1.1641  1.6329
 3324SOL    HW221432   3.664   1.452   1.241 -1.9010  0.0541 -0.6308
 3325SOL     OW21433   1.385   0.589   3.529  0.1733  0.3669 -0.2102
 3325SOL    HW121434   1.460   0.608   3.585  1.3721 -0.9163 -1.3820
 3325SOL    HW221435   1.397   0.654   3.460  0.5640 -0.4915 -0.9506
 3326SOL     OW21436   3.243   1.410  15.674  0.3066  0.6219  0.2965
 3326SOL    HW121437   3.318   1.464  15.700 -1.4313  2.8572  0.6745
 3326SOL    HW221438   3.289   1.329  15.653  0.8160  1.3621 -1.4823
 3327SOL     OW21439   0.996   1.776   1.079  0.1187  0.3976 -0.1750
 3327SOL    HW121440   1.074   1.730   1.113 -0.3525 -0.5318 -0.3417
 3327SOL    HW221441   0.934   1.704   1.064  0.2819  0.3504 -0.6182
 3328SOL     OW21442   0.626   1.514   0.145 -0.7723 -0.3701  0.0677
 3328SOL    HW121443   0.685   1.440   0.159 -0.9909 -0.4975  0.3204
 3328SOL    HW221444   0.665   1.574   0.209 -2.3340  1.2660 -0.5222
 3329SOL     OW21445   3.672   3.843   4.500 -0.0741 -0.1743 -0.9205
 3329SOL    HW121446   3.733   3.792   4.447  2.6826  1.2862  0.8560
 3329SOL    HW221447   3.659   3.789   4.578 -1.3238 -0.3531 -1.2663
 3330SOL     OW21448   0.738   4.617   3.989 -0.0129  0.1458  0.4133
 3330SOL    HW121449   0.747   4.712   4.000  2.1167 -0.2317  1.9113
 3330SOL    HW221450   0.787   4.598   3.909 -0.5867  1.2029 -0.1825
 3331SOL     OW21451   3.451   3.825   8.895 -0.1051 -0.5322 -0.2100
 3331SOL    HW121452   3.373   3.801   8.944 -1.6978  1.0005 -2.0250
 3331SOL    HW221453   3.515   3.768   8.939  0.9583  1.5725  0.9299
 3332SOL     OW21454   1.457   0.981   2.920  0.4871 -0.0263 -0.5251
 3332SOL    HW121455   1.475   1.043   2.991 -2.1549 -0.1994  0.2997
 3332SOL    HW221456   1.491   1.020   2.839  1.7201 -3.3279 -1.5885
 3333SOL     OW21457   2.745   1.142   2.897  0.4710 -0.2073  0.4176
 3333SOL    HW121458   2.665   1.088   2.901  0.7168 -0.6261 -0.3260
 3333SOL    HW221459   2.808   1.071   2.882 -1.2062 -2.4717  3.8959
 3334SOL     OW21460   0.477   1.753  15.768  0.4413  0.0042 -0.3312
 3334SOL    HW121461   0.438   1.840  15.765 -0.3050 -0.1734  3.7301
 3334SOL    HW221462   0.525   1.747  15.685 -1.0664 -0.5879 -1.1529
 3335SOL     OW21463   4.603   0.575  12.528 -0.4842 -0.1512  0.2785
 3335SOL    HW121464   4.550   0.632  12.473  0.5361 -0.1592 -0.7154
 3335SOL    HW221465   4.692   0.612  12.524 -0.4057 -0.1335  2.3586
 3336SOL     OW21466   1.778   4.411  13.359 -0.3174  0.2078 -0.0365
 3336SOL    HW121467   1.727   4.476  13.310  2.0054  0.1159 -2.5713
 3336SOL    HW221468   1.758   4.445  13.447  0.6175 -1.3591  0.7939
 3337SOL     OW21469   1.469   0.701   6.339  0.5081  0.3716  0.5334
 3337SOL    HW121470   1.506   0.783   6.371  1.0678  0.0286  0.7608
 3337SOL    HW221471   1.531   0.644   6.385  0.6056 -0.8511 -1.0968
 3338SOL     OW21472   3.760   4.041   7.956 -0.1983  0.0588  0.0267
 3338SOL    HW121473   3.840   4.092   7.961  1.6447 -2.8454  0.3345
 3338SOL    HW221474   3.732   4.048   7.864 -0.4041  0.6725  0.1367
 3339SOL     OW21475   2.361   2.878   7.656 -0.0355 -0.7022 -0.0196
 3339SOL    HW121476   2.451   2.881   7.687 -0.1295 -2.2631  0.3948
 3339SOL    HW221477   2.317   2.947   7.707 -0.5235 -0.3010 -0.9768
 3340SOL     OW21478   3.349   2.798   7.780 -0.2215  0.6296 -0.2755
 3340SOL    HW121479   3.421   2.736   7.771 -2.3535 -1.3771 -3.3594
 3340SOL    HW221480   3.315   2.788   7.691 -2.2117 -0.5563  0.6132
 3341SOL     OW21481   3.961   0.950   6.107 -0.2103 -0.5315 -0.7826
 3341SOL    HW121482   3.965   1.041   6.137  1.0924 -0.3562 -1.4534
 3341SOL    HW221483   3.930   0.910   6.188  0.0993  2.7796  0.9515
 3342SOL     OW21484   3.144   2.917   3.511  0.2841 -0.1824 -0.3360
 3342SOL    HW121485   3.190   2.974   3.449 -0.3020 -1.3866 -1.8890
 3342SOL    HW221486   3.067   2.970   3.528  0.4382 -0.2476  0.5419
 3343SOL     OW21487   1.268   3.888  12.605 -0.2855 -0.3038 -0.1798
 3343SOL    HW121488   1.279   3.866  12.698  0.2297  0.3841 -0.0713
 3343SOL    HW221489   1.202   3.824  12.581 -0.5571  0.5606 -1.6693
 3344SOL     OW21490   3.543   1.405  17.553  0.1075  0.3659  0.2113
 3344SOL    HW121491   3.631   1.379  17.580  0.5134  0.6366 -0.8293
 3344SOL    HW221492   3.557   1.487  17.505 -1.4793  0.7291  0.3511
 3345SOL     OW21493   4.346   1.001  17.520 -0.0494  0.1330  0.2197
 3345SOL    HW121494   4.312   1.085  17.552 -1.1037  0.5847 -2.1280
 3345SOL    HW221495   4.310   0.987  17.433 -0.8395  2.3784  0.1705
 3346SOL     OW21496   2.264   1.548   8.191 -0.6497  0.6369  0.2597
 3346SOL    HW121497   2.221   1.631   8.213 -1.5171  0.0771  0.7084
 3346SOL    HW221498   2.220   1.511   8.115 -0.9584  0.4300  0.5346
 3347SOL     OW21499   1.650   3.445  17.239  0.3169 -0.1603 -0.0905
 3347SOL    HW121500   1.559   3.472  17.247  0.0728 -1.4484  1.6200
 3347SOL    HW221501   1.680   3.526  17.198  0.4944 -0.5892 -0.8025
 3348SOL     OW21502   2.999   3.812   6.515  0.1329  0.3239  0.2997
 3348SOL    HW121503   2.957   3.883   6.467  0.4346  1.4887  1.7390
 3348SOL    HW221504   3.068   3.860   6.562 -1.4979  1.2704  1.7318
 3349SOL     OW21505   1.399   2.683   6.441  0.1558 -0.2817  0.4462
 3349SOL    HW121506   1.472   2.693   6.503  1.7956  0.7693 -1.6725
 3349SOL    HW221507   1.360   2.601   6.471  1.3976 -0.0139  2.7866
 3350SOL     OW21508   3.568   0.821  15.988 -0.4151  0.3831  0.4368
 3350SOL    HW121509   3.630   0.882  15.948 -0.1494 -0.9002 -1.1170
 3350SOL    HW221510   3.517   0.796  15.910 -1.1447  0.4553  0.8924
 3351SOL     OW21511   1.281   0.386  10.985 -0.3645 -0.2761  1.1361
 3351SOL    HW121512   1.256   0.368  11.076 -1.4090 -1.4781  0.6067
 3351SOL    HW221513   1.241   0.471  10.966  3.2071  1.3343  0.7240
 3352SOL     OW21514   0.297   3.827   8.511  0.2572 -0.0993 -0.1204
 3352SOL    HW121515   0.317   3.808   8.602  0.4717 -2.7805 -0.7189
 3352SOL    HW221516   0.329   3.917   8.502  3.2949 -1.5402 -3.9027
 3353SOL     OW21517   3.365   1.400   9.420 -0.5641 -0.1047  0.0015
 3353SOL    HW121518   3.325   1.483   9.444  1.3664 -0.7589  5.5268
 3353SOL    HW221519   3.443   1.396   9.476 -0.5396 -0.1548 -0.0362
 3354SOL     OW21520   3.653   4.668   7.709  0.0850 -0.6284  0.3403
 3354SOL    HW121521   3.647   0.017   7.647  0.3724  0.4267  1.5334
 3354SOL    HW221522   3.584   4.612   7.674  0.2012  0.1036 -1.0292
 3355SOL     OW21523   4.380   2.654   6.774  0.1884  0.1658  0.2102
 3355SOL    HW121524   4.286   2.644   6.760  0.2422 -0.3571  0.2158
 3355SOL    HW221525   4.396   2.709   6.851  0.9109 -1.3273  1.1136
 3356SOL     OW21526   0.867   0.243  16.792 -0.4348  0.4919 -0.1042
 3356SOL    HW121527   0.795   0.210  16.739 -1.5982  0.6912  1.3419
 3356SOL    HW221528   0.808   0.289  16.852 -0.0622  1.1427 -0.2391
 3357SOL     OW21529   3.695   0.319  10.114 -0.3999 -0.1477  0.0581
 3357SOL    HW121530   3.603   0.292  10.111 -0.4397  0.0835 -0.8695
 3357SOL    HW221531   3.743   0.239  10.133 -3.2936 -2.1374 -0.8826
 3358SOL     OW21532   0.871   2.714  15.892 -0.6153  0.4315  0.0590
 3358SOL    HW121533   0.873   2.630  15.846 -1.7956  0.6498 -0.3771
 3358SOL    HW221534   0.808   2.690  15.960 -0.3670 -2.3785 -0.7264
 3359SOL     OW21535   0.887   0.414   4.887 -0.1260 -0.6640  0.1337
 3359SOL    HW121536   0.925   0.455   4.810  1.8285 -1.3682  0.7114
 3359SOL    HW221537   0.854   0.492   4.931  2.2503  0.3633  0.0854
 3360SOL     OW21538   0.812   1.100   3.510  0.2593 -0.3021  0.1178
 3360SOL    HW121539   0.890   1.046   3.501  1.2007  1.1364 -0.4520
 3360SOL    HW221540   0.812   1.172   3.446 -2.1144  0.8573  1.4019
 3361SOL     OW21541   0.889   4.519   4.407 -0.1581  0.3314 -0.0893
 3361SOL    HW121542   0.857   4.460   4.338  0.5245  0.9396 -0.9306
 3361SOL    HW221543   0.970   4.474   4.432  0.7589  2.3886  0.6266
 3362SOL     OW21544   1.041   2.597   5.338  0.5252 -0.1133  0.4312
 3362SOL    HW121545   0.966   2.563   5.387  1.6787  0.3878  2.5176
 3362SOL    HW221546   1.115   2.562   5.388 -0.4911 -2.1535  0.5028
 3363SOL     OW21547   0.556   2.026   7.185 -0.0526  0.1446 -0.2359
 3363SOL    HW121548   0.610   2.101   7.211  0.4239 -1.2094  2.7358
 3363SOL    HW221549   0.530   2.050   7.096  0.2254 -0.3582 -0.4467
 3364SOL     OW21550   3.923   3.718   5.006  0.5094 -0.5466 -0.6214
 3364SOL    HW121551   3.965   3.784   5.061 -1.4406 -1.4385  1.9102
 3364SOL    HW221552   3.835   3.721   5.042  1.1642 -1.4046  1.0442
 3365SOL     OW21553   1.876   1.088   0.105 -0.6293  0.5144 -0.5239
 3365SOL    HW121554   1.959   1.118   0.068  0.5701 -1.8301  0.2602
 3365SOL    HW221555   1.869   0.998   0.073 -2.2022 -0.4368  2.4852
 3366SOL     OW21556   4.131   4.448   0.170 -0.0913  0.0532  0.5444
 3366SOL    HW121557   4.165   4.360   0.187  2.9656  1.1404  0.0512
 3366SOL    HW221558   4.114   4.476   0.260 -0.0062 -0.6701  0.7900
 3367SOL     OW21559   2.098   4.449   4.753  0.3815  0.1874  0.7521
 3367SOL    HW121560   2.141   4.489   4.678 -2.2151  1.2236 -0.2013
 3367SOL    HW221561   2.031   4.514   4.774 -2.7455 -1.4695 -4.0675
 3368SOL     OW21562   3.937   3.176   7.634  0.5743 -0.3620  0.0533
 3368SOL    HW121563   4.003   3.239   7.661 -0.6729  0.0062  2.2984
 3368SOL    HW221564   3.990   3.097   7.630  0.5447 -0.4383  0.9761
 3369SOL     OW21565   0.640   0.949   3.654 -0.1006 -0.0379  0.3901
 3369SOL    HW121566   0.660   0.881   3.590 -1.7973  0.4135 -0.6298
 3369SOL    HW221567   0.708   1.012   3.629  0.0871 -0.2333  0.4056
 3370SOL     OW21568   3.261   1.156   3.027  0.0173 -0.3285 -0.6078
 3370SOL    HW121569   3.209   1.140   2.948  1.8514 -2.5747 -1.3641
 3370SOL    HW221570   3.231   1.242   3.055  2.4943  0.2346  0.3201
 3371SOL     OW21571   1.958   2.486   2.800  0.0145 -0.2226  0.3823
 3371SOL    HW121572   2.036   2.464   2.749 -0.4680 -1.3087  0.1221
 3371SOL    HW221573   1.977   2.458   2.890  0.0262 -2.2675 -0.2678
 3372SOL     OW21574   3.149   2.425   5.261 -0.5878 -0.1790 -0.6250
 3372SOL    HW121575   3.109   2.409   5.347 -0.2080  0.1489 -0.3871
 3372SOL    HW221576   3.145   2.520   5.269 -0.6239 -0.3731  1.8353
 3373SOL     OW21577   3.630   1.537   3.633  0.3915 -0.5283  0.0273
 3373SOL    HW121578   3.619   1.630   3.612 -0.9005 -0.5619  0.5759
 3373SOL    HW221579   3.712   1.518   3.588  1.3521 -0.3011  1.6756
 3374SOL     OW21580   2.442   0.592   3.134 -0.1703 -0.2946 -0.3432
 3374SOL    HW121581   2.426   0.513   3.084 -0.8878 -0.2764 -0.1335
 3374SOL    HW221582   2.509   0.572   3.199 -0.6590  1.4843  0.7126
 3375SOL     OW21583   1.598   1.437   9.529  0.2564 -0.2658  0.8052
 3375SOL    HW121584   1.518   1.418   9.578 -0.5456  0.4089 -0.2361
 3375SOL    HW221585   1.567   1.484   9.451  0.3872 -1.4374  0.0510
 3376SOL     OW21586   1.550   0.112   6.801 -0.3753  0.3253  0.4534
 3376SOL    HW121587   1.617   0.179   6.790 -0.2324 -0.0271 -0.8486
 3376SOL    HW221588   1.483   0.157   6.750  0.9458 -0.0502 -1.5918
 3377SOL     OW21589   0.319   0.240   6.048  0.1429  0.0284 -0.2043
 3377SOL    HW121590   0.320   0.217   5.955  2.1636  1.2463 -0.4783
 3377SOL    HW221591   0.264   0.168   6.079  0.4296  0.4602  1.2675
 3378SOL     OW21592   1.831   2.638   6.870  0.1220  0.3134 -0.0800
 3378SOL    HW121593   1.818   2.732   6.872  1.3008  0.4857 -0.3533
 3378SOL    HW221594   1.922   2.648   6.899 -0.6832  1.4241  2.0795
 3379SOL     OW21595   4.533   4.702   0.935  0.2203  0.1950 -0.3747
 3379SOL    HW121596   4.545   4.722   1.028  4.2439 -1.9067 -0.4607
 3379SOL    HW221597   4.455   0.028   0.909  0.8180  1.0772 -0.5203
 3380SOL     OW21598   3.640   4.411   3.114 -0.0467 -0.4548 -0.4950
 3380SOL    HW121599   3.556   4.368   3.132 -0.5814  0.5329 -0.5959
 3380SOL    HW221600   3.647   4.469   3.190 -0.8548  1.1116 -1.6071
 3381SOL     OW21601   3.764   1.278   0.482  0.5347  0.1119  0.7478
 3381SOL    HW121602   3.804   1.363   0.502 -1.7884  1.1275  1.0422
 3381SOL    HW221603   3.831   1.246   0.422  0.8840 -0.2699  1.3379
 3382SOL     OW21604   0.290   3.343   9.909 -0.3041 -0.7378 -0.0444
 3382SOL    HW121605   0.277   3.392   9.991 -0.8536  0.0380 -0.5844
 3382SOL    HW221606   0.358   3.384   9.856 -1.5284  1.8849  0.4021
 3383SOL     OW21607   0.077   4.228  10.629 -0.3345 -0.0216 -0.0167
 3383SOL    HW121608   0.100   4.243  10.720 -0.3754  1.2828 -0.2323
 3383SOL    HW221609   0.071   4.313  10.587 -0.2257 -0.1940 -0.3866
 3384SOL     OW21610   1.382   1.258  11.116 -0.0088 -0.5280 -0.0304
 3384SOL    HW121611   1.426   1.184  11.158  1.5989  1.5956  2.0396
 3384SOL    HW221612   1.452   1.285  11.057 -0.0221 -1.9206 -0.6748
 3385SOL     OW21613   1.734   1.079   6.016  0.6122 -0.1892 -0.2060
 3385SOL    HW121614   1.685   1.090   6.097  0.0215  0.6578 -0.6702
 3385SOL    HW221615   1.673   1.029   5.961  1.7862 -2.9412  1.0136
 3386SOL     OW21616   1.304   3.406   2.669 -0.1104 -0.7408 -0.3316
 3386SOL    HW121617   1.220   3.360   2.672 -0.6764  0.4042  1.7234
 3386SOL    HW221618   1.281   3.487   2.623 -1.9859 -2.9874 -3.3147
 3387SOL     OW21619   3.876   1.484   8.600  0.2805  0.4180 -0.1567
 3387SOL    HW121620   3.781   1.497   8.600  0.2180 -0.0299  0.0588
 3387SOL    HW221621   3.905   1.542   8.529 -0.1420 -0.0972 -0.7496
 3388SOL     OW21622   3.082   0.156   7.317 -0.5792 -0.1796  0.0651
 3388SOL    HW121623   3.045   0.244   7.317  1.3401  0.6099 -0.2200
 3388SOL    HW221624   3.037   0.122   7.240  4.0217 -2.4715 -1.6140
 3389SOL     OW21625   2.365   0.686   5.612  0.2381  0.2260 -0.8036
 3389SOL    HW121626   2.279   0.724   5.595 -0.4367 -0.6662  0.5524
 3389SOL    HW221627   2.395   0.747   5.680 -0.3780 -0.3835  0.0171
 3390SOL     OW21628   0.401   4.046   1.760  0.1524 -0.2746  0.1422
 3390SOL    HW121629   0.340   3.983   1.722  0.2380  0.7168 -1.6326
 3390SOL    HW221630   0.403   4.111   1.689  1.1867 -0.5318 -0.0699
 3391SOL     OW21631   0.672   2.581  16.008  0.1058  0.2888  0.2903
 3391SOL    HW121632   0.635   2.549  15.926 -0.2049  1.1895  0.0852
 3391SOL    HW221633   0.617   2.659  16.014 -0.4883 -0.1468  0.6395
 3392SOL     OW21634   1.142   1.765   9.177  1.1916  0.4921 -0.0631
 3392SOL    HW121635   1.167   1.692   9.234 -1.5023 -1.7281 -1.7318
 3392SOL    HW221636   1.184   1.838   9.223 -0.6568  1.0105  0.8129
 3393SOL     OW21637   1.917   2.160   5.455 -0.4932  1.0037  0.3121
 3393SOL    HW121638   1.869   2.081   5.480 -2.9126  2.1255 -0.8515
 3393SOL    HW221639   2.003   2.148   5.496  0.2369  0.8775 -1.2904
 3394SOL     OW21640   2.734   1.455   3.726 -0.4475  0.0120 -0.0811
 3394SOL    HW121641   2.730   1.516   3.653 -0.4088 -0.8280 -0.7906
 3394SOL    HW221642   2.736   1.375   3.674  0.0090  1.3713 -2.1126
 3395SOL     OW21643   0.960   0.149   7.568 -0.2858  0.5944 -0.2297
 3395SOL    HW121644   1.022   0.146   7.641 -1.6507  0.8387  0.9380
 3395SOL    HW221645   0.907   0.225   7.593  0.1993  0.6541  0.6124
 3396SOL     OW21646   0.212   0.270   8.236 -0.3081  0.2605 -0.5598
 3396SOL    HW121647   0.177   0.345   8.189  1.4316  1.0225 -0.6331
 3396SOL    HW221648   0.130   0.242   8.277  0.5467 -2.6625 -0.8071
 3397SOL     OW21649   3.189   3.167   1.279  0.3467 -0.2598  0.4247
 3397SOL    HW121650   3.215   3.256   1.303 -0.9827  0.3945 -0.5361
 3397SOL    HW221651   3.104   3.162   1.323 -1.5846  5.3599 -2.7508
 3398SOL     OW21652   1.058   3.646   6.454 -0.2243  0.2231 -0.4060
 3398SOL    HW121653   1.040   3.552   6.462  2.1826 -0.4281 -2.9954
 3398SOL    HW221654   0.998   3.681   6.520  0.8040  0.1403  0.5563
 3399SOL     OW21655   1.883   3.838   9.222 -0.1359 -0.6006 -0.6514
 3399SOL    HW121656   1.838   3.826   9.138  0.0423 -3.1741 -0.3819
 3399SOL    HW221657   1.810   3.871   9.274  0.3160  0.7452 -0.8646
 3400SOL     OW21658   1.337   0.882   1.908  0.4013  0.1079 -0.1748
 3400SOL    HW121659   1.381   0.802   1.882 -0.0632  0.2633 -1.4441
 3400SOL    HW221660   1.419   0.930   1.915 -0.5744  1.8901 -0.7833
 3401SOL     OW21661   0.876   0.828   0.722  0.8585  0.2562 -0.3836
 3401SOL    HW121662   0.786   0.847   0.749  0.3184 -2.9881  0.1678
 3401SOL    HW221663   0.913   0.778   0.796 -0.5217  1.2657  0.9824
 3402SOL     OW21664   1.224   0.434   2.742  0.2465  0.1545 -0.3194
 3402SOL    HW121665   1.148   0.481   2.710  0.6591  2.0533  1.4923
 3402SOL    HW221666   1.233   0.370   2.671  0.7262 -0.0120 -0.1060
 3403SOL     OW21667   2.748   1.724  15.807 -0.3270 -0.1482  0.2865
 3403SOL    HW121668   2.754   1.678  15.891 -2.4128 -0.4955  0.2481
 3403SOL    HW221669   2.664   1.769  15.812  1.0153  2.3791  0.2487
 3404SOL     OW21670   4.139   0.759  14.403 -0.4097  0.3865  0.2606
 3404SOL    HW121671   4.229   0.752  14.435 -0.6121  0.4121  0.8268
 3404SOL    HW221672   4.147   0.770  14.308 -1.6307  0.4512  0.1632
 3405SOL     OW21673   2.556   2.761  16.072 -0.0950 -0.1258  0.3327
 3405SOL    HW121674   2.610   2.682  16.077  2.3135  1.5376  0.5110
 3405SOL    HW221675   2.621   2.828  16.052 -0.7113 -0.3507 -2.3951
 3406SOL     OW21676   1.454   4.636   3.960  0.7429  0.4725 -0.3784
 3406SOL    HW121677   1.441   4.603   3.871  0.5079 -0.4696  0.0097
 3406SOL    HW221678   1.547   4.619   3.971  0.7204 -0.0494 -0.9971
 3407SOL     OW21679   2.887   4.672   1.399 -0.5696 -0.3756  0.6038
 3407SOL    HW121680   2.881   4.699   1.308 -0.4411  0.2245  0.7709
 3407SOL    HW221681   2.963   4.721   1.430 -0.1570 -1.5133  1.3885
 3408SOL     OW21682   0.749   0.210   7.004 -0.3881  0.5094  0.0893
 3408SOL    HW121683   0.766   0.292   7.050  1.5090  0.1144  0.0972
 3408SOL    HW221684   0.744   0.141   7.071  1.8989  0.0569 -0.2300
 3409SOL     OW21685   4.129   2.118   0.163 -0.0316 -0.3226  0.0778
 3409SOL    HW121686   4.104   2.210   0.174 -0.0365 -0.3967  0.7072
 3409SOL    HW221687   4.212   2.121   0.115 -0.0029 -1.0584  0.0816
 3410SOL     OW21688   0.362   0.951   4.816  0.0377  0.4245 -0.2112
 3410SOL    HW121689   0.376   0.918   4.727  1.6838 -0.0978  0.2570
 3410SOL    HW221690   0.272   0.920   4.826 -0.1875  0.6346 -1.5509
 3411SOL     OW21691   0.098   4.293   6.114 -0.2050  0.2877 -0.1086
 3411SOL    HW121692   0.067   4.232   6.048  1.0864  1.5212 -1.8697
 3411SOL    HW221693   0.013   4.327   6.144  0.3246 -0.1777  1.9375
 3412SOL     OW21694   2.682   1.674   5.335  0.5278 -0.2180 -0.3526
 3412SOL    HW121695   2.687   1.737   5.263  0.7527  1.2954  0.9865
 3412SOL    HW221696   2.601   1.712   5.368  0.9451 -0.3516  0.8207
 3413SOL     OW21697   2.426   1.288   1.847 -0.4188  0.3204  0.5740
 3413SOL    HW121698   2.382   1.283   1.762  1.2651  0.4899 -0.3098
 3413SOL    HW221699   2.453   1.199   1.867  0.0434  0.8242  2.2017
 3414SOL     OW21700   3.152   1.835  12.260 -0.0918 -0.0690 -0.3740
 3414SOL    HW121701   3.231   1.782  12.269 -0.2378 -0.6828 -2.7000
 3414SOL    HW221702   3.158   1.903  12.328  1.2937  0.7452 -1.3089
 3415SOL     OW21703   2.583   2.306   4.692  0.1581  0.2413  0.0429
 3415SOL    HW121704   2.582   2.279   4.784  1.2716 -0.7820 -0.2394
 3415SOL    HW221705   2.602   2.220   4.654  1.0271  0.1711  0.6290
 3416SOL     OW21706   1.438   2.963   8.993  0.4002  0.0171  0.9787
 3416SOL    HW121707   1.421   2.911   8.915  0.5547  0.4903  0.6328
 3416SOL    HW221708   1.533   2.953   8.999  0.3871  0.4940  2.1753
 3417SOL     OW21709   2.024   4.479  10.746 -0.3450  0.3503  0.0304
 3417SOL    HW121710   2.061   4.394  10.721 -2.2588 -0.2337 -0.8006
 3417SOL    HW221711   2.076   4.549  10.708  0.9932 -0.1082  0.9843
 3418SOL     OW21712   0.467   4.675   0.944 -0.1859 -0.5818 -0.4737
 3418SOL    HW121713   0.462   0.001   1.025 -2.5452 -1.9565  0.1988
 3418SOL    HW221714   0.377   4.648   0.928 -0.9447  2.1504 -0.7864
 3419SOL     OW21715   2.748   2.140   0.252 -0.3735  0.5892 -0.1634
 3419SOL    HW121716   2.671   2.103   0.297 -0.1622 -1.2667 -1.3512
 3419SOL    HW221717   2.699   2.213   0.214 -0.9966  0.5522  0.5580
 3420SOL     OW21718   0.215   0.179   5.245 -0.2403 -0.5173  0.1856
 3420SOL    HW121719   0.300   0.205   5.209 -1.1550 -0.6106 -2.0350
 3420SOL    HW221720   0.190   0.102   5.195 -1.7029 -0.8491  1.4530
 3421SOL     OW21721   2.509   3.123   7.297  0.2206 -0.0063  0.1212
 3421SOL    HW121722   2.491   3.103   7.205 -2.2551  0.0994  0.6033
 3421SOL    HW221723   2.514   3.219   7.300 -0.0813 -0.0619  2.3311
 3422SOL     OW21724   3.196   0.449  15.489 -0.1861  0.1267 -0.4777
 3422SOL    HW121725   3.188   0.402  15.572  0.2919  0.1975 -0.3938
 3422SOL    HW221726   3.112   0.491  15.471  0.7695  1.6394 -1.4434
 3423SOL     OW21727   2.487   1.232   3.637  0.3385  0.1186 -0.5227
 3423SOL    HW121728   2.491   1.256   3.729  0.1978  1.5679 -0.8930
 3423SOL    HW221729   2.436   1.152   3.630  0.2629  0.0987  0.2912
 3424SOL     OW21730   3.066   1.797   3.301 -0.1864 -0.3019 -0.3738
 3424SOL    HW121731   3.045   1.715   3.256  0.6478 -1.2518  0.9826
 3424SOL    HW221732   2.993   1.801   3.362  1.2418  0.9933  1.2665
 3425SOL     OW21733   2.203   3.938   2.935  0.0195 -0.3511  0.7520
 3425SOL    HW121734   2.239   3.888   3.008 -0.3476 -1.1839  0.3741
 3425SOL    HW221735   2.110   3.946   2.958  0.3383  0.8760  1.5947
 3426SOL     OW21736   1.915   1.780  12.777  0.2144 -0.3509  0.2846
 3426SOL    HW121737   1.945   1.748  12.862  2.1267  0.3889 -0.0984
 3426SOL    HW221738   1.842   1.832  12.812 -1.3204 -1.7982 -0.7461
 3427SOL     OW21739   4.441   2.845   7.475  0.2056 -0.4639  0.0574
 3427SOL    HW121740   4.389   2.803   7.406  0.2778 -0.0852 -0.2249
 3427SOL    HW221741   4.520   2.792   7.467 -0.4073 -1.8106  2.9063
 3428SOL     OW21742   1.220   4.053   3.769  0.2449  0.3863  0.4684
 3428SOL    HW121743   1.149   3.993   3.743 -1.2080  2.1465  0.3769
 3428SOL    HW221744   1.261   4.081   3.688  0.0339 -1.4772 -0.2874
 3429SOL     OW21745   4.147   1.699   0.528 -0.5839 -0.1457 -0.3645
 3429SOL    HW121746   4.086   1.767   0.501  1.3671  1.3489 -1.0423
 3429SOL    HW221747   4.173   1.744   0.609 -0.8455  0.5944 -0.6886
 3430SOL     OW21748   2.202   0.753   5.005 -0.7186  0.2026  0.6004
 3430SOL    HW121749   2.228   0.781   5.093 -0.0820  0.5438  0.3089
 3430SOL    HW221750   2.129   0.811   4.985 -2.4626 -2.3266 -0.4092
 3431SOL     OW21751   0.725   1.758   3.143 -0.3467  0.0442  0.0533
 3431SOL    HW121752   0.782   1.833   3.126 -1.3617  0.7763 -0.1077
 3431SOL    HW221753   0.780   1.694   3.188 -2.0669  0.2863  2.5129
 3432SOL     OW21754   4.487   1.999   3.390 -0.0881  0.2604  0.2046
 3432SOL    HW121755   4.576   1.965   3.384  0.2160  0.5528  3.2509
 3432SOL    HW221756   4.497   2.046   3.472 -1.6554 -0.3357  0.7357
 3433SOL     OW21757   2.440   3.965   0.562  0.1288  0.3988  0.3862
 3433SOL    HW121758   2.357   3.919   0.548  1.7063 -2.1817 -0.4077
 3433SOL    HW221759   2.417   4.009   0.644 -0.3302 -0.1834  0.5712
 3434SOL     OW21760   1.601   0.131   8.131 -0.4414  0.7217 -0.0111
 3434SOL    HW121761   1.672   0.191   8.156 -0.3488  0.2119  0.9719
 3434SOL    HW221762   1.652   0.055   8.103 -0.7357 -0.4389  2.6074
 3435SOL     OW21763   2.424   2.713   3.836 -0.3936 -0.4464 -0.1241
 3435SOL    HW121764   2.509   2.684   3.870 -0.7284 -0.7951  0.4085
 3435SOL    HW221765   2.370   2.638   3.859 -0.4050 -0.2059  0.6428
 3436SOL     OW21766   3.105   4.185   5.697 -0.4648 -0.4947 -0.0597
 3436SOL    HW121767   3.169   4.142   5.754 -1.2738 -0.6751  0.7097
 3436SOL    HW221768   3.150   4.189   5.612 -2.3005 -1.5061 -1.0885
 3437SOL     OW21769   4.674   0.226   8.341  0.3061  0.1426 -0.0410
 3437SOL    HW121770   4.592   0.181   8.322  0.4789  0.7012 -2.1224
 3437SOL    HW221771   4.701   0.182   8.422 -0.7105 -0.1456  0.1388
 3438SOL     OW21772   1.393   3.728  13.385 -0.4565 -0.6462 -0.2734
 3438SOL    HW121773   1.458   3.691  13.326 -0.7458 -2.4143  0.5391
 3438SOL    HW221774   1.397   3.667  13.458 -1.2480 -1.1237 -0.6286
 3439SOL     OW21775   2.054   2.559   5.749 -0.6215 -0.0191  0.3962
 3439SOL    HW121776   2.148   2.544   5.751 -1.1533 -3.3422 -0.0043
 3439SOL    HW221777   2.020   2.490   5.806  0.8038 -0.0073  1.2343
 3440SOL     OW21778   2.873   1.875  12.217  0.3141 -0.4460 -0.2777
 3440SOL    HW121779   2.874   1.970  12.232 -0.6468 -0.3679 -0.7036
 3440SOL    HW221780   2.962   1.845  12.235  0.6145 -0.8145 -2.3902
 3441SOL     OW21781   4.373   1.431   3.896 -0.0563 -0.4854  0.1440
 3441SOL    HW121782   4.299   1.387   3.938  2.0580 -1.9594  2.3349
 3441SOL    HW221783   4.446   1.406   3.954  0.7372 -1.7519 -1.4038
 3442SOL     OW21784   0.153   0.292   1.918 -0.1157 -0.2675  0.1304
 3442SOL    HW121785   0.241   0.256   1.933 -0.2779  0.2074  2.2010
 3442SOL    HW221786   0.107   0.221   1.873 -3.1066  0.9952  1.2037
 3443SOL     OW21787   3.764   1.143  17.362 -0.5149 -0.1337  0.3710
 3443SOL    HW121788   3.777   1.172  17.453  0.9876  2.7598 -0.7709
 3443SOL    HW221789   3.809   1.059  17.356  0.9237  0.6899 -0.2733
 3444SOL     OW21790   3.009   1.733   8.967 -0.3270  0.1862 -0.1878
 3444SOL    HW121791   3.103   1.726   8.983 -0.4909 -0.3486  0.5692
 3444SOL    HW221792   2.973   1.726   9.056  0.5201  1.2402  0.2344
 3445SOL     OW21793   3.375   3.917  15.893  0.6354  0.1694 -0.7628
 3445SOL    HW121794   3.384   3.822  15.892 -1.2628 -0.0181  0.6335
 3445SOL    HW221795   3.462   3.948  15.921  0.5502  0.1303 -0.4517
 3446SOL     OW21796   1.625   0.506   6.488 -0.9555  0.3476 -0.3675
 3446SOL    HW121797   1.588   0.503   6.576 -0.4570 -2.6178 -0.2692
 3446SOL    HW221798   1.708   0.459   6.498 -1.3504 -0.3822 -0.4644
 3447SOL     OW21799   1.241   1.164   0.838 -0.0152  0.3810 -0.0600
 3447SOL    HW121800   1.230   1.086   0.783  0.6090 -1.4700  2.4493
 3447SOL    HW221801   1.334   1.160   0.861  0.0259  0.8344 -0.1444
 3448SOL     OW21802   2.635   0.775   6.172 -0.1091 -0.0300 -0.6973
 3448SOL    HW121803   2.682   0.836   6.230 -0.0901  1.5557 -2.3750
 3448SOL    HW221804   2.553   0.762   6.218 -1.4915 -0.1716 -3.2058
 3449SOL     OW21805   1.790   1.863   6.907  0.5683  0.4718  0.1090
 3449SOL    HW121806   1.726   1.932   6.930 -0.6980 -0.5956 -0.2047
 3449SOL    HW221807   1.876   1.892   6.938  0.6029 -0.5067  0.9481
 3450SOL     OW21808   1.221   4.424   9.622  0.2087 -0.1781 -0.0184
 3450SOL    HW121809   1.162   4.362   9.665  1.6046 -2.6768 -1.6694
 3450SOL    HW221810   1.259   4.457   9.703  1.4461 -0.1933 -0.6021
 3451SOL     OW21811   1.079   0.401   1.739  0.8398 -0.1373 -0.3053
 3451SOL    HW121812   1.066   0.422   1.831 -2.0397  2.8085 -1.3967
 3451SOL    HW221813   1.172   0.422   1.729  0.6484  0.9362  0.2410
 3452SOL     OW21814   4.159   1.818  14.719 -0.1808 -0.3800 -0.6324
 3452SOL    HW121815   4.074   1.832  14.678  0.5079 -0.2186 -2.0042
 3452SOL    HW221816   4.213   1.833  14.642 -0.1321 -0.7257 -0.6638
 3453SOL     OW21817   3.705   0.686   5.055  0.5464  0.6063  0.1967
 3453SOL    HW121818   3.763   0.631   5.108  0.4637  1.0073  0.6984
 3453SOL    HW221819   3.640   0.720   5.115 -0.0931 -1.1964  0.5205
 3454SOL     OW21820   3.222   2.280   1.617  0.0041 -0.4779  0.1147
 3454SOL    HW121821   3.145   2.234   1.651 -1.4164  1.8837  0.1272
 3454SOL    HW221822   3.297   2.230   1.648 -0.0275 -0.1322  0.7478
 3455SOL     OW21823   1.186   2.446   8.403  0.2326  0.2885  0.7059
 3455SOL    HW121824   1.098   2.480   8.388 -0.6161 -2.8928 -1.3867
 3455SOL    HW221825   1.198   2.412   8.315  2.5578  0.8994  0.7746
 3456SOL     OW21826   3.332   4.434   6.956 -0.1950 -0.3561  0.2159
 3456SOL    HW121827   3.320   4.529   6.958  3.5702  0.1407 -1.0159
 3456SOL    HW221828   3.425   4.429   6.975 -0.2710  1.4725  1.0918
 3457SOL     OW21829   3.229   0.892   8.180  0.1779  0.3075  0.3837
 3457SOL    HW121830   3.286   0.956   8.137 -1.7620  2.4022  1.0147
 3457SOL    HW221831   3.162   0.882   8.112  1.2432 -0.9032 -0.5117
 3458SOL     OW21832   0.131   2.495  10.560 -0.1218  0.3239  0.2573
 3458SOL    HW121833   0.091   2.423  10.512  2.4150 -0.8802 -0.0245
 3458SOL    HW221834   0.179   2.444  10.625 -0.3755 -0.5475 -0.2342
 3459SOL     OW21835   2.863   0.588  17.650  0.2618  0.7304 -0.1870
 3459SOL    HW121836   2.939   0.637  17.619 -1.8075  2.7592 -2.0476
 3459SOL    HW221837   2.891   0.498  17.637 -2.1158  0.0134 -0.3222
 3460SOL     OW21838   0.570   1.505   3.186 -0.1246  0.2372 -0.2776
 3460SOL    HW121839   0.600   1.568   3.121  3.5312 -0.0323  1.1767
 3460SOL    HW221840   0.567   1.560   3.264 -1.6163  2.1415 -1.6921
 3461SOL     OW21841   3.157   4.196   4.919 -0.0729 -0.0140 -0.0828
 3461SOL    HW121842   3.169   4.269   4.981  0.9720 -1.5324  1.4989
 3461SOL    HW221843   3.200   4.118   4.954  0.0743  0.4295  0.7386
 3462SOL     OW21844   0.954   4.456   2.128 -0.3287 -0.7825  0.1672
 3462SOL    HW121845   1.010   4.417   2.196 -0.9049 -1.1531  0.4227
 3462SOL    HW221846   0.912   4.515   2.191 -0.1286 -1.2639  0.7528
 3463SOL     OW21847   3.114   3.571   6.440  0.5249  0.3931 -0.9590
 3463SOL    HW121848   3.093   3.521   6.519 -0.9852  0.5617 -1.2521
 3463SOL    HW221849   3.075   3.656   6.459  0.4142  0.2839 -0.6939
 3464SOL     OW21850   4.016   1.277  11.703  0.3395 -0.4383  1.0047
 3464SOL    HW121851   4.085   1.334  11.736  1.4226 -0.2889 -1.5125
 3464SOL    HW221852   3.995   1.325  11.623  0.5356  1.6976  2.2642
 3465SOL     OW21853   2.498   3.283   0.138  0.5883  0.3455 -0.6177
 3465SOL    HW121854   2.411   3.245   0.126 -0.0661  1.8978 -0.8096
 3465SOL    HW221855   2.519   3.309   0.049  1.6051 -1.4240 -0.8940
 3466SOL     OW21856   3.802   3.837   6.482 -0.5112  0.1344 -0.0898
 3466SOL    HW121857   3.858   3.913   6.467  0.1768 -0.2967  0.2733
 3466SOL    HW221858   3.730   3.882   6.527 -0.7685  2.0378 -2.4159
 3467SOL     OW21859   1.403   0.357   3.878 -0.1988 -0.2556  0.2769
 3467SOL    HW121860   1.442   0.437   3.842  0.2471  0.3009  1.9737
 3467SOL    HW221861   1.451   0.293   3.826  1.4394  2.4473 -1.5820
 3468SOL     OW21862   4.356   0.396   6.235  0.2597  0.1139  0.6431
 3468SOL    HW121863   4.263   0.405   6.213  0.7379  4.2214  0.4675
 3468SOL    HW221864   4.379   0.488   6.243  0.3998  0.1955 -0.7590
 3469SOL     OW21865   3.226   1.206  14.712  0.3521 -0.4647  0.2920
 3469SOL    HW121866   3.264   1.131  14.665  1.5964 -0.2124  0.8810
 3469SOL    HW221867   3.145   1.169  14.747 -1.8727  0.8935 -3.3795
 3470SOL     OW21868   0.816   3.573  13.685 -0.1673 -0.2285 -0.3049
 3470SOL    HW121869   0.791   3.659  13.652  1.0650 -0.3999 -1.6417
 3470SOL    HW221870   0.832   3.603  13.775 -1.7795 -1.5642  0.4290
 3471SOL     OW21871   0.889   1.876  13.657  0.1496 -0.1634 -0.4056
 3471SOL    HW121872   0.818   1.833  13.705  1.6402 -1.8352  0.3097
 3471SOL    HW221873   0.915   1.931  13.730  0.0275  0.3030 -0.7115
 3472SOL     OW21874   3.953   3.972  16.822 -0.2600 -0.7663  0.0295
 3472SOL    HW121875   3.951   4.045  16.885  2.0826 -0.3480 -0.4038
 3472SOL    HW221876   4.044   3.951  16.843 -0.1929  0.7824  1.3437
 3473SOL     OW21877   3.807   1.930   6.130  0.2143  0.1535  0.2333
 3473SOL    HW121878   3.782   1.969   6.213 -0.0355 -0.4645  0.4490
 3473SOL    HW221879   3.719   1.917   6.093 -0.5838  3.6615  0.9252
 3474SOL     OW21880   3.908   3.273   4.474  0.4696  0.4639 -0.5587
 3474SOL    HW121881   3.940   3.355   4.436  2.8595  1.1442  2.9525
 3474SOL    HW221882   3.969   3.270   4.548  1.1477 -0.4234 -1.1389
 3475SOL     OW21883   4.082   0.321   7.020  0.6379  0.4764 -0.3315
 3475SOL    HW121884   4.036   0.289   6.943 -2.3113  1.4941  1.0361
 3475SOL    HW221885   4.038   0.405   7.032  2.5120  1.4854 -0.4960
 3476SOL     OW21886   0.903   2.557   8.450 -0.2420 -0.0755  0.4733
 3476SOL    HW121887   0.903   2.517   8.537 -2.6386 -0.9488  0.0665
 3476SOL    HW221888   0.847   2.495   8.403  1.5885 -1.1295 -0.3199
 3477SOL     OW21889   0.884   2.695   0.877  0.1172 -0.2138  0.6265
 3477SOL    HW121890   0.979   2.700   0.882  0.0487 -0.9557  2.9590
 3477SOL    HW221891   0.863   2.703   0.970 -0.1302  1.7912  0.4062
 3478SOL     OW21892   4.079   1.984   3.144  0.0197 -0.6239 -0.3445
 3478SOL    HW121893   4.173   2.004   3.145 -0.0100 -0.2991 -3.6901
 3478SOL    HW221894   4.042   2.024   3.066  0.1771 -0.8090 -0.5132
 3479SOL     OW21895   4.311   1.287   6.104 -0.0838 -0.6818 -0.0261
 3479SOL    HW121896   4.352   1.231   6.038 -0.9066  0.7859 -1.7729
 3479SOL    HW221897   4.349   1.254   6.186 -1.7559  1.3420  1.5473
 3480SOL     OW21898   3.562   2.569   3.125  0.4820 -0.2326  0.0140
 3480SOL    HW121899   3.542   2.513   3.050 -0.0753 -0.9188  0.6652
 3480SOL    HW221900   3.547   2.507   3.197  0.1484 -0.8616 -0.5967
 3481SOL     OW21901   1.689   4.695   5.271 -0.3551 -0.0642 -0.0215
 3481SOL    HW121902   1.725   4.606   5.266 -0.7184 -0.1338 -1.4370
 3481SOL    HW221903   1.775   0.012   5.281 -1.0164  0.8969  1.8117
 3482SOL     OW21904   1.752   1.675   6.235  0.4910  0.1427  0.1508
 3482SOL    HW121905   1.736   1.638   6.322 -0.0551 -0.0690 -0.0391
 3482SOL    HW221906   1.833   1.625   6.222 -0.6421 -1.4679 -0.8313
 3483SOL     OW21907   1.611   3.433   7.163 -0.6944 -0.2262 -0.2448
 3483SOL    HW121908   1.655   3.356   7.125 -0.7934 -0.7197  0.6395
 3483SOL    HW221909   1.665   3.469   7.233 -0.5178  0.9248 -0.9671
 3484SOL     OW21910   3.826   1.573   4.171  0.5775 -0.3657  0.2822
 3484SOL    HW121911   3.736   1.560   4.200 -0.1186  1.1053 -1.2006
 3484SOL    HW221912   3.858   1.585   4.260 -0.9088 -1.4463  0.9561
 3485SOL     OW21913   1.829   2.509   7.446 -0.1770 -0.0032 -0.0711
 3485SOL    HW121914   1.857   2.467   7.365  0.1534  2.4082 -1.2089
 3485SOL    HW221915   1.743   2.534   7.413  1.2428  2.4837 -1.8571
 3486SOL     OW21916   0.506   0.714   6.630 -0.2062  0.3773 -0.0433
 3486SOL    HW121917   0.519   0.716   6.725  2.3745  1.6344 -0.4062
 3486SOL    HW221918   0.457   0.633   6.615  0.2696 -0.1673  1.3309
 3487SOL     OW21919   3.109   1.124  15.788 -0.2174  0.3849  0.4088
 3487SOL    HW121920   3.083   1.121  15.880 -4.2195  0.7976 -0.7142
 3487SOL    HW221921   3.083   1.035  15.765  0.9942  0.4550 -1.2318
 3488SOL     OW21922   0.395   1.930   6.666 -0.6535 -0.4499  0.1770
 3488SOL    HW121923   0.379   1.903   6.575 -1.1522 -1.2985  0.5117
 3488SOL    HW221924   0.304   1.919   6.694 -0.2559 -3.7730  0.1981
 3489SOL     OW21925   1.931   1.829  13.674 -0.6421 -0.0270 -0.1562
 3489SOL    HW121926   1.865   1.887  13.636 -1.2055 -0.7596 -0.3089
 3489SOL    HW221927   1.999   1.886  13.708 -1.0106 -1.2297  2.5716
 3490SOL     OW21928   2.446   4.033   4.530  0.2334  0.3884  0.6610
 3490SOL    HW121929   2.435   3.942   4.501 -0.6668  0.6971  0.0498
 3490SOL    HW221930   2.437   4.016   4.624 -0.7193 -2.0401  0.1449
 3491SOL     OW21931   1.319   1.008  15.430  0.0442  0.4089 -0.1517
 3491SOL    HW121932   1.264   0.958  15.490  1.4849 -0.2278  0.6406
 3491SOL    HW221933   1.406   0.975  15.452 -0.7096 -1.7492 -0.3546
 3492SOL     OW21934   1.507   4.371   2.035 -0.0623  0.6276  0.2383
 3492SOL    HW121935   1.430   4.377   2.091 -0.7659 -0.0231 -0.6590
 3492SOL    HW221936   1.519   4.454   1.988  1.8158 -0.3254 -0.9595
 3493SOL     OW21937   0.566   2.332   7.970 -0.1707 -0.3087  0.4975
 3493SOL    HW121938   0.574   2.425   7.950 -1.6732 -0.0510  1.0928
 3493SOL    HW221939   0.472   2.318   7.959 -0.3697  1.3248  0.0816
 3494SOL     OW21940   2.310   2.389   3.851  0.0656  0.4667 -0.2280
 3494SOL    HW121941   2.404   2.408   3.855  0.5973 -2.5070  1.0507
 3494SOL    HW221942   2.306   2.319   3.786  1.3247  1.5285 -1.4348
 3495SOL     OW21943   4.186   0.719   6.576  0.2070  0.4890 -0.1928
 3495SOL    HW121944   4.272   0.680   6.590  0.0541 -0.3836 -1.7038
 3495SOL    HW221945   4.185   0.773   6.655  1.5923  0.4594 -0.1613
 3496SOL     OW21946   0.618   3.263   5.650  0.3614  0.1589  0.0243
 3496SOL    HW121947   0.573   3.343   5.677 -0.5903 -0.4104  0.1343
 3496SOL    HW221948   0.545   3.223   5.602  0.3548  0.2402 -0.0337
 3497SOL     OW21949   1.996   1.701   4.330 -0.1804  0.0111  0.0900
 3497SOL    HW121950   1.951   1.619   4.313 -0.2019 -0.0755  0.5882
 3497SOL    HW221951   1.960   1.727   4.415 -0.3134 -3.1435  0.9705
 3498SOL     OW21952   0.926   1.270   6.835 -0.0779 -0.4130 -0.0707
 3498SOL    HW121953   1.003   1.238   6.787  0.4581 -0.3994  0.7831
 3498SOL    HW221954   0.922   1.201   6.901 -1.5157  0.0514  0.3382
 3499SOL     OW21955   1.270   4.185   6.292  0.1552 -0.1433 -0.5578
 3499SOL    HW121956   1.342   4.229   6.247 -2.2651  0.8770 -3.4471
 3499SOL    HW221957   1.205   4.255   6.300 -0.9196 -0.9232 -2.4510
 3500SOL     OW21958   2.716   2.869   6.378 -0.4364 -0.0072 -0.1965
 3500SOL    HW121959   2.715   2.961   6.352  1.6023  0.3690  1.0689
 3500SOL    HW221960   2.795   2.837   6.333  0.7105  3.2172 -0.4396
 3501SOL     OW21961   0.721   1.190  11.572 -0.0050  0.0782 -0.1188
 3501SOL    HW121962   0.730   1.254  11.642  0.8185  1.4416 -1.4831
 3501SOL    HW221963   0.653   1.128  11.599 -0.3033  0.3274 -0.2993
 3502SOL     OW21964   3.761   3.522   7.452  0.5275 -0.1252 -0.0858
 3502SOL    HW121965   3.783   3.573   7.530 -1.0029 -0.0632  0.3059
 3502SOL    HW221966   3.836   3.537   7.394 -0.7433  2.3503 -1.0751
 3503SOL     OW21967   0.902   3.371   6.523  0.2750 -0.0241 -0.6667
 3503SOL    HW121968   0.956   3.343   6.598  0.3535  1.9567 -0.0006
 3503SOL    HW221969   0.816   3.370   6.565  0.3860 -0.4024 -0.4434
 3504SOL     OW21970   0.708   2.425   5.704 -0.5821 -0.5449 -0.3913
 3504SOL    HW121971   0.637   2.361   5.699 -1.7994  1.0419 -3.6239
 3504SOL    HW221972   0.668   2.508   5.729  1.0729 -0.4494  1.8666
 3505SOL     OW21973   2.152   1.571   3.957  0.4322  0.4649  0.6926
 3505SOL    HW121974   2.167   1.507   4.026 -0.6445 -0.6771 -0.1182
 3505SOL    HW221975   2.073   1.613   3.993 -0.4910 -1.0740  0.4624
 3506SOL     OW21976   3.971   3.440   1.390  0.3607 -0.2060 -0.3458
 3506SOL    HW121977   4.019   3.521   1.373 -1.6080  0.6327 -1.8985
 3506SOL    HW221978   3.921   3.441   1.308 -0.9107  2.1989  0.4745
 3507SOL     OW21979   3.071   2.392   4.007 -0.2430  0.2624 -0.2265
 3507SOL    HW121980   3.164   2.376   4.017 -0.6114  0.1550  2.8972
 3507SOL    HW221981   3.059   2.345   3.924  1.4899  1.1055 -0.9501
 3508SOL     OW21982   1.184   2.259   8.596 -0.3469  0.0962  0.0649
 3508SOL    HW121983   1.201   2.340   8.547 -0.3308 -0.8721 -1.5027
 3508SOL    HW221984   1.165   2.292   8.684  0.5155 -1.5133  0.8305
 3509SOL     OW21985   2.472   3.325   2.164 -0.4451 -0.1938 -0.0391
 3509SOL    HW121986   2.565   3.321   2.187 -0.4208  1.5851  0.1409
 3509SOL    HW221987   2.480   3.370   2.080 -1.6885 -0.9487 -0.5651
 3510SOL     OW21988   0.387   3.432   1.816 -0.7652 -0.9095  0.2224
 3510SOL    HW121989   0.296   3.459   1.804 -0.6467 -0.4358  0.3697
 3510SOL    HW221990   0.387   3.376   1.893 -0.9946 -1.8505 -0.4608
 3511SOL     OW21991   4.081   3.557   2.898 -0.5128  0.3882 -0.3944
 3511SOL    HW121992   4.116   3.585   2.983  0.3390  2.4151 -1.4194
 3511SOL    HW221993   4.068   3.463   2.915 -0.9895  0.4624 -0.3341
 3512SOL     OW21994   1.966   4.386   5.483  0.0482 -0.6688  0.3142
 3512SOL    HW121995   2.061   4.375   5.482  0.0166 -1.0397  1.4095
 3512SOL    HW221996   1.942   4.383   5.576 -1.7179 -1.2581 -0.1582
 3513SOL     OW21997   2.490   1.506  13.723 -0.4950 -0.1614 -0.2700
 3513SOL    HW121998   2.582   1.511  13.696 -0.5740  0.6878 -0.3773
 3513SOL    HW221999   2.481   1.571  13.792 -0.1338 -1.9413  1.4440
 3514SOL     OW22000   0.199   4.299  15.230  0.7764 -0.2769  0.3196
 3514SOL    HW122001   0.123   4.355  15.219  0.3798 -1.3644 -2.2677
 3514SOL    HW222002   0.175   4.219  15.183 -0.4516 -0.5577  1.4006
 3515SOL     OW22003   0.775   4.229   5.207  0.5043 -0.2140  0.3816
 3515SOL    HW122004   0.771   4.282   5.287 -1.1198 -0.5643  0.5214
 3515SOL    HW222005   0.688   4.245   5.171 -0.4768 -2.0730  1.9547
 3516SOL     OW22006   2.647   3.005   5.623  0.0287 -0.4911 -0.1197
 3516SOL    HW122007   2.570   3.056   5.596  0.8262 -0.1486 -1.7344
 3516SOL    HW222008   2.681   3.066   5.689  0.9959  0.3512 -1.3910
 3517SOL     OW22009   1.830   3.323   4.323 -0.2115 -0.1724 -0.3419
 3517SOL    HW122010   1.781   3.275   4.256 -1.4910 -1.0852  1.2515
 3517SOL    HW222011   1.841   3.406   4.276  0.0885  1.0182  1.7993
 3518SOL     OW22012   0.088   2.405   9.186  0.4323  0.0701  0.4376
 3518SOL    HW122013   0.079   2.413   9.091  0.9211  1.5690  0.5229
 3518SOL    HW222014   4.721   2.379   9.206  0.7870  0.8573  3.0115
 3519SOL     OW22015   0.454   2.143   4.928  0.0755 -1.0575  0.5414
 3519SOL    HW122016   0.451   2.072   4.993 -0.8742 -1.7165 -0.2248
 3519SOL    HW222017   0.382   2.117   4.871  0.2706 -2.1834  0.7956
 3520SOL     OW22018   1.496   0.222   2.302 -0.0433  0.2347  0.3740
 3520SOL    HW122019   1.417   0.252   2.348 -0.3444  0.2064 -0.1143
 3520SOL    HW222020   1.564   0.288   2.314  1.2639 -1.2435  0.9658
 3521SOL     OW22021   1.546   2.120   1.918 -0.1391  0.0268 -0.1602
 3521SOL    HW122022   1.559   2.031   1.887  1.0224 -0.1521  0.8640
 3521SOL    HW222023   1.579   2.170   1.843 -0.9488  0.0027 -0.5357
 3522SOL     OW22024   1.260   0.394   4.770  0.8586  0.3665 -0.0822
 3522SOL    HW122025   1.208   0.445   4.708 -0.8255 -0.4092  0.6995
 3522SOL    HW222026   1.347   0.410   4.733 -0.0404  2.4431 -1.2930
 3523SOL     OW22027   4.620   1.483  13.805 -0.3921 -0.0858  0.2622
 3523SOL    HW122028   4.670   1.539  13.865  0.3672 -1.1389  0.6170
 3523SOL    HW222029   4.536   1.525  13.819 -1.8135 -1.4944 -3.9995
 3524SOL     OW22030   2.006   1.732   4.636  0.3716  0.4140 -0.2007
 3524SOL    HW122031   1.951   1.803   4.604 -1.5193 -0.3742  1.3156
 3524SOL    HW222032   1.934   1.674   4.661  2.4041 -1.8890  0.3892
 3525SOL     OW22033   2.497   3.339  12.930 -0.2446  0.2080 -0.2358
 3525SOL    HW122034   2.497   3.433  12.946  0.0696  0.2144 -0.2754
 3525SOL    HW222035   2.579   3.331  12.881 -1.3853  0.1740 -2.1026
 3526SOL     OW22036   4.185   2.762   6.393  0.0899  0.4898 -0.1303
 3526SOL    HW122037   4.230   2.797   6.316 -0.0539  2.0439  0.5025
 3526SOL    HW222038   4.115   2.712   6.351  0.7744 -1.0757  0.5845
 3527SOL     OW22039   0.682   3.233   7.724  0.4120 -0.7304 -0.6475
 3527SOL    HW122040   0.753   3.297   7.734  1.0871 -1.6053  0.2157
 3527SOL    HW222041   0.730   3.158   7.689 -1.2635 -1.1579 -2.0552
 3528SOL     OW22042   2.335   3.431   4.551  0.1739 -0.1594 -0.2845
 3528SOL    HW122043   2.289   3.349   4.565  2.3474 -1.3335  0.0551
 3528SOL    HW222044   2.303   3.450   4.463 -0.3204 -2.3270 -0.5464
 3529SOL     OW22045   4.663   2.692   9.258 -0.2974  0.0458  0.3818
 3529SOL    HW122046   4.612   2.774   9.260 -0.3856  0.0237 -1.5926
 3529SOL    HW222047   4.606   2.641   9.202 -0.8784  0.1657  0.8617
 3530SOL     OW22048   1.153   4.569   0.726 -0.0465 -0.5083 -0.4833
 3530SOL    HW122049   1.086   4.635   0.744 -1.1870 -1.7094 -0.3585
 3530SOL    HW222050   1.232   4.623   0.731  0.7805 -1.9532  1.8788
 3531SOL     OW22051   2.380   3.180  10.171 -0.4971  0.3644 -0.3442
 3531SOL    HW122052   2.321   3.223  10.234  0.2488  1.8013 -0.6372
 3531SOL    HW222053   2.312   3.145  10.113  0.8853  0.5122 -2.0615
 3532SOL     OW22054   1.370   0.697   0.075 -0.0819 -0.1614  0.0673
 3532SOL    HW122055   1.293   0.749   0.101 -2.4994 -2.1929 -3.0973
 3532SOL    HW222056   1.432   0.756   0.031 -0.7693  0.7872  0.3720
 3533SOL     OW22057   3.578   2.418   8.119 -0.1574  0.4541  0.6249
 3533SOL    HW122058   3.535   2.335   8.138 -2.5890  1.9303  1.6761
 3533SOL    HW222059   3.637   2.429   8.193  0.4801  0.9295  0.0486
 3534SOL     OW22060   3.937   4.016   6.865 -0.4420  0.2025 -0.0578
 3534SOL    HW122061   3.973   3.976   6.787  0.6175  0.2779  0.3995
 3534SOL    HW222062   4.014   4.013   6.921  0.9049 -3.2159 -2.1052
 3535SOL     OW22063   4.480   4.669  17.211 -0.0368 -0.6031 -0.2962
 3535SOL    HW122064   4.430   0.020  17.247 -1.5058 -2.5088  1.6020
 3535SOL    HW222065   4.434   4.667  17.127  0.8837 -0.5866 -0.8002
 3536SOL     OW22066   3.353   2.891  12.174  0.4541 -0.4926 -0.2214
 3536SOL    HW122067   3.317   2.802  12.169  3.7494 -1.6594 -3.0249
 3536SOL    HW222068   3.447   2.875  12.166  0.2053 -1.2861 -1.6359
 3537SOL     OW22069   0.678   2.413  17.034 -0.1734  0.0206 -0.1227
 3537SOL    HW122070   0.683   2.334  16.980 -0.8849  0.5551 -0.9892
 3537SOL    HW222071   0.647   2.381  17.119 -0.8463  0.1156 -0.3298
 3538SOL     OW22072   2.968   0.354  12.285  0.5477  0.2832 -0.1650
 3538SOL    HW122073   2.915   0.385  12.212  2.2645 -0.0550 -1.5465
 3538SOL    HW222074   3.041   0.415  12.282 -0.3737  1.3877 -0.1621
 3539SOL     OW22075   3.196   4.078  11.885 -0.0682  0.8063 -0.2570
 3539SOL    HW122076   3.218   4.117  11.800  1.2579  0.4377 -0.0925
 3539SOL    HW222077   3.259   4.006  11.887 -0.6133  0.4016  1.4490
 3540SOL     OW22078   2.726   2.652   8.531  0.5425  0.5304 -0.1284
 3540SOL    HW122079   2.659   2.625   8.593  1.7669  1.2977  1.5291
 3540SOL    HW222080   2.677   2.652   8.449  1.1267  3.0409 -0.4994
 3541SOL     OW22081   2.115   2.515   0.998 -0.7848  0.1863  0.2594
 3541SOL    HW122082   2.047   2.581   1.012 -0.9928 -0.1317  0.7753
 3541SOL    HW222083   2.191   2.571   1.012 -1.0320  0.0095  2.3573
 3542SOL     OW22084   3.356   3.200   9.275 -0.0616 -0.0659  0.2073
 3542SOL    HW122085   3.262   3.220   9.279  0.1745  0.7590  1.6181
 3542SOL    HW222086   3.368   3.114   9.316 -1.7352 -1.0115 -1.2951
 3543SOL     OW22087   0.083   0.145   3.803 -0.1501 -0.0901  0.6750
 3543SOL    HW122088   0.113   0.227   3.765  0.2998 -0.6674 -0.2126
 3543SOL    HW222089   4.711   0.149   3.785 -0.3502  0.8847  1.9520
 3544SOL     OW22090   3.402   1.639   7.316 -0.2773 -0.5155  0.2814
 3544SOL    HW122091   3.334   1.706   7.306 -0.4907 -0.8281 -0.3201
 3544SOL    HW222092   3.421   1.641   7.410 -1.5458 -2.9135  0.5958
 3545SOL     OW22093   0.077   3.670   1.434  0.3245  0.3347 -0.0839
 3545SOL    HW122094   0.068   3.628   1.348 -1.9216 -2.7955  1.7160
 3545SOL    HW222095   0.125   3.748   1.407  0.8502  0.8581  2.3809
 3546SOL     OW22096   4.546   2.479  13.812  0.4712  0.2671  0.1520
 3546SOL    HW122097   4.540   2.501  13.905 -2.1827  0.7931 -0.1507
 3546SOL    HW222098   4.520   2.561  13.770 -0.1972 -1.0035 -1.8910
 3547SOL     OW22099   2.810   2.387  16.927 -0.1000  0.4131  0.4055
 3547SOL    HW122100   2.715   2.394  16.917 -0.0511 -0.6911 -0.7157
 3547SOL    HW222101   2.817   2.402  17.022 -0.0001 -2.3094  0.8201
 3548SOL     OW22102   2.304   1.571   7.835 -0.0299  0.1978  0.0863
 3548SOL    HW122103   2.289   1.656   7.877  0.7684 -0.2979  1.3761
 3548SOL    HW222104   2.226   1.528   7.871  2.0078 -1.3291  2.6542
 3549SOL     OW22105   3.516   1.026   5.222 -0.0022 -0.3647  0.6535
 3549SOL    HW122106   3.489   1.113   5.249  0.6171  0.2269 -0.6481
 3549SOL    HW222107   3.527   1.033   5.127  2.0798 -0.1377  0.9099
 3550SOL     OW22108   0.249   2.308   9.627 -0.7719 -0.2882 -0.3958
 3550SOL    HW122109   0.271   2.398   9.652  2.3685 -0.8228 -1.1861
 3550SOL    HW222110   0.265   2.306   9.533  0.3423 -2.0366 -0.1520
 3551SOL     OW22111   0.453   0.568   4.092  0.1448  0.4217  0.6446
 3551SOL    HW122112   0.518   0.601   4.154  1.3101 -0.4884 -0.1040
 3551SOL    HW222113   0.385   0.540   4.154 -1.1086 -1.9659 -1.7587
 3552SOL     OW22114   0.451   4.717   3.976 -0.0055 -0.5986 -0.0558
 3552SOL    HW122115   0.538   4.682   3.995 -0.4008 -1.8972 -0.6504
 3552SOL    HW222116   0.481   0.075   3.934  0.1004  0.4633  2.0479
 3553SOL     OW22117   0.495   2.523  13.786  0.2763 -0.4480  0.1725
 3553SOL    HW122118   0.401   2.525  13.800  0.4625 -0.4206  1.4617
 3553SOL    HW222119   0.504   2.443  13.735 -0.3995 -0.0337 -0.5882
 3554SOL     OW22120   0.594   1.607  11.738  0.1770 -0.6008  0.2640
 3554SOL    HW122121   0.617   1.524  11.781  0.0227 -1.1553 -0.7163
 3554SOL    HW222122   0.542   1.566  11.669 -0.4329  1.2893 -0.3947
 3555SOL     OW22123   1.578   1.352  10.940 -0.4365 -0.2204 -0.3049
 3555SOL    HW122124   1.544   1.422  10.884  0.4026  1.3597  1.1974
 3555SOL    HW222125   1.658   1.395  10.970 -1.6300  2.0359 -0.3459
 3556SOL     OW22126   4.095   2.200   5.993 -0.0314 -0.3054  0.4044
 3556SOL    HW122127   4.077   2.294   6.003  1.7698  0.1554 -0.7794
 3556SOL    HW222128   4.007   2.168   5.971 -0.7939  1.2587  1.1477
 3557SOL     OW22129   0.484   2.217   7.642 -0.3738  0.4142 -0.3323
 3557SOL    HW122130   0.393   2.195   7.664  0.0893  2.9845  4.0991
 3557SOL    HW222131   0.529   2.148   7.690  0.7909  1.3790 -0.0446
 3558SOL     OW22132   3.351   0.011   5.557 -0.3814 -0.0499 -0.2306
 3558SOL    HW122133   3.426   0.064   5.585  0.3186 -0.9753 -0.3189
 3558SOL    HW222134   3.303   0.016   5.640 -1.7674  1.3766 -1.1277
 3559SOL     OW22135   0.101   1.437   9.033 -0.3323  0.0277  0.6875
 3559SOL    HW122136   0.093   1.344   9.056 -0.9813  0.5096  2.4585
 3559SOL    HW222137   0.161   1.469   9.102 -0.7157 -0.5701  1.2981
 3560SOL     OW22138   0.414   0.745   0.935 -0.0003  0.3793  0.3139
 3560SOL    HW122139   0.467   0.796   0.997 -2.3016  1.6308  1.2373
 3560SOL    HW222140   0.355   0.704   0.997  0.1118  0.7465  0.6647
 3561SOL     OW22141   2.896   0.111   8.892 -0.0649  0.0000  0.3380
 3561SOL    HW122142   2.818   0.167   8.895  0.3157  0.4980  0.9575
 3561SOL    HW222143   2.855   0.026   8.908  1.3696 -0.9599 -1.1336
 3562SOL     OW22144   3.670   3.901   2.449 -0.8551 -0.0813 -0.5482
 3562SOL    HW122145   3.602   3.919   2.513  1.3047 -0.1153  1.7415
 3562SOL    HW222146   3.730   3.974   2.465  0.6242 -1.7329  1.3985
 3563SOL     OW22147   3.790   0.201  11.629 -0.1754 -0.4426 -0.2337
 3563SOL    HW122148   3.872   0.157  11.649  1.0751  2.4866  1.0044
 3563SOL    HW222149   3.799   0.280  11.682  1.4941 -0.8637  0.0924
 3564SOL     OW22150   4.247   1.288   8.925 -0.5556 -0.2977 -0.3708
 3564SOL    HW122151   4.166   1.258   8.884 -0.8287 -0.1474  0.0526
 3564SOL    HW222152   4.222   1.342   9.000  0.8697  0.3577 -0.3749
 3565SOL     OW22153   1.512   4.202   5.629 -0.1935 -0.2060  0.1271
 3565SOL    HW122154   1.478   4.243   5.550 -1.0812  1.8149  1.5549
 3565SOL    HW222155   1.500   4.274   5.690 -0.2836 -0.2630  0.1759
 3566SOL     OW22156   2.969   2.613  15.960 -0.0740  0.1599  0.3091
 3566SOL    HW122157   2.904   2.676  15.930  0.7650  0.3837 -1.0169
 3566SOL    HW222158   2.958   2.548  15.891  1.5551  0.4869 -0.2524
 3567SOL     OW22159   1.388   0.405   5.166  0.0661 -0.1783 -0.8450
 3567SOL    HW122160   1.350   0.372   5.084 -1.1424  2.6485 -1.4037
 3567SOL    HW222161   1.471   0.358   5.152 -0.0893 -0.4231 -0.9497
 3568SOL     OW22162   4.068   0.681   4.439 -0.0159  0.0494  0.2104
 3568SOL    HW122163   4.112   0.617   4.383  0.3420  1.0914 -0.6994
 3568SOL    HW222164   4.043   0.745   4.372  0.5970  1.4740  1.3254
 3569SOL     OW22165   2.099   1.370   1.715 -0.2218 -0.0651  0.1047
 3569SOL    HW122166   2.084   1.454   1.673 -0.1455 -0.8810 -1.5771
 3569SOL    HW222167   2.178   1.325   1.684  0.3140  2.0537 -1.6248
 3570SOL     OW22168   4.631   1.699  16.735  0.5615 -0.5394  0.5683
 3570SOL    HW122169   4.650   1.660  16.820 -1.0182 -1.4796  0.4911
 3570SOL    HW222170   4.643   1.628  16.672 -0.1985 -0.8941  0.8202
 3571SOL     OW22171   2.103   2.857   4.761 -0.0981  0.1284  0.0808
 3571SOL    HW122172   2.151   2.785   4.803 -2.3915 -1.3708  0.1543
 3571SOL    HW222173   2.179   2.897   4.719 -0.7644 -1.6424 -2.8395
 3572SOL     OW22174   0.489   4.482  12.882 -0.3708 -0.3597 -0.0057
 3572SOL    HW122175   0.439   4.418  12.831 -3.6159 -0.3975  3.1845
 3572SOL    HW222176   0.526   4.540  12.816  1.9470 -0.4056  1.2502
 3573SOL     OW22177   0.782   4.149   7.891 -0.1266 -0.6815 -0.3053
 3573SOL    HW122178   0.874   4.124   7.885 -0.2109 -1.2792  0.8399
 3573SOL    HW222179   0.791   4.212   7.963  0.6083  0.9478 -1.8316
 3574SOL     OW22180   2.432   1.954   3.684 -0.2450 -0.1704 -0.4621
 3574SOL    HW122181   2.443   1.883   3.622 -3.5454 -1.1506  0.0740
 3574SOL    HW222182   2.359   1.919   3.735  0.2667 -2.7364 -1.4953
 3575SOL     OW22183   0.451   2.224   1.871  0.0743  0.0529 -0.1058
 3575SOL    HW122184   0.458   2.313   1.836 -1.3080  0.9989  1.9629
 3575SOL    HW222185   0.357   2.215   1.854 -0.0018  0.2778  0.1924
 3576SOL     OW22186   0.483   0.266   5.271  0.4766 -0.6100  0.1371
 3576SOL    HW122187   0.466   0.299   5.182  0.8944 -0.3540  0.1544
 3576SOL    HW222188   0.546   0.327   5.309  0.0913 -1.2418  1.7678
 3577SOL     OW22189   0.771   1.093   8.709  0.2872 -0.5092  0.7066
 3577SOL    HW122190   0.777   1.018   8.650  1.9189 -0.5106  0.8605
 3577SOL    HW222191   0.713   1.158   8.671  0.0838 -1.0563  0.0905
 3578SOL     OW22192   1.081   0.700   1.823 -0.1963 -0.0264 -0.0922
 3578SOL    HW122193   1.061   0.786   1.788  0.8505 -0.3405 -1.4621
 3578SOL    HW222194   1.176   0.693   1.810 -0.4165  0.1980 -1.7379
 3579SOL     OW22195   2.106   4.512  16.841 -0.8379 -0.1549  0.3285
 3579SOL    HW122196   2.140   4.499  16.752 -2.8489 -1.3431 -0.2717
 3579SOL    HW222197   2.086   4.605  16.846 -0.4538  0.1356 -3.2808
 3580SOL     OW22198   4.007   4.009   8.262 -0.6960  0.6412  0.2392
 3580SOL    HW122199   4.016   4.045   8.174 -0.6478 -0.7661 -0.3388
 3580SOL    HW222200   4.054   3.926   8.251  1.7686  1.7505  2.5350
 3581SOL     OW22201   4.323   3.889   8.079 -0.2438  0.3500  0.3443
 3581SOL    HW122202   4.328   3.889   7.983 -0.9835  1.3796  0.3016
 3581SOL    HW222203   4.250   3.827   8.086  0.4903 -0.6151 -0.4463
 3582SOL     OW22204   4.149   3.085   2.324  0.1838 -0.3292  0.4425
 3582SOL    HW122205   4.219   3.022   2.341  1.0663  0.1247 -1.4474
 3582SOL    HW222206   4.201   3.165   2.336  1.0361 -1.1176  2.0462
 3583SOL     OW22207   1.437   3.648   6.218  0.0393  0.5303  0.0267
 3583SOL    HW122208   1.511   3.641   6.279  0.2914 -1.9665 -0.5446
 3583SOL    HW222209   1.439   3.743   6.219  0.4055  0.5051  3.0411
 3584SOL     OW22210   1.526   2.271   0.171 -0.0268 -0.1089  0.2694
 3584SOL    HW122211   1.472   2.334   0.220 -0.9342  1.5759 -2.9041
 3584SOL    HW222212   1.589   2.247   0.239 -2.6439 -0.0829  2.6734
 3585SOL     OW22213   3.104   2.666  10.738 -0.1034 -0.0940 -0.2107
 3585SOL    HW122214   3.064   2.752  10.723  0.6868  0.6560  1.8554
 3585SOL    HW222215   3.192   2.698  10.760  0.3946 -2.1517  0.8005
 3586SOL     OW22216   3.882   2.274   4.376 -0.1254  0.1679  0.4371
 3586SOL    HW122217   3.902   2.218   4.452  1.6652 -0.3120 -0.3864
 3586SOL    HW222218   3.798   2.310   4.402 -0.4447 -0.3017  0.0603
 3587SOL     OW22219   2.305   4.523   8.525 -0.8758 -0.4320  0.9686
 3587SOL    HW122220   2.291   4.507   8.432 -3.6262 -3.4399  1.9061
 3587SOL    HW222221   2.378   4.467   8.553  0.9844  1.7328  0.5132
 3588SOL     OW22222   0.139   1.615   0.827  0.1928 -0.6486 -0.1959
 3588SOL    HW122223   0.072   1.669   0.786  0.4850 -0.1682 -0.0421
 3588SOL    HW222224   0.189   1.683   0.873  0.2086 -0.4421 -0.5201
 3589SOL     OW22225   0.857   2.160   6.027 -0.4227 -0.1491  0.0343
 3589SOL    HW122226   0.861   2.071   6.062  1.7657 -0.5789 -1.2959
 3589SOL    HW222227   0.812   2.214   6.092  0.2977  2.7661 -1.8379
 3590SOL     OW22228   1.018   3.190   3.932  0.0019  0.4875  0.4247
 3590SOL    HW122229   1.111   3.170   3.942 -0.3208 -0.2737  2.0268
 3590SOL    HW222230   1.011   3.281   3.905 -0.8021  0.4179  0.4016
 3591SOL     OW22231   2.945   3.126   3.058  0.8741 -0.4720 -0.2091
 3591SOL    HW122232   2.941   3.195   2.991  0.2815 -1.7361 -1.4670
 3591SOL    HW222233   3.038   3.104   3.063  0.2269 -2.9563  0.6095
 3592SOL     OW22234   3.904   2.338  17.257 -0.0350  0.0677 -0.0881
 3592SOL    HW122235   3.951   2.304  17.181  0.5778  0.1345  0.2640
 3592SOL    HW222236   3.964   2.331  17.331 -0.3153 -0.1726  0.1128
 3593SOL     OW22237   0.724   0.619  15.504  0.0536  0.5651  0.0138
 3593SOL    HW122238   0.638   0.655  15.482 -1.4808 -3.8040 -1.1071
 3593SOL    HW222239   0.747   0.669  15.582  1.2388 -0.6171  0.4229
 3594SOL     OW22240   2.651   0.841  17.128  1.0614  0.4808 -0.3735
 3594SOL    HW122241   2.731   0.790  17.141  0.8593  0.8424  2.1923
 3594SOL    HW222242   2.664   0.894  17.207  0.6659 -1.6126  1.0973
 3595SOL     OW22243   2.256   2.997   5.816 -0.4780  0.2450  0.3059
 3595SOL    HW122244   2.194   2.928   5.843  1.3235 -1.7734 -0.7498
 3595SOL    HW222245   2.237   3.060   5.886  1.1844  0.3869  0.6157
 3596SOL     OW22246   0.209   2.625  12.960  0.2358 -0.2711  0.4557
 3596SOL    HW122247   0.131   2.661  13.002  0.0369  1.8380 -1.7346
 3596SOL    HW222248   0.164   2.546  12.930 -2.6036  2.1371 -1.6252
 3597SOL     OW22249   3.412   4.114   7.118  0.5537 -0.1693  0.2386
 3597SOL    HW122250   3.466   4.171   7.172 -0.8159  1.3318  0.0178
 3597SOL    HW222251   3.436   4.156   7.035 -0.5339  1.7075  0.8706
 3598SOL     OW22252   1.822   1.180  14.499  0.4258  0.1462 -0.4023
 3598SOL    HW122253   1.731   1.149  14.501 -0.3445  2.4407  0.3900
 3598SOL    HW222254   1.863   1.105  14.541  1.3306 -0.2375 -1.9949
 3599SOL     OW22255   0.070   3.539   8.945  0.7753 -0.2582 -0.0184
 3599SOL    HW122256   0.137   3.524   9.012 -0.5214 -1.3285  1.0387
 3599SOL    HW222257   0.051   3.447   8.927  1.7935 -0.5979  0.6288
 3600SOL     OW22258   2.222   0.609  10.326  0.3742  0.3554  0.6292
 3600SOL    HW122259   2.235   0.552  10.401 -1.1314 -0.8299 -0.0134
 3600SOL    HW222260   2.311   0.639  10.307 -0.0315  0.6380 -0.8054
 3601SOL     OW22261   1.717   1.084   6.987  0.2052 -0.6768 -0.3764
 3601SOL    HW122262   1.718   1.052   7.077  0.1659  1.2646  0.3259
 3601SOL    HW222263   1.716   1.180   6.992  0.6078 -0.6279 -1.1390
 3602SOL     OW22264   4.176   1.787   8.541  0.2658  0.2482 -0.6563
 3602SOL    HW122265   4.219   1.704   8.560  1.5350  1.4432  1.5713
 3602SOL    HW222266   4.105   1.762   8.481 -0.2653 -0.0683  0.0992
 3603SOL     OW22267   4.709   4.001  14.220  0.5303  0.4828 -0.0813
 3603SOL    HW122268   4.669   4.026  14.304  1.1400 -0.2784  0.4394
 3603SOL    HW222269   0.031   4.083  14.198  0.0786  0.2002 -2.0479
 3604SOL     OW22270   3.051   0.914   1.341  0.3054  0.1876  0.3427
 3604SOL    HW122271   2.973   0.859   1.335 -2.0947  3.6062  0.0219
 3604SOL    HW222272   3.109   0.852   1.385  0.2396 -0.4477 -0.4482
 3605SOL     OW22273   2.326   2.727  14.414  0.4167  0.3722  0.0138
 3605SOL    HW122274   2.328   2.710  14.320 -0.2499  1.8787 -0.2616
 3605SOL    HW222275   2.351   2.644  14.455 -1.4920  0.0632  0.5692
 3606SOL     OW22276   2.807   0.136   2.754  1.1140 -0.6363  0.1755
 3606SOL    HW122277   2.866   0.150   2.681 -0.4965 -0.6768 -1.1287
 3606SOL    HW222278   2.737   0.074   2.730  2.3800 -2.2241  0.5878
 3607SOL     OW22279   3.478   2.194   7.629 -0.3039 -0.0722  0.1860
 3607SOL    HW122280   3.445   2.261   7.689  1.9873  0.6934  0.5914
 3607SOL    HW222281   3.391   2.158   7.611  0.7690 -3.1974  1.2607
 3608SOL     OW22282   2.239   4.551   5.690 -0.2176 -0.5595 -0.1566
 3608SOL    HW122283   2.248   4.471   5.639 -3.4585 -1.4251  0.6338
 3608SOL    HW222284   2.263   4.524   5.779  0.9145  0.3827 -0.1700
 3609SOL     OW22285   1.636   3.386   7.687  0.3424  0.1415 -0.0364
 3609SOL    HW122286   1.543   3.405   7.681  0.1876 -1.6924 -3.0698
 3609SOL    HW222287   1.656   3.357   7.776  0.0300  1.4763  0.4746
 3610SOL     OW22288   3.896   0.685   5.974 -0.1745  0.4436  0.2415
 3610SOL    HW122289   3.936   0.709   6.057  0.7039  2.2949 -0.7142
 3610SOL    HW222290   3.967   0.654   5.917 -1.1518  1.8652 -1.7534
 3611SOL     OW22291   0.888   3.203   9.293 -0.1204 -0.2115  0.3224
 3611SOL    HW122292   0.852   3.153   9.366  0.7605 -0.9566  0.2460
 3611SOL    HW222293   0.909   3.142   9.222  0.3808  0.2415  0.0788
 3612SOL     OW22294   2.184   1.133  14.895  0.4803  0.3819 -0.4516
 3612SOL    HW122295   2.094   1.121  14.924  0.7977 -1.8988 -0.4057
 3612SOL    HW222296   2.185   1.096  14.807 -2.3346 -0.3878 -0.1539
 3613SOL     OW22297   2.005   3.893   3.314  0.2097  0.5846  0.0627
 3613SOL    HW122298   2.092   3.857   3.332  0.3847  0.4095 -1.1553
 3613SOL    HW222299   1.950   3.839   3.371 -1.2295  2.8394  0.8198
 3614SOL     OW22300   0.486   3.734  10.054 -0.5504 -0.3636 -0.0790
 3614SOL    HW122301   0.535   3.651  10.050  2.6510  1.5684 -1.0424
 3614SOL    HW222302   0.565   3.788  10.057 -0.7734 -0.1586  1.8353
 3615SOL     OW22303   3.668   3.520   5.357 -0.1052  0.4991 -0.7297
 3615SOL    HW122304   3.740   3.576   5.328  1.2293 -2.3440 -2.8932
 3615SOL    HW222305   3.710   3.434   5.356  0.3763  0.7194  0.9489
 3616SOL     OW22306   3.308   2.601   0.236  0.0536  0.4733  0.0337
 3616SOL    HW122307   3.352   2.676   0.276  1.5893  0.6733 -2.0432
 3616SOL    HW222308   3.316   2.618   0.142  1.3735  0.8433  0.2034
 3617SOL     OW22309   1.974   4.063   6.079 -0.6053 -0.0563  0.4467
 3617SOL    HW122310   1.955   4.032   6.168  0.0217 -2.5524 -0.2683
 3617SOL    HW222311   1.990   4.153   6.108 -0.3188  0.2950 -0.8217
 3618SOL     OW22312   1.555   2.497   4.167 -0.1986  0.2638  0.1143
 3618SOL    HW122313   1.600   2.514   4.084 -0.4993  0.7499  0.0525
 3618SOL    HW222314   1.481   2.447   4.133  1.2705 -0.3260 -2.2522
 3619SOL     OW22315   4.521   3.728   9.469  0.2546 -0.9076  0.2152
 3619SOL    HW122316   4.435   3.769   9.475  1.0511  0.3993  2.4259
 3619SOL    HW222317   4.511   3.675   9.390 -2.1691 -1.2052  0.7421
 3620SOL     OW22318   4.166   4.482   2.318 -0.3123  0.3551 -0.1405
 3620SOL    HW122319   4.217   4.443   2.246 -1.1274 -0.7392 -0.1347
 3620SOL    HW222320   4.245   4.511   2.362 -1.2692  1.0297  1.1076
 3621SOL     OW22321   1.374   1.027  10.056 -0.2351 -0.4205 -0.2865
 3621SOL    HW122322   1.403   0.948  10.101 -1.7309 -1.1931 -0.7017
 3621SOL    HW222323   1.325   1.069  10.126 -0.4315 -0.0098 -0.6694
 3622SOL     OW22324   3.567   4.572   5.195 -0.1548  0.1351  0.2701
 3622SOL    HW122325   3.578   4.659   5.156 -0.6306  0.2742  0.4470
 3622SOL    HW222326   3.534   4.523   5.120  0.0588 -0.0599  0.3065
 3623SOL     OW22327   0.225   4.151  12.885 -0.1294 -0.3810  0.1121
 3623SOL    HW122328   0.132   4.134  12.873 -0.3982  1.4399 -0.2254
 3623SOL    HW222329   0.206   4.201  12.965 -0.0262  1.8294 -1.2622
 3624SOL     OW22330   0.375   2.281  12.149  0.1655 -0.0285 -0.0635
 3624SOL    HW122331   0.343   2.331  12.074 -0.7189 -0.9383 -0.3114
 3624SOL    HW222332   0.370   2.348  12.217  0.0362  1.0970 -1.1942
 3625SOL     OW22333   2.097   0.433   4.633 -0.4268  0.5108 -0.3294
 3625SOL    HW122334   2.124   0.347   4.600 -1.8661  0.6933 -1.9425
 3625SOL    HW222335   2.009   0.421   4.598 -0.0318 -0.7442 -0.8930
 3626SOL     OW22336   2.186   0.003   2.812  0.6804  0.0278 -0.0182
 3626SOL    HW122337   2.172   4.720   2.906  2.5566  0.3022  0.2916
 3626SOL    HW222338   2.246   4.652   2.799 -1.1396 -1.3540 -0.5053
 3627SOL     OW22339   4.100   2.579  12.871 -0.4759  0.5562  0.5655
 3627SOL    HW122340   4.046   2.652  12.903 -2.7762 -0.5259 -0.8207
 3627SOL    HW222341   4.189   2.614  12.877 -1.1972  2.4375  0.2652
 3628SOL     OW22342   2.224   0.377  11.177 -0.2374  0.2392  0.0864
 3628SOL    HW122343   2.284   0.338  11.113  0.2580  0.3647  0.4703
 3628SOL    HW222344   2.142   0.389  11.131  0.4471  0.1747 -1.1438
 3629SOL     OW22345   2.411   3.237   3.162 -0.0805 -0.0858 -0.3911
 3629SOL    HW122346   2.323   3.257   3.194 -0.3648  0.9598 -1.8041
 3629SOL    HW222347   2.399   3.149   3.126  0.8352 -0.1767 -0.4868
 3630SOL     OW22348   2.886   0.316   7.983  0.2216  0.0931 -0.1537
 3630SOL    HW122349   2.847   0.235   7.949 -0.0991  1.0773 -2.1297
 3630SOL    HW222350   2.830   0.323   8.061 -1.3539 -1.1630 -1.1611
 3631SOL     OW22351   0.671   3.341   1.773 -0.5659  0.1273  0.6198
 3631SOL    HW122352   0.647   3.291   1.850 -2.5808  1.3389  0.7684
 3631SOL    HW222353   0.661   3.277   1.703 -0.9330 -1.6984  2.3407
 3632SOL     OW22354   2.084   2.536   5.320 -0.5390 -0.3596 -0.5846
 3632SOL    HW122355   2.008   2.480   5.339 -0.0785 -0.6985  0.2756
 3632SOL    HW222356   2.047   2.610   5.368  1.1135  0.2434 -0.2403
 3633SOL     OW22357   3.796   0.056   9.549  0.0568 -0.0474  0.3232
 3633SOL    HW122358   3.701   0.047   9.554 -0.0068  1.1754  1.2944
 3633SOL    HW222359   3.793   0.099   9.463 -0.5997  0.1267  0.4332
 3634SOL     OW22360   4.050   1.959   7.748  0.1613 -0.2071  0.2992
 3634SOL    HW122361   3.977   1.923   7.798 -0.2108  0.8030  0.4718
 3634SOL    HW222362   4.111   1.887   7.764  2.3903  1.6231 -0.0148
 3635SOL     OW22363   3.482   0.968  16.501  0.3801 -0.1833  0.5490
 3635SOL    HW122364   3.387   0.959  16.514  0.2727 -1.6771 -1.2609
 3635SOL    HW222365   3.516   0.968  16.591  3.2104 -0.9200 -0.5251
 3636SOL     OW22366   1.374   0.072   6.265  0.4053 -0.9275 -0.1946
 3636SOL    HW122367   1.348   0.093   6.354 -0.8659  1.0300 -1.0111
 3636SOL    HW222368   1.465   0.101   6.258  0.6333 -1.6657 -0.2873
 3637SOL     OW22369   3.521   3.788   8.109  0.3812 -0.2950  0.1472
 3637SOL    HW122370   3.477   3.704   8.123  3.5531 -2.1095 -0.7509
 3637SOL    HW222371   3.592   3.769   8.170 -0.9691 -0.9521  1.5296
 3638SOL     OW22372   2.447   1.122   7.225 -0.7047  0.3068 -0.2841
 3638SOL    HW122373   2.456   1.109   7.320 -0.1011  1.7620 -0.1388
 3638SOL    HW222374   2.514   1.190   7.214 -1.3564  0.7490 -1.4499
 3639SOL     OW22375   3.795   3.699   7.087 -0.5339  0.5321  0.1982
 3639SOL    HW122376   3.785   3.780   7.138 -1.9756 -0.6627  1.8230
 3639SOL    HW222377   3.860   3.731   7.024 -0.8105 -0.9753 -0.8569
 3640SOL     OW22378   3.104   2.495   4.486 -0.0392 -0.1781  0.5143
 3640SOL    HW122379   3.081   2.538   4.404  0.6302  0.5043  0.6763
 3640SOL    HW222380   3.022   2.499   4.535 -0.5449 -0.2135 -0.3241
 3641SOL     OW22381   3.499   2.411   6.712  0.1816 -0.1023 -0.0132
 3641SOL    HW122382   3.530   2.328   6.677 -0.6462  0.1438 -1.3342
 3641SOL    HW222383   3.581   2.460   6.710 -1.0881  2.1223  2.2207
 3642SOL     OW22384   1.858   1.331   5.952 -0.5870 -0.1055 -0.0339
 3642SOL    HW122385   1.855   1.243   5.989 -1.2765  0.6211  1.6606
 3642SOL    HW222386   1.774   1.370   5.979 -0.0640  1.5134 -0.7037
 3643SOL     OW22387   2.686   0.925  10.836 -0.4648 -0.0193 -0.2356
 3643SOL    HW122388   2.749   0.915  10.907 -1.3778  0.5248  0.6508
 3643SOL    HW222389   2.708   0.850  10.781 -0.5620 -0.3730  0.2081
 3644SOL     OW22390   0.710   1.207   1.879 -1.0102  0.0369  0.6955
 3644SOL    HW122391   0.684   1.201   1.786 -1.1086  0.8468  0.6744
 3644SOL    HW222392   0.723   1.114   1.896 -2.2412  0.1991  2.4873
 3645SOL     OW22393   4.352   1.637  10.745  0.4348 -0.3529  0.0554
 3645SOL    HW122394   4.404   1.668  10.819  2.2270  2.2781 -2.2718
 3645SOL    HW222395   4.262   1.666  10.757 -0.3756 -3.4786  1.5039
 3646SOL     OW22396   4.683   2.755   0.050  0.2984 -0.6837 -0.0087
 3646SOL    HW122397   0.010   2.761   0.131 -0.6744  0.3995  0.5088
 3646SOL    HW222398   4.604   2.800   0.079  1.2701  1.0096  0.0235
 3647SOL     OW22399   3.415   3.155   3.167 -0.1700  0.4960  0.3636
 3647SOL    HW122400   3.362   3.080   3.195 -0.1436  0.1062 -0.6224
 3647SOL    HW222401   3.469   3.122   3.095 -1.8358  0.6297 -0.9257
 3648SOL     OW22402   1.849   1.266   0.298  0.1609  0.2048  0.2532
 3648SOL    HW122403   1.858   1.195   0.235  0.0914  1.0852 -0.7541
 3648SOL    HW222404   1.869   1.213   0.375  0.0380  0.6062  0.5609
 3649SOL     OW22405   3.570   3.057  13.695  0.2528  0.0694 -0.2959
 3649SOL    HW122406   3.628   3.013  13.633  1.4816  0.9499  0.2225
 3649SOL    HW222407   3.541   3.134  13.644  1.2192 -0.2681 -1.3635
 3650SOL     OW22408   2.414   4.662  12.341  0.4102  0.0024 -0.0752
 3650SOL    HW122409   2.445   4.591  12.286  1.7213  0.1239  0.5077
 3650SOL    HW222410   2.460   0.009  12.294 -0.4855  0.2412 -0.5924
 3651SOL     OW22411   3.240   2.684  11.511  0.3307  0.2671 -0.4178
 3651SOL    HW122412   3.307   2.660  11.448 -0.8967  1.5598 -2.2301
 3651SOL    HW222413   3.271   2.639  11.589 -2.2649 -2.9813 -1.2643
 3652SOL     OW22414   3.600   0.382   4.003 -0.2387  0.0030 -0.0784
 3652SOL    HW122415   3.601   0.452   4.068 -0.4511 -1.3774  1.3791
 3652SOL    HW222416   3.510   0.349   4.004 -0.4816  0.7584  1.9249
 3653SOL     OW22417   3.497   0.134   3.410  0.4317  0.0752  0.3843
 3653SOL    HW122418   3.497   0.124   3.505 -1.1874 -0.0228  0.3723
 3653SOL    HW222419   3.486   0.228   3.395  0.1773  0.1430  1.0281
 3654SOL     OW22420   4.706   0.594  13.840 -0.1284  0.5090  0.0702
 3654SOL    HW122421   0.028   0.594  13.755 -1.9435 -1.2342 -0.8741
 3654SOL    HW222422   0.017   0.680  13.867  3.5266 -0.3226 -1.8440
 3655SOL     OW22423   1.798   1.312   2.776  0.0590 -0.8395 -0.1643
 3655SOL    HW122424   1.714   1.293   2.736  0.9496 -2.2191 -1.3569
 3655SOL    HW222425   1.848   1.345   2.701  2.5891  0.4505  2.0564
 3656SOL     OW22426   4.109   0.410   4.929  0.4062  0.6998  0.4081
 3656SOL    HW122427   4.205   0.415   4.936  0.6492  0.7594 -2.6659
 3656SOL    HW222428   4.086   0.440   5.016  1.1832 -0.1440  0.9042
 3657SOL     OW22429   2.552   2.369   3.518 -0.1820 -0.6379 -0.4397
 3657SOL    HW122430   2.552   2.273   3.515 -0.5098 -0.6905  1.0258
 3657SOL    HW222431   2.638   2.391   3.553 -0.1595  0.0029 -0.9127
 3658SOL     OW22432   2.990   2.585  14.104  0.4482  0.1085  0.3786
 3658SOL    HW122433   2.912   2.531  14.106  1.8802 -1.9979 -0.2027
 3658SOL    HW222434   3.040   2.538  14.036 -0.1957  1.9974 -1.3928
 3659SOL     OW22435   2.035   0.774   7.323 -0.1785  0.1401 -0.3330
 3659SOL    HW122436   2.014   0.778   7.230 -0.6743  1.5920 -0.1557
 3659SOL    HW222437   2.046   0.679   7.330 -2.9250 -0.2204 -0.7070
 3660SOL     OW22438   1.497   3.545  16.971  0.2783  0.2606 -0.5635
 3660SOL    HW122439   1.446   3.554  17.051  0.9978 -0.8512  0.0227
 3660SOL    HW222440   1.578   3.586  17.000  0.2860 -1.0196  1.1806
 3661SOL     OW22441   2.189   0.573  17.412 -0.1309 -0.2301  0.0712
 3661SOL    HW122442   2.146   0.564  17.496  0.8679  0.8591  0.7107
 3661SOL    HW222443   2.271   0.612  17.442  0.1954 -0.8716  0.0041
 3662SOL     OW22444   1.164   2.334   8.156  0.2334  0.3450  0.4262
 3662SOL    HW122445   1.216   2.386   8.095 -1.0983  0.5549 -0.5287
 3662SOL    HW222446   1.205   2.250   8.136  1.9157  0.9362  1.3820
 3663SOL     OW22447   2.847   0.493   6.575  0.2735  0.0786 -0.4655
 3663SOL    HW122448   2.802   0.454   6.650 -2.3372 -1.0157 -2.6024
 3663SOL    HW222449   2.937   0.461   6.582  0.4921  0.4896 -1.3333
 3664SOL     OW22450   0.721   4.226   3.886 -0.4188 -0.1049  0.5914
 3664SOL    HW122451   0.719   4.153   3.825 -2.6288  1.0582 -0.7684
 3664SOL    HW222452   0.814   4.239   3.901 -0.5209 -0.7557  1.7252
 3665SOL     OW22453   0.071   0.932   0.820  0.5977  0.3767 -0.2573
 3665SOL    HW122454   0.131   0.992   0.777  0.7252  0.2037 -0.3218
 3665SOL    HW222455   4.711   0.979   0.811 -0.5706 -1.8946 -1.3304
 3666SOL     OW22456   3.711   3.517   0.136  0.4519 -0.1016  0.2918
 3666SOL    HW122457   3.709   3.438   0.081  1.4892  0.3760 -0.4300
 3666SOL    HW222458   3.759   3.492   0.214 -0.5302 -1.1427  0.5681
 3667SOL     OW22459   3.268   0.691   6.240  0.2308 -0.5616 -0.0756
 3667SOL    HW122460   3.250   0.777   6.203  3.0549 -0.8815 -2.1934
 3667SOL    HW222461   3.364   0.693   6.232 -0.0310 -0.4000 -2.9771
 3668SOL     OW22462   1.123   3.990   2.412  0.5082 -0.4134 -0.2276
 3668SOL    HW122463   1.064   3.916   2.401 -0.6329  0.1851  1.8845
 3668SOL    HW222464   1.195   3.936   2.445  0.6660 -1.3292 -2.0661
 3669SOL     OW22465   0.100   1.099  12.932  0.4537  0.1973 -0.1270
 3669SOL    HW122466   0.045   1.169  12.897 -0.1304 -1.6723 -2.9482
 3669SOL    HW222467   0.058   1.022  12.894 -1.3383  1.0047  0.2083
 3670SOL     OW22468   2.143   4.068   0.392 -0.2553  0.0479 -0.3253
 3670SOL    HW122469   2.121   3.988   0.440  1.1682 -1.5081 -2.2404
 3670SOL    HW222470   2.209   4.046   0.326 -0.9624  0.3478 -1.1300
 3671SOL     OW22471   1.741   2.850   2.824  0.7211  0.7381  0.0743
 3671SOL    HW122472   1.820   2.853   2.878  1.2274  1.3545 -0.6923
 3671SOL    HW222473   1.737   2.944   2.803  3.0360  1.3339  2.3615
 3672SOL     OW22474   2.670   2.914   7.387 -0.2463 -0.0642  0.4204
 3672SOL    HW122475   2.730   2.979   7.424 -0.0929 -0.0453  0.1414
 3672SOL    HW222476   2.615   2.970   7.332  0.5696 -1.6040 -1.9842
 3673SOL     OW22477   3.640   4.262   4.847 -0.2085  0.1638 -0.2584
 3673SOL    HW122478   3.703   4.190   4.841  0.0057  0.3368 -0.1009
 3673SOL    HW222479   3.688   4.344   4.835  0.0721  0.2683  1.5374
 3674SOL     OW22480   3.288   2.827   5.619  0.2102  0.3798  0.2020
 3674SOL    HW122481   3.358   2.888   5.599  1.1114 -0.7302 -0.0520
 3674SOL    HW222482   3.337   2.767   5.675  0.0785  0.8072  0.7724
 3675SOL     OW22483   4.682   4.123   5.245 -0.6431  0.2114  0.0615
 3675SOL    HW122484   0.035   4.162   5.202  0.0739 -0.0260  1.1037
 3675SOL    HW222485   4.653   4.060   5.179 -1.3047  0.9096 -0.3163
 3676SOL     OW22486   2.432   2.886   8.347 -0.3001  0.3457 -0.3279
 3676SOL    HW122487   2.459   2.871   8.438 -2.1576  1.8499  0.4522
 3676SOL    HW222488   2.484   2.813   8.312 -0.9130 -0.5410  0.6140
 3677SOL     OW22489   3.383   0.433  13.264  0.8088  0.0090  0.7709
 3677SOL    HW122490   3.401   0.523  13.291 -2.8021  0.9542  0.1383
 3677SOL    HW222491   3.339   0.443  13.179  0.0197 -0.6074  1.1121
 3678SOL     OW22492   2.731   1.786   8.046 -0.2876  0.1422 -0.2759
 3678SOL    HW122493   2.727   1.704   7.996 -2.6428  0.6414 -0.8898
 3678SOL    HW222494   2.786   1.764   8.121 -0.7752 -1.3657 -0.3548
 3679SOL     OW22495   3.277   3.966  13.542  0.4718  0.7858  0.0571
 3679SOL    HW122496   3.292   3.928  13.456 -0.5636 -1.2036  0.7611
 3679SOL    HW222497   3.271   3.887  13.596  0.8339  2.5322  2.6719
 3680SOL     OW22498   3.654   1.854  13.257  0.1406 -0.0512  0.1608
 3680SOL    HW122499   3.647   1.885  13.347  1.2975  1.0217 -0.1243
 3680SOL    HW222500   3.634   1.933  13.205 -0.3800  0.2348  0.7954
 3681SOL     OW22501   4.606   3.286   5.367 -0.5696  0.2009 -0.2577
 3681SOL    HW122502   4.568   3.212   5.416  0.5131  1.2624  2.1546
 3681SOL    HW222503   4.531   3.314   5.315  1.2170  1.0453 -2.3661
 3682SOL     OW22504   3.015   0.809   1.833 -0.4738 -0.2725 -0.1235
 3682SOL    HW122505   3.108   0.806   1.855 -0.8860 -0.2764  1.6209
 3682SOL    HW222506   3.010   0.756   1.754 -2.4652  0.4260 -0.4725
 3683SOL     OW22507   4.627   1.247   2.615 -0.0517 -0.2265 -0.0814
 3683SOL    HW122508   4.694   1.287   2.560 -2.3315  1.4715 -1.5784
 3683SOL    HW222509   4.646   1.295   2.695  2.4071  1.5420 -1.7095
 3684SOL     OW22510   2.070   0.456   7.329 -0.0098 -0.1907 -0.3003
 3684SOL    HW122511   2.153   0.429   7.369 -0.6101 -1.6724 -0.0605
 3684SOL    HW222512   2.053   0.386   7.266 -0.6042 -0.0529 -0.2889
 3685SOL     OW22513   1.756   0.690   9.734  0.2815  0.2387  0.0988
 3685SOL    HW122514   1.672   0.709   9.775 -1.5625 -2.8570 -2.3050
 3685SOL    HW222515   1.741   0.597   9.719  0.3162  0.7343 -3.0726
 3686SOL     OW22516   4.614   2.366   3.617 -0.1055  0.1671 -0.3347
 3686SOL    HW122517   4.537   2.412   3.583 -0.4976  1.0340  1.7293
 3686SOL    HW222518   4.583   2.290   3.665  1.1168 -2.7430 -4.1076
 3687SOL     OW22519   2.171   1.461   7.137 -0.4870 -0.1565 -0.5432
 3687SOL    HW122520   2.136   1.498   7.056 -1.0714  0.1870 -0.1301
 3687SOL    HW222521   2.149   1.523   7.206  1.7798  0.3353 -0.2703
 3688SOL     OW22522   0.027   4.684   2.823  0.6679  0.0070  0.3252
 3688SOL    HW122523   0.057   0.031   2.766 -0.2743 -0.1622 -0.3799
 3688SOL    HW222524   4.654   4.680   2.821  0.6728  0.0440  0.1047
 3689SOL     OW22525   3.462   3.046   4.589 -0.3447  0.1135  0.2309
 3689SOL    HW122526   3.418   2.978   4.537 -0.1581 -0.0868  0.3357
 3689SOL    HW222527   3.468   3.003   4.675  1.2059 -0.2341 -0.0630
 3690SOL     OW22528   2.289   1.758   1.893 -0.2146  0.5095  0.4207
 3690SOL    HW122529   2.352   1.771   1.965 -0.3321 -1.8040  0.9322
 3690SOL    HW222530   2.288   1.663   1.892 -0.0922  0.5296 -1.6819
 3691SOL     OW22531   3.317   2.138   5.932 -0.3670 -0.3925 -0.1763
 3691SOL    HW122532   3.282   2.177   6.012 -1.5627 -2.8828  0.5273
 3691SOL    HW222533   3.310   2.043   5.944  1.4327 -0.7272 -1.7099
 3692SOL     OW22534   0.645   0.824   0.408  0.2032  0.4267  0.7932
 3692SOL    HW122535   0.598   0.852   0.486 -0.6741 -0.6112  0.6527
 3692SOL    HW222536   0.586   0.760   0.367  0.9617  0.2676 -0.0509
 3693SOL     OW22537   3.880   2.511  10.081 -0.4317  0.1900  0.2340
 3693SOL    HW122538   3.856   2.425  10.117 -1.0717  0.8170  1.3042
 3693SOL    HW222539   3.795   2.552  10.066 -0.6848 -0.0694  0.9476
 3694SOL     OW22540   3.961   2.338   0.198 -0.5309  0.7569  0.0885
 3694SOL    HW122541   4.004   2.421   0.220  0.3354  0.3577 -0.0931
 3694SOL    HW222542   3.918   2.316   0.280  0.3863 -0.0643  0.3430
 3695SOL     OW22543   3.508   1.838  10.017  0.1748  0.0638 -0.0030
 3695SOL    HW122544   3.562   1.867  10.090 -0.6676 -0.4621  0.8346
 3695SOL    HW222545   3.557   1.761   9.989 -0.8800 -0.2598 -0.9580
 3696SOL     OW22546   2.113   0.766   5.620 -0.0623  0.4180  0.4600
 3696SOL    HW122547   2.037   0.800   5.573  0.3230  0.8233  0.1277
 3696SOL    HW222548   2.084   0.769   5.711 -2.2126  1.8883 -0.2720
 3697SOL     OW22549   2.430   2.300   5.947 -0.0464 -0.2528  0.4264
 3697SOL    HW122550   2.467   2.217   5.916 -0.2484 -1.0295  2.2638
 3697SOL    HW222551   2.504   2.334   5.996  0.6969  1.1162 -1.6303
 3698SOL     OW22552   1.087   3.229   8.022 -0.2757  0.4745  0.4806
 3698SOL    HW122553   0.994   3.227   7.999  0.0474  0.7165 -0.8236
 3698SOL    HW222554   1.097   3.134   8.034  1.0259  0.4131 -1.0186
 3699SOL     OW22555   1.994   0.215   7.640  0.0736  0.1804  0.2993
 3699SOL    HW122556   1.913   0.203   7.689  0.7556  3.1820  2.1813
 3699SOL    HW222557   2.036   0.129   7.643 -1.7544 -0.7920 -2.5297
 3700SOL     OW22558   1.379   3.877  12.303  0.0524  0.2102  0.0986
 3700SOL    HW122559   1.370   3.787  12.333 -1.4488  0.0106 -0.9527
 3700SOL    HW222560   1.414   3.923  12.380 -1.2731  0.3221  0.6313
 3701SOL     OW22561   2.617   0.161  10.610 -0.3164  0.4657 -0.2728
 3701SOL    HW122562   2.652   0.238  10.656 -0.5505 -0.0358  0.7390
 3701SOL    HW222563   2.676   0.096  10.649  0.3312  0.5701 -1.0684
 3702SOL     OW22564   4.358   0.865   7.124 -0.4018 -0.1537  0.2296
 3702SOL    HW122565   4.268   0.896   7.120 -0.3911 -0.0102  1.2948
 3702SOL    HW222566   4.351   0.771   7.142 -0.9313 -0.1490  0.0489
 3703SOL     OW22567   4.455   2.873   0.129  0.4964  0.3899  0.3147
 3703SOL    HW122568   4.442   2.923   0.210 -1.4313 -0.7441  0.7174
 3703SOL    HW222569   4.392   2.802   0.146 -1.4942  1.2695 -3.3412
 3704SOL     OW22570   2.703   0.400   6.779  0.2210 -0.0852  0.1374
 3704SOL    HW122571   2.649   0.463   6.826  1.4162  1.7606 -0.9450
 3704SOL    HW222572   2.657   0.320   6.800  0.6961 -0.1494  0.9330
 3705SOL     OW22573   2.643   2.138   7.273 -0.6436 -0.0325 -0.0512
 3705SOL    HW122574   2.572   2.145   7.336 -0.5018 -0.7972  0.2000
 3705SOL    HW222575   2.719   2.100   7.316 -1.1957 -1.1818 -0.0902
 3706SOL     OW22576   3.118   1.362  16.251  0.3770 -0.2255 -0.5978
 3706SOL    HW122577   3.065   1.440  16.236 -1.5854 -1.5710 -0.7634
 3706SOL    HW222578   3.046   1.304  16.225 -0.7245 -0.4060  2.7998
 3707SOL     OW22579   0.891   3.499   8.970  0.2436  0.2917 -0.6291
 3707SOL    HW122580   0.878   3.594   8.970  1.0165  0.3930  0.4546
 3707SOL    HW222581   0.878   3.492   9.065  0.6611  1.6450 -0.4692
 3708SOL     OW22582   2.803   1.512   2.131  0.4493  0.3220  0.5224
 3708SOL    HW122583   2.762   1.476   2.053  0.4112 -0.7684  1.0422
 3708SOL    HW222584   2.762   1.598   2.143 -2.0029 -0.1027 -4.6815
 3709SOL     OW22585   4.663   2.474  14.746 -0.0482 -0.1063  0.5763
 3709SOL    HW122586   4.582   2.524  14.737  1.2321  1.8608 -0.0356
 3709SOL    HW222587   4.706   2.511  14.823  1.0171  3.7468 -1.8631
 3710SOL     OW22588   2.778   3.448  11.682 -0.7084 -0.4425  0.1996
 3710SOL    HW122589   2.855   3.406  11.719 -0.7920 -0.5483  0.2550
 3710SOL    HW222590   2.715   3.387  11.722 -1.6846  0.0869 -0.5245
 3711SOL     OW22591   0.273   1.944   8.917  0.0651  0.0603  0.2663
 3711SOL    HW122592   0.348   1.995   8.949  0.8930 -0.4589 -0.8789
 3711SOL    HW222593   0.211   2.015   8.903 -2.1662 -2.0351 -0.3911
 3712SOL     OW22594   1.514   4.039   3.941 -0.2825 -0.3180  0.0074
 3712SOL    HW122595   1.556   4.068   3.860  2.0963 -0.1670  1.3048
 3712SOL    HW222596   1.431   4.086   3.930  0.9714  1.7098 -0.7212
 3713SOL     OW22597   4.633   3.531   5.089 -0.2960  0.0794 -0.0872
 3713SOL    HW122598   4.664   3.441   5.085  0.4807  0.3186  0.6875
 3713SOL    HW222599   4.718   3.572   5.103  0.6551 -1.4181 -1.4023
 3714SOL     OW22600   2.333   4.102   3.398  0.3464  0.0063  0.4100
 3714SOL    HW122601   2.380   4.185   3.398 -1.2711  0.9237  0.3078
 3714SOL    HW222602   2.365   4.055   3.321  0.4425 -1.2624  1.2199
 3715SOL     OW22603   1.948   1.396   3.060 -0.6240  0.2913  0.6731
 3715SOL    HW122604   1.956   1.305   3.088 -2.2646 -0.3001 -0.8380
 3715SOL    HW222605   1.855   1.406   3.044 -0.7748 -0.4523  1.0916
 3716SOL     OW22606   2.748   3.555  14.156 -0.6402  0.4044  0.1462
 3716SOL    HW122607   2.668   3.525  14.200 -0.4182  1.2419  1.1176
 3716SOL    HW222608   2.717   3.632  14.110 -1.3688  0.1918  0.2783
 3717SOL     OW22609   4.433   3.652  14.078  0.1805 -0.2010 -0.3926
 3717SOL    HW122610   4.422   3.746  14.095 -0.5129 -0.0786 -1.4952
 3717SOL    HW222611   4.502   3.626  14.138 -1.9355 -0.0227  2.1356
 3718SOL     OW22612   3.154   3.522   7.179  0.5654 -0.0250  0.5752
 3718SOL    HW122613   3.099   3.444   7.185  0.8114 -0.2887 -0.4841
 3718SOL    HW222614   3.093   3.594   7.161  2.1471  1.0389 -0.5162
 3719SOL     OW22615   3.015   1.826   8.149 -0.1880 -0.2073  0.8054
 3719SOL    HW122616   2.981   1.915   8.146 -0.8099 -0.4293  1.4415
 3719SOL    HW222617   2.938   1.783   8.187  0.0158 -0.0103  1.4368
 3720SOL     OW22618   2.369   3.981   7.276 -0.8759 -0.8651 -0.0944
 3720SOL    HW122619   2.374   3.912   7.342  1.4512 -2.0061 -1.4676
 3720SOL    HW222620   2.396   3.932   7.199 -1.1501 -1.5602  0.2522
 3721SOL     OW22621   1.426   3.529  13.569  0.2151 -0.1032 -0.3782
 3721SOL    HW122622   1.498   3.494  13.621 -1.4137 -0.0065  1.9412
 3721SOL    HW222623   1.397   3.442  13.544 -1.6569 -0.0777  1.7171
 3722SOL     OW22624   4.445   3.691   5.426 -0.2745 -0.0969  0.3550
 3722SOL    HW122625   4.529   3.736   5.435 -0.2526  0.3522 -1.9354
 3722SOL    HW222626   4.436   3.648   5.510  0.4582 -0.9592 -0.0116
 3723SOL     OW22627   2.069   2.338  15.001 -0.0309  0.0924  0.0107
 3723SOL    HW122628   2.142   2.387  15.038 -1.1725  1.2391  0.7453
 3723SOL    HW222629   2.119   2.271  14.954  0.6734 -0.4985  1.5857
 3724SOL     OW22630   3.438   3.189   8.267  0.4633  0.0889 -0.0107
 3724SOL    HW122631   3.489   3.215   8.190  0.7106 -1.8205 -0.4834
 3724SOL    HW222632   3.502   3.158   8.330  0.4554  2.1947  1.0437
 3725SOL     OW22633   0.760   2.146   3.313  0.1009  0.6112  0.6907
 3725SOL    HW122634   0.682   2.095   3.337 -0.2261  0.3189 -0.9852
 3725SOL    HW222635   0.754   2.231   3.357 -0.9094  0.4777  0.8109
 3726SOL     OW22636   0.193   0.378  11.179  0.0634 -0.4965  0.1393
 3726SOL    HW122637   0.288   0.375  11.162  0.2309  0.0380  0.9679
 3726SOL    HW222638   0.161   0.312  11.117  0.8206  0.3796 -1.1974
 3727SOL     OW22639   0.821   0.731  12.389 -0.9662  0.0407 -0.2672
 3727SOL    HW122640   0.737   0.755  12.351 -0.3402  1.0299 -1.0402
 3727SOL    HW222641   0.799   0.723  12.482  0.5536  1.2831  0.2007
 3728SOL     OW22642   0.481   3.745   1.905 -0.4051  0.3452  0.0197
 3728SOL    HW122643   0.499   3.827   1.950  1.6050  0.1269 -0.3632
 3728SOL    HW222644   0.416   3.704   1.962 -1.3179 -0.0854 -1.3571
 3729SOL     OW22645   2.280   0.280  11.645  0.6215  0.2699 -0.6628
 3729SOL    HW122646   2.237   0.362  11.622  0.9434  0.5100 -0.4117
 3729SOL    HW222647   2.210   0.215  11.646  0.5567  0.3581  1.9493
 3730SOL     OW22648   4.447   1.520   6.030  0.7287  0.0529 -0.0787
 3730SOL    HW122649   4.378   1.572   6.072  1.3980  0.6176  0.3057
 3730SOL    HW222650   4.403   1.438   6.051 -0.3097  0.3955 -0.8697
 3731SOL     OW22651   3.089   2.410   7.351  0.3054 -0.9011 -0.4525
 3731SOL    HW122652   3.036   2.461   7.412 -0.3211  0.1298 -1.8610
 3731SOL    HW222653   3.066   2.328   7.395  0.2743 -0.4392  0.3912
 3732SOL     OW22654   2.964   3.528   5.090  0.1157 -0.4376  0.1102
 3732SOL    HW122655   2.909   3.485   5.156 -0.3112  1.1778  0.8108
 3732SOL    HW222656   3.037   3.568   5.136  0.5612  0.9429 -1.8127
 3733SOL     OW22657   1.759   2.379   2.411 -0.1142 -0.1913  0.1233
 3733SOL    HW122658   1.764   2.408   2.502  0.1683 -1.1633  0.4069
 3733SOL    HW222659   1.688   2.316   2.418 -0.8973  0.5867 -0.7087
 3734SOL     OW22660   0.392   0.673   5.633  0.2729 -0.3957 -0.0126
 3734SOL    HW122661   0.432   0.655   5.718 -1.0010 -0.8116  0.5034
 3734SOL    HW222662   0.338   0.597   5.613  0.8851 -1.4250  2.1688
 3735SOL     OW22663   3.349   3.114  12.000  0.0112  0.1918  0.1692
 3735SOL    HW122664   3.386   3.180  12.059  0.3973  1.2533 -1.2811
 3735SOL    HW222665   3.354   3.032  12.050  1.9603 -0.4891 -1.1397
 3736SOL     OW22666   0.954   2.209   5.547 -0.0839  0.4165 -0.1402
 3736SOL    HW122667   0.919   2.135   5.497  0.7201  0.4666 -0.7790
 3736SOL    HW222668   0.897   2.213   5.624  0.7602 -2.1214  0.6377
 3737SOL     OW22669   3.244   1.853   6.024 -0.0087 -0.1336 -0.1677
 3737SOL    HW122670   3.195   1.835   5.944 -1.4799 -1.4909  1.0352
 3737SOL    HW222671   3.172   1.853   6.086 -1.4745  0.2514 -1.8868
 3738SOL     OW22672   2.527   0.704   8.434 -0.4151  0.9768 -0.7040
 3738SOL    HW122673   2.604   0.733   8.385  0.0745 -0.1854 -0.6290
 3738SOL    HW222674   2.450   0.749   8.400 -0.3652  1.7106  0.1349
 3739SOL     OW22675   0.973   1.980   4.346 -0.6893 -0.4822 -0.6160
 3739SOL    HW122676   0.906   1.920   4.313 -0.4663 -1.0625  0.0061
 3739SOL    HW222677   1.040   1.971   4.278  0.9850 -1.8310  1.2399
 3740SOL     OW22678   0.148   2.760   4.780  0.3052 -0.1734 -0.6591
 3740SOL    HW122679   0.163   2.854   4.773  0.7087 -0.2072 -0.2391
 3740SOL    HW222680   0.068   2.750   4.728 -1.1830  3.1451  1.0062
 3741SOL     OW22681   3.239   4.348  14.597 -0.1542 -0.0020 -0.1931
 3741SOL    HW122682   3.167   4.305  14.550  2.3524 -1.1233 -2.9469
 3741SOL    HW222683   3.314   4.322  14.545 -1.4056 -1.8990 -1.0221
 3742SOL     OW22684   1.554   1.117  14.476 -0.1343  0.1713 -0.3637
 3742SOL    HW122685   1.488   1.047  14.475 -0.2275  0.2341  2.0214
 3742SOL    HW222686   1.577   1.133  14.385 -0.5490 -0.4828 -0.5847
 3743SOL     OW22687   3.434   2.601   2.678  0.0759 -0.4609 -0.1933
 3743SOL    HW122688   3.455   2.541   2.607 -0.5516 -0.2375 -0.5694
 3743SOL    HW222689   3.339   2.612   2.667  0.0806 -1.2184 -0.9849
 3744SOL     OW22690   2.965   3.124   6.515 -0.0872 -0.5586 -0.5179
 3744SOL    HW122691   2.967   3.157   6.425  2.9082 -1.6028 -0.8304
 3744SOL    HW222692   3.058   3.108   6.528  0.6356  1.0327 -3.8211
 3745SOL     OW22693   3.390   0.254   5.180 -0.2310  0.7512 -0.7474
 3745SOL    HW122694   3.328   0.226   5.246  0.6189  0.6021 -0.0180
 3745SOL    HW222695   3.344   0.231   5.099 -1.0091 -0.3914  0.0233
 3746SOL     OW22696   2.420   1.357   4.228 -0.4868  0.0786 -0.0744
 3746SOL    HW122697   2.351   1.370   4.163 -0.4053  1.2864  0.0671
 3746SOL    HW222698   2.431   1.262   4.225  0.5136  0.2518 -1.5884
 3747SOL     OW22699   2.198   1.067   5.504  0.1544 -0.3045 -0.1995
 3747SOL    HW122700   2.214   0.991   5.559 -2.9514  0.2523  1.4844
 3747SOL    HW222701   2.156   1.127   5.566  1.3948  0.9199 -0.5435
 3748SOL     OW22702   3.835   1.727  15.689  0.4101 -0.3103  0.0621
 3748SOL    HW122703   3.857   1.716  15.596 -0.5756  0.9983 -0.3284
 3748SOL    HW222704   3.784   1.808  15.681  1.0785 -0.0921 -2.0439
 3749SOL     OW22705   3.326   3.891   8.605 -0.6426  0.0664 -0.2480
 3749SOL    HW122706   3.366   3.933   8.680 -2.0021  2.0854 -0.6580
 3749SOL    HW222707   3.257   3.843   8.651 -1.2819  0.7312 -0.5108
 3750SOL     OW22708   1.013   1.559   6.293 -0.5582  0.1150  0.5783
 3750SOL    HW122709   1.085   1.546   6.355  0.2947  0.0425 -0.4308
 3750SOL    HW222710   1.059   1.576   6.211  0.2134  0.1010  1.0062
 3751SOL     OW22711   1.143   0.096   6.739  0.3522 -0.2136  0.3075
 3751SOL    HW122712   1.067   0.086   6.681  0.5586  1.4030 -0.2613
 3751SOL    HW222713   1.111   0.143   6.816 -0.1476 -0.1527  0.0669
 3752SOL     OW22714   2.491   3.147   7.552  0.0771 -0.0595 -0.0897
 3752SOL    HW122715   2.581   3.115   7.557 -0.1571 -0.3230  2.7740
 3752SOL    HW222716   2.465   3.129   7.462  0.3112  0.4806 -0.2700
 3753SOL     OW22717   3.438   3.359   3.338 -0.1087  0.9800 -0.3128
 3753SOL    HW122718   3.433   3.291   3.270  0.6253  1.0056 -0.3946
 3753SOL    HW222719   3.531   3.374   3.353  0.7668 -2.2752 -2.4019
 3754SOL     OW22720   0.093   4.259   4.105 -0.3152 -0.0839 -0.1513
 3754SOL    HW122721   0.168   4.262   4.046 -0.9646 -3.5355 -1.1430
 3754SOL    HW222722   0.087   4.351   4.131  0.7566 -0.2554  0.6802
 3755SOL     OW22723   1.886   2.953   7.987 -0.7614 -0.6214 -0.1315
 3755SOL    HW122724   1.811   2.944   7.927 -0.2624 -1.0359 -0.6933
 3755SOL    HW222725   1.894   2.861   8.013 -2.0096 -0.7803 -0.2724
 3756SOL     OW22726   4.056   1.302  11.150 -0.1469 -0.1156  0.0858
 3756SOL    HW122727   4.076   1.246  11.075 -0.9235 -1.4227  0.8509
 3756SOL    HW222728   4.105   1.257  11.219 -1.3868 -3.2800 -1.0923
 3757SOL     OW22729   0.462   1.631   5.512  0.1067 -0.5581 -0.3911
 3757SOL    HW122730   0.543   1.641   5.562  0.1150 -0.4320 -0.4286
 3757SOL    HW222731   0.454   1.709   5.456 -0.3676  1.6404  2.7194
 3758SOL     OW22732   0.023   2.999  10.680 -0.2243 -0.5540 -0.3037
 3758SOL    HW122733   0.005   3.016  10.772 -0.4945  2.7599 -0.9516
 3758SOL    HW222734   0.065   2.914  10.690 -1.2852 -1.2267 -1.4457
 3759SOL     OW22735   0.200   1.063   8.389  0.7780 -0.3382  0.0013
 3759SOL    HW122736   0.198   1.026   8.300  3.4679 -0.8651  0.1591
 3759SOL    HW222737   0.286   1.104   8.402  0.5343  0.1887 -0.0509
 3760SOL     OW22738   2.818   0.139  13.621 -0.0601  0.3566 -0.1508
 3760SOL    HW122739   2.853   0.208  13.678  2.9124 -2.2081  1.1882
 3760SOL    HW222740   2.899   0.104  13.584 -0.8394 -1.4471 -0.1433
 3761SOL     OW22741   0.196   4.674   7.970  0.5685  0.0782  0.0504
 3761SOL    HW122742   0.274   4.719   8.001  0.0467  2.6902 -2.3756
 3761SOL    HW222743   0.133   4.688   8.041  1.3254  1.1321  0.5129
 3762SOL     OW22744   3.057   3.270  14.913  0.0538  0.0307  0.0666
 3762SOL    HW122745   3.060   3.196  14.853  0.8349 -0.8278  1.1750
 3762SOL    HW222746   2.967   3.303  14.909 -0.0716 -0.2144  0.8592
 3763SOL     OW22747   0.430   3.055   9.558  0.2336  0.0487 -0.3738
 3763SOL    HW122748   0.408   2.962   9.561  1.3369 -0.2354 -0.9506
 3763SOL    HW222749   0.480   3.056   9.640 -1.5630 -1.6467  0.7291
 3764SOL     OW22750   4.598   4.411   3.923  0.4589  0.4871  0.1563
 3764SOL    HW122751   4.606   4.349   3.996 -0.2069  1.4943  1.0793
 3764SOL    HW222752   4.608   4.343   3.856 -0.3601  0.0316  0.4969
 3765SOL     OW22753   4.159   1.295   5.713  0.3462  0.1591 -0.4609
 3765SOL    HW122754   4.246   1.257   5.728 -0.4613 -1.6573 -0.3189
 3765SOL    HW222755   4.140   1.258   5.627  1.2575  2.4297 -1.6512
 3766SOL     OW22756   0.420   3.724   2.922  0.1111  0.0447 -0.1130
 3766SOL    HW122757   0.341   3.780   2.920 -0.0159 -0.1384 -0.2067
 3766SOL    HW222758   0.381   3.637   2.931 -0.1190  0.4691  3.1660
 3767SOL     OW22759   3.394   3.807   6.833 -0.3999  0.6360 -0.1220
 3767SOL    HW122760   3.348   3.863   6.895 -2.0143  0.7754 -1.4432
 3767SOL    HW222761   3.432   3.742   6.892 -1.1837 -0.5500 -0.9241
 3768SOL     OW22762   1.033   2.852   5.549  0.0482  0.3233 -0.2224
 3768SOL    HW122763   1.068   2.936   5.579  0.1000  0.5360 -0.8814
 3768SOL    HW222764   1.109   2.797   5.565 -0.3840 -0.6188 -1.3802
 3769SOL     OW22765   4.418   3.121   5.521  0.5940 -0.0034 -0.0765
 3769SOL    HW122766   4.352   3.076   5.575  0.7187  2.8883  2.4635
 3769SOL    HW222767   4.435   3.053   5.455 -1.0140 -1.4472  0.9861
 3770SOL     OW22768   2.086   3.449   6.008  0.2711  0.7534 -0.7555
 3770SOL    HW122769   2.018   3.501   5.964 -1.4081 -0.1778  0.7771
 3770SOL    HW222770   2.164   3.479   5.960  2.5775 -2.3013  1.0730
 3771SOL     OW22771   3.365   2.840   9.159  0.2717  0.2485 -0.4635
 3771SOL    HW122772   3.337   2.867   9.247  2.2643 -0.0971  0.2791
 3771SOL    HW222773   3.284   2.796   9.133  0.6821 -1.6314  1.4109
 3772SOL     OW22774   2.591   4.532  10.170 -0.3319 -0.1307  0.4637
 3772SOL    HW122775   2.565   4.600  10.232  3.5656 -0.6204  2.6905
 3772SOL    HW222776   2.648   4.486  10.232  2.1135  2.3674  0.0862
 3773SOL     OW22777   2.616   0.317   4.223 -0.4753 -0.7734 -0.1784
 3773SOL    HW122778   2.599   0.375   4.297 -0.0107 -1.4897  0.4824
 3773SOL    HW222779   2.712   0.318   4.230 -0.4502 -0.0183 -0.5639
 3774SOL     OW22780   2.166   2.582  13.162  0.1090 -0.6703 -0.4329
 3774SOL    HW122781   2.211   2.627  13.090  0.5066  0.7640  0.7064
 3774SOL    HW222782   2.224   2.508  13.178 -2.2046 -2.2355  0.6298
 3775SOL     OW22783   1.155   2.357   6.092 -0.5564 -0.6092 -0.3008
 3775SOL    HW122784   1.063   2.380   6.075 -0.2612  0.9289  0.1837
 3775SOL    HW222785   1.177   2.282   6.036 -0.5852  0.8967 -2.3192
 3776SOL     OW22786   3.986   2.807  10.202  0.1909  0.3704 -0.7303
 3776SOL    HW122787   4.041   2.841  10.272 -0.9315 -0.1471  0.3977
 3776SOL    HW222788   3.901   2.842  10.230  0.1193  0.6073 -1.2484
 3777SOL     OW22789   2.934   3.066   3.425  0.5413 -0.1896  0.3597
 3777SOL    HW122790   2.855   3.110   3.392 -0.7393 -1.0083  2.3368
 3777SOL    HW222791   3.005   3.118   3.387  0.0246  0.7905  0.7208
 3778SOL     OW22792   4.648   2.868   2.227 -0.1930  0.2661  0.2692
 3778SOL    HW122793   4.696   2.824   2.157 -0.4334  0.6892 -0.1604
 3778SOL    HW222794   4.605   2.934   2.173  1.8015 -0.3784 -2.0699
 3779SOL     OW22795   2.261   2.446   6.134  0.1723  0.1058  0.5173
 3779SOL    HW122796   2.325   2.411   6.072 -1.1791  1.2628 -1.5519
 3779SOL    HW222797   2.301   2.527   6.165  0.2855  0.4197 -0.4291
 3780SOL     OW22798   2.162   0.920   4.304  0.1136  0.0225 -0.2786
 3780SOL    HW122799   2.193   0.838   4.267 -0.4616  0.2051 -1.1460
 3780SOL    HW222800   2.157   0.902   4.398  0.5329  2.2870  0.1817
 3781SOL     OW22801   2.306   1.918   7.199  0.1707 -0.0640 -0.5824
 3781SOL    HW122802   2.216   1.924   7.231  0.1928  2.6974 -1.0718
 3781SOL    HW222803   2.357   1.952   7.272 -5.0015  3.7306  1.3091
 3782SOL     OW22804   1.787   2.376  15.142  0.9033 -0.0192 -0.3667
 3782SOL    HW122805   1.724   2.367  15.070 -1.0779 -0.8966  1.4765
 3782SOL    HW222806   1.874   2.350  15.112  1.7454  2.4431  0.0020
 3783SOL     OW22807   4.612   1.282   8.158  0.1266 -0.3498  0.4235
 3783SOL    HW122808   4.563   1.362   8.178  2.4639  2.0325 -3.2837
 3783SOL    HW222809   4.601   1.228   8.236  0.5515  0.8121  1.2811
 3784SOL     OW22810   4.189   3.330   5.547  0.3444  0.3155  0.6227
 3784SOL    HW122811   4.157   3.240   5.557  1.6442 -0.3207 -0.8638
 3784SOL    HW222812   4.190   3.341   5.452 -2.4298 -0.5008  0.5023
 3785SOL     OW22813   0.828   1.386   4.403 -0.2362  0.2525  0.6949
 3785SOL    HW122814   0.832   1.324   4.331 -3.8186 -0.1751  0.8436
 3785SOL    HW222815   0.742   1.361   4.437  0.0566  1.9242  2.7025
 3786SOL     OW22816   3.630   2.417   7.111 -0.0161 -0.1930 -0.3198
 3786SOL    HW122817   3.638   2.395   7.204 -2.3101 -1.4965 -0.4394
 3786SOL    HW222818   3.719   2.438   7.083 -0.2378  0.6322 -0.4064
 3787SOL     OW22819   4.583   3.318   7.955  0.0947  0.2799 -0.0893
 3787SOL    HW122820   4.504   3.271   7.979  0.6500  0.6913  2.5364
 3787SOL    HW222821   4.621   3.326   8.043  0.6189 -0.5249 -0.2409
 3788SOL     OW22822   2.004   2.892   2.968 -0.3245 -0.3769 -0.7511
 3788SOL    HW122823   2.025   2.840   3.046 -0.4412 -0.1138 -0.5434
 3788SOL    HW222824   1.994   2.970   3.022 -0.8359  0.4306 -2.0438
 3789SOL     OW22825   2.466   2.254  10.759  0.7745 -0.0666 -0.1718
 3789SOL    HW122826   2.516   2.184  10.803 -1.5177 -0.9443  1.0483
 3789SOL    HW222827   2.418   2.200  10.696  2.9120  1.0476 -2.7683
 3790SOL     OW22828   3.607   2.495   4.986  0.4723  0.2210  0.4227
 3790SOL    HW122829   3.529   2.542   5.014 -0.8840 -2.8973  1.8931
 3790SOL    HW222830   3.643   2.552   4.917  1.6865 -1.4675 -0.3450
 3791SOL     OW22831   3.187   1.647   5.400 -0.3207  0.0813  0.0923
 3791SOL    HW122832   3.282   1.651   5.415 -0.1616  0.3535 -1.0460
 3791SOL    HW222833   3.176   1.552   5.395 -0.5755  0.0636  0.8747
 3792SOL     OW22834   0.764   0.986   2.991 -0.0477  0.2218  0.4490
 3792SOL    HW122835   0.815   1.065   3.010 -0.6450  0.1353  2.3911
 3792SOL    HW222836   0.803   0.926   3.053  0.7141  0.7753  0.5050
 3793SOL     OW22837   3.021   3.235   9.635  0.1942 -0.0751  0.0415
 3793SOL    HW122838   3.064   3.287   9.703  1.3506 -0.2582 -0.5479
 3793SOL    HW222839   3.012   3.303   9.569  5.9339  0.4330 -0.2101
 3794SOL     OW22840   0.009   1.074   5.290 -0.0191 -0.3880 -0.0956
 3794SOL    HW122841   0.103   1.079   5.274 -0.2189  1.7422 -0.4921
 3794SOL    HW222842   0.006   1.055   5.384  0.2327  0.3721  0.0660
 3795SOL     OW22843   4.517   2.199  17.410  0.2063  0.2465  0.1610
 3795SOL    HW122844   4.587   2.249  17.366  0.9782  1.1720  2.4110
 3795SOL    HW222845   4.539   2.202  17.503 -4.5663 -0.0024  1.2618
 3796SOL     OW22846   2.849   2.645  12.490 -0.2137  0.4077  0.2255
 3796SOL    HW122847   2.912   2.658  12.420 -0.2482 -2.6147 -0.3575
 3796SOL    HW222848   2.831   2.737  12.512 -0.3389 -0.0327  1.9486
 3797SOL     OW22849   3.227   3.290   3.981  0.2886  0.1993 -0.0881
 3797SOL    HW122850   3.281   3.358   3.942 -1.5649  1.4243 -0.5348
 3797SOL    HW222851   3.193   3.333   4.060  0.1675 -3.4000  1.8264
 3798SOL     OW22852   3.391   0.289   1.228  0.0269 -0.7896 -0.4323
 3798SOL    HW122853   3.318   0.230   1.243  0.4393 -1.0231  0.6264
 3798SOL    HW222854   3.360   0.376   1.251 -2.5135 -1.5787 -0.8539
 3799SOL     OW22855   3.543   1.076   8.316  0.0621 -0.5627  0.2753
 3799SOL    HW122856   3.504   0.990   8.333 -0.8442 -0.0621  0.7005
 3799SOL    HW222857   3.467   1.118   8.277 -2.6283 -2.5827  3.3458
 3800SOL     OW22858   4.688   3.455   5.581  0.5870  0.1557 -0.2433
 3800SOL    HW122859   0.047   3.502   5.566  0.0928  1.0799 -0.0113
 3800SOL    HW222860   4.682   3.390   5.511 -0.1903  0.6203 -0.6215
 3801SOL     OW22861   1.340   4.441   7.282  0.5239 -0.2002  0.1693
 3801SOL    HW122862   1.406   4.382   7.246 -0.8625 -0.6623 -1.6698
 3801SOL    HW222863   1.397   4.504   7.324 -0.5424  1.9816 -1.6215
 3802SOL     OW22864   1.065   2.664   9.238  0.9690 -0.0623  0.0472
 3802SOL    HW122865   1.152   2.697   9.262  1.3723 -0.3621 -1.0097
 3802SOL    HW222866   1.057   2.587   9.294 -0.6975 -0.4367 -0.7119
 3803SOL     OW22867   0.860   0.656   2.965 -0.2238 -0.6898  0.1718
 3803SOL    HW122868   0.933   0.709   2.934  0.3584 -1.5182  0.1412
 3803SOL    HW222869   0.902   0.574   2.940 -0.1032 -0.2269 -1.1259
 3804SOL     OW22870   3.086   0.198  11.189 -0.5169 -0.8037  0.8130
 3804SOL    HW122871   3.048   0.284  11.170 -0.6789 -0.2779  3.6060
 3804SOL    HW222872   3.145   0.198  11.113 -0.8314 -1.7621  0.5641
 3805SOL     OW22873   2.765   4.052   6.956  0.0475 -0.6762  0.1142
 3805SOL    HW122874   2.727   4.118   7.014  2.4537 -0.3170  1.3241
 3805SOL    HW222875   2.685   4.005   6.934  0.4576 -2.2325  2.0077
 3806SOL     OW22876   4.518   2.053   9.677  0.3506 -0.0050  0.1886
 3806SOL    HW122877   4.557   2.114   9.615 -3.6624  0.6556 -1.7186
 3806SOL    HW222878   4.591   1.992   9.690  0.4590  0.1290  0.2036
 3807SOL     OW22879   4.470   4.282   4.149 -0.0733  0.2280 -0.5445
 3807SOL    HW122880   4.421   4.231   4.213 -0.4341 -0.3145 -1.2456
 3807SOL    HW222881   4.410   4.344   4.106  2.6852  1.1696 -3.0287
 3808SOL     OW22882   2.514   0.656   3.728 -0.0908 -0.0021  0.0136
 3808SOL    HW122883   2.497   0.637   3.636  1.0554  0.3427 -0.2612
 3808SOL    HW222884   2.596   0.606   3.729 -0.7540 -1.0093  3.3529
 3809SOL     OW22885   0.749   2.345   7.000 -0.4046  0.0056  0.0275
 3809SOL    HW122886   0.838   2.324   6.974 -0.6348 -0.1607 -0.6313
 3809SOL    HW222887   0.719   2.268   7.048  0.7570 -0.9395 -0.7677
 3810SOL     OW22888   2.887   3.116   1.188 -0.8176 -0.1018  0.1629
 3810SOL    HW122889   2.895   3.125   1.283 -2.3890 -2.7151  0.5554
 3810SOL    HW222890   2.803   3.070   1.191 -0.9098  0.1902  2.0673
 3811SOL     OW22891   0.196   1.218  10.051 -0.4535  0.6028 -0.0046
 3811SOL    HW122892   0.105   1.191  10.066  0.0195 -0.7265  0.5042
 3811SOL    HW222893   0.240   1.133  10.057 -0.0471  0.8668  0.7349
 3812SOL     OW22894   0.907   3.994   4.009  0.0436  0.3818  0.3125
 3812SOL    HW122895   0.853   3.972   3.933  0.5034 -1.5021  0.5348
 3812SOL    HW222896   0.959   4.068   3.977 -0.2660 -0.1860 -1.5436
 3813SOL     OW22897   1.641   4.464   1.633 -0.2573 -0.4123  0.2674
 3813SOL    HW122898   1.581   4.395   1.603 -0.4412  0.8461 -2.3366
 3813SOL    HW222899   1.579   4.536   1.646 -1.4210 -1.4932  0.7227
 3814SOL     OW22900   0.115   3.536   1.742 -0.2628 -0.3424 -0.1314
 3814SOL    HW122901   0.066   3.524   1.824 -2.3192  1.0559 -1.1650
 3814SOL    HW222902   0.083   3.460   1.693  3.8255 -1.6948 -0.7715
 3815SOL     OW22903   4.121   1.679  11.405 -0.4200 -0.3337  0.3112
 3815SOL    HW122904   4.034   1.683  11.445 -0.5677 -0.3385 -0.0115
 3815SOL    HW222905   4.160   1.603  11.449 -0.9052  0.3371  1.8957
 3816SOL     OW22906   1.507   1.872  14.995 -0.4209  0.0858 -0.9284
 3816SOL    HW122907   1.552   1.797  14.957  0.3754 -0.3258  0.8271
 3816SOL    HW222908   1.516   1.844  15.086 -1.2975  3.0510  0.0799
 3817SOL     OW22909   2.273   3.795  13.194  0.1869  0.8008  0.1161
 3817SOL    HW122910   2.330   3.868  13.218 -2.4900  2.7059  0.7498
 3817SOL    HW222911   2.280   3.738  13.270 -1.8465 -1.4600 -1.4021
 3818SOL     OW22912   1.805   2.620   6.307 -0.6112  0.2346 -0.1852
 3818SOL    HW122913   1.822   2.526   6.303 -0.2766  0.2574  0.9334
 3818SOL    HW222914   1.712   2.622   6.284 -0.5011 -1.9786 -0.7869
 3819SOL     OW22915   2.157   3.233  16.391  0.7230  0.0438 -0.0033
 3819SOL    HW122916   2.131   3.174  16.462 -0.3198  1.1024  0.4980
 3819SOL    HW222917   2.234   3.274  16.431 -0.3241  1.3582  0.6653
 3820SOL     OW22918   2.768   2.526   4.249  0.0944  0.5605  0.6069
 3820SOL    HW122919   2.856   2.563   4.255  0.6945 -0.9369  0.9696
 3820SOL    HW222920   2.787   2.443   4.206 -0.7110 -0.1610  1.6705
 3821SOL     OW22921   3.016   0.412   9.380  0.5313 -0.8152  0.1501
 3821SOL    HW122922   2.968   0.400   9.462  4.0220  0.6671  2.4029
 3821SOL    HW222923   3.069   0.332   9.374  1.0488 -0.5826  1.7037
 3822SOL     OW22924   2.208   3.463   2.287  0.1827  0.0186  0.3436
 3822SOL    HW122925   2.288   3.425   2.250  0.0080 -1.0275  1.0312
 3822SOL    HW222926   2.230   3.555   2.278 -0.5164  0.2944  1.4376
 3823SOL     OW22927   3.676   0.863  11.994  0.0369  0.0728 -0.3760
 3823SOL    HW122928   3.668   0.915  12.074  2.4023  0.6615 -0.5334
 3823SOL    HW222929   3.711   0.934  11.940  0.8274 -0.6215 -0.7810
 3824SOL     OW22930   0.930   0.118   4.328 -0.2828  0.1350 -0.0729
 3824SOL    HW122931   0.877   0.140   4.252 -0.2270 -0.9667 -0.4357
 3824SOL    HW222932   0.869   0.070   4.385 -0.2886  0.9753  0.6411
 3825SOL     OW22933   4.023   3.407   5.306 -0.4363 -0.2426  0.1422
 3825SOL    HW122934   4.049   3.493   5.337 -0.4996  0.2879 -1.2720
 3825SOL    HW222935   4.017   3.423   5.212 -2.2674 -3.5083 -0.2979
 3826SOL     OW22936   2.600   4.437   2.129 -0.1340  0.2435 -0.6715
 3826SOL    HW122937   2.635   4.367   2.074  0.5851 -1.3868  1.8673
 3826SOL    HW222938   2.668   4.504   2.130  0.4302 -0.3205 -1.2304
 3827SOL     OW22939   0.859   3.506   5.214 -0.3023 -0.1210 -0.2138
 3827SOL    HW122940   0.869   3.464   5.299  1.7383 -0.6622 -0.7238
 3827SOL    HW222941   0.889   3.596   5.230  0.5396 -0.2692 -0.9391
 3828SOL     OW22942   0.730   0.247  12.389  0.0717 -0.2934  0.1785
 3828SOL    HW122943   0.778   0.258  12.472 -1.7218  2.2072  0.8889
 3828SOL    HW222944   0.646   0.292  12.400  0.1788  0.2218 -1.1267
 3829SOL     OW22945   1.099   2.897   2.998  0.7011  0.3960  0.2382
 3829SOL    HW122946   1.141   2.812   2.987  1.7088  0.9386 -0.1115
 3829SOL    HW222947   1.058   2.894   3.084 -0.9634 -0.7252 -0.5874
 3830SOL     OW22948   3.184   0.085   5.815  0.7069 -0.1671  0.2311
 3830SOL    HW122949   3.180   0.126   5.901 -1.4679  0.6178 -0.2515
 3830SOL    HW222950   3.144   0.157   5.768  1.3378 -0.3314 -0.5647
 3831SOL     OW22951   1.631   1.117  17.676  0.4850 -0.2266  0.4862
 3831SOL    HW122952   1.710   1.103   0.037  0.3235  0.8888  1.0070
 3831SOL    HW222953   1.628   1.212  17.684 -1.1547 -0.2858  0.5318
 3832SOL     OW22954   4.299   3.530   7.656  0.1829 -0.1081  0.0520
 3832SOL    HW122955   4.392   3.539   7.633 -0.0295 -0.3314 -0.9146
 3832SOL    HW222956   4.291   3.437   7.637  0.0129 -0.0159 -0.3408
 3833SOL     OW22957   1.068   2.159   2.449 -0.5495 -0.1309 -0.3232
 3833SOL    HW122958   1.002   2.223   2.424 -1.2176 -0.5830  0.2682
 3833SOL    HW222959   1.058   2.089   2.385 -2.3410  1.4372 -1.7411
 3834SOL     OW22960   0.035   2.060   9.194 -0.2848  0.0445  0.0178
 3834SOL    HW122961   0.064   2.096   9.110  0.9437 -0.4952  0.2150
 3834SOL    HW222962   0.020   1.972   9.160 -0.6506 -0.6719  2.0253
 3835SOL     OW22963   0.654   3.362   7.304 -0.2250 -0.6055  0.3244
 3835SOL    HW122964   0.730   3.365   7.246 -0.3717 -1.4202  0.0878
 3835SOL    HW222965   0.602   3.432   7.265 -0.0483 -0.7606 -0.1932
 3836SOL     OW22966   3.789   2.877   2.189 -0.2234 -0.6338 -0.2365
 3836SOL    HW122967   3.803   2.899   2.097  1.1914 -0.4919  0.0021
 3836SOL    HW222968   3.741   2.796   2.176 -1.2500  0.2381 -1.9551
 3837SOL     OW22969   0.615   1.303   2.585 -0.3956 -0.4393 -0.6940
 3837SOL    HW122970   0.695   1.261   2.618  0.7482  0.9302 -1.7406
 3837SOL    HW222971   0.627   1.396   2.604  1.7976 -0.4631 -2.0236
 3838SOL     OW22972   1.363   0.994   9.174  0.2545  0.2351 -0.7187
 3838SOL    HW122973   1.375   0.903   9.145 -1.8891 -0.2163 -0.2538
 3838SOL    HW222974   1.309   1.032   9.104 -0.2577  0.0506 -0.4235
 3839SOL     OW22975   2.465   4.268   5.449  0.5016  0.0456 -0.0605
 3839SOL    HW122976   2.474   4.255   5.355  2.3827 -2.3443  0.4468
 3839SOL    HW222977   2.549   4.244   5.488  0.3037 -1.1235 -0.3450
 3840SOL     OW22978   3.056   3.801   2.548 -0.0079  0.4693 -0.3730
 3840SOL    HW122979   2.985   3.749   2.587  0.8693  0.7388  1.5877
 3840SOL    HW222980   3.005   3.838   2.477  0.6540  1.0026 -0.5714
 3841SOL     OW22981   1.191   4.418   4.097  0.2795  0.4796 -0.1736
 3841SOL    HW122982   1.280   4.452   4.102 -0.2600  1.6839  1.3794
 3841SOL    HW222983   1.151   4.504   4.114  0.8217  0.8227 -0.6337
 3842SOL     OW22984   4.322   2.642   6.115  0.1139 -0.3522 -0.7180
 3842SOL    HW122985   4.355   2.717   6.165  2.1550  0.2013 -2.9017
 3842SOL    HW222986   4.244   2.682   6.075 -0.6826 -1.0766  0.0974
 3843SOL     OW22987   2.858   4.568  17.176 -0.1643 -0.2508 -0.0891
 3843SOL    HW122988   2.924   4.581  17.244  1.9314 -1.2357 -1.9437
 3843SOL    HW222989   2.917   4.570  17.100 -0.1889  0.9606 -0.0780
 3844SOL     OW22990   4.543   2.982  15.332  0.1662 -0.0215  0.2774
 3844SOL    HW122991   4.520   3.048  15.266 -0.6169  0.9115  1.5043
 3844SOL    HW222992   4.639   2.981  15.330  0.1649  2.1204 -1.2092
 3845SOL     OW22993   4.321   1.836   8.174 -0.3352  0.5927  0.2795
 3845SOL    HW122994   4.405   1.824   8.218 -0.8945  1.1593  1.5042
 3845SOL    HW222995   4.301   1.744   8.156  1.1512 -0.0162  1.6960
 3846SOL     OW22996   2.874   3.297   0.982 -0.9353  0.1394  0.1912
 3846SOL    HW122997   2.849   3.374   1.033  0.4859  0.7807 -0.0588
 3846SOL    HW222998   2.890   3.229   1.048 -2.1940  0.7792  1.1497
 3847SOL     OW22999   0.989   0.294  12.590 -0.0391 -0.5534  0.0280
 3847SOL    HW123000   1.051   0.239  12.542  0.4042 -0.2233  0.2293
 3847SOL    HW223001   1.008   0.372  12.538 -1.2988 -1.0153 -1.1364
 3848SOL     OW23002   4.692   2.628   4.160  0.2279 -0.0478  0.0734
 3848SOL    HW123003   0.002   2.546   4.123  0.7894  0.6683 -1.0062
 3848SOL    HW223004   0.052   2.677   4.162 -0.9875  1.9958  0.2009
 3849SOL     OW23005   1.837   4.356   5.054  0.4847  0.7239 -0.5501
 3849SOL    HW123006   1.849   4.422   4.987 -0.9739  0.2014 -1.3451
 3849SOL    HW223007   1.920   4.310   5.040  1.4072  2.3944 -0.5177
 3850SOL     OW23008   4.240   3.562   3.396  1.1097  0.1536  0.2594
 3850SOL    HW123009   4.331   3.590   3.402  0.9019  0.4867  1.9125
 3850SOL    HW223010   4.245   3.468   3.412 -0.6570  0.1153  0.6054
 3851SOL     OW23011   3.963   2.192   6.627  0.1048 -0.5042 -0.1300
 3851SOL    HW123012   3.950   2.124   6.561  0.0432  1.5194 -2.2174
 3851SOL    HW223013   3.996   2.271   6.585  1.0033 -0.5115  0.5674
 3852SOL     OW23014   2.164   0.405   0.936  0.3934  0.6670 -0.3028
 3852SOL    HW123015   2.213   0.346   0.879  1.9265 -0.9187  2.6630
 3852SOL    HW223016   2.228   0.452   0.989 -0.9917  0.6376  1.3832
 3853SOL     OW23017   4.165   3.191   8.869 -0.0679  0.4733 -0.6301
 3853SOL    HW123018   4.186   3.217   8.779  1.3008 -0.0017 -0.4524
 3853SOL    HW223019   4.117   3.270   8.892  1.0673  1.0206 -0.1489
 3854SOL     OW23020   4.404   2.225   5.597 -0.1245 -0.4596  0.2197
 3854SOL    HW123021   4.370   2.202   5.684 -2.0127 -1.5983 -0.8236
 3854SOL    HW223022   4.491   2.188   5.603 -0.2281 -0.4269  1.9931
 3855SOL     OW23023   0.315   4.471   8.918  0.3288  0.3692  0.4763
 3855SOL    HW123024   0.224   4.499   8.912  1.0947  3.1639  1.9337
 3855SOL    HW223025   0.343   4.459   8.827 -0.8581  2.8960 -0.2570
 3856SOL     OW23026   0.497   3.002   4.358 -0.5408  1.1092  0.2287
 3856SOL    HW123027   0.477   3.035   4.446 -1.6269  0.2078  0.3142
 3856SOL    HW223028   0.593   3.001   4.357 -0.5546  0.1103 -0.3823
 3857SOL     OW23029   0.399   1.911   3.601  0.0407  0.3213 -0.0735
 3857SOL    HW123030   0.383   1.827   3.644 -0.2034 -0.3059 -1.3872
 3857SOL    HW223031   0.339   1.972   3.644 -0.8442 -0.9346  0.4476
 3858SOL     OW23032   4.047   2.456   4.288  0.0840 -0.2380 -0.2053
 3858SOL    HW123033   3.976   2.399   4.316 -0.8541  0.0927 -1.8893
 3858SOL    HW223034   4.129   2.415   4.316  0.6956 -1.0402 -3.2097
 3859SOL     OW23035   2.229   0.470   2.502 -0.2651 -0.2155  0.1531
 3859SOL    HW123036   2.236   0.383   2.542 -2.9871 -0.6111 -0.2603
 3859SOL    HW223037   2.323   0.488   2.495 -1.0012  3.5483 -0.0599
 3860SOL     OW23038   4.669   0.594   0.860 -0.1759 -0.1484  0.2959
 3860SOL    HW123039   0.011   0.524   0.856  0.8531  0.7421  1.1473
 3860SOL    HW223040   4.593   0.555   0.903 -0.0949  0.0426  0.6144
 3861SOL     OW23041   4.003   2.924  11.671  0.2608  0.3116 -0.2716
 3861SOL    HW123042   4.083   2.877  11.647  0.8314  0.3598  1.5270
 3861SOL    HW223043   4.053   2.992  11.716  1.2252  0.5826 -1.7714
 3862SOL     OW23044   0.088   1.786   6.489 -0.0161  0.2281  0.7076
 3862SOL    HW123045   0.046   1.711   6.448  1.9777 -0.1677 -0.6120
 3862SOL    HW223046   0.178   1.782   6.456 -1.1447 -1.0237 -2.2315
 3863SOL     OW23047   1.333   0.132   0.701  0.3619 -0.4070  0.4294
 3863SOL    HW123048   1.246   0.164   0.725  0.3409 -0.3800  0.3195
 3863SOL    HW223049   1.380   0.213   0.683  1.1484 -0.4091  2.5464
 3864SOL     OW23050   1.916   0.234   0.493  0.0187  0.3050  0.3537
 3864SOL    HW123051   1.835   0.226   0.544  0.3192  0.8371  0.9217
 3864SOL    HW223052   1.915   0.329   0.476  0.1925  0.0877 -0.8871
 3865SOL     OW23053   1.533   2.517   1.361 -0.1655 -0.5042  0.0728
 3865SOL    HW123054   1.612   2.559   1.395  0.2447 -0.7752 -0.5443
 3865SOL    HW223055   1.581   2.438   1.336  0.8032 -0.1320  0.7648
 3866SOL     OW23056   1.959   1.808   2.983  0.2599  0.2073  0.1055
 3866SOL    HW123057   1.976   1.805   3.077  0.3359  1.3962  0.1293
 3866SOL    HW223058   1.876   1.759   2.979 -0.8659  2.0476  1.0484
 3867SOL     OW23059   0.368   3.365  12.090  0.0323  0.0465 -0.3046
 3867SOL    HW123060   0.360   3.307  12.165 -1.5883 -0.3312 -0.7686
 3867SOL    HW223061   0.453   3.334  12.059  1.6933  2.6214  1.7477
 3868SOL     OW23062   3.662   0.794   4.453 -0.0414  0.4253  0.1021
 3868SOL    HW123063   3.570   0.766   4.458  0.6262 -2.1478 -2.0182
 3868SOL    HW223064   3.703   0.733   4.515 -1.0053  2.4377  2.7308
 3869SOL     OW23065   1.882   4.236  17.294 -0.3305  0.9789  0.3214
 3869SOL    HW123066   1.855   4.290  17.369  0.6740  3.5583 -1.1855
 3869SOL    HW223067   1.929   4.170  17.344  0.2752  1.7432  0.7714
 3870SOL     OW23068   4.288   0.290   8.467 -0.6877  0.4312 -0.2785
 3870SOL    HW123069   4.309   0.198   8.449 -2.0302  0.3099 -1.2501
 3870SOL    HW223070   4.215   0.283   8.528 -0.4491  1.3995  0.1307
 3871SOL     OW23071   4.179   0.822   5.282 -0.0046  0.0022  0.0957
 3871SOL    HW123072   4.202   0.915   5.286 -0.1115  0.0228  0.2719
 3871SOL    HW223073   4.097   0.819   5.233 -0.3859  1.6112  0.6178
 3872SOL     OW23074   0.571   4.495   3.079 -0.0228  0.1693  0.2416
 3872SOL    HW123075   0.494   4.545   3.105 -0.3115 -0.5137  0.6886
 3872SOL    HW223076   0.639   4.562   3.083  0.5274 -0.2453 -2.3423
 3873SOL     OW23077   0.767   3.364   9.699 -0.2996  0.3133 -0.2581
 3873SOL    HW123078   0.853   3.395   9.669  0.1091  0.1064  0.6863
 3873SOL    HW223079   0.784   3.270   9.706  0.8650  0.2711 -3.4942
 3874SOL     OW23080   0.340   0.702  14.306 -0.2989 -0.0933 -0.1808
 3874SOL    HW123081   0.284   0.662  14.372  0.4683 -0.9329 -0.0498
 3874SOL    HW223082   0.401   0.637  14.273 -0.0581 -0.3634  0.8246
 3875SOL     OW23083   1.715   3.026  15.215  0.2359  0.2613 -0.2087
 3875SOL    HW123084   1.640   3.082  15.198 -0.4663 -0.9710 -1.1400
 3875SOL    HW223085   1.783   3.094  15.219 -0.5274  1.1710 -2.6152
 3876SOL     OW23086   2.194   0.417  10.525 -0.1392 -0.1090 -0.0667
 3876SOL    HW123087   2.219   0.326  10.541  0.5067  0.0412 -0.2413
 3876SOL    HW223088   2.181   0.459  10.610 -1.1017  0.9799 -0.7502
 3877SOL     OW23089   1.181   0.737  10.285  0.1870 -0.3796  0.7630
 3877SOL    HW123090   1.170   0.807  10.349 -2.7009  0.3882 -0.5984
 3877SOL    HW223091   1.275   0.729  10.268  0.5771  2.5304  1.6570
 3878SOL     OW23092   1.034   4.653   9.144 -0.0941 -0.3966  0.3934
 3878SOL    HW123093   1.075   4.701   9.216  1.5034 -2.2179  0.6875
 3878SOL    HW223094   0.953   4.703   9.129  0.5788  0.6108  0.0653
 3879SOL     OW23095   2.855   1.363   7.112  0.9382 -0.5936 -0.0428
 3879SOL    HW123096   2.948   1.383   7.101  1.3076 -1.9911  0.5856
 3879SOL    HW223097   2.831   1.376   7.020 -1.8343 -1.2261  0.6051
 3880SOL     OW23098   1.948   3.712   2.462  0.1914  0.0584 -0.1884
 3880SOL    HW123099   1.881   3.661   2.509  0.2177 -0.5824 -0.8449
 3880SOL    HW223100   2.015   3.731   2.528  0.1348  0.3018 -0.2002
 3881SOL     OW23101   2.880   0.235   4.737 -0.1852 -0.5872  0.3029
 3881SOL    HW123102   2.954   0.290   4.759 -0.9300  0.0771  1.1524
 3881SOL    HW223103   2.812   0.248   4.804 -1.5897 -1.0853 -1.0271
 3882SOL     OW23104   4.653   2.406  17.317  0.2904  0.3909 -0.4794
 3882SOL    HW123105   4.689   2.468  17.254 -0.0070  1.7515  0.6785
 3882SOL    HW223106   4.613   2.471  17.376  1.2306  1.4178 -0.9720
 3883SOL     OW23107   4.443   3.298   2.089  0.2321 -0.1881 -0.2968
 3883SOL    HW123108   4.364   3.294   2.143  1.2663 -0.8286  1.1673
 3883SOL    HW223109   4.478   3.209   2.097  0.5330 -0.2590 -2.2426
 3884SOL     OW23110   3.665   3.591   9.457 -0.1999 -0.1525 -0.3277
 3884SOL    HW123111   3.591   3.651   9.458 -0.8460 -0.9426 -0.6701
 3884SOL    HW223112   3.624   3.506   9.444 -0.0795 -0.1065 -1.0150
 3885SOL     OW23113   0.644   1.392   5.740 -0.5163 -0.0445 -0.0428
 3885SOL    HW123114   0.663   1.485   5.728 -0.1612 -0.4436 -2.5096
 3885SOL    HW223115   0.693   1.377   5.821 -3.3004 -0.5414  1.5527
 3886SOL     OW23116   4.452   3.628   8.621 -0.5798 -0.0117  0.4802
 3886SOL    HW123117   4.485   3.700   8.676 -2.1204  0.9719  0.1205
 3886SOL    HW223118   4.515   3.605   8.553  0.7874  2.1789  0.9969
 3887SOL     OW23119   2.533   0.635   6.970  0.0244  0.0226  0.1304
 3887SOL    HW123120   2.502   0.726   6.966 -0.0008  0.0293  0.4425
 3887SOL    HW223121   2.474   0.595   7.034  1.0689 -0.4054  0.8331
 3888SOL     OW23122   1.635   2.333   1.757  0.1432  0.2667  0.6900
 3888SOL    HW123123   1.604   2.341   1.847  0.5764  0.9823  0.7794
 3888SOL    HW223124   1.638   2.426   1.734 -2.8277 -0.4187 -2.4161
 3889SOL     OW23125   4.721   1.215   4.665 -0.8594  0.6713  0.1749
 3889SOL    HW123126   4.645   1.158   4.680  0.2770 -1.1439 -0.9227
 3889SOL    HW223127   0.014   1.209   4.571  2.1861  0.5682  0.6871
 3890SOL     OW23128   3.048   1.082  14.857  0.3755 -0.1506  0.2889
 3890SOL    HW123129   2.971   1.063  14.911 -0.5286 -2.5667 -1.8486
 3890SOL    HW223130   3.124   1.047  14.904  0.8845  0.0717 -0.3763
 3891SOL     OW23131   2.385   1.145   5.710  0.0306  0.1695 -0.0593
 3891SOL    HW123132   2.296   1.174   5.729 -0.6667 -0.9240 -1.5943
 3891SOL    HW223133   2.396   1.199   5.632 -1.0489 -1.5610 -1.4329
 3892SOL     OW23134   0.673   4.581   3.401 -0.2687 -0.3405 -0.3761
 3892SOL    HW123135   0.585   4.561   3.433  0.1244 -0.0904  0.8604
 3892SOL    HW223136   0.689   4.669   3.436 -0.5520 -0.9682  1.3580
 3893SOL     OW23137   1.562   2.684   9.112 -0.3190  0.5677  0.2274
 3893SOL    HW123138   1.588   2.770   9.081 -0.5673  0.4059 -0.4380
 3893SOL    HW223139   1.635   2.632   9.079 -0.4447  0.6612 -0.1896
 3894SOL     OW23140   1.622   2.111   7.259 -0.1816 -0.2257 -0.4838
 3894SOL    HW123141   1.713   2.092   7.280  0.0646  0.5160 -0.8819
 3894SOL    HW223142   1.610   2.073   7.172  1.9871 -0.0259 -0.8676
 3895SOL     OW23143   3.040   0.719  12.501 -0.2772  0.4570 -0.0585
 3895SOL    HW123144   3.010   0.747  12.588  1.3632  1.4233  0.2085
 3895SOL    HW223145   2.980   0.772  12.449 -2.0289  0.2837  1.8133
 3896SOL     OW23146   0.441   2.161   8.983  0.0465  0.7680  0.2691
 3896SOL    HW123147   0.453   2.199   9.070 -0.1151  2.0106 -0.2537
 3896SOL    HW223148   0.526   2.183   8.944 -0.5735 -0.3524 -1.7164
 3897SOL     OW23149   3.277   1.097   7.639 -0.2101 -0.2440  0.4509
 3897SOL    HW123150   3.251   1.041   7.566  0.7805 -0.6305  0.3944
 3897SOL    HW223151   3.368   1.116   7.617 -0.1534 -1.4285 -0.3557
 3898SOL     OW23152   2.405   2.014   1.126 -0.0220 -0.3450 -0.2785
 3898SOL    HW123153   2.475   2.079   1.130  1.7231 -2.3420  1.6101
 3898SOL    HW223154   2.347   2.055   1.062 -0.7773 -0.1306  0.5325
 3899SOL     OW23155   0.294   1.557   2.476 -0.0352  0.3817 -0.2919
 3899SOL    HW123156   0.238   1.629   2.447 -2.4645 -2.1240 -1.7413
 3899SOL    HW223157   0.364   1.557   2.411 -0.9970 -1.0089 -1.3321
 3900SOL     OW23158   2.375   0.596   2.759 -0.3406  0.1324  0.0921
 3900SOL    HW123159   2.417   0.591   2.673  0.2858  0.5004  0.3757
 3900SOL    HW223160   2.440   0.551   2.814 -0.5533  0.6755  0.7759
 3901SOL     OW23161   3.796   0.078   0.372  0.0238  0.0464 -0.2644
 3901SOL    HW123162   3.850   0.131   0.430 -0.6745 -1.4616  1.7790
 3901SOL    HW223163   3.732   0.146   0.353 -0.7194  0.2665  3.0530
 3902SOL     OW23164   0.055   4.348   6.662  0.7616  0.1174  0.1957
 3902SOL    HW123165   0.127   4.388   6.613 -0.0746 -0.7302 -1.7595
 3902SOL    HW223166   4.717   4.409   6.704 -0.2306  0.0635 -1.1469
 3903SOL     OW23167   3.504   0.926   6.662 -0.2958 -0.2416  0.3820
 3903SOL    HW123168   3.431   0.988   6.672 -0.0512  0.0300  0.4738
 3903SOL    HW223169   3.472   0.856   6.719  0.1666  0.0904  1.0414
 3904SOL     OW23170   0.180   2.798   4.174 -0.3122 -0.5225 -0.7605
 3904SOL    HW123171   0.116   2.870   4.168  1.2428  1.2575  4.2350
 3904SOL    HW223172   0.261   2.848   4.166  0.1641 -1.2535 -0.4114
 3905SOL     OW23173   3.641   2.796   4.332 -0.1065 -0.3221 -0.4811
 3905SOL    HW123174   3.698   2.755   4.267  0.5172  1.5938 -1.1642
 3905SOL    HW223175   3.691   2.865   4.375 -0.7769 -0.5472  0.6641
 3906SOL     OW23176   3.989   0.654   3.990 -0.4553  0.4790  0.0399
 3906SOL    HW123177   4.024   0.742   3.981  2.4712 -0.8389 -1.4221
 3906SOL    HW223178   4.054   0.605   3.940  0.0499  0.6116  0.5737
 3907SOL     OW23179   1.307   0.826  16.048 -0.0784  0.1831  0.0077
 3907SOL    HW123180   1.257   0.840  15.968  0.7599 -0.4929 -0.6371
 3907SOL    HW223181   1.272   0.892  16.107 -0.7672 -0.2061  0.0311
 3908SOL     OW23182   4.679   2.016  17.592 -0.0638  0.1917 -0.2174
 3908SOL    HW123183   4.711   2.082  17.653 -1.6564  1.4863 -0.7838
 3908SOL    HW223184   0.037   1.968  17.571 -0.3820 -0.3309 -0.2550
 3909SOL     OW23185   2.462   1.240  12.368 -0.2876  0.2700  0.1405
 3909SOL    HW123186   2.505   1.224  12.451 -2.5750 -0.7484  1.1412
 3909SOL    HW223187   2.520   1.304  12.327 -0.3711  0.6322  0.5868
 3910SOL     OW23188   2.160   2.816  11.073  0.3611 -0.6387  0.0805
 3910SOL    HW123189   2.254   2.831  11.082  0.5814 -0.1354 -2.8608
 3910SOL    HW223190   2.158   2.730  11.030  1.3745 -0.3534 -0.5454
 3911SOL     OW23191   0.225   0.050  10.709  0.6216  0.2540 -0.2724
 3911SOL    HW123192   0.252   0.094  10.629 -1.7795 -0.7911 -1.6611
 3911SOL    HW223193   0.192   0.125  10.760  1.4119  1.4236 -1.4772
 3912SOL     OW23194   3.707   3.269   7.498 -0.0208  0.0858 -0.3802
 3912SOL    HW123195   3.788   3.234   7.534 -0.4007 -1.6185 -1.1371
 3912SOL    HW223196   3.723   3.361   7.480 -0.7701 -0.0038 -1.5248
 3913SOL     OW23197   2.536   2.402   7.375 -0.7389 -0.0772  0.1296
 3913SOL    HW123198   2.460   2.450   7.410 -0.9150  1.0447 -1.7872
 3913SOL    HW223199   2.527   2.428   7.283 -0.4630 -0.7749 -0.0915
 3914SOL     OW23200   0.816   0.751   6.904  0.3869  0.1001  0.0032
 3914SOL    HW123201   0.896   0.713   6.939 -0.0354  0.6189  1.5128
 3914SOL    HW223202   0.844   0.830   6.858  1.1310 -1.4512 -2.1872
 3915SOL     OW23203   3.443   3.048   5.508  0.0899 -0.1243 -0.5506
 3915SOL    HW123204   3.467   3.067   5.417 -0.3377  0.4515 -0.5479
 3915SOL    HW223205   3.503   3.095   5.565  0.5329  1.7223 -2.5323
 3916SOL     OW23206   4.216   1.932   7.018  0.6011  0.1796  0.0400
 3916SOL    HW123207   4.212   1.857   7.077 -0.6273  0.1587 -0.0693
 3916SOL    HW223208   4.233   1.898   6.930 -1.6034  1.9448 -1.0665
 3917SOL     OW23209   0.705   1.926   7.574 -0.5238 -0.5859 -0.1650
 3917SOL    HW123210   0.779   1.986   7.585 -0.2334 -0.9070 -0.3773
 3917SOL    HW223211   0.728   1.902   7.485 -0.3930  2.3442 -0.9126
 3918SOL     OW23212   0.238   4.514   9.206  0.3610  0.5103  0.7134
 3918SOL    HW123213   0.248   4.440   9.266 -1.2220 -0.0508  0.2697
 3918SOL    HW223214   0.171   4.567   9.247  0.0238  0.7395 -0.1366
 3919SOL     OW23215   1.710   2.186   3.134  0.0038  0.4354 -0.4148
 3919SOL    HW123216   1.803   2.178   3.154  0.3186  2.1658 -1.1784
 3919SOL    HW223217   1.679   2.140   3.213 -0.4328 -2.6499 -2.3906
 3920SOL     OW23218   1.045   3.376   9.649 -0.4568  0.0802  0.6916
 3920SOL    HW123219   1.086   3.292   9.630  1.2783  0.8231  1.1221
 3920SOL    HW223220   1.065   3.415   9.564  1.5774  2.8911  2.4344
 3921SOL     OW23221   4.007   4.389   7.967  0.0927  0.1062 -0.0969
 3921SOL    HW123222   4.043   4.423   8.049  0.8687 -0.8769 -0.0274
 3921SOL    HW223223   3.915   4.399   7.992 -0.3107 -0.0488 -1.5251
 3922SOL     OW23224   0.930   1.723   6.591  0.4649  0.4796  0.0075
 3922SOL    HW123225   0.954   1.656   6.655 -1.0778 -0.9030 -0.8612
 3922SOL    HW223226   1.017   1.759   6.570  0.8080  0.5147  1.4941
 3923SOL     OW23227   0.717   0.143  17.115 -0.1598  0.1941  0.6231
 3923SOL    HW123228   0.762   0.204  17.173  0.1031 -1.0427  1.7137
 3923SOL    HW223229   0.651   0.197  17.071 -2.6888 -0.8655  3.1821
 3924SOL     OW23230   4.535   2.443   4.452  0.4594 -0.3867  0.0008
 3924SOL    HW123231   4.589   2.522   4.452 -0.8313  0.4918 -2.5801
 3924SOL    HW223232   4.597   2.372   4.467  0.9904  0.2028  0.5740
 3925SOL     OW23233   1.404   0.321  16.982 -0.3136 -0.6727 -0.3588
 3925SOL    HW123234   1.322   0.369  16.971  0.2608 -0.2430 -2.9459
 3925SOL    HW223235   1.464   0.388  16.949  0.3496 -0.2498  1.7142
 3926SOL     OW23236   2.053   0.166   8.149  0.2478 -0.0616  0.6945
 3926SOL    HW123237   2.108   0.221   8.093 -0.0751  0.9913  1.4323
 3926SOL    HW223238   2.104   0.165   8.230  0.7383  0.3154  0.3952
 3927SOL     OW23239   0.394   1.096   6.690 -0.3232 -0.5559 -0.1700
 3927SOL    HW123240   0.408   1.093   6.595 -0.7701  1.9479 -0.3071
 3927SOL    HW223241   0.337   1.173   6.687 -1.5415 -1.4349  0.3117
 3928SOL     OW23242   0.109   2.429   9.935 -0.1062 -0.4043  0.1850
 3928SOL    HW123243   0.023   2.462   9.963  0.0192  0.2931 -0.2397
 3928SOL    HW223244   0.095   2.335   9.925 -0.9012 -0.5418  2.5985
 3929SOL     OW23245   0.309   4.512   6.090  0.1798 -0.7271  0.0396
 3929SOL    HW123246   0.350   4.482   6.009  3.1839 -0.5576  1.4965
 3929SOL    HW223247   0.244   4.449   6.119  0.0904  0.4217  2.3672
 3930SOL     OW23248   1.310   2.801   5.514 -0.2517  0.0971 -0.3282
 3930SOL    HW123249   1.299   2.850   5.432 -0.3527  1.4507  0.4988
 3930SOL    HW223250   1.330   2.709   5.496  1.3063  0.1685  1.0344
 3931SOL     OW23251   2.200   0.118   1.391  0.4121 -0.3149 -0.0013
 3931SOL    HW123252   2.118   0.121   1.341 -1.8949  3.7558  3.9624
 3931SOL    HW223253   2.164   0.146   1.476 -0.6113 -2.9503  0.4436
 3932SOL     OW23254   4.339   1.607   3.681 -0.6325 -0.1363 -0.1740
 3932SOL    HW123255   4.388   1.543   3.630 -0.8849 -1.4647  1.2884
 3932SOL    HW223256   4.333   1.565   3.766  2.2071 -1.3397 -0.5609
 3933SOL     OW23257   3.046   0.579   0.283  0.9565 -0.5897 -0.1583
 3933SOL    HW123258   3.108   0.506   0.284  0.2478 -1.1997 -1.8298
 3933SOL    HW223259   3.097   0.649   0.324 -0.4214  0.0238  0.5328
 3934SOL     OW23260   1.558   3.544   4.034  0.1355  0.4630  0.6727
 3934SOL    HW123261   1.617   3.619   4.029  1.6314 -0.6788  1.1774
 3934SOL    HW223262   1.493   3.575   3.971 -0.3353  0.5828  1.2302
 3935SOL     OW23263   3.597   3.601   8.764 -0.7048 -0.3999 -0.6882
 3935SOL    HW123264   3.608   3.546   8.842 -2.9266 -0.4004 -0.3761
 3935SOL    HW223265   3.621   3.683   8.807 -0.8214  0.4172 -2.1741
 3936SOL     OW23266   0.189   3.995   3.708 -0.3933  0.2199  0.2003
 3936SOL    HW123267   0.191   4.008   3.803 -0.5651  2.8325 -0.1549
 3936SOL    HW223268   0.108   4.037   3.681 -0.0279  0.6430 -0.2570
 3937SOL     OW23269   3.783   1.121   8.645 -0.3343  0.2087 -0.0599
 3937SOL    HW123270   3.867   1.135   8.602  0.2428 -0.5323  0.8370
 3937SOL    HW223271   3.798   1.087   8.733 -1.3907 -0.1969 -0.0365
 3938SOL     OW23272   1.045   4.030   7.242 -0.2387  0.3862  0.7830
 3938SOL    HW123273   1.035   4.040   7.336  0.9765 -0.9988  1.0581
 3938SOL    HW223274   1.137   4.033   7.215 -0.4472 -0.1961 -0.0047
 3939SOL     OW23275   0.983   2.758   4.109 -0.9543  0.0690 -0.1039
 3939SOL    HW123276   0.966   2.844   4.147 -0.2180 -0.0588  0.5279
 3939SOL    HW223277   0.946   2.783   4.025  0.6682  0.3554 -0.7237
 3940SOL     OW23278   4.431   0.832   0.022  0.2693  0.8541  0.0616
 3940SOL    HW123279   4.398   0.901  17.657  2.3839  1.5230 -0.3678
 3940SOL    HW223280   4.514   0.807  17.675 -0.4291 -1.9885  0.3992
 3941SOL     OW23281   0.168   4.401   7.823  0.4029 -0.2192  0.2987
 3941SOL    HW123282   0.158   4.464   7.894 -1.0636  0.9042 -0.9089
 3941SOL    HW223283   0.177   4.460   7.748 -0.9649  0.4073  0.6299
 3942SOL     OW23284   2.031   0.526  11.539  0.3702 -0.1620  0.7353
 3942SOL    HW123285   2.068   0.596  11.485  0.8530  0.4541  1.8520
 3942SOL    HW223286   2.033   0.582  11.617 -2.5513 -0.6625  1.1809
 3943SOL     OW23287   1.088   1.274   6.195  0.6622 -0.0448  0.4708
 3943SOL    HW123288   1.129   1.313   6.119 -0.9496 -1.7943 -1.2901
 3943SOL    HW223289   1.160   1.277   6.258  0.7007 -0.0028  0.4251
 3944SOL     OW23290   2.890   0.834  15.000  0.3027 -0.2959 -0.1167
 3944SOL    HW123291   2.959   0.769  15.012 -0.3893 -1.2347 -1.3028
 3944SOL    HW223292   2.867   0.833  14.907  1.8983 -5.5827 -0.4713
 3945SOL     OW23293   2.499   1.881  15.731 -0.4707 -0.0312 -0.0682
 3945SOL    HW123294   2.411   1.887  15.692  0.9304  1.0952 -3.0525
 3945SOL    HW223295   2.481   1.936  15.807  1.8627  1.1040 -0.3596
 3946SOL     OW23296   2.978   4.005   1.538 -0.4220  0.2658  0.1616
 3946SOL    HW123297   3.023   4.065   1.598  1.1831  0.7691 -1.5815
 3946SOL    HW223298   3.045   3.956   1.491 -0.9503  0.9223 -1.2658
 3947SOL     OW23299   2.736   1.251   3.549 -0.0132  0.5781  0.2541
 3947SOL    HW123300   2.642   1.239   3.566  0.0468  0.8627  0.7968
 3947SOL    HW223301   2.780   1.175   3.587 -1.6265 -0.0196  0.9532
 3948SOL     OW23302   3.637   2.626  10.384  0.5472 -0.0713 -0.3084
 3948SOL    HW123303   3.610   2.559  10.322 -0.0366  0.9128 -1.1191
 3948SOL    HW223304   3.556   2.673  10.400  0.9030  0.4336  0.0229
 3949SOL     OW23305   0.980   1.276   4.700  0.3015 -0.4130 -0.1202
 3949SOL    HW123306   0.942   1.204   4.650  1.4770 -1.1158  0.0091
 3949SOL    HW223307   1.054   1.294   4.642  0.3316 -0.5062 -0.1111
 3950SOL     OW23308   0.385   1.748   3.871  0.1943 -0.3315  0.0250
 3950SOL    HW123309   0.369   1.827   3.923 -0.3670 -1.1737  1.1279
 3950SOL    HW223310   0.463   1.711   3.911  0.8311  0.7625 -0.2000
 3951SOL     OW23311   0.282   3.815   6.443  0.1807  0.5385 -0.3060
 3951SOL    HW123312   0.343   3.751   6.407  0.0446 -0.3689  1.0736
 3951SOL    HW223313   0.195   3.776   6.432  0.3162  0.6817 -1.8613
 3952SOL     OW23314   1.860   1.186   7.441 -0.0163 -0.3280 -1.1671
 3952SOL    HW123315   1.875   1.266   7.391  0.6169  1.5807  2.1078
 3952SOL    HW223316   1.952   1.163   7.454  0.1825  0.7770 -0.6738
 3953SOL     OW23317   2.798   1.207   2.126  0.3438 -0.0515 -0.2313
 3953SOL    HW123318   2.857   1.144   2.083 -2.5327 -1.6825 -1.7556
 3953SOL    HW223319   2.805   1.278   2.062 -1.5329 -0.1704 -0.5468
 3954SOL     OW23320   3.028   1.193   3.921  0.0555 -0.2807 -0.1932
 3954SOL    HW123321   3.074   1.163   3.999 -0.6599 -0.1191  0.2891
 3954SOL    HW223322   2.952   1.240   3.955 -1.6780 -2.4670 -0.9745
 3955SOL     OW23323   3.208   0.862  14.909 -0.4578  0.1178 -0.2767
 3955SOL    HW123324   3.262   0.875  14.831  2.1692  3.2817  2.0454
 3955SOL    HW223325   3.236   0.773  14.932  1.1063  0.6536 -0.0972
 3956SOL     OW23326   3.685   3.988   9.437 -0.3005  0.3153 -0.7549
 3956SOL    HW123327   3.649   4.069   9.401 -1.8641 -0.4134 -0.8608
 3956SOL    HW223328   3.604   3.937   9.427  0.9579 -1.8526 -0.0998
 3957SOL     OW23329   2.080   0.804   6.631 -0.1575  0.1002 -0.0617
 3957SOL    HW123330   2.145   0.760   6.685 -0.9827 -1.6829 -0.5162
 3957SOL    HW223331   2.037   0.869   6.687  0.5523  0.0820  0.4992
 3958SOL     OW23332   0.616   4.090  12.315  0.4097  0.2730  0.4648
 3958SOL    HW123333   0.693   4.141  12.341  0.8290 -0.0908 -0.0598
 3958SOL    HW223334   0.570   4.093  12.399  0.3275 -1.1198  0.4678
 3959SOL     OW23335   4.545   3.136   2.946  0.4128 -0.2876 -0.5108
 3959SOL    HW123336   4.504   3.054   2.919 -1.6119  1.6196 -3.3327
 3959SOL    HW223337   4.476   3.196   2.917 -0.6638  0.0650  2.8077
 3960SOL     OW23338   0.842   4.231   8.434 -0.3184 -0.1271  0.0736
 3960SOL    HW123339   0.901   4.260   8.503 -0.1957  0.2270 -0.1755
 3960SOL    HW223340   0.863   4.138   8.424 -0.6218 -0.3770  1.8152
 3961SOL     OW23341   1.855   1.125   3.572  0.4905 -0.0024 -0.1057
 3961SOL    HW123342   1.906   1.047   3.548  0.6803 -0.0915  0.5847
 3961SOL    HW223343   1.813   1.102   3.655 -1.1970  1.4592 -0.5713
 3962SOL     OW23344   2.220   3.811   8.429  0.3809  0.0174 -0.0007
 3962SOL    HW123345   2.296   3.802   8.372  0.3906  1.0891 -0.1636
 3962SOL    HW223346   2.259   3.864   8.500  2.0114 -2.0744  0.6646
 3963SOL     OW23347   1.471   3.853   2.201  0.1077 -0.0585  0.1141
 3963SOL    HW123348   1.462   3.944   2.230 -1.9924 -0.2151 -0.0897
 3963SOL    HW223349   1.544   3.864   2.140 -0.5702 -0.3596 -0.7537
 3964SOL     OW23350   4.592   3.949  11.254 -0.3290  0.0216  1.1780
 3964SOL    HW123351   4.655   4.016  11.230 -1.0928  0.6590  0.9641
 3964SOL    HW223352   4.645   3.891  11.309  1.2590  0.8946  0.5725
 3965SOL     OW23353   4.062   4.558   5.494  0.3164  0.1591  0.1736
 3965SOL    HW123354   3.989   4.526   5.548 -0.3397  0.3924 -0.5819
 3965SOL    HW223355   4.137   4.582   5.547  1.6981  0.2972 -1.8410
 3966SOL     OW23356   3.141   1.332   0.027 -0.7547  0.7014  0.4225
 3966SOL    HW123357   3.182   1.336  17.633  1.7653 -0.9562  1.5436
 3966SOL    HW223358   3.213   1.373   0.075  1.8867 -3.2782 -0.0798
 3967SOL     OW23359   3.031   1.608  12.459  0.3615  0.0142  0.3846
 3967SOL    HW123360   3.020   1.689  12.509 -0.0095  0.8822 -1.1194
 3967SOL    HW223361   2.957   1.558  12.494 -0.3056  1.7468  1.4312
 3968SOL     OW23362   2.944   3.266  14.084 -0.7175  0.1951 -0.3258
 3968SOL    HW123363   2.892   3.344  14.099  0.6213  1.0983 -0.4047
 3968SOL    HW223364   2.913   3.225  14.003  0.7204 -0.1983 -0.6826
 3969SOL     OW23365   3.549   1.100   5.957  0.3546 -0.4468 -0.5808
 3969SOL    HW123366   3.486   1.063   5.896  0.4224 -1.9381  0.2632
 3969SOL    HW223367   3.570   1.025   6.012 -0.1345 -0.8931 -1.0102
 3970SOL     OW23368   1.471   0.547  11.469 -0.1078 -0.2494  0.8389
 3970SOL    HW123369   1.542   0.510  11.416 -1.3504 -1.1652 -0.1999
 3970SOL    HW223370   1.491   0.504  11.552  2.2880 -1.4491 -0.3589
 3971SOL     OW23371   4.518   0.923   8.715 -0.2213 -0.2054  0.3782
 3971SOL    HW123372   4.491   1.012   8.737 -3.3077 -0.4197 -2.6427
 3971SOL    HW223373   4.446   0.909   8.654 -2.2043  1.1480  2.4031
 3972SOL     OW23374   3.407   0.860  15.136 -0.5778  0.0544  1.1416
 3972SOL    HW123375   3.435   0.784  15.188 -0.1742  0.0467  0.9124
 3972SOL    HW223376   3.319   0.846  15.169 -0.6064  1.0287  1.4627
 3973SOL     OW23377   1.992   4.297   3.889  0.2484  0.3758 -0.5776
 3973SOL    HW123378   2.028   4.282   3.977  2.8378 -1.5891 -1.9755
 3973SOL    HW223379   2.028   4.383   3.868  1.4826  0.2568  0.9931
 3974SOL     OW23380   4.027   3.228   9.122 -0.4747  0.5794 -0.1647
 3974SOL    HW123381   3.954   3.167   9.113  1.9555 -2.2687 -0.5744
 3974SOL    HW223382   4.006   3.299   9.062  2.1140 -0.0135 -1.8188
 3975SOL     OW23383   2.062   2.517  15.272 -0.0503 -0.1173 -0.2476
 3975SOL    HW123384   2.016   2.555  15.197 -1.5108  1.5627  1.4875
 3975SOL    HW223385   1.987   2.492  15.326  1.4252 -3.1420  0.4344
 3976SOL     OW23386   4.647   1.525  16.516 -0.1009 -0.3128  0.0238
 3976SOL    HW123387   4.582   1.492  16.455 -1.1235  1.7769 -0.0315
 3976SOL    HW223388   0.005   1.506  16.469 -1.6518 -0.5435 -2.5210
 3977SOL     OW23389   1.909   2.281   5.780  0.1307 -0.6755  0.0765
 3977SOL    HW123390   1.836   2.264   5.840 -0.1094  3.3488  0.9306
 3977SOL    HW223391   1.857   2.315   5.708 -0.3849 -1.2987  0.1536
 3978SOL     OW23392   2.006   1.980   4.789  0.0738  0.2462  0.0800
 3978SOL    HW123393   2.044   2.019   4.710  1.1745 -1.7679 -0.3707
 3978SOL    HW223394   2.031   1.889   4.778 -2.2149 -0.5317  1.3052
 3979SOL     OW23395   3.892   3.050   6.298 -0.0503  0.2593  0.3562
 3979SOL    HW123396   3.876   3.128   6.351  0.5458  1.0447 -0.6160
 3979SOL    HW223397   3.981   3.074   6.273  0.2520 -0.8278  0.3748
 3980SOL     OW23398   0.446   3.015   7.075 -0.0027 -0.1355  0.4076
 3980SOL    HW123399   0.433   3.026   7.169  0.1810  0.2182  0.3900
 3980SOL    HW223400   0.480   2.925   7.067 -0.0251 -0.0323 -0.9157
 3981SOL     OW23401   2.646   0.636  15.183 -0.0700  0.0750  0.0619
 3981SOL    HW123402   2.738   0.640  15.156 -0.8058 -1.6666 -2.6467
 3981SOL    HW223403   2.615   0.596  15.102 -0.5988 -1.0235  0.8164
 3982SOL     OW23404   2.080   0.226   0.282  0.6777  0.0781 -0.1727
 3982SOL    HW123405   2.028   0.200   0.358  1.5808  2.8491  1.3574
 3982SOL    HW223406   2.168   0.202   0.311 -0.3705 -0.3895  2.6349
 3983SOL     OW23407   3.897   2.757   4.542  0.5555  0.3637 -0.2143
 3983SOL    HW123408   3.896   2.846   4.507  1.8959  0.2711 -0.5085
 3983SOL    HW223409   3.991   2.736   4.546  0.4749  0.3354  1.5266
 3984SOL     OW23410   2.346   0.188  16.362 -0.3912  0.0566  0.1900
 3984SOL    HW123411   2.317   0.127  16.293 -1.8996  1.1423 -0.1166
 3984SOL    HW223412   2.390   0.246  16.299 -0.2082  0.1780  0.4302
 3985SOL     OW23413   0.991   3.702   2.780  0.0407  0.1284 -0.2550
 3985SOL    HW123414   1.019   3.790   2.755  0.3067  0.4250  1.0757
 3985SOL    HW223415   0.896   3.709   2.784 -0.0918 -0.4218 -2.7282
 3986SOL     OW23416   2.140   2.525  16.949  0.3403  0.2051  0.2242
 3986SOL    HW123417   2.213   2.473  16.916 -0.7617  0.1517 -2.1887
 3986SOL    HW223418   2.126   2.481  17.033  0.5340  1.5165  0.9324
 3987SOL     OW23419   2.116   2.830   2.191  0.3379 -0.5751  0.3307
 3987SOL    HW123420   2.053   2.791   2.251  0.2421 -1.7377 -0.5073
 3987SOL    HW223421   2.059   2.893   2.148  0.9942  1.2275  2.1275
 3988SOL     OW23422   3.188   1.513   1.231  0.1943  0.3741 -0.7217
 3988SOL    HW123423   3.115   1.457   1.204 -0.7052  0.5272  1.4089
 3988SOL    HW223424   3.214   1.551   1.147 -1.8126  0.2662 -1.3820
 3989SOL     OW23425   3.310   2.407   3.449  0.2582  0.7142  0.0148
 3989SOL    HW123426   3.268   2.490   3.473  2.2998  1.7726 -0.0603
 3989SOL    HW223427   3.320   2.371   3.537  2.2924 -2.6818 -1.5969
 3990SOL     OW23428   3.698   4.638   5.435 -0.5012  0.2808 -0.0320
 3990SOL    HW123429   3.653   4.619   5.352  0.3410 -0.9984 -0.1975
 3990SOL    HW223430   3.706   0.010   5.421 -2.1188  0.6493  1.4367
 3991SOL     OW23431   0.482   2.551   2.865 -0.5787  0.5522 -0.1240
 3991SOL    HW123432   0.517   2.639   2.881  0.5711 -0.0169  0.5686
 3991SOL    HW223433   0.389   2.570   2.876  0.2834  3.1784  2.7531
 3992SOL     OW23434   2.819   3.756   6.844 -0.6301 -0.0519  0.2226
 3992SOL    HW123435   2.777   3.833   6.806 -2.4162 -2.2750 -2.2682
 3992SOL    HW223436   2.850   3.789   6.929  1.1462  0.7321 -0.7202
 3993SOL     OW23437   0.700   2.261  15.417 -0.4746  0.2062  0.1394
 3993SOL    HW123438   0.660   2.216  15.492 -0.8594  0.4375  0.0670
 3993SOL    HW223439   0.754   2.201  15.365  2.6323  1.1258  2.2343
 3994SOL     OW23440   1.293   3.159  16.005 -0.2735  0.4775 -0.2949
 3994SOL    HW123441   1.222   3.157  15.941  0.5346  1.0735 -1.2041
 3994SOL    HW223442   1.310   3.065  16.013 -1.9324  0.1056 -1.1580
 3995SOL     OW23443   3.595   0.620   9.128 -0.1609 -0.2926 -0.6805
 3995SOL    HW123444   3.660   0.656   9.188 -1.7674  0.4240  0.6463
 3995SOL    HW223445   3.652   0.568   9.071 -0.5216 -0.8901 -0.4879
 3996SOL     OW23446   3.343   2.319   4.040  0.3405 -0.1705  0.0147
 3996SOL    HW123447   3.375   2.405   4.013 -0.8508 -0.3059 -1.8210
 3996SOL    HW223448   3.417   2.300   4.098  0.8765  0.6472 -0.3965
 3997SOL     OW23449   3.950   4.245  12.896 -0.5563  0.0149  0.0092
 3997SOL    HW123450   3.973   4.211  12.983 -0.7896  0.8483  0.4022
 3997SOL    HW223451   4.035   4.258  12.854 -1.0231 -0.5437 -1.0909
 3998SOL     OW23452   1.873   1.686   9.220 -0.6422 -0.1217  0.3293
 3998SOL    HW123453   1.952   1.645   9.184 -1.0059 -1.3054  0.8977
 3998SOL    HW223454   1.908   1.768   9.254 -2.5600 -0.5471  3.3007
 3999SOL     OW23455   1.764   0.152   7.799 -0.9004  0.7558  0.4509
 3999SOL    HW123456   1.671   0.135   7.784 -0.5189  1.6374 -2.9964
 3999SOL    HW223457   1.781   0.088   7.868  3.6133 -0.7490 -2.0977
 4000SOL     OW23458   2.267   0.029   6.889 -0.6172  0.0333 -0.2578
 4000SOL    HW123459   2.330   4.680   6.888  0.5416  1.0444 -1.2505
 4000SOL    HW223460   2.193   4.699   6.859 -0.7926 -0.0596  0.3377
 4001SOL     OW23461   4.245   3.633   7.946 -0.3609  0.3658  0.4154
 4001SOL    HW123462   4.247   3.579   7.868 -1.7811  0.0486  0.6003
 4001SOL    HW223463   4.258   3.567   8.014  1.4009  0.6730  0.3820
 4002SOL     OW23464   2.894   1.256  15.949 -0.2745  0.2779 -0.4570
 4002SOL    HW123465   2.804   1.227  15.935  0.6835 -3.0129  0.1357
 4002SOL    HW223466   2.885   1.264  16.044 -1.9078 -0.4104 -0.5480
 4003SOL     OW23467   0.248   0.883   3.944 -0.3695 -0.8578  0.1762
 4003SOL    HW123468   0.343   0.892   3.941 -0.1962 -2.7766 -0.1269
 4003SOL    HW223469   0.223   0.955   3.886  0.3123  0.2930  1.3061
 4004SOL     OW23470   3.090   3.306  16.064 -0.1860  0.0588 -0.1495
 4004SOL    HW123471   3.063   3.329  16.153 -0.1462 -2.6610  0.5614
 4004SOL    HW223472   3.126   3.218  16.064 -0.1877  0.0698  2.1420
 4005SOL     OW23473   3.609   0.797   5.360 -0.3509 -0.0442 -0.2509
 4005SOL    HW123474   3.641   0.851   5.432 -0.1926 -1.1146  0.4872
 4005SOL    HW223475   3.596   0.864   5.293 -3.7948  0.2593  0.7171
 4006SOL     OW23476   3.162   3.758   3.744  0.2437  0.0173  0.5700
 4006SOL    HW123477   3.215   3.780   3.667  1.5727 -0.4247  1.3469
 4006SOL    HW223478   3.238   3.718   3.786  1.4501 -0.3171 -1.9184
 4007SOL     OW23479   0.217   4.676   4.983 -0.4911  0.3608 -0.3157
 4007SOL    HW123480   0.278   4.625   4.928  0.1549  0.1290  0.6158
 4007SOL    HW223481   0.205   0.028   4.924 -2.2703  0.8494  0.6820
 4008SOL     OW23482   1.317   3.339   6.391  0.3783  0.3159  0.4327
 4008SOL    HW123483   1.339   3.346   6.298  0.8324  1.4728  0.6317
 4008SOL    HW223484   1.226   3.368   6.383  0.6881  0.9359 -0.8380
 4009SOL     OW23485   2.777   3.286   8.723 -0.4723 -0.3413  0.1456
 4009SOL    HW123486   2.792   3.374   8.688  0.2627 -0.4371  0.2158
 4009SOL    HW223487   2.700   3.290   8.780 -0.9173  0.4588 -0.5035
 4010SOL     OW23488   1.360   1.492   1.526  0.1073 -0.3038 -0.0415
 4010SOL    HW123489   1.402   1.514   1.443 -0.0671 -0.7808 -0.2557
 4010SOL    HW223490   1.270   1.507   1.497  0.0572  0.3866  0.4617
 4011SOL     OW23491   1.862   4.513   8.496  0.1498 -0.6574 -0.4588
 4011SOL    HW123492   1.779   4.543   8.532  0.6660 -0.8061  0.8414
 4011SOL    HW223493   1.874   4.427   8.535 -2.9182  0.2894  2.5330
 4012SOL     OW23494   4.399   1.406   2.848  0.1810  0.6092 -0.0374
 4012SOL    HW123495   4.492   1.382   2.853 -1.0442 -3.8005  1.5471
 4012SOL    HW223496   4.386   1.428   2.940 -1.3989  1.7319 -0.5415
 4013SOL     OW23497   0.680   3.755  11.487  0.0837 -0.0437 -0.0522
 4013SOL    HW123498   0.612   3.744  11.420 -0.1126  0.8773 -0.0171
 4013SOL    HW223499   0.714   3.842  11.466 -1.3045  0.4500 -0.2650
 4014SOL     OW23500   1.760   4.494   2.963  0.0175  0.6298  0.9812
 4014SOL    HW123501   1.750   4.562   3.029  0.7315 -0.5113  2.2539
 4014SOL    HW223502   1.855   4.483   2.955 -0.3192  0.6488 -3.0471
 4015SOL     OW23503   0.598   1.140   1.327  0.3496 -0.0132 -0.5484
 4015SOL    HW123504   0.633   1.176   1.409  0.7589 -0.3076 -0.5955
 4015SOL    HW223505   0.521   1.195   1.315  1.1576  0.5879 -2.9156
 4016SOL     OW23506   2.955   3.488   2.091 -0.8039 -0.2185  0.4490
 4016SOL    HW123507   2.940   3.529   2.006  0.0745  0.6379  0.7122
 4016SOL    HW223508   3.039   3.447   2.072 -2.2873 -1.7834 -2.8251
 4017SOL     OW23509   1.978   1.239  15.121  0.1367 -0.1393  0.0602
 4017SOL    HW123510   2.007   1.278  15.203  1.2972 -0.6016 -0.1224
 4017SOL    HW223511   1.884   1.232  15.134  0.1589  1.1251  0.8414
 4018SOL     OW23512   2.128   2.081   4.013  0.0076  0.5233 -0.3259
 4018SOL    HW123513   2.197   2.133   4.054 -1.4587  0.7327  1.8940
 4018SOL    HW223514   2.128   2.004   4.071 -2.8104  0.3622 -0.5659
 4019SOL     OW23515   1.047   1.782   5.189 -0.7149  0.1290  0.0865
 4019SOL    HW123516   0.973   1.758   5.244 -0.1299  0.4557  1.0147
 4019SOL    HW223517   1.025   1.763   5.098  0.2516 -0.4771 -0.0236
 4020SOL     OW23518   1.355   2.194   2.101 -0.6522  0.1593 -0.5061
 4020SOL    HW123519   1.427   2.170   2.043  0.7346 -0.5517  1.4907
 4020SOL    HW223520   1.304   2.263   2.057 -1.9703 -1.5028 -1.5651
 4021SOL     OW23521   4.028   3.958  17.470 -0.2491  0.5445 -0.5004
 4021SOL    HW123522   4.029   4.000  17.556  3.1122 -0.1098 -0.2186
 4021SOL    HW223523   4.044   3.874  17.513 -3.9991  0.4119  0.6647
 4022SOL     OW23524   3.609   0.145   4.809 -0.0310 -0.0150 -0.6195
 4022SOL    HW123525   3.541   0.109   4.752 -0.1470  1.9920 -1.7458
 4022SOL    HW223526   3.569   0.116   4.891  1.3418  1.7819  0.6758
 4023SOL     OW23527   1.863   2.944   7.151  0.9383 -0.2242  0.1636
 4023SOL    HW123528   1.856   2.996   7.231  1.5394 -0.8642  0.6300
 4023SOL    HW223529   1.928   2.990   7.098 -0.7806 -0.3810 -2.1040
 4024SOL     OW23530   1.923   0.577   3.259  0.6907 -0.3595  0.8147
 4024SOL    HW123531   1.978   0.636   3.311 -0.1013  0.2915  0.9231
 4024SOL    HW223532   1.985   0.558   3.189  1.1043 -1.3513  1.4377
 4025SOL     OW23533   1.933   3.664   7.219 -0.3293  0.0660  0.4665
 4025SOL    HW123534   1.938   3.590   7.158 -0.2591 -1.2356  2.0623
 4025SOL    HW223535   1.959   3.621   7.300 -0.6827  0.2407  0.6722
 4026SOL     OW23536   3.471   4.560  16.541  0.8403 -0.4606  0.2179
 4026SOL    HW123537   3.474   4.648  16.504 -0.2153 -0.1736  0.8280
 4026SOL    HW223538   3.509   4.503  16.473  0.1634 -1.7837  0.9578
 4027SOL     OW23539   0.676   2.733   8.402  0.0685 -0.0322 -0.0102
 4027SOL    HW123540   0.711   2.765   8.319 -0.8038  0.9713  0.0087
 4027SOL    HW223541   0.757   2.689   8.429 -0.5309 -2.9251 -2.9175
 4028SOL     OW23542   4.172   1.229  10.892  0.0319 -0.0556 -0.1219
 4028SOL    HW123543   4.260   1.264  10.877 -0.8879  0.7438 -3.4585
 4028SOL    HW223544   4.116   1.305  10.881  0.9378  0.3021 -2.2607
 4029SOL     OW23545   0.445   3.292   6.359 -0.7606 -0.4661  0.2996
 4029SOL    HW123546   0.376   3.226   6.355 -1.8370  0.6758  0.0832
 4029SOL    HW223547   0.452   3.319   6.451  0.4626 -0.8110  0.3115
 4030SOL     OW23548   2.882   1.287   4.587 -0.0966 -0.1554 -0.2542
 4030SOL    HW123549   2.922   1.261   4.504  1.3321 -1.8671  0.9718
 4030SOL    HW223550   2.790   1.309   4.570  0.1722  2.2558  1.4733
 4031SOL     OW23551   3.470   3.470   4.517 -0.1888 -0.0837 -0.0358
 4031SOL    HW123552   3.529   3.416   4.568 -0.6985 -1.7154 -1.1881
 4031SOL    HW223553   3.479   3.552   4.566  0.8442 -0.9481  1.2123
 4032SOL     OW23554   1.358   3.882  17.686 -0.2761  0.1507 -0.0315
 4032SOL    HW123555   1.282   3.900   0.049  0.6269  0.4674  1.0856
 4032SOL    HW223556   1.384   3.973  17.670  1.1011 -0.2290  0.0423
 4033SOL     OW23557   4.526   0.813   3.688  0.7166 -0.1844  0.1602
 4033SOL    HW123558   4.494   0.806   3.598 -1.1268 -0.5256  0.8529
 4033SOL    HW223559   4.620   0.819   3.669  0.9853 -2.3140  0.8201
 4034SOL     OW23560   3.411   4.349   3.647  0.0305 -0.4158 -0.0511
 4034SOL    HW123561   3.456   4.267   3.670  0.3420 -0.2149  0.0621
 4034SOL    HW223562   3.344   4.317   3.587 -0.3902  1.7277 -0.7289
 4035SOL     OW23563   2.214   0.225   2.640 -0.4660  0.5206  0.0888
 4035SOL    HW123564   2.232   0.186   2.554 -1.0698  0.4355 -0.0067
 4035SOL    HW223565   2.218   0.148   2.697  2.2756  1.3785  1.0241
 4036SOL     OW23566   0.752   3.130  13.430  0.5114 -0.4560  0.2745
 4036SOL    HW123567   0.662   3.163  13.433  0.0854 -1.8008  2.1411
 4036SOL    HW223568   0.804   3.209  13.446  2.7801 -1.3767 -2.5074
 4037SOL     OW23569   0.791   2.205   2.953  0.4845 -0.2207 -0.6528
 4037SOL    HW123570   0.824   2.256   2.879  0.0765  0.6854 -0.2123
 4037SOL    HW223571   0.726   2.262   2.993  2.2732 -0.1665  2.1952
 4038SOL     OW23572   1.573   2.107   4.274  0.2455 -0.1204 -0.3141
 4038SOL    HW123573   1.495   2.106   4.331  0.1148  0.4451 -0.4931
 4038SOL    HW223574   1.618   2.029   4.307  0.0025 -1.4017 -3.0305
 4039SOL     OW23575   0.537   0.262   4.002 -0.4175  0.9033 -1.2770
 4039SOL    HW123576   0.614   0.317   3.985  0.6574  0.3299  1.8653
 4039SOL    HW223577   0.482   0.329   4.043  1.0284 -0.2570  2.4889
 4040SOL     OW23578   2.186   3.202   6.014 -0.1608 -0.3232  0.1267
 4040SOL    HW123579   2.155   3.286   5.980 -1.2686 -1.6020 -2.0242
 4040SOL    HW223580   2.108   3.175   6.063 -1.5986  0.1231 -1.9338
 4041SOL     OW23581   0.061   2.538   3.143  0.3663  0.0859  0.5120
 4041SOL    HW123582   0.030   2.619   3.184  0.4944  1.2964 -1.7595
 4041SOL    HW223583   0.056   2.473   3.213 -2.1646  0.9565  1.1469
 4042SOL     OW23584   3.437   3.639  15.955  0.3415  0.4150 -0.0864
 4042SOL    HW123585   3.403   3.562  15.911 -0.0792 -1.5675  3.7200
 4042SOL    HW223586   3.521   3.653  15.911  0.3316 -1.7919 -0.7877
 4043SOL     OW23587   3.592   1.610  11.980  0.3522  0.2429 -0.0352
 4043SOL    HW123588   3.535   1.616  11.904  0.1779  1.0673  0.1598
 4043SOL    HW223589   3.537   1.651  12.047  0.7745 -0.4366  0.7272
 4044SOL     OW23590   1.140   3.524   4.725 -0.3996  0.6885  0.0944
 4044SOL    HW123591   1.153   3.449   4.783  2.6825  2.6171  1.8894
 4044SOL    HW223592   1.045   3.527   4.716 -0.1359  2.0296 -2.2516
 4045SOL     OW23593   4.361   0.775   2.587  0.0388 -0.1593 -0.3568
 4045SOL    HW123594   4.328   0.723   2.513 -0.9372 -1.8802  1.2705
 4045SOL    HW223595   4.396   0.854   2.547  1.5610 -0.6988 -0.0885
 4046SOL     OW23596   4.512   0.841  12.445  0.0631 -0.0803  0.3513
 4046SOL    HW123597   4.498   0.874  12.534 -1.0657 -0.7535  0.4169
 4046SOL    HW223598   4.579   0.904  12.418 -1.0060  1.3794  1.0691
 4047SOL     OW23599   2.785   3.272  13.262  0.1653 -0.6539  0.2695
 4047SOL    HW123600   2.758   3.362  13.243  0.8600 -0.1370  1.7334
 4047SOL    HW223601   2.705   3.224  13.282 -1.2354  0.6547 -2.1894
 4048SOL     OW23602   0.992   1.922   7.317  0.1963  0.0797 -0.3710
 4048SOL    HW123603   0.903   1.913   7.282 -0.1410 -1.0518  0.7923
 4048SOL    HW223604   0.976   1.994   7.377  1.4409  0.3176 -0.3180
 4049SOL     OW23605   3.676   1.723  10.469  0.2645  0.2061  0.0099
 4049SOL    HW123606   3.739   1.784  10.507 -0.1117 -0.5579  1.8704
 4049SOL    HW223607   3.684   1.747  10.377  3.3136  2.9256  0.9853
 4050SOL     OW23608   4.027   4.395   1.393  0.5590  0.2540  0.0598
 4050SOL    HW123609   4.006   4.481   1.429  0.9453  0.5024 -0.3068
 4050SOL    HW223610   4.089   4.367   1.460 -1.0243 -0.0646  1.3810
 4051SOL     OW23611   3.782   3.653   5.611  0.3374  0.4729  0.3494
 4051SOL    HW123612   3.765   3.736   5.566  0.4699 -0.9360 -2.2845
 4051SOL    HW223613   3.746   3.586   5.553  1.9511  0.3144 -0.4685
 4052SOL     OW23614   0.631   0.078   5.157  0.2697  0.3195  0.2638
 4052SOL    HW123615   0.586   0.140   5.215 -0.9494  2.1389 -2.6194
 4052SOL    HW223616   0.724   0.087   5.176  0.1736 -2.4063  1.9781
 4053SOL     OW23617   4.082   1.376   1.291  0.1568  0.8108 -0.1580
 4053SOL    HW123618   4.147   1.380   1.361  1.1063 -0.8471 -0.9340
 4053SOL    HW223619   3.997   1.356   1.330 -1.2738  3.2997 -1.9865
 4054SOL     OW23620   1.288   3.663   8.176  0.8821  0.4612 -0.1768
 4054SOL    HW123621   1.247   3.585   8.213 -1.2205  0.9468 -1.5141
 4054SOL    HW223622   1.368   3.617   8.151  1.8105  2.1571 -0.3423
 4055SOL     OW23623   2.052   1.640   8.534  1.1807 -0.4944  0.0927
 4055SOL    HW123624   1.990   1.575   8.567  0.1179  0.2026 -0.5379
 4055SOL    HW223625   2.112   1.641   8.608  0.4072  0.0026  0.7072
 4056SOL     OW23626   1.590   2.232   1.512 -0.2154  0.3425  0.3246
 4056SOL    HW123627   1.677   2.197   1.497 -0.0790  0.4842  0.7861
 4056SOL    HW223628   1.614   2.295   1.580 -1.1549  1.0283  0.0181
 4057SOL     OW23629   0.884   0.302  17.268  0.5851  0.1214 -0.2992
 4057SOL    HW123630   0.947   0.374  17.257  0.9149 -0.2589 -0.8952
 4057SOL    HW223631   0.944   0.250  17.321  1.9873  3.1454  1.1282
 4058SOL     OW23632   2.942   3.537  10.901  0.4922 -0.7577 -0.3007
 4058SOL    HW123633   2.918   3.557  10.991 -1.9554  0.8585 -1.3101
 4058SOL    HW223634   3.028   3.500  10.923  0.7827  0.6272  0.9489
 4059SOL     OW23635   0.096   2.135   3.523  0.4497 -0.2677 -0.2855
 4059SOL    HW123636   0.008   2.104   3.547  1.2800 -1.8672  0.6667
 4059SOL    HW223637   0.140   2.088   3.593  1.6761 -3.4015 -3.1571
 4060SOL     OW23638   0.946   1.986   5.379 -0.1886 -0.3162  0.5512
 4060SOL    HW123639   0.985   1.973   5.292  0.0871 -2.0165  0.9328
 4060SOL    HW223640   0.990   1.917   5.429 -0.9970 -1.4215 -0.2443
 4061SOL     OW23641   0.198   1.794   0.541 -0.4070 -0.2740 -0.1426
 4061SOL    HW123642   0.166   1.822   0.626 -1.7951 -0.4564 -0.6002
 4061SOL    HW223643   0.123   1.744   0.508 -0.5087  0.0390 -0.3923
 4062SOL     OW23644   0.024   1.469   4.301 -0.1137  0.3219 -0.4406
 4062SOL    HW123645   4.695   1.543   4.334  0.3247  0.5100 -0.1774
 4062SOL    HW223646   0.108   1.511   4.285  0.3515  0.3918  2.2726
 4063SOL     OW23647   3.943   2.793  17.319 -0.1801  0.5000 -0.0942
 4063SOL    HW123648   3.991   2.876  17.319 -1.6389  1.3366 -2.6773
 4063SOL    HW223649   3.939   2.771  17.412 -1.3494  1.0929  0.0050
 4064SOL     OW23650   2.116   3.905   2.666  0.0837  0.1506 -0.1617
 4064SOL    HW123651   2.188   3.862   2.620 -0.2184  2.9219 -3.2340
 4064SOL    HW223652   2.160   3.967   2.724 -0.1721 -0.6063  0.8367
 4065SOL     OW23653   0.407   2.911   6.075 -0.0317  1.0118 -0.4267
 4065SOL    HW123654   0.352   2.921   6.153 -1.1197 -0.7257 -0.9520
 4065SOL    HW223655   0.355   2.859   6.014 -0.0950 -0.8493  1.2162
 4066SOL     OW23656   0.913   0.286   9.261 -0.3059 -0.5682  0.5756
 4066SOL    HW123657   0.898   0.275   9.355 -2.2650  0.2117  0.3369
 4066SOL    HW223658   0.934   0.379   9.272  0.1490 -0.6775  0.6297
 4067SOL     OW23659   0.816   2.527  15.455  0.1372 -0.1093 -0.2031
 4067SOL    HW123660   0.903   2.512  15.418 -0.3547 -0.2954 -1.2782
 4067SOL    HW223661   0.780   2.446  15.419 -0.8583 -0.2555  1.1067
 4068SOL     OW23662   0.167   3.311   1.955 -0.7871  0.1045  0.0774
 4068SOL    HW123663   0.148   3.229   2.000  2.1171 -0.8331 -0.4022
 4068SOL    HW223664   0.150   3.389   2.008 -1.6125 -1.0362  1.4836
 4069SOL     OW23665   0.152   2.397   4.171 -0.6393  0.5506 -0.4271
 4069SOL    HW123666   0.208   2.388   4.094 -0.4659  1.2776 -0.3891
 4069SOL    HW223667   0.212   2.371   4.241  1.2188  0.7002 -1.9615
 4070SOL     OW23668   3.864   1.683  11.564  0.0314 -0.1430  0.1947
 4070SOL    HW123669   3.812   1.607  11.590  0.3094 -0.4258 -0.0783
 4070SOL    HW223670   3.942   1.670  11.617  0.4962  0.0692 -0.4418
 4071SOL     OW23671   3.784   2.734  11.609 -0.2542 -0.5591 -0.0327
 4071SOL    HW123672   3.712   2.783  11.649  0.2167 -0.7627  1.0910
 4071SOL    HW223673   3.850   2.798  11.636  0.2775 -0.0533 -2.5247
 4072SOL     OW23674   4.195   2.349   9.609 -0.2912 -0.5581  0.4678
 4072SOL    HW123675   4.251   2.332   9.685  0.4506  0.9983  0.2656
 4072SOL    HW223676   4.112   2.343   9.657 -1.3728  3.0161 -1.0288
 4073SOL     OW23677   2.758   2.111  12.678  0.2431 -0.1696  0.4856
 4073SOL    HW123678   2.735   2.047  12.746 -0.9838  0.4119  0.6307
 4073SOL    HW223679   2.680   2.103  12.623  0.6458  0.4858 -0.1660
 4074SOL     OW23680   2.987   0.927  11.637 -0.0938 -0.0451 -0.1857
 4074SOL    HW123681   3.065   0.896  11.682  1.4585  0.6945 -2.3502
 4074SOL    HW223682   2.989   0.878  11.555 -1.7136  1.5357 -1.1786
 4075SOL     OW23683   4.210   0.845   3.011  0.2706 -0.5607  0.1666
 4075SOL    HW123684   4.166   0.838   3.096 -0.1748 -0.0923 -0.0273
 4075SOL    HW223685   4.302   0.863   3.031  0.7668 -0.5840 -2.2007
 4076SOL     OW23686   2.231   2.605   5.092  0.5758 -0.4368  0.9112
 4076SOL    HW123687   2.170   2.589   5.164 -0.9896 -2.1841 -0.7892
 4076SOL    HW223688   2.258   2.692   5.119  1.1616 -0.4003  0.1865
 4077SOL     OW23689   0.541   0.362  13.676 -0.2568 -0.4082  0.9226
 4077SOL    HW123690   0.619   0.335  13.724  0.1565 -2.1035 -0.6754
 4077SOL    HW223691   0.494   0.410  13.744 -0.6291  1.6519 -0.7877
 4078SOL     OW23692   4.378   0.322   4.175  0.2602  0.3586  0.4802
 4078SOL    HW123693   4.434   0.244   4.173 -0.9660 -0.4891 -0.2964
 4078SOL    HW223694   4.447   0.385   4.197  0.3612  0.1748  0.6891
 4079SOL     OW23695   1.772   0.993  11.093  0.6316  0.1742  0.4532
 4079SOL    HW123696   1.780   1.032  11.005  0.4073  0.1595  0.4276
 4079SOL    HW223697   1.683   1.023  11.113 -0.5414 -1.3080 -2.5217
 4080SOL     OW23698   4.674   1.775   4.722 -0.8195 -0.1003 -0.1478
 4080SOL    HW123699   4.688   1.851   4.666 -3.6592  1.9441  1.9328
 4080SOL    HW223700   4.716   1.698   4.683  1.7845  2.1157 -1.7266
 4081SOL     OW23701   3.473   4.230   2.847 -0.4499 -0.1755  0.1014
 4081SOL    HW123702   3.536   4.299   2.868  0.3090 -1.7057  2.6804
 4081SOL    HW223703   3.392   4.275   2.874  0.0200 -0.2996  1.6908
 4082SOL     OW23704   2.652   2.511  16.068  0.9089 -0.4154 -0.2205
 4082SOL    HW123705   2.660   2.462  15.986 -0.5433 -0.3153 -0.4305
 4082SOL    HW223706   2.577   2.472  16.115  0.9171 -2.8989 -2.2674
 4083SOL     OW23707   2.188   3.525   8.383 -0.3296 -0.2229  0.4180
 4083SOL    HW123708   2.176   3.619   8.393  0.6855 -0.0852  0.3203
 4083SOL    HW223709   2.104   3.479   8.377 -0.5496  0.1217  0.8402
 4084SOL     OW23710   4.043   1.456   7.665 -0.4354  0.4091 -0.4556
 4084SOL    HW123711   4.067   1.374   7.707 -0.4463  0.9550  0.6374
 4084SOL    HW223712   3.951   1.428   7.671  0.1400 -1.1955  0.8672
 4085SOL     OW23713   2.147   0.476   0.645  0.0956 -0.4615  0.1546
 4085SOL    HW123714   2.111   0.447   0.728 -0.6984  1.0378  0.3187
 4085SOL    HW223715   2.138   0.398   0.589 -0.5630 -0.5305  0.3627
 4086SOL     OW23716   3.386   4.454  13.699 -0.0218 -0.4980  0.0870
 4086SOL    HW123717   3.362   4.362  13.686  3.0456 -1.8460  3.9248
 4086SOL    HW223718   3.476   4.446  13.730 -0.3354 -0.3583  1.0441
 4087SOL     OW23719   1.846   0.854   5.581  1.0819 -0.0170  0.1045
 4087SOL    HW123720   1.809   0.853   5.493  1.7729  0.2457 -0.1867
 4087SOL    HW223721   1.815   0.770   5.615 -2.0682  1.3649  0.6260
 4088SOL     OW23722   0.449   4.722   7.236 -0.6803  0.0064  0.2443
 4088SOL    HW123723   0.485   0.015   7.323  0.7814  1.4528 -0.6124
 4088SOL    HW223724   0.527   0.002   7.181 -0.0126  0.8874  1.2313
 4089SOL     OW23725   0.381   2.269  13.686 -0.1421  0.2714 -0.0978
 4089SOL    HW123726   0.291   2.238  13.695 -0.1411  0.6427  1.2095
 4089SOL    HW223727   0.391   2.251  13.593  2.3120  1.3658 -0.0418
 4090SOL     OW23728   3.499   1.134  17.472 -0.1427  0.1982  0.8331
 4090SOL    HW123729   3.553   1.115  17.396  1.4246  1.7692  1.5720
 4090SOL    HW223730   3.523   1.226  17.484  1.2386  0.3655 -3.1918
 4091SOL     OW23731   0.798   4.166   2.015 -0.1266  0.0707  0.2153
 4091SOL    HW123732   0.731   4.196   2.077  0.8660 -0.4682  1.5691
 4091SOL    HW223733   0.752   4.104   1.958 -0.9057  0.4234  0.4604
 4092SOL     OW23734   1.966   4.345   7.822 -0.1484  0.0998  0.3255
 4092SOL    HW123735   2.004   4.285   7.758 -0.8604  1.2051 -1.1245
 4092SOL    HW223736   1.951   4.423   7.769 -2.1963 -1.1418 -0.9374
 4093SOL     OW23737   1.141   0.969   0.602 -0.0673  0.2715  0.8624
 4093SOL    HW123738   1.151   0.965   0.507 -0.2470 -2.0249  0.9512
 4093SOL    HW223739   1.087   0.895   0.627 -2.3074  1.3631 -0.8158
 4094SOL     OW23740   4.325   3.947   7.202  0.0066  0.3890  0.1949
 4094SOL    HW123741   4.360   4.035   7.185 -0.1079  0.1064 -1.4259
 4094SOL    HW223742   4.333   3.937   7.297  0.1119  1.1398  0.2699
 4095SOL     OW23743   4.151   0.056   4.235  0.3017  0.1811  0.1226
 4095SOL    HW123744   4.233   0.028   4.276 -0.2609 -0.0929  1.0866
 4095SOL    HW223745   4.151   0.146   4.268  0.6277  0.2122  0.0315
 4096SOL     OW23746   4.688   4.113   7.029 -0.2161  0.1084 -0.0168
 4096SOL    HW123747   0.009   4.031   7.055  4.3045  1.1943 -4.1393
 4096SOL    HW223748   0.029   4.175   7.065 -1.1535  1.6044 -0.9834
 4097SOL     OW23749   4.205   2.767   8.739 -0.3528 -0.6420 -0.0914
 4097SOL    HW123750   4.182   2.736   8.827 -0.1280  0.5075  0.3842
 4097SOL    HW223751   4.278   2.706   8.727 -0.0108  0.1521 -2.0921
 4098SOL     OW23752   2.623   2.989   9.482 -0.0986 -0.2212  0.4576
 4098SOL    HW123753   2.703   3.038   9.463 -0.1037 -1.0216 -1.6305
 4098SOL    HW223754   2.632   2.948   9.568  1.6722  1.4854  1.0913
 4099SOL     OW23755   3.768   1.411  12.855  0.4948  0.2030  0.2217
 4099SOL    HW123756   3.719   1.343  12.807  0.7606 -0.3419  0.7208
 4099SOL    HW223757   3.759   1.370  12.941  2.6177 -0.2551  0.2206
 4100SOL     OW23758   2.040   2.534   0.705  0.1868 -0.3820  0.6345
 4100SOL    HW123759   1.983   2.524   0.782 -1.7940  2.6296 -0.4264
 4100SOL    HW223760   2.052   2.440   0.695 -1.8994 -0.7056  1.0045
 4101SOL     OW23761   4.103   2.490   2.272 -0.2064 -0.2622  0.5119
 4101SOL    HW123762   4.172   2.456   2.216  0.6533 -0.5764  1.7586
 4101SOL    HW223763   4.144   2.489   2.358  0.8218 -0.7881  0.0115
 4102SOL     OW23764   4.231   4.633  15.090 -0.7615 -0.1195  0.5421
 4102SOL    HW123765   4.138   4.614  15.086 -1.2596  2.5313 -0.4365
 4102SOL    HW223766   4.270   4.565  15.035  0.9307  0.2646  1.2609
 4103SOL     OW23767   3.750   0.058   2.852 -0.3783 -0.2729  0.1228
 4103SOL    HW123768   3.732   4.715   2.919 -1.8250 -0.4819 -0.4469
 4103SOL    HW223769   3.691   0.127   2.882  0.6028  1.2183 -1.3648
 4104SOL     OW23770   2.400   1.877   3.310  0.3136 -0.0761  0.5539
 4104SOL    HW123771   2.413   1.816   3.382 -2.0269 -0.8749  0.3161
 4104SOL    HW223772   2.325   1.928   3.340 -0.4494 -1.6539  1.3131
 4105SOL     OW23773   3.076   1.705   0.463  0.3495  0.0670 -0.5642
 4105SOL    HW123774   3.073   1.715   0.558  2.0696  0.3135 -0.5255
 4105SOL    HW223775   3.096   1.796   0.440  2.1680 -0.8068 -2.4789
 4106SOL     OW23776   3.263   0.004   8.269 -0.1270 -0.1166 -0.2364
 4106SOL    HW123777   3.240   0.096   8.259  1.1841  0.3697  1.1526
 4106SOL    HW223778   3.284   4.705   8.178 -0.5810 -1.0808 -0.1148
 4107SOL     OW23779   2.366   1.460  10.798  0.2050  0.4320 -0.1693
 4107SOL    HW123780   2.292   1.433  10.853  0.0094  1.7988  0.2371
 4107SOL    HW223781   2.435   1.438  10.861  0.6066 -1.1082 -1.1481
 4108SOL     OW23782   4.667   1.686   8.009  0.6960  0.3098 -0.1776
 4108SOL    HW123783   0.035   1.665   7.985  0.1103 -2.4355 -0.0403
 4108SOL    HW223784   4.623   1.633   7.942 -0.1343 -1.1239  1.5021
 4109SOL     OW23785   1.181   3.523   7.081 -0.1686 -0.3924 -0.0840
 4109SOL    HW123786   1.209   3.442   7.039 -2.1032 -0.4486 -1.2868
 4109SOL    HW223787   1.141   3.557   7.001  3.0226  1.1342 -1.0018
 4110SOL     OW23788   3.210   0.112  14.822  0.2041 -0.1318  0.4652
 4110SOL    HW123789   3.197   0.018  14.810  0.2256 -0.3674  2.2375
 4110SOL    HW223790   3.208   0.148  14.733 -0.2613 -2.1770 -0.3535
 4111SOL     OW23791   1.558   0.692   1.717 -0.1065  0.3860  0.4370
 4111SOL    HW123792   1.578   0.717   1.627  1.2107  5.1381  2.0182
 4111SOL    HW223793   1.646   0.679   1.754 -0.0463  1.8000  0.8125
 4112SOL     OW23794   2.448   3.424   7.592 -0.2443 -0.1649 -0.1424
 4112SOL    HW123795   2.422   3.331   7.589 -1.2588  0.1008  0.5827
 4112SOL    HW223796   2.537   3.414   7.627 -0.5187 -3.0567 -0.2593
 4113SOL     OW23797   3.214   2.139   7.571 -0.1907 -0.1936  0.4938
 4113SOL    HW123798   3.134   2.190   7.579 -1.8449 -2.9619  1.7103
 4113SOL    HW223799   3.205   2.096   7.486 -0.6126  1.8339 -0.4686
 4114SOL     OW23800   1.058   4.337  10.592  0.0332  0.1570  0.3607
 4114SOL    HW123801   0.984   4.346  10.533  2.0300 -1.9989 -2.5084
 4114SOL    HW223802   1.028   4.249  10.616  0.2583 -0.2766 -0.9041
 4115SOL     OW23803   4.594   3.444  16.935 -0.2464 -0.0455 -0.0176
 4115SOL    HW123804   4.574   3.495  16.856 -0.2724  2.0183  1.3308
 4115SOL    HW223805   4.513   3.404  16.966 -1.3436  1.5691 -0.8024
 4116SOL     OW23806   1.071   2.788   4.740 -0.2395 -0.2926 -0.2326
 4116SOL    HW123807   1.158   2.805   4.775 -0.9115  1.5919  0.4893
 4116SOL    HW223808   1.091   2.787   4.646  0.5066  0.7978 -0.0896
 4117SOL     OW23809   1.024   1.504   2.904 -1.2933 -0.5141 -0.3104
 4117SOL    HW123810   1.108   1.491   2.859 -0.6874 -0.7688  0.8866
 4117SOL    HW223811   0.975   1.541   2.830 -1.7091  0.9079  0.6688
 4118SOL     OW23812   2.834   1.382   6.841  0.0118  0.0523  0.9432
 4118SOL    HW123813   2.840   1.309   6.779 -2.7254  0.0098  0.6927
 4118SOL    HW223814   2.841   1.450   6.775  0.0683 -1.3006 -0.4579
 4119SOL     OW23815   0.760   4.216   7.218  0.3942  0.5800 -0.3181
 4119SOL    HW123816   0.775   4.133   7.172 -1.7494  1.5486 -2.7496
 4119SOL    HW223817   0.703   4.193   7.292  1.8039 -2.2126 -0.1030
 4120SOL     OW23818   4.233   1.583   8.062  0.0630 -0.0811 -0.2863
 4120SOL    HW123819   4.321   1.545   8.066  0.1831  0.1428 -0.7595
 4120SOL    HW223820   4.181   1.518   8.109  2.4810  0.1218  2.6388
 4121SOL     OW23821   3.823   1.909  14.791 -0.4020  0.3322 -0.2993
 4121SOL    HW123822   3.888   1.975  14.814 -0.7883 -0.2105  2.4209
 4121SOL    HW223823   3.808   1.872  14.878 -0.9831  0.0718 -0.5104
 4122SOL     OW23824   3.646   1.050  12.203  0.3252  0.0898  0.3192
 4122SOL    HW123825   3.704   1.003  12.263  0.3124  0.4283  0.6023
 4122SOL    HW223826   3.565   1.003  12.224  0.8808 -0.0024  2.2797
 4123SOL     OW23827   1.059   1.855   3.729  0.2602  0.2032  0.4624
 4123SOL    HW123828   1.005   1.929   3.759  0.7905 -0.2567  2.5568
 4123SOL    HW223829   1.140   1.899   3.702 -0.0567  0.0211 -0.7469
 4124SOL     OW23830   0.096   2.322   3.324 -0.2997 -0.9405  0.0282
 4124SOL    HW123831   0.064   2.402   3.365  1.4372 -0.8050  1.1204
 4124SOL    HW223832   0.094   2.261   3.398 -0.3565  1.0150  1.6181
 4125SOL     OW23833   1.866   0.550   6.232 -0.3730 -0.0349 -0.1986
 4125SOL    HW123834   1.825   0.621   6.282  3.2858  1.2040  1.0433
 4125SOL    HW223835   1.829   0.476   6.279  0.3483 -0.4222 -0.2417
 4126SOL     OW23836   0.629   1.694   3.954 -0.0609 -0.1756  0.3921
 4126SOL    HW123837   0.652   1.617   4.006 -0.5296 -0.2478  0.4937
 4126SOL    HW223838   0.669   1.672   3.870 -0.1683  1.4727 -0.0789
 4127SOL     OW23839   3.217   0.433  17.154 -0.2734 -0.2659 -0.3588
 4127SOL    HW123840   3.182   0.519  17.130 -1.7385 -0.8605 -0.3584
 4127SOL    HW223841   3.301   0.457  17.192 -1.6557 -0.1579  2.6657
 4128SOL     OW23842   4.193   0.660   4.746 -0.3752  0.0594  0.2262
 4128SOL    HW123843   4.235   0.698   4.823  1.5045  0.8406 -1.1763
 4128SOL    HW223844   4.106   0.640   4.780 -0.2775 -2.9401 -1.2787
 4129SOL     OW23845   0.123   0.839   5.181 -0.0886 -0.1174 -0.1402
 4129SOL    HW123846   0.182   0.896   5.231 -0.8512  0.3278  0.2516
 4129SOL    HW223847   0.107   0.772   5.249 -2.4759  1.5874  0.9629
 4130SOL     OW23848   0.116   1.880   6.748 -0.0203  0.0285  0.2332
 4130SOL    HW123849   0.130   1.786   6.750  0.4877  0.1555  1.9581
 4130SOL    HW223850   0.080   1.880   6.659  2.4025 -0.1394 -0.7441
 4131SOL     OW23851   1.757   2.667   1.495  0.2260 -0.1902  0.6123
 4131SOL    HW123852   1.842   2.623   1.483  0.4976  0.3657  0.5335
 4131SOL    HW223853   1.732   2.634   1.581  0.7491 -2.6004 -0.1374
 4132SOL     OW23854   2.867   0.120  17.475 -0.0777  0.6657 -0.0959
 4132SOL    HW123855   2.805   0.048  17.479 -0.3635  0.8959 -0.3686
 4132SOL    HW223856   2.850   0.161  17.390  2.2675  0.4689 -0.6682
 4133SOL     OW23857   2.232   2.216   3.106  0.2562  0.8099  0.1157
 4133SOL    HW123858   2.258   2.235   3.016 -0.7518 -0.5456 -0.4578
 4133SOL    HW223859   2.303   2.248   3.162  0.1382  0.6394  0.3605
 4134SOL     OW23860   1.153   4.311   5.264 -0.0544  0.3088  0.0035
 4134SOL    HW123861   1.120   4.401   5.269 -0.2858  0.0963  2.6515
 4134SOL    HW223862   1.213   4.319   5.190  1.0119  2.3736  1.1037
 4135SOL     OW23863   0.535   3.969  16.583  0.0357  0.4300  0.0671
 4135SOL    HW123864   0.510   4.019  16.661 -0.2483  1.7774 -0.8997
 4135SOL    HW223865   0.474   3.898  16.604  0.7229  0.6333  2.8041
 4136SOL     OW23866   4.624   3.766   6.170  0.0428  0.6310  0.2639
 4136SOL    HW123867   4.596   3.843   6.219 -0.4748  0.4011  0.3282
 4136SOL    HW223868   4.540   3.745   6.127 -0.2399  0.3207  0.9641
 4137SOL     OW23869   0.153   2.648  11.191  0.4183  0.3249 -0.2446
 4137SOL    HW123870   0.243   2.645  11.160  0.6110 -1.2442  0.4755
 4137SOL    HW223871   0.112   2.590  11.126  0.3387 -0.5976  0.6343
 4138SOL     OW23872   3.712   1.636   6.577  0.0074  0.1464  0.1433
 4138SOL    HW123873   3.781   1.606   6.518 -0.1557 -3.0071  1.5371
 4138SOL    HW223874   3.635   1.637   6.520 -0.0669 -0.5486  0.2305
 4139SOL     OW23875   3.255   3.881   2.691  0.5450  0.4928  1.1740
 4139SOL    HW123876   3.179   3.858   2.637  0.6965  0.3346  1.0315
 4139SOL    HW223877   3.244   3.821   2.765  1.6787 -2.9819 -1.5035
 4140SOL     OW23878   4.326   3.833   4.505 -0.0124 -0.0768  0.4568
 4140SOL    HW123879   4.269   3.759   4.484  0.4684  0.3851 -2.4870
 4140SOL    HW223880   4.255   3.897   4.513  0.1168  0.1160  0.0521
 4141SOL     OW23881   3.919   2.754  17.574 -0.2837 -0.0201 -0.2629
 4141SOL    HW123882   3.923   2.661  17.594 -0.8758 -0.0681 -0.3540
 4141SOL    HW223883   3.990   2.787  17.629  0.9161 -0.1132 -1.7530
 4142SOL     OW23884   0.636   3.942   6.541 -0.1177  0.4414 -0.2839
 4142SOL    HW123885   0.623   3.891   6.461 -1.7440 -0.3231  0.4630
 4142SOL    HW223886   0.730   3.962   6.538 -0.5362  2.2817 -1.0860
 4143SOL     OW23887   4.595   4.032  10.596 -0.5983 -0.7034 -0.3126
 4143SOL    HW123888   4.669   4.091  10.613 -0.7134 -0.5096 -0.4986
 4143SOL    HW223889   4.565   4.065  10.511 -2.6703  0.3526  0.8326
 4144SOL     OW23890   4.139   0.935   5.919  0.7852  0.0735  0.1769
 4144SOL    HW123891   4.212   0.963   5.975  0.2688 -0.4609  1.1156
 4144SOL    HW223892   4.070   0.940   5.985 -0.8705  1.7816 -1.6875
 4145SOL     OW23893   0.310   3.618   2.356  0.2322 -0.2302 -0.2605
 4145SOL    HW123894   0.243   3.557   2.389 -1.5890  0.3371 -2.9218
 4145SOL    HW223895   0.293   3.698   2.406 -1.5147 -1.0667  0.4890
 4146SOL     OW23896   2.233   1.750   7.613 -0.5550  0.9349 -0.6695
 4146SOL    HW123897   2.139   1.743   7.629 -0.5303 -0.0312 -0.9364
 4146SOL    HW223898   2.264   1.685   7.676  0.9526 -0.3557 -2.7200
 4147SOL     OW23899   4.458   4.485  16.866  0.3668 -0.1503 -0.1670
 4147SOL    HW123900   4.494   4.397  16.877 -1.4346 -1.1044 -1.7111
 4147SOL    HW223901   4.396   4.475  16.794 -0.0919 -1.2646  0.3696
 4148SOL     OW23902   3.831   0.011  10.810 -0.0024 -0.5770  0.0260
 4148SOL    HW123903   3.823   0.106  10.817 -0.6866 -0.5596 -0.9296
 4148SOL    HW223904   3.887   4.719  10.886  0.3760 -1.7478 -0.4793
 4149SOL     OW23905   0.271   4.512  13.039  0.0223 -0.1829  0.2527
 4149SOL    HW123906   0.225   4.541  12.961  0.1601  1.2663  0.7132
 4149SOL    HW223907   0.361   4.509  13.006 -0.1714  2.8168 -0.5821
 4150SOL     OW23908   1.171   4.515  10.324  0.0732  0.1510 -0.5896
 4150SOL    HW123909   1.182   4.596  10.273 -1.1320  0.5959 -0.1496
 4150SOL    HW223910   1.186   4.446  10.260 -4.6174 -0.8083 -0.7064
 4151SOL     OW23911   3.077   3.827   3.326 -0.1416 -0.0121 -0.7518
 4151SOL    HW123912   3.147   3.806   3.388 -0.4240 -0.7965 -0.6963
 4151SOL    HW223913   3.118   3.909   3.300  0.4782  0.1733  0.8111
 4152SOL     OW23914   3.606   1.393  13.484 -0.0558  0.0261 -0.1287
 4152SOL    HW123915   3.701   1.387  13.487 -0.1605 -1.4917  0.0102
 4152SOL    HW223916   3.591   1.469  13.541 -0.6482  1.0333 -1.6173
 4153SOL     OW23917   0.237   3.372   0.681  0.3618  0.4461  0.8426
 4153SOL    HW123918   0.324   3.334   0.667 -0.8868 -2.5453  1.1017
 4153SOL    HW223919   0.218   3.386   0.588 -1.1351  2.1227  1.3912
 4154SOL     OW23920   1.624   1.660   3.411 -0.3266  0.4972 -0.2391
 4154SOL    HW123921   1.609   1.717   3.335 -2.5964  0.5810  0.2793
 4154SOL    HW223922   1.672   1.590   3.367 -0.4389 -1.0530  2.1243
 4155SOL     OW23923   2.956   0.735   4.779 -0.3026 -0.4848 -0.0349
 4155SOL    HW123924   2.913   0.792   4.715  1.4316  0.8088 -0.0576
 4155SOL    HW223925   2.978   0.786   4.857 -1.8628 -1.6617  1.1636
 4156SOL     OW23926   3.716   3.847   4.107  0.5380  0.0120 -0.3650
 4156SOL    HW123927   3.721   3.840   4.011 -2.4090 -2.2089 -0.3615
 4156SOL    HW223928   3.798   3.895   4.116 -1.6664  3.2133  2.9654
 4157SOL     OW23929   1.817   2.662   7.173  0.0507 -0.0043 -0.1788
 4157SOL    HW123930   1.876   2.628   7.106 -0.8730  1.3214 -1.6510
 4157SOL    HW223931   1.845   2.753   7.168 -0.0081 -0.0422 -1.1271
 4158SOL     OW23932   2.316   0.095   0.593 -0.2140  0.2581 -0.7164
 4158SOL    HW123933   2.353   0.092   0.505  2.6670  1.7060  0.4656
 4158SOL    HW223934   2.325   0.001   0.611 -3.8608  0.0577  0.0898
 4159SOL     OW23935   1.858   4.376  15.119  0.5888  0.0928 -0.3557
 4159SOL    HW123936   1.797   4.331  15.177  0.5826  1.8069  0.9568
 4159SOL    HW223937   1.897   4.433  15.186 -2.8966 -1.7436  3.2811
 4160SOL     OW23938   2.264   3.651  14.776  0.0603  0.0671 -0.2974
 4160SOL    HW123939   2.219   3.572  14.744  2.0701 -0.3902 -1.9301
 4160SOL    HW223940   2.339   3.607  14.816 -0.1914  2.0849  2.3837
 4161SOL     OW23941   0.324   0.754  13.687 -0.2385 -0.0309  0.5105
 4161SOL    HW123942   0.257   0.793  13.742 -0.0470 -2.3131  2.3520
 4161SOL    HW223943   0.265   0.737  13.613  0.9230 -0.5607 -0.3038
 4162SOL     OW23944   3.899   1.532   5.743 -0.2558  0.3137 -0.0544
 4162SOL    HW123945   3.862   1.527   5.654 -2.0736  0.3519  0.7042
 4162SOL    HW223946   3.879   1.447   5.782 -0.0846 -0.2862 -1.2596
 4163SOL     OW23947   3.131   4.390   2.592  0.2642 -0.7744  0.2108
 4163SOL    HW123948   3.088   4.369   2.510  3.2855  1.4876 -1.9313
 4163SOL    HW223949   3.218   4.371   2.559  0.0544 -1.1460 -0.1342
 4164SOL     OW23950   2.748   4.662   0.325 -0.3376 -0.0587 -0.5425
 4164SOL    HW123951   2.751   4.590   0.388 -0.9595 -0.1039 -0.5656
 4164SOL    HW223952   2.653   4.663   0.316 -0.3238 -1.7861 -1.0057
 4165SOL     OW23953   3.544   4.358   4.295  0.0961 -0.1753  0.1900
 4165SOL    HW123954   3.471   4.407   4.258  1.4655 -0.0482 -2.3185
 4165SOL    HW223955   3.614   4.380   4.233 -0.7280  0.7546 -0.4019
 4166SOL     OW23956   3.756   0.405   2.987  0.5258  0.3262  0.2971
 4166SOL    HW123957   3.749   0.389   2.893 -1.9047 -4.2716  1.2958
 4166SOL    HW223958   3.670   0.374   3.013 -0.7500  0.6563 -3.5333
 4167SOL     OW23959   3.863   3.081   5.123 -0.0353 -0.2633 -0.2177
 4167SOL    HW123960   3.813   3.024   5.064 -0.1093  0.3779 -0.7679
 4167SOL    HW223961   3.803   3.154   5.108  0.8510  0.4562 -0.2123
 4168SOL     OW23962   2.779   3.762  13.285  0.5159  0.1353 -0.0688
 4168SOL    HW123963   2.851   3.699  13.275 -0.6950 -1.7598  3.1337
 4168SOL    HW223964   2.824   3.839  13.250 -0.5209  0.6795 -0.2043
 4169SOL     OW23965   4.612   2.848  15.889  0.0925  0.1195  0.5123
 4169SOL    HW123966   4.517   2.844  15.879  0.1324  1.0676 -0.2493
 4169SOL    HW223967   4.617   2.932  15.935 -1.1498  1.1860 -1.2757
 4170SOL     OW23968   1.534   3.911   7.102 -0.4122  0.8117 -0.1897
 4170SOL    HW123969   1.628   3.898   7.115 -0.5813  0.5838  0.8084
 4170SOL    HW223970   1.505   3.821   7.087 -1.7853  1.0286  1.1440
 4171SOL     OW23971   2.572   0.574  10.510 -0.3069  0.2866 -0.3448
 4171SOL    HW123972   2.516   0.625  10.568 -0.0793  1.4976 -1.1981
 4171SOL    HW223973   2.602   0.498  10.560  1.5546  1.1278 -0.1815
 4172SOL     OW23974   1.647   2.279   3.615 -0.2115 -0.5130  0.0781
 4172SOL    HW123975   1.724   2.303   3.667 -0.0045 -2.4661  0.6606
 4172SOL    HW223976   1.662   2.334   3.538 -1.3461  1.5213  1.3090
 4173SOL     OW23977   4.627   1.821   8.759  0.0307 -0.3429 -0.0730
 4173SOL    HW123978   4.642   1.775   8.677  1.3910 -0.9977  0.5371
 4173SOL    HW223979   4.624   1.745   8.816  2.0405  0.3746  0.9851
 4174SOL     OW23980   3.345   0.638   7.655 -0.4507  0.7403  0.0796
 4174SOL    HW123981   3.425   0.606   7.613  0.2596 -0.0649  2.0701
 4174SOL    HW223982   3.381   0.663   7.740  1.9183  1.2083 -1.0753
 4175SOL     OW23983   3.442   2.631  11.275 -0.3113  0.0146 -0.3250
 4175SOL    HW123984   3.487   2.712  11.251 -1.2516  0.8743  0.8846
 4175SOL    HW223985   3.393   2.617  11.193  0.2100 -1.7600 -0.3401
 4176SOL     OW23986   4.399   2.959  16.925 -0.1016  0.5017 -0.4926
 4176SOL    HW123987   4.394   2.883  16.868 -0.4882  0.4769 -0.4261
 4176SOL    HW223988   4.454   3.018  16.874  0.1948 -1.3126 -2.2869
 4177SOL     OW23989   3.436   0.411  10.360  1.0617  0.1742 -0.0756
 4177SOL    HW123990   3.347   0.413  10.325  1.0561  2.1485  0.0772
 4177SOL    HW223991   3.424   0.469  10.435 -2.2693 -0.2051 -0.3430
 4178SOL     OW23992   0.408   4.562   3.500 -0.5122  0.1649 -0.7157
 4178SOL    HW123993   0.393   4.477   3.540  2.9480  0.2344  0.7164
 4178SOL    HW223994   0.370   4.621   3.565  2.9192  0.2274  1.2060
 4179SOL     OW23995   4.318   1.610   8.704  0.4266  0.0307  0.3504
 4179SOL    HW123996   4.234   1.630   8.744  0.1208  1.1048 -0.8550
 4179SOL    HW223997   4.358   1.554   8.771  1.3645  0.2339 -0.0296
 4180SOL     OW23998   2.212   0.786   2.656  0.4039  0.0812 -0.0243
 4180SOL    HW123999   2.191   0.741   2.575  0.5554 -0.9940  0.5379
 4180SOL    HW224000   2.256   0.719   2.708  1.2177 -0.0977 -0.9329
 4181SOL     OW24001   0.045   1.813   3.660  0.3415  0.8996  0.0055
 4181SOL    HW124002   0.072   1.748   3.725  1.1474 -1.1954 -2.4284
 4181SOL    HW224003   4.680   1.823   3.697  1.1226  0.3098  1.9999
 4182SOL     OW24004   2.745   4.673   9.885 -0.6571 -0.3653 -0.2971
 4182SOL    HW124005   2.677   4.628   9.936  0.6517  1.4599  3.0172
 4182SOL    HW224006   2.828   4.677   9.933 -2.2642  1.4479  2.3293
 4183SOL     OW24007   1.316   3.161  16.990  0.7179  0.2864  0.3576
 4183SOL    HW124008   1.282   3.071  16.986  1.0942  0.1398  0.4191
 4183SOL    HW224009   1.393   3.153  16.934 -0.1334 -0.8803 -0.6410
 4184SOL     OW24010   2.302   3.134   7.765 -0.3268  0.2545  0.0933
 4184SOL    HW124011   2.369   3.161   7.702 -0.3547  0.6601  0.2406
 4184SOL    HW224012   2.336   3.196   7.829  1.4184 -2.1284  1.5008
 4185SOL     OW24013   0.194   2.099   8.129  0.2272 -0.4846 -0.2219
 4185SOL    HW124014   0.142   2.032   8.083 -3.4676  0.7966  2.0953
 4185SOL    HW224015   0.124   2.165   8.130  1.8361  1.1794  0.9085
 4186SOL     OW24016   3.866   4.311   6.894  0.0697  0.3325 -0.1770
 4186SOL    HW124017   3.944   4.358   6.925  0.8298 -0.8340 -0.3155
 4186SOL    HW224018   3.881   4.219   6.914  2.6991  0.8268  0.1053
 4187SOL     OW24019   0.000   0.262   8.914  0.0348  0.2666  0.0775
 4187SOL    HW124020   0.094   0.256   8.895  0.1426 -1.6136  1.1320
 4187SOL    HW224021   4.691   0.306   8.836 -0.5365  0.4698  0.4271
 4188SOL     OW24022   0.899   3.135   2.094 -0.8744  0.1775  0.5410
 4188SOL    HW124023   0.867   3.106   2.008  1.1315  0.2437 -0.2198
 4188SOL    HW224024   0.950   3.211   2.065 -1.4150  0.0764 -0.6667
 4189SOL     OW24025   4.694   4.201   3.584 -0.3106  0.1049 -0.0440
 4189SOL    HW124026   0.017   4.276   3.623  1.4217 -0.4239 -1.0280
 4189SOL    HW224027   4.650   4.242   3.510  1.3588 -0.9961 -1.6483
 4190SOL     OW24028   4.485   2.507   5.522  0.2415 -0.1250 -0.1024
 4190SOL    HW124029   4.448   2.428   5.562 -2.0529  2.0227  2.0169
 4190SOL    HW224030   4.435   2.532   5.445 -1.5065 -0.8425  0.8093
 4191SOL     OW24031   2.570   3.597   6.164 -0.4340  0.9371  0.9805
 4191SOL    HW124032   2.500   3.662   6.165 -0.7409  0.6174  0.0210
 4191SOL    HW224033   2.515   3.530   6.123  0.7681 -0.4736  1.6808
 4192SOL     OW24034   4.505   2.927   5.374  0.1116 -0.3258  0.0967
 4192SOL    HW124035   4.527   2.910   5.283 -0.9307  0.6260 -0.3241
 4192SOL    HW224036   4.553   2.852   5.409 -0.6595  0.4004  2.6935
 4193SOL     OW24037   2.426   4.340   5.124 -1.0168  0.3246  0.2817
 4193SOL    HW124038   2.347   4.285   5.128  0.4065 -1.6955  0.6192
 4193SOL    HW224039   2.432   4.340   5.029 -0.4582 -2.4269  0.3242
 4194SOL     OW24040   0.811   2.447   1.718 -0.3354 -0.4110 -0.1004
 4194SOL    HW124041   0.759   2.456   1.638  2.2718 -0.7407 -1.8662
 4194SOL    HW224042   0.800   2.353   1.736 -0.2010 -0.6927 -1.4809
 4195SOL     OW24043   1.410   1.883  13.845  0.3246 -0.6135 -0.3918
 4195SOL    HW124044   1.482   1.822  13.859  0.5767  0.1493  1.6347
 4195SOL    HW224045   1.338   1.822  13.830 -1.7432  1.5884  0.4055
 4196SOL     OW24046   3.712   3.354   9.000  0.3839 -0.5999 -0.1457
 4196SOL    HW124047   3.655   3.281   9.025 -1.5389  0.5089 -1.3289
 4196SOL    HW224048   3.756   3.322   8.922  0.6164  3.4569 -1.6518
 4197SOL     OW24049   4.184   3.781   8.628  0.2803  0.1652  0.1535
 4197SOL    HW124050   4.144   3.821   8.705 -0.6702  1.4904 -1.0312
 4197SOL    HW224051   4.263   3.744   8.668  0.2053 -0.8072 -0.6052
 4198SOL     OW24052   2.329   3.593  13.342  0.0505  0.3015  0.3228
 4198SOL    HW124053   2.303   3.563  13.430  0.7286  2.1683  1.1453
 4198SOL    HW224054   2.415   3.620  13.372  0.1450  0.5009 -0.1309
 4199SOL     OW24055   2.993   1.941   0.090 -0.1919 -0.0888  0.5681
 4199SOL    HW124056   2.908   1.920   0.051  0.6194 -0.1062 -1.1683
 4199SOL    HW224057   3.051   1.877   0.049 -2.4502 -1.6122 -0.2170
 4200SOL     OW24058   4.324   1.936   7.364  0.3667  0.5379  0.3169
 4200SOL    HW124059   4.315   1.845   7.339 -0.9554  0.6062  0.5414
 4200SOL    HW224060   4.236   1.970   7.380  0.8488  1.3717  1.2229
 4201SOL     OW24061   3.171   0.295  13.029 -0.1804  0.4463  0.4846
 4201SOL    HW124062   3.194   0.222  13.087 -1.2533 -0.2273  0.0410
 4201SOL    HW224063   3.104   0.254  12.975 -1.7054  1.6931  1.4288
 4202SOL     OW24064   0.558   0.060   7.841  0.0457  0.4534 -0.2182
 4202SOL    HW124065   0.580   0.144   7.800  1.2647  0.9339  1.4533
 4202SOL    HW224066   0.497   0.090   7.908  0.7164 -0.5831  0.8602
 4203SOL     OW24067   0.394   1.323   1.193  0.2023 -0.2458  0.0302
 4203SOL    HW124068   0.380   1.251   1.132  2.6139  0.1020 -0.9341
 4203SOL    HW224069   0.398   1.402   1.140  0.1494 -0.6007 -0.5010
 4204SOL     OW24070   0.426   1.095  17.368 -0.6570 -0.4975  0.3082
 4204SOL    HW124071   0.460   1.142  17.292 -1.7832 -1.3796 -0.7297
 4204SOL    HW224072   0.402   1.018  17.316  1.9932 -0.4819 -0.9507
 4205SOL     OW24073   2.042   4.592   2.631 -0.9092  0.5808 -0.4634
 4205SOL    HW124074   2.110   4.592   2.564  1.3146 -0.2150  1.8085
 4205SOL    HW224075   2.079   4.656   2.691 -1.1036  0.3889 -0.1426
 4206SOL     OW24076   3.098   0.498   4.383  0.0201  0.2421  0.2178
 4206SOL    HW124077   3.117   0.591   4.395  2.3448  0.0026 -1.6600
 4206SOL    HW224078   3.149   0.483   4.304 -1.0003  3.8807 -1.1315
 4207SOL     OW24079   3.703   3.754   8.304 -0.5237  0.1960 -0.2665
 4207SOL    HW124080   3.782   3.767   8.356 -1.0850 -0.9989  0.8821
 4207SOL    HW224081   3.641   3.763   8.376 -0.1624 -0.4569  0.1171
 4208SOL     OW24082   0.690   1.383   1.472  0.1984 -0.0828 -0.1069
 4208SOL    HW124083   0.755   1.390   1.402  0.4422 -0.7620  0.0494
 4208SOL    HW224084   0.702   1.465   1.520 -1.4902 -0.1496  0.4235
 4209SOL     OW24085   1.112   3.130  15.802 -0.1080 -0.2893 -0.4794
 4209SOL    HW124086   1.129   3.059  15.739  2.0479 -0.2015  0.0074
 4209SOL    HW224087   1.021   3.156  15.793  0.5578  0.8889 -4.0971
 4210SOL     OW24088   2.563   3.830   4.832 -0.0439  0.5232 -0.2515
 4210SOL    HW124089   2.611   3.771   4.891 -0.3321  0.1449 -0.3955
 4210SOL    HW224090   2.572   3.782   4.750 -2.1434 -1.1229  0.4845
 4211SOL     OW24091   0.596   1.258   4.905  0.4409  0.1446  0.4134
 4211SOL    HW124092   0.686   1.284   4.885 -0.0031  0.0504 -1.6432
 4211SOL    HW224093   0.543   1.331   4.873  2.1942  0.5025 -1.6253
 4212SOL     OW24094   4.238   2.920   2.076 -0.6654 -0.7491 -0.0894
 4212SOL    HW124095   4.190   2.916   1.994 -0.1283  1.4291 -0.5025
 4212SOL    HW224096   4.221   2.833   2.113  0.0120 -0.3675  1.1206
 4213SOL     OW24097   4.007   0.455  16.750  0.0053 -0.0840 -0.4772
 4213SOL    HW124098   3.978   0.385  16.691  1.6288  0.3801 -1.8155
 4213SOL    HW224099   4.088   0.477  16.704 -0.4996  0.4924 -1.0977
 4214SOL     OW24100   3.239   2.118   3.884 -0.4558  0.3672 -0.0647
 4214SOL    HW124101   3.284   2.197   3.915 -1.4506  0.5544  0.8744
 4214SOL    HW224102   3.312   2.056   3.895 -1.2295 -0.6192 -0.5565
 4215SOL     OW24103   1.931   2.304   8.011 -0.3784  0.1152  0.1584
 4215SOL    HW124104   1.985   2.294   8.089  0.8362  1.5171 -0.5137
 4215SOL    HW224105   1.844   2.298   8.052  0.0355  1.6080  1.2476
 4216SOL     OW24106   0.848   1.985   3.106 -1.0943 -0.2486 -0.0750
 4216SOL    HW124107   0.831   2.048   3.037  0.5410  1.4718  1.0978
 4216SOL    HW224108   0.824   2.043   3.179 -1.5341  0.7060 -0.9856
 4217SOL     OW24109   2.830   0.890  11.068  0.3030 -0.1133 -0.0294
 4217SOL    HW124110   2.885   0.884  11.146  1.1482  1.9012 -0.4728
 4217SOL    HW224111   2.801   0.799  11.059  1.1902 -0.5961  1.9764
 4218SOL     OW24112   0.924   2.349   2.288 -0.3315 -0.5430  0.1614
 4218SOL    HW124113   0.840   2.313   2.260 -0.5036 -0.8823  1.1259
 4218SOL    HW224114   0.896   2.438   2.309 -3.0844 -0.8013 -2.3664
 4219SOL     OW24115   0.707   3.040  10.028 -0.4371 -0.2015 -0.4254
 4219SOL    HW124116   0.765   3.008  10.097 -0.6659  3.1391  1.3343
 4219SOL    HW224117   0.643   2.969  10.022 -0.0922 -0.5630  0.1755
 4220SOL     OW24118   4.365   1.812   6.400  0.5286  0.0571  0.4444
 4220SOL    HW124119   4.440   1.837   6.454  1.5615 -1.5947 -0.2139
 4220SOL    HW224120   4.290   1.841   6.452  1.3667 -0.5496  1.9817
 4221SOL     OW24121   3.784   1.983  16.913  0.2536  0.8147 -0.5435
 4221SOL    HW124122   3.852   2.051  16.913  1.6823 -0.6416 -2.4672
 4221SOL    HW224123   3.819   1.909  16.963 -0.3748  0.6858 -0.2939
 4222SOL     OW24124   2.824   2.442   7.048 -0.3587 -0.1780  0.6810
 4222SOL    HW124125   2.834   2.537   7.051 -2.6265  0.1087 -0.7000
 4222SOL    HW224126   2.880   2.427   6.972 -0.7729 -0.3562  0.4132
 4223SOL     OW24127   3.500   3.651   7.036  0.1708 -0.2549 -0.0640
 4223SOL    HW124128   3.445   3.665   7.113 -0.7150 -0.3517 -0.6875
 4223SOL    HW224129   3.581   3.625   7.082  0.7317 -2.2618 -2.1893
 4224SOL     OW24130   1.303   3.179   6.589 -0.9494 -0.0989  0.2996
 4224SOL    HW124131   1.330   3.240   6.521  2.5946 -1.8060  0.1927
 4224SOL    HW224132   1.353   3.196   6.668 -1.0456 -1.0287  0.5582
 4225SOL     OW24133   3.660   2.149   9.915  0.2265 -0.5169 -0.1988
 4225SOL    HW124134   3.578   2.111   9.883 -0.9721  0.7965  1.2831
 4225SOL    HW224135   3.664   2.233   9.869  0.7865  0.7471  2.1716
 4226SOL     OW24136   2.364   0.328  12.054  0.2258  0.0013  0.0126
 4226SOL    HW124137   2.301   0.354  12.121 -0.0023 -2.1739  0.6274
 4226SOL    HW224138   2.301   0.280  12.001 -1.6542  1.5437  0.8288
 4227SOL     OW24139   1.352   0.501   9.655  0.3122 -0.0600 -0.2450
 4227SOL    HW124140   1.305   0.418   9.646 -1.2485  0.5572  2.4125
 4227SOL    HW224141   1.446   0.489   9.637  0.3787  0.8686 -0.5162
 4228SOL     OW24142   4.132   3.320   4.628 -0.3207  0.3979 -0.5259
 4228SOL    HW124143   4.163   3.233   4.651  0.4761  1.0028  0.6814
 4228SOL    HW224144   4.190   3.334   4.552  1.0814  1.2108  0.6891
 4229SOL     OW24145   2.520   0.243  16.580 -0.1032  0.1472 -0.5921
 4229SOL    HW124146   2.450   0.257  16.516 -1.0540  0.2760  0.4794
 4229SOL    HW224147   2.578   0.318  16.566 -0.3183  0.7407  1.6665
 4230SOL     OW24148   4.001   0.622   6.806 -0.4170 -0.4359 -0.0735
 4230SOL    HW124149   3.908   0.600   6.809 -1.0628  2.3034 -0.4465
 4230SOL    HW224150   3.993   0.715   6.787 -0.6465 -0.7483 -1.5484
 4231SOL     OW24151   1.018   2.811  16.542  0.6179  0.6212  0.0917
 4231SOL    HW124152   1.034   2.742  16.606  1.2259 -0.8387 -1.6447
 4231SOL    HW224153   1.106   2.847  16.554  0.9097 -0.6380  1.6426
 4232SOL     OW24154   3.895   4.456   2.365 -0.0824 -0.0383 -0.4360
 4232SOL    HW124155   3.870   4.374   2.321 -1.6260  0.1697  0.0493
 4232SOL    HW224156   3.979   4.477   2.325 -0.1742  2.6866  0.8125
 4233SOL     OW24157   0.882   1.420   3.120  0.1056  0.4125 -0.0786
 4233SOL    HW124158   0.811   1.399   3.059 -1.3201  0.1481  1.6476
 4233SOL    HW224159   0.937   1.454   3.050  0.9584  0.6045  0.6843
 4234SOL     OW24160   4.497   3.873   5.777  0.1031 -0.1872 -0.2315
 4234SOL    HW124161   4.585   3.845   5.750 -0.3916 -1.5162 -0.4832
 4234SOL    HW224162   4.445   3.795   5.757  0.2777  0.0984 -1.8036
 4235SOL     OW24163   1.136   3.764  13.315 -0.7102  0.2282 -0.2712
 4235SOL    HW124164   1.230   3.781  13.317 -0.6605 -0.1298  0.4074
 4235SOL    HW224165   1.122   3.738  13.406 -2.5747 -0.5958 -0.8043
 4236SOL     OW24166   3.296   3.657  14.031 -0.6633  0.2720  0.0813
 4236SOL    HW124167   3.232   3.589  14.009 -0.9834  0.4733  0.3841
 4236SOL    HW224168   3.273   3.677  14.122  2.7545  0.7418  0.8442
 4237SOL     OW24169   2.230   4.346   5.516 -0.0700  0.1382 -0.3699
 4237SOL    HW124170   2.202   4.254   5.516  0.6202 -0.0640 -1.1645
 4237SOL    HW224171   2.317   4.335   5.478 -0.0959 -1.3593  0.0141
 4238SOL     OW24172   0.932   1.775  17.126 -0.0182  0.0557  0.0274
 4238SOL    HW124173   0.891   1.791  17.211  2.9437 -0.3166  1.5558
 4238SOL    HW224174   0.984   1.855  17.116 -0.4784  0.3993  0.3831
 4239SOL     OW24175   0.170   1.218   4.867  0.1233  0.0014  0.1033
 4239SOL    HW124176   0.145   1.129   4.891 -0.0831  0.4022  1.3716
 4239SOL    HW224177   0.129   1.229   4.781  1.2512 -1.4900 -0.6124
 4240SOL     OW24178   1.204   0.412   7.098  0.1957  0.0081 -0.0909
 4240SOL    HW124179   1.299   0.419   7.087  0.3219 -1.1744  0.2909
 4240SOL    HW224180   1.193   0.396   7.191 -0.4865  3.7075  0.4553
 4241SOL     OW24181   0.160   3.314   5.240  0.4215 -0.0004  0.1115
 4241SOL    HW124182   0.128   3.285   5.154 -0.9735 -2.1407  1.3707
 4241SOL    HW224183   0.094   3.277   5.299  1.0933 -1.3525 -0.0092
 4242SOL     OW24184   0.587   4.266  15.307  0.1233  0.4309  0.1494
 4242SOL    HW124185   0.613   4.283  15.398  5.5074 -1.0894 -1.0677
 4242SOL    HW224186   0.677   4.266  15.273  0.0819 -0.4870  0.0454
 4243SOL     OW24187   0.908   1.122   9.107  0.0519  0.1732  0.8925
 4243SOL    HW124188   0.968   1.157   9.173 -0.2213  0.2578  1.0957
 4243SOL    HW224189   0.871   1.053   9.161  0.0630 -0.8224 -0.3553
 4244SOL     OW24190   2.495   3.491   3.947  0.0836  0.1030  0.6200
 4244SOL    HW124191   2.538   3.423   3.999  0.4037 -0.6998 -0.6996
 4244SOL    HW224192   2.573   3.535   3.911 -1.4941  2.1262 -0.3897
 4245SOL     OW24193   4.238   4.504   1.882 -0.4585  0.1751 -0.3751
 4245SOL    HW124194   4.313   4.469   1.834  1.5660  3.6028  0.3083
 4245SOL    HW224195   4.267   4.592   1.905 -1.0080  0.6344 -1.4297
 4246SOL     OW24196   3.187   1.461   6.408 -0.1036  0.0744  1.0204
 4246SOL    HW124197   3.252   1.421   6.350  1.4718  1.8836  1.5038
 4246SOL    HW224198   3.113   1.410   6.377 -0.6305  1.7476 -0.5281
 4247SOL     OW24199   2.721   1.178   4.296 -0.9677 -0.6998 -0.6857
 4247SOL    HW124200   2.683   1.106   4.347 -1.5772  0.0264 -0.1183
 4247SOL    HW224201   2.675   1.251   4.338 -0.9999 -1.2336  0.2154
 4248SOL     OW24202   3.281   1.024   0.720  0.5005  0.1512  0.0292
 4248SOL    HW124203   3.341   0.952   0.700  2.1129  1.2986  0.7328
 4248SOL    HW224204   3.195   0.991   0.696  0.9630 -0.6931 -0.4858
 4249SOL     OW24205   3.902   2.760   5.833 -0.2183  0.0955  0.5275
 4249SOL    HW124206   3.901   2.812   5.753  1.5398  0.5509  0.8054
 4249SOL    HW224207   3.892   2.673   5.796  1.7979  0.9025 -1.8967
 4250SOL     OW24208   3.714   1.266   3.425  0.2467  0.1317  0.6025
 4250SOL    HW124209   3.705   1.223   3.511 -0.9525 -0.5938  0.1199
 4250SOL    HW224210   3.807   1.255   3.408 -0.4036 -0.2940 -2.7284
 4251SOL     OW24211   4.079   1.392  16.274  0.4678 -0.5489  0.0861
 4251SOL    HW124212   4.096   1.461  16.338  0.1944 -0.5015  0.1075
 4251SOL    HW224213   4.043   1.325  16.333 -1.7868  0.4477 -0.1641
 4252SOL     OW24214   4.243   2.662   9.011  0.0617 -0.3500 -0.2809
 4252SOL    HW124215   4.226   2.568   9.011  0.0963 -0.3563 -1.3721
 4252SOL    HW224216   4.243   2.687   9.104 -1.6428  1.5412 -0.7895
 4253SOL     OW24217   2.920   0.905  15.790  0.0357 -0.3067  0.2419
 4253SOL    HW124218   2.857   0.960  15.744  1.2714  0.4394 -0.5812
 4253SOL    HW224219   2.873   0.884  15.870  2.9096  0.1810  2.0425
 4254SOL     OW24220   2.640   4.135   2.628  0.3872 -0.1873  0.1389
 4254SOL    HW124221   2.697   4.092   2.693 -0.1382 -0.4912  0.3953
 4254SOL    HW224222   2.587   4.057   2.614  2.8237 -1.8395 -0.0791
 4255SOL     OW24223   3.027   1.327   5.517  0.3959 -0.2433  0.1484
 4255SOL    HW124224   3.013   1.257   5.453  2.5147 -0.8517  0.3648
 4255SOL    HW224225   2.972   1.399   5.486  0.7637 -0.2355 -0.4843
 4256SOL     OW24226   4.131   1.320   6.786 -0.2147 -0.5635 -0.1603
 4256SOL    HW124227   4.125   1.323   6.881 -0.5068  0.6452 -0.2171
 4256SOL    HW224228   4.178   1.400   6.763 -1.5776  0.6597  1.3452
 4257SOL     OW24229   2.495   0.626  11.653  0.5062 -0.1446 -0.3024
 4257SOL    HW124230   2.488   0.684  11.576 -3.1777  0.8317  0.7838
 4257SOL    HW224231   2.466   0.679  11.727  1.3685 -2.7022  1.8578
 4258SOL     OW24232   2.093   0.697  14.660  0.1374 -0.2291 -0.3635
 4258SOL    HW124233   2.001   0.712  14.681  0.7200  0.4210  1.7239
 4258SOL    HW224234   2.094   0.618  14.606  1.2976 -0.1089 -0.5165
 4259SOL     OW24235   1.123   2.728   7.670 -0.0891 -0.2116 -0.4071
 4259SOL    HW124236   1.078   2.650   7.640 -0.6379 -0.4101  0.9246
 4259SOL    HW224237   1.163   2.704   7.754  1.2206  0.5453 -0.8132
 4260SOL     OW24238   0.191   2.162   7.676  0.3263  0.1283  0.0649
 4260SOL    HW124239   0.157   2.197   7.594 -0.7185  0.1591  0.5152
 4260SOL    HW224240   0.143   2.218   7.737  0.1137 -0.1979  0.1922
 4261SOL     OW24241   3.954   4.229  15.935 -0.0442 -0.0465  0.2940
 4261SOL    HW124242   3.892   4.221  15.863  0.0198  2.4951 -0.0561
 4261SOL    HW224243   3.909   4.294  15.989 -1.4383  0.1743 -1.1234
 4262SOL     OW24244   0.934   2.311   5.818 -0.4003  0.6243  0.2529
 4262SOL    HW124245   0.898   2.262   5.891 -1.7803  0.4722 -0.5300
 4262SOL    HW224246   0.854   2.346   5.780  0.2777  0.9773 -0.8527
 4263SOL     OW24247   3.284   2.625  12.170 -0.6884 -0.0685  0.7817
 4263SOL    HW124248   3.257   2.631  12.078  1.7160 -1.3536  0.0130
 4263SOL    HW224249   3.370   2.585  12.162 -1.6124 -1.8810 -0.2017
 4264SOL     OW24250   4.604   2.255   8.290  0.1689  0.2093 -0.0129
 4264SOL    HW124251   4.532   2.209   8.246 -1.9229  0.8425  2.7643
 4264SOL    HW224252   4.638   2.181   8.339 -0.7785  0.4853  1.0525
 4265SOL     OW24253   4.640   2.946   4.233  0.2633 -0.6237 -0.5263
 4265SOL    HW124254   4.605   2.860   4.209  1.6621 -1.3486  0.0016
 4265SOL    HW224255   4.690   2.932   4.313 -0.4860  1.2718  0.2563
 4266SOL     OW24256   1.153   0.659   5.612 -0.2282  0.2132  0.3471
 4266SOL    HW124257   1.101   0.647   5.692 -1.2112 -0.6691 -0.4230
 4266SOL    HW224258   1.220   0.592   5.624  0.0748  0.6612  1.1361
 4267SOL     OW24259   0.392   4.277  12.702  0.0899  0.4574 -0.2289
 4267SOL    HW124260   0.460   4.228  12.655  1.4338  0.1333  2.0242
 4267SOL    HW224261   0.378   4.214  12.773 -0.2771  0.7304 -0.0586
 4268SOL     OW24262   3.465   4.034  16.803  0.0147  0.3574 -0.3616
 4268SOL    HW124263   3.461   3.999  16.892 -0.1942 -0.5929 -0.7437
 4268SOL    HW224264   3.374   4.063  16.796  0.0151  0.5461  0.4877
 4269SOL     OW24265   0.882   3.168   0.674  0.3408  0.1506 -0.4962
 4269SOL    HW124266   0.961   3.115   0.686  1.5301  1.4172 -2.5441
 4269SOL    HW224267   0.893   3.224   0.751 -1.3829 -0.6509  0.3138
 4270SOL     OW24268   3.490   3.836   2.928  0.0909 -0.0674  0.3500
 4270SOL    HW124269   3.503   3.786   2.847  2.0036  0.2121  0.4866
 4270SOL    HW224270   3.488   3.760   2.986 -0.1425 -2.3206 -2.6143
 4271SOL     OW24271   3.423   1.351   3.683  0.1830  0.2027  0.0727
 4271SOL    HW124272   3.350   1.407   3.656 -1.1990 -0.8954  1.5030
 4271SOL    HW224273   3.489   1.408   3.643  0.7795 -0.0405  0.7138
 4272SOL     OW24274   1.904   1.004  14.934  0.4470 -0.4900  0.4855
 4272SOL    HW124275   1.815   1.013  14.968  0.0564  0.3226 -0.7225
 4272SOL    HW224276   1.917   0.914  14.963 -2.4654  0.4635  4.6647
 4273SOL     OW24277   4.252   4.189   0.225  0.3840 -0.0300  0.3997
 4273SOL    HW124278   4.331   4.236   0.250  1.0712 -0.2684 -1.2969
 4273SOL    HW224279   4.210   4.156   0.304  0.0594 -2.8706 -0.9648
 4274SOL     OW24280   0.617   3.323  11.041 -0.2575  0.1785 -0.1305
 4274SOL    HW124281   0.545   3.376  11.007  0.4745  0.6735 -0.8972
 4274SOL    HW224282   0.682   3.390  11.059  0.3375 -0.1181 -1.2027
 4275SOL     OW24283   0.445   0.351   1.992 -0.3128 -0.4661 -0.1937
 4275SOL    HW124284   0.413   0.330   2.080  1.1264  0.2909  0.5000
 4275SOL    HW224285   0.487   0.267   1.973  2.0511  0.7619 -0.4307
 4276SOL     OW24286   3.139   4.041   7.628 -0.2127 -0.1207  0.1257
 4276SOL    HW124287   3.112   4.056   7.719 -1.6663  1.4177 -0.5628
 4276SOL    HW224288   3.057   4.042   7.580 -0.0826  1.9586 -0.0506
 4277SOL     OW24289   0.655   0.201   0.117 -0.1487  0.5657 -0.0418
 4277SOL    HW124290   0.735   0.215   0.066 -0.2244 -2.6366 -1.0348
 4277SOL    HW224291   0.605   0.273   0.079 -1.2765 -0.2608 -0.1209
 4278SOL     OW24292   2.886   2.454   8.410 -0.0844  0.2964 -0.0198
 4278SOL    HW124293   2.827   2.494   8.473  0.5712  1.4115 -0.1142
 4278SOL    HW224294   2.932   2.537   8.401 -0.0311  0.2737  0.0450
 4279SOL     OW24295   0.116   3.078   5.991 -0.3853  0.3313  0.3232
 4279SOL    HW124296   0.105   3.163   5.949 -0.6958 -0.1315 -0.5280
 4279SOL    HW224297   0.097   3.015   5.921 -1.0236 -0.4178  1.1508
 4280SOL     OW24298   3.294   0.947  17.545  0.0101  0.0621  0.1568
 4280SOL    HW124299   3.337   0.905  17.619  0.8275 -1.5928 -1.2633
 4280SOL    HW224300   3.361   1.005  17.507 -0.7305 -0.2372 -1.6142
 4281SOL     OW24301   3.652   3.953  15.877 -0.4588  0.4155 -0.5770
 4281SOL    HW124302   3.713   4.002  15.822 -0.9125  2.8229  1.0373
 4281SOL    HW224303   3.683   3.863  15.872 -0.1487  0.4901 -0.0028
 4282SOL     OW24304   1.380   0.054   4.629  0.2889 -0.9873 -0.4810
 4282SOL    HW124305   1.382   0.009   4.544  2.1006 -2.1955  0.2040
 4282SOL    HW224306   1.284   0.056   4.640  0.1828 -0.6505 -1.5314
 4283SOL     OW24307   2.039   2.504   3.478 -0.2370 -0.2577  0.0727
 4283SOL    HW124308   2.048   2.590   3.521 -0.2577 -0.2533  0.0685
 4283SOL    HW224309   2.129   2.472   3.485 -0.4914 -0.7316  1.2718
 4284SOL     OW24310   0.738   2.706   5.085 -0.2707 -0.1170 -0.3193
 4284SOL    HW124311   0.808   2.642   5.071 -0.8172 -0.3128 -2.2346
 4284SOL    HW224312   0.684   2.656   5.146  1.0323 -1.4763 -0.2825
 4285SOL     OW24313   3.474   3.707   4.736  0.5045 -0.1559 -0.1034
 4285SOL    HW124314   3.474   3.793   4.777 -0.9476 -0.4115  0.4402
 4285SOL    HW224315   3.531   3.654   4.791 -1.0876 -2.2489 -0.4270
 4286SOL     OW24316   0.349   0.428   6.517  0.3497  0.0076  0.2464
 4286SOL    HW124317   0.302   0.377   6.451  0.8479 -0.4613  0.2572
 4286SOL    HW224318   0.411   0.362   6.548  1.6204  1.1983  0.2609
 4287SOL     OW24319   2.509   3.257   9.744  0.0226 -0.3392 -0.0485
 4287SOL    HW124320   2.584   3.207   9.776  1.1390  1.1326 -0.3876
 4287SOL    HW224321   2.441   3.190   9.753 -0.4154 -0.0393 -1.1203
 4288SOL     OW24322   3.263   4.013   3.281 -0.4133  0.1365 -0.2537
 4288SOL    HW124323   3.289   4.028   3.190 -0.5637 -1.5407 -0.5613
 4288SOL    HW224324   3.345   3.971   3.306 -0.3457  0.3611 -0.1031
 4289SOL     OW24325   3.310   4.014   5.513  0.0484  0.3613 -0.3382
 4289SOL    HW124326   3.225   3.986   5.547  0.0300  2.3545  1.2235
 4289SOL    HW224327   3.311   4.108   5.500 -1.7896  0.5213  0.7565
 4290SOL     OW24328   0.406   2.319   3.521  0.4033  0.2560  0.6357
 4290SOL    HW124329   0.313   2.298   3.527  0.3502  0.2521 -0.2669
 4290SOL    HW224330   0.399   2.387   3.454 -0.0674 -0.0347  0.3911
 4291SOL     OW24331   4.524   0.021  15.020 -0.4435 -0.1172 -0.0959
 4291SOL    HW124332   4.506   0.036  14.927  0.4761 -4.3379 -0.9202
 4291SOL    HW224333   4.467   4.668  15.032 -1.1998  0.5147  0.3853
 4292SOL     OW24334   3.369   2.464   4.381  0.4512 -0.3704 -0.0662
 4292SOL    HW124335   3.368   2.550   4.338 -0.8313  0.2922  1.2833
 4292SOL    HW224336   3.276   2.460   4.404  0.2502  0.2156 -0.7629
 4293SOL     OW24337   2.879   4.228   9.266 -0.9606  0.4919 -0.5018
 4293SOL    HW124338   2.867   4.135   9.249 -0.1961  0.6111 -1.7344
 4293SOL    HW224339   2.821   4.266   9.200 -1.9078  2.9600  1.7777
 4294SOL     OW24340   4.169   4.014   0.440 -0.9281  0.2629 -0.3915
 4294SOL    HW124341   4.151   4.085   0.502  1.8079  0.6515 -0.0707
 4294SOL    HW224342   4.123   3.946   0.490  1.7772 -0.0508  1.6661
 4295SOL     OW24343   2.005   0.531   6.562  0.8044  0.3072 -0.1567
 4295SOL    HW124344   2.097   0.506   6.566  0.1216 -1.7846  1.7446
 4295SOL    HW224345   2.002   0.626   6.550  0.9268  0.3561  0.2198
 4296SOL     OW24346   1.567   1.169   7.219 -0.3430 -0.3071  0.3500
 4296SOL    HW124347   1.487   1.124   7.191  0.1023 -0.3187 -0.8988
 4296SOL    HW224348   1.575   1.150   7.312 -1.6584 -0.8558  0.3480
 4297SOL     OW24349   1.039   1.974   3.376  0.7859  0.2936 -0.0614
 4297SOL    HW124350   1.035   2.063   3.342  0.8870 -0.1206 -1.1422
 4297SOL    HW224351   1.073   1.922   3.304 -3.5256 -1.8384 -0.5365
 4298SOL     OW24352   2.389   2.062   2.001  0.0781  0.5054  0.2452
 4298SOL    HW124353   2.306   2.072   2.049  0.0770  1.7260 -0.0078
 4298SOL    HW224354   2.410   1.970   2.016 -1.7012 -0.5244 -3.5083
 4299SOL     OW24355   1.118   2.199   5.208 -0.0229 -0.3072 -0.4198
 4299SOL    HW124356   1.178   2.219   5.136  1.4884 -0.1363  0.8855
 4299SOL    HW224357   1.149   2.251   5.283  0.2838  1.2132 -1.6073
 4300SOL     OW24358   0.043   1.376   5.264 -0.0223 -0.1195  0.9293
 4300SOL    HW124359   0.126   1.350   5.224 -0.5326  0.5127 -0.5303
 4300SOL    HW224360   0.008   1.433   5.196 -1.1724 -0.7879  0.9615
 4301SOL     OW24361   3.283   0.837  16.678  0.1266 -0.0087  0.4700
 4301SOL    HW124362   3.356   0.775  16.668  0.5350  0.2524  1.7386
 4301SOL    HW224363   3.212   0.787  16.718  1.3549 -2.2273 -0.0977
 4302SOL     OW24364   0.346   2.939   5.092 -0.5175 -0.3807 -0.0567
 4302SOL    HW124365   0.330   3.023   5.050  0.3767  0.6810  1.7521
 4302SOL    HW224366   0.442   2.943   5.086 -0.5020  1.3850  1.4427
 4303SOL     OW24367   2.005   4.121   2.352  0.4590  0.1489  0.6068
 4303SOL    HW124368   1.987   4.043   2.299  1.2328 -2.6828  4.5414
 4303SOL    HW224369   1.969   4.194   2.302  1.1685  0.5724  0.7141
 4304SOL     OW24370   1.319   1.209  12.271  0.0214  0.1098  0.3739
 4304SOL    HW124371   1.342   1.295  12.235 -0.6153  0.7276  1.4434
 4304SOL    HW224372   1.233   1.203  12.229 -0.8737  2.9193  1.8112
 4305SOL     OW24373   4.570   0.594   7.336 -0.0235  0.1146  0.3626
 4305SOL    HW124374   4.619   0.524   7.292 -2.5997 -1.5571  0.1898
 4305SOL    HW224375   4.634   0.602   7.407 -0.8029  0.7418  0.9942
 4306SOL     OW24376   4.310   0.362  17.067 -0.5633 -0.0408 -0.0108
 4306SOL    HW124377   4.252   0.299  17.024 -0.0562 -1.4134  1.3333
 4306SOL    HW224378   4.300   0.335  17.158  0.1157 -0.2132  0.0128
 4307SOL     OW24379   1.257   2.058   0.799 -0.3189  0.0288  0.1529
 4307SOL    HW124380   1.214   2.076   0.716  0.1499  1.9172  0.3185
 4307SOL    HW224381   1.249   1.963   0.806 -0.0642 -0.0363 -0.4195
 4308SOL     OW24382   3.309   1.093   6.694 -0.2233 -0.2923  0.3421
 4308SOL    HW124383   3.326   1.086   6.788  0.0291 -1.1055  0.2298
 4308SOL    HW224384   3.243   1.163   6.690 -0.7463 -0.7059  1.8237
 4309SOL     OW24385   3.418   1.994   0.446 -0.0635 -0.0326  0.4776
 4309SOL    HW124386   3.355   2.066   0.444  1.2269  1.1013  0.0964
 4309SOL    HW224387   3.426   1.975   0.353 -1.4751 -2.8508  0.9525
 4310SOL     OW24388   3.922   2.719   7.599 -0.4357  0.2960  0.1164
 4310SOL    HW124389   3.993   2.769   7.559  0.5522 -0.8950  0.3777
 4310SOL    HW224390   3.849   2.708   7.538 -0.4514  0.5341  0.0915
 4311SOL     OW24391   0.970   2.093   3.912 -0.0531  0.3850 -0.6894
 4311SOL    HW124392   1.034   2.040   3.960 -0.6700 -1.1120 -1.5143
 4311SOL    HW224393   0.893   2.049   3.948  1.0563 -0.0623  1.1341
 4312SOL     OW24394   3.090   3.278   2.662  0.1902 -0.2223 -0.6102
 4312SOL    HW124395   3.118   3.369   2.676  0.4798 -0.0577 -2.2527
 4312SOL    HW224396   3.075   3.280   2.567  2.7232  0.1390 -1.0151
 4313SOL     OW24397   4.379   4.247  11.839 -0.2299 -0.1035  0.7395
 4313SOL    HW124398   4.424   4.300  11.772  1.1392 -0.7795  1.1224
 4313SOL    HW224399   4.426   4.262  11.921  0.4487 -1.0409  0.5264
 4314SOL     OW24400   3.009   4.097  13.505  0.4476 -0.3679  0.1980
 4314SOL    HW124401   2.951   4.026  13.530 -0.2701 -0.4102 -1.5746
 4314SOL    HW224402   3.090   4.056  13.535  0.5630 -0.2278  0.0825
 4315SOL     OW24403   4.294   3.023   6.001  0.6001  0.1452  0.0126
 4315SOL    HW124404   4.355   2.949   5.997  1.0525  0.5809 -1.1876
 4315SOL    HW224405   4.289   3.061   5.913 -0.5843 -0.1513 -0.0377
 4316SOL     OW24406   2.246   1.402  13.920  0.1029 -0.2898 -0.3257
 4316SOL    HW124407   2.337   1.426  13.939 -1.2014  2.5259  2.4087
 4316SOL    HW224408   2.240   1.308  13.936  1.7077 -0.2824  0.2964
 4317SOL     OW24409   3.167   1.676   7.687 -0.4951 -0.2446  0.6731
 4317SOL    HW124410   3.106   1.676   7.761  0.8429  1.0065  1.7841
 4317SOL    HW224411   3.231   1.735   7.727 -1.6236  0.0706  2.0149
 4318SOL     OW24412   4.596   3.898   5.078  0.0397 -0.1466 -0.5955
 4318SOL    HW124413   4.657   3.866   5.011 -0.1805  1.4835 -1.5781
 4318SOL    HW224414   4.535   3.825   5.093 -0.5683  0.0307 -2.1323
 4319SOL     OW24415   0.041   4.678   8.197 -0.0520  0.7020  0.2999
 4319SOL    HW124416   0.018   4.591   8.228 -0.8106  0.6114 -0.5290
 4319SOL    HW224417   0.003   0.008   8.267  1.1307  1.5036  0.3417
 4320SOL     OW24418   1.509   3.692   9.661 -0.1524  0.8275 -0.0784
 4320SOL    HW124419   1.599   3.659   9.668 -1.5210 -2.7935  0.0677
 4320SOL    HW224420   1.486   3.676   9.569 -0.7694 -0.6463  0.3355
 4321SOL     OW24421   4.348   4.054   6.539 -0.3771 -0.2785  0.1577
 4321SOL    HW124422   4.431   4.009   6.524  0.6343  1.2557  1.1670
 4321SOL    HW224423   4.376   4.145   6.551  0.1127 -0.3187 -0.6791
 4322SOL     OW24424   4.257   2.840   4.259 -0.0797  0.1053 -0.4522
 4322SOL    HW124425   4.305   2.763   4.231  1.0327  0.3353  0.8033
 4322SOL    HW224426   4.237   2.816   4.349 -0.3193 -0.2164 -0.5928
 4323SOL     OW24427   0.243   1.044   2.817 -0.2908  0.4576  0.2580
 4323SOL    HW124428   0.317   1.066   2.874  0.1000  1.8037 -0.7947
 4323SOL    HW224429   0.237   0.948   2.808 -1.3274  0.6382 -0.9192
 4324SOL     OW24430   0.814   4.600  13.265  0.3086  0.1452  1.0577
 4324SOL    HW124431   0.784   4.610  13.175  2.1641 -0.6701  0.3580
 4324SOL    HW224432   0.902   4.570  13.245  0.3709  0.7010  0.4675
 4325SOL     OW24433   4.312   0.509   2.910  0.4344 -0.4909  0.1132
 4325SOL    HW124434   4.223   0.516   2.875  1.0845  0.7922 -1.3082
 4325SOL    HW224435   4.319   0.416   2.929 -0.9196 -0.3536  1.2684
 4326SOL     OW24436   2.294   3.711   4.627 -0.3130  0.6078 -0.0636
 4326SOL    HW124437   2.364   3.691   4.565 -1.2876  1.7652 -1.5311
 4326SOL    HW224438   2.235   3.640   4.601  0.4861  0.4631 -1.4946
 4327SOL     OW24439   3.515   3.848   0.171  0.6197  0.6291 -0.0763
 4327SOL    HW124440   3.502   3.937   0.140  1.0068  0.5847 -0.3697
 4327SOL    HW224441   3.558   3.801   0.099  0.8074  1.0957 -0.2639
 4328SOL     OW24442   0.544   4.010   6.220  0.3496 -0.4237  0.2038
 4328SOL    HW124443   0.614   4.065   6.255 -1.3532  0.5221  2.1436
 4328SOL    HW224444   0.570   3.925   6.257  1.7450  1.0028  2.4773
 4329SOL     OW24445   1.544   1.504   5.354 -0.0107 -0.0920  0.3587
 4329SOL    HW124446   1.551   1.453   5.435 -0.6736 -1.7130 -0.5954
 4329SOL    HW224447   1.461   1.473   5.318 -0.3777  0.8475  0.4184
 4330SOL     OW24448   1.506   4.664   1.164  0.4733  0.1342 -0.4000
 4330SOL    HW124449   1.500   4.705   1.078 -1.5449 -1.4025 -0.9910
 4330SOL    HW224450   1.495   0.025   1.210 -0.0066  0.4405 -1.0705
 4331SOL     OW24451   4.051   4.344  17.605  0.6599  0.2607  1.0319
 4331SOL    HW124452   4.097   4.264  17.631 -0.1015 -0.2245  0.8913
 4331SOL    HW224453   4.069   4.396  17.683  2.3324  0.0210  0.8001
 4332SOL     OW24454   3.745   2.199  11.570  0.2027  0.1175 -0.1525
 4332SOL    HW124455   3.689   2.210  11.492 -1.0631  1.6364  0.9687
 4332SOL    HW224456   3.794   2.118  11.557 -0.7771 -0.3782 -0.8291
 4333SOL     OW24457   1.571   2.059   7.002 -0.3282  0.1876  0.5161
 4333SOL    HW124458   1.497   2.026   6.950  0.7396 -3.0925  1.0914
 4333SOL    HW224459   1.613   2.131   6.954  1.4574 -0.5435  1.0032
 4334SOL     OW24460   0.148   3.785   4.476 -0.4001 -0.1997  0.3644
 4334SOL    HW124461   0.131   3.732   4.398 -0.4925 -0.3870  0.5111
 4334SOL    HW224462   0.093   3.750   4.546 -1.7127 -0.1030 -0.6140
 4335SOL     OW24463   1.996   3.152   0.174  0.1471 -0.1749  0.1460
 4335SOL    HW124464   1.983   3.059   0.160 -0.6959 -0.3273  1.9633
 4335SOL    HW224465   2.015   3.161   0.267 -1.1655  0.4614  0.3651
 4336SOL     OW24466   3.843   2.103  12.043  0.4472 -0.5090 -0.2069
 4336SOL    HW124467   3.789   2.100  11.964  0.2022  1.2126 -0.0957
 4336SOL    HW224468   3.900   2.029  12.020  0.2221 -0.8424  0.2845
 4337SOL     OW24469   0.859   0.735   2.484 -0.3224 -0.5074  0.2583
 4337SOL    HW124470   0.844   0.735   2.579  1.4882  1.0248  0.5601
 4337SOL    HW224471   0.798   0.806   2.466  1.7430  0.6828 -2.0750
 4338SOL     OW24472   2.861   1.359   2.339 -0.8270  0.1346 -0.0016
 4338SOL    HW124473   2.837   1.281   2.288  1.6329 -1.4928  1.2926
 4338SOL    HW224474   2.845   1.424   2.271  0.3211 -0.3480 -0.7386
 4339SOL     OW24475   3.150   1.114  15.472  0.1650 -0.6908 -0.1816
 4339SOL    HW124476   3.154   1.164  15.553  0.8643 -0.3662 -0.4174
 4339SOL    HW224477   3.229   1.143  15.426 -1.0189  0.6490 -1.3659
 4340SOL     OW24478   2.469   4.289   4.863  0.4083 -0.3272 -0.0106
 4340SOL    HW124479   2.539   4.273   4.799 -0.3863 -2.6671 -0.2646
 4340SOL    HW224480   2.413   4.213   4.851 -0.9040  0.0894  3.2811
 4341SOL     OW24481   3.432   3.262   4.927  0.2906  0.4498  0.2177
 4341SOL    HW124482   3.345   3.223   4.920  0.4742  0.1628 -0.4420
 4341SOL    HW224483   3.484   3.184   4.948  0.0637  0.7062  1.7383
 4342SOL     OW24484   4.685   1.725   8.503  0.3841 -0.2923 -0.2484
 4342SOL    HW124485   4.694   1.631   8.488  0.4577 -0.6414  1.9164
 4342SOL    HW224486   4.645   1.754   8.421  1.1249  1.4513  0.0009
 4343SOL     OW24487   3.900   0.002   8.149  0.0111  0.3520  0.1126
 4343SOL    HW124488   3.815   4.722   8.107 -1.1222 -0.6854  2.4761
 4343SOL    HW224489   3.957   4.713   8.073 -0.1238 -0.4528  0.1415
 4344SOL     OW24490   1.432   3.926   5.626 -0.5748 -0.2630  0.0440
 4344SOL    HW124491   1.377   3.899   5.553  0.1880  2.4437 -1.5235
 4344SOL    HW224492   1.468   4.009   5.595 -0.3051 -0.8852 -1.2756
 4345SOL     OW24493   1.124   3.974   8.580 -0.7033  0.0343  0.3215
 4345SOL    HW124494   1.131   3.886   8.617  1.4921  0.6009  1.2981
 4345SOL    HW224495   1.204   3.995   8.531 -1.1502 -0.6048 -0.6935
 4346SOL     OW24496   0.282   3.079   6.424  0.2524 -0.0887 -0.9457
 4346SOL    HW124497   0.328   3.014   6.478  0.4508 -1.3320 -2.6096
 4346SOL    HW224498   0.228   3.028   6.363 -1.3927  1.6936 -0.9779
 4347SOL     OW24499   0.992   4.564   1.015 -0.1167 -0.3369  0.5196
 4347SOL    HW124500   1.035   4.636   0.969 -0.8701 -0.0544  0.2514
 4347SOL    HW224501   0.900   4.578   0.992 -0.0418 -1.5602 -0.5084
 4348SOL     OW24502   1.310   2.923  17.490 -0.3492 -0.2943  0.3628
 4348SOL    HW124503   1.391   2.973  17.489  0.7802 -2.1483 -3.5034
 4348SOL    HW224504   1.292   2.896  17.580 -2.2515  1.1231  0.3995
 4349SOL     OW24505   1.682   1.822  12.960  0.6084  0.8371  0.1067
 4349SOL    HW124506   1.637   1.782  12.885  2.2949 -0.5377 -0.1565
 4349SOL    HW224507   1.598   1.835  13.005  0.2911 -0.2413 -0.1820
 4350SOL     OW24508   3.272   0.031   4.561 -0.0645 -0.1177 -0.5468
 4350SOL    HW124509   3.271   0.125   4.546 -0.2210  0.2295  1.7410
 4350SOL    HW224510   3.286   0.023   4.655  1.2950 -0.7895 -0.7974
 4351SOL     OW24511   1.550   3.724  16.651 -0.5334 -0.0921 -0.4720
 4351SOL    HW124512   1.592   3.747  16.568 -0.4734 -2.3554 -1.0693
 4351SOL    HW224513   1.594   3.787  16.709  0.1025  0.5767 -1.6847
 4352SOL     OW24514   3.836   3.625   7.679 -0.2659 -0.5851 -0.3369
 4352SOL    HW124515   3.776   3.693   7.708  2.5050  1.9683 -0.6526
 4352SOL    HW224516   3.870   3.595   7.763  0.0964  1.6903  0.3180
 4353SOL     OW24517   4.576   2.638   1.975 -0.4930 -0.0108 -0.0046
 4353SOL    HW124518   4.618   2.575   2.035  0.3085  0.0233 -0.5222
 4353SOL    HW224519   4.643   2.647   1.907 -0.0184 -2.3746  0.1274
 4354SOL     OW24520   4.648   3.902  10.931  0.3968  0.5473 -0.2312
 4354SOL    HW124521   4.655   3.935  11.020 -0.3693 -1.1342  0.4409
 4354SOL    HW224522   0.018   3.895  10.907  1.3533  1.2812  3.3371
 4355SOL     OW24523   1.330   0.721   0.926  0.0751 -0.1929 -0.0911
 4355SOL    HW124524   1.393   0.761   0.867 -1.1002  1.5215 -0.1988
 4355SOL    HW224525   1.355   0.631   0.946 -0.4636 -0.0558  1.1953
 4356SOL     OW24526   2.332   0.244   0.800  0.1735 -0.5353 -0.2169
 4356SOL    HW124527   2.392   0.197   0.857 -0.9136 -1.3769  0.2341
 4356SOL    HW224528   2.337   0.187   0.723  0.7477  0.5099 -0.9565
 4357SOL     OW24529   1.666   1.400   3.016  0.4545 -0.0996  0.2351
 4357SOL    HW124530   1.574   1.400   2.989 -0.0234 -2.0284  1.8917
 4357SOL    HW224531   1.716   1.396   2.934  0.9841 -2.9678  0.7133
 4358SOL     OW24532   2.262   3.941  16.408 -0.3949  0.2150  0.0217
 4358SOL    HW124533   2.273   3.924  16.315  1.9428  1.5938  0.0322
 4358SOL    HW224534   2.179   3.987  16.410 -1.2904 -1.3940 -0.0307
 4359SOL     OW24535   2.041   2.996  12.093 -0.2750  0.1888 -0.2350
 4359SOL    HW124536   2.097   2.964  12.022  0.2276  1.6835 -0.5197
 4359SOL    HW224537   2.108   3.025  12.156  0.7199  0.1018 -1.2536
 4360SOL     OW24538   1.267   3.081   6.203  0.5060  0.3335 -0.2578
 4360SOL    HW124539   1.217   3.049   6.128 -0.5860  2.4542 -0.4201
 4360SOL    HW224540   1.355   3.099   6.169  2.0275 -2.7195  2.0348
 4361SOL     OW24541   4.646   4.327  11.729  0.8173  0.3035  0.6535
 4361SOL    HW124542   4.659   4.256  11.666  2.9591  1.9938 -0.8078
 4361SOL    HW224543   4.673   4.289  11.813  1.7309 -0.1339  0.1646
 4362SOL     OW24544   4.216   0.389   3.467  0.5693  0.5784 -0.0890
 4362SOL    HW124545   4.187   0.332   3.396  0.1047  0.9168 -0.1718
 4362SOL    HW224546   4.205   0.472   3.421  1.1158 -1.0870 -3.1760
 4363SOL     OW24547   4.221   4.084   9.104 -0.0575 -0.4553 -0.2219
 4363SOL    HW124548   4.239   4.178   9.112  2.1706 -0.8714 -0.1847
 4363SOL    HW224549   4.309   4.052   9.083  1.1722  0.1636  3.9442
 4364SOL     OW24550   3.928   2.425   8.732 -0.1671  0.0774 -0.3433
 4364SOL    HW124551   3.995   2.379   8.783 -1.0994 -2.3130 -1.2523
 4364SOL    HW224552   3.985   2.449   8.659 -0.4240 -0.1810 -0.6267
 4365SOL     OW24553   0.914   3.747   6.655 -0.0417  0.0208  0.5234
 4365SOL    HW124554   0.936   3.840   6.649  0.7890 -0.1903  0.2451
 4365SOL    HW224555   0.824   3.744   6.687 -0.9042  3.6008 -1.6766
 4366SOL     OW24556   2.384   0.826   2.244  0.0436  0.1183 -0.0279
 4366SOL    HW124557   2.404   0.919   2.230  2.5266 -0.6227 -1.3650
 4366SOL    HW224558   2.424   0.823   2.331 -0.9521 -0.1619  0.4299
 4367SOL     OW24559   0.496   1.824   8.528 -0.4716  0.2374  0.5090
 4367SOL    HW124560   0.538   1.832   8.443 -0.4419  1.7140  0.6731
 4367SOL    HW224561   0.508   1.910   8.567 -2.9948 -0.0664  1.9920
 4368SOL     OW24562   0.316   0.062  11.059  0.1591  0.4867  0.0181
 4368SOL    HW124563   0.229   0.101  11.061 -1.7459 -3.7983  1.1847
 4368SOL    HW224564   0.375   0.137  11.047 -1.8098  1.7988 -1.3419
 4369SOL     OW24565   0.054   1.184   6.862 -0.4627 -0.1194 -0.5111
 4369SOL    HW124566   0.031   1.270   6.825  1.3896 -1.0859 -3.9267
 4369SOL    HW224567   4.710   1.183   6.931  2.7371  1.2056  2.5877
 4370SOL     OW24568   0.414   2.438   8.376 -0.8161  0.2304  0.5556
 4370SOL    HW124569   0.357   2.378   8.424  0.6846 -1.4754  0.2119
 4370SOL    HW224570   0.446   2.502   8.440 -1.7127  2.4375 -1.1961
 4371SOL     OW24571   1.555   0.372   7.381 -0.2346 -0.2847  0.0173
 4371SOL    HW124572   1.584   0.430   7.452 -2.7363  0.7952  0.1677
 4371SOL    HW224573   1.485   0.429   7.350  0.4985  1.4346  1.5013
 4372SOL     OW24574   3.391   0.155   7.647  0.4302 -0.5307 -0.5688
 4372SOL    HW124575   3.325   0.118   7.588 -0.9728  0.0821  0.6177
 4372SOL    HW224576   3.364   0.118   7.732  0.8283 -3.5858 -1.7468
 4373SOL     OW24577   4.513   3.227   3.514  0.0856 -0.0116 -0.2106
 4373SOL    HW124578   4.587   3.283   3.492  0.6486 -1.0421 -0.9573
 4373SOL    HW224579   4.544   3.190   3.597  1.8983 -2.7192 -2.0731
 4374SOL     OW24580   4.651   3.364   6.335  0.1884 -0.2180  0.0600
 4374SOL    HW124581   0.006   3.409   6.302 -1.1872  0.8419 -1.7274
 4374SOL    HW224582   4.600   3.438   6.367 -1.4746 -1.5422  0.4721
 4375SOL     OW24583   0.868   1.187  14.588  0.3271 -0.0634  0.2673
 4375SOL    HW124584   0.816   1.243  14.645  0.3884 -1.0225  1.2707
 4375SOL    HW224585   0.863   1.235  14.506 -0.8672 -2.2464 -0.9527
 4376SOL     OW24586   2.422   2.884   3.603 -0.0413 -0.3698 -0.0823
 4376SOL    HW124587   2.398   2.833   3.525  0.5875 -1.2226  0.2829
 4376SOL    HW224588   2.388   2.832   3.675  0.5262  0.6387  0.9035
 4377SOL     OW24589   2.493   0.916  17.595 -0.2214  0.6672  0.3062
 4377SOL    HW124590   2.583   0.947  17.583 -0.2306  0.3869 -0.4942
 4377SOL    HW224591   2.506   0.842  17.655 -0.0269 -0.1223 -0.7003
 4378SOL     OW24592   1.294   3.482   5.091  0.3706 -0.1909 -0.4066
 4378SOL    HW124593   1.302   3.576   5.105 -0.7764 -0.4698  2.2649
 4378SOL    HW224594   1.236   3.473   5.167  1.6261 -0.4188  0.5205
 4379SOL     OW24595   4.520   3.695   8.115 -0.5778  0.2276  0.0081
 4379SOL    HW124596   4.463   3.772   8.109 -2.9523 -1.2476  3.2470
 4379SOL    HW224597   4.454   3.630   8.140  0.3452 -0.3592  0.8999
 4380SOL     OW24598   3.948   3.148  13.882  0.6306  0.0061 -0.5904
 4380SOL    HW124599   3.959   3.071  13.937 -2.2220 -0.7223 -1.0294
 4380SOL    HW224600   3.990   3.213  13.937 -1.0448 -1.1214  2.0626
 4381SOL     OW24601   2.482   3.123   5.931  0.1224  0.1448 -0.3136
 4381SOL    HW124602   2.553   3.150   5.873  0.5626  0.0531  0.1918
 4381SOL    HW224603   2.425   3.068   5.877  0.2197  0.5924 -0.8723
 4382SOL     OW24604   3.538   0.549   5.965 -0.3210 -0.1820  0.2217
 4382SOL    HW124605   3.582   0.592   6.038 -2.7835  1.3985  0.7808
 4382SOL    HW224606   3.467   0.495   5.998 -0.7228  0.9681  1.2143
 4383SOL     OW24607   0.321   1.000  10.860 -0.9236 -0.2130  0.0946
 4383SOL    HW124608   0.416   1.012  10.862 -0.7246 -1.4421 -1.5355
 4383SOL    HW224609   0.301   1.019  10.768  0.4231 -0.3997 -0.2343
 4384SOL     OW24610   1.634   3.595   6.909  0.6409 -0.5369  0.2779
 4384SOL    HW124611   1.586   3.596   6.992  0.1199 -1.4903 -0.0111
 4384SOL    HW224612   1.570   3.592   6.838  1.7479  1.6590 -0.8210
 4385SOL     OW24613   1.362   1.058  14.216  0.8229  0.6528  0.1509
 4385SOL    HW124614   1.310   1.033  14.292  1.1590 -0.5236 -0.0128
 4385SOL    HW224615   1.351   0.977  14.166  1.8006  0.4448  0.2682
 4386SOL     OW24616   0.007   1.283   5.718 -0.2714  0.0116 -0.2473
 4386SOL    HW124617   0.020   1.351   5.651 -1.1222  0.9902  0.5785
 4386SOL    HW224618   4.717   1.329   5.801 -2.8650  0.1223 -0.7111
 4387SOL     OW24619   2.545   3.679   2.413 -0.1143  0.1601 -0.0103
 4387SOL    HW124620   2.509   3.747   2.470  0.5187 -0.5327  1.2145
 4387SOL    HW224621   2.474   3.675   2.348  0.0372 -0.1662 -0.1519
 4388SOL     OW24622   4.628   2.507  17.652 -0.0423  0.5060  0.4043
 4388SOL    HW124623   4.633   2.594   0.000 -1.6750  0.0719  1.5145
 4388SOL    HW224624   4.716   2.470  17.658 -0.9334 -1.8908 -1.8621
 4389SOL     OW24625   2.648   2.172   6.792  0.4628 -0.3247 -0.3447
 4389SOL    HW124626   2.603   2.156   6.875  0.8315  2.2881  0.3364
 4389SOL    HW224627   2.590   2.234   6.747 -0.9916 -1.8869 -0.6419
 4390SOL     OW24628   1.315   1.182   3.130 -0.1591  0.8006 -0.2663
 4390SOL    HW124629   1.406   1.158   3.148 -0.8337 -1.3366  0.3814
 4390SOL    HW224630   1.278   1.100   3.163  1.4654 -1.1276 -3.2510
 4391SOL     OW24631   2.204   3.328  15.371  0.7563 -0.4205 -0.3508
 4391SOL    HW124632   2.192   3.385  15.295 -2.6144 -1.1822 -0.3651
 4391SOL    HW224633   2.300   3.336  15.375  0.8161 -2.1291  2.1764
 4392SOL     OW24634   3.026   3.064   6.948 -0.1732  0.3850  0.3499
 4392SOL    HW124635   2.962   3.111   6.895 -0.5267  0.8842  1.2254
 4392SOL    HW224636   2.983   3.051   7.033  0.8906 -0.6465  0.7429
 4393SOL     OW24637   0.768   3.807   6.038 -0.1786  0.5030 -0.4186
 4393SOL    HW124638   0.819   3.888   6.042  3.6033 -1.7737 -1.6106
 4393SOL    HW224639   0.799   3.761   6.116 -1.0224  1.4327  0.4676
 4394SOL     OW24640   1.279   2.519   5.503 -0.2565  0.2435 -0.0425
 4394SOL    HW124641   1.261   2.427   5.485 -0.1471  0.5203 -1.5502
 4394SOL    HW224642   1.223   2.526   5.580  0.8527 -0.6067  0.8466
 4395SOL     OW24643   1.179   1.239   2.533 -0.3302  0.1555  0.5928
 4395SOL    HW124644   1.220   1.280   2.457 -2.2091 -1.4677 -1.3085
 4395SOL    HW224645   1.090   1.274   2.525 -0.1310  0.2545 -1.0933
 4396SOL     OW24646   2.833   4.329   9.602  0.2218  0.0140  0.0965
 4396SOL    HW124647   2.765   4.392   9.623  0.1187  0.6413 -2.1295
 4396SOL    HW224648   2.903   4.349   9.664  1.8718 -0.7224 -1.5040
 4397SOL     OW24649   2.944   2.706   5.074 -0.2872  0.1999 -0.2457
 4397SOL    HW124650   2.980   2.692   5.162 -1.8859  2.2444  0.7162
 4397SOL    HW224651   2.867   2.649   5.077  0.9283 -1.4478  0.2715
 4398SOL     OW24652   4.707   0.746   8.101  0.0274  0.4004  0.3875
 4398SOL    HW124653   4.680   0.780   8.016  1.5334  2.8836  0.8994
 4398SOL    HW224654   0.078   0.753   8.085 -0.1656  1.4516 -0.2683
 4399SOL     OW24655   1.944   2.362   7.249 -0.4692 -0.2645  0.2261
 4399SOL    HW124656   1.894   2.347   7.168  1.7578 -0.2057 -1.1619
 4399SOL    HW224657   2.033   2.353   7.214 -0.3922 -2.0461  0.8808
 4400SOL     OW24658   3.695   2.851   5.331 -0.1153 -0.4740  0.1841
 4400SOL    HW124659   3.783   2.824   5.306 -0.8973 -1.0450 -1.9664
 4400SOL    HW224660   3.675   2.796   5.407  0.2792  0.8363  1.2438
 4401SOL     OW24661   1.147   4.351   3.337 -0.5207  0.1407 -0.5397
 4401SOL    HW124662   1.183   4.385   3.256  0.6092 -0.2069 -0.1798
 4401SOL    HW224663   1.147   4.256   3.324 -1.5486 -0.0437  0.7565
 4402SOL     OW24664   4.009   0.007  13.268 -0.5390 -0.4990 -0.1131
 4402SOL    HW124665   4.091   4.719  13.220  0.8752  2.9826  1.5230
 4402SOL    HW224666   4.026   0.078  13.330 -0.2203  0.0318 -0.8122
 4403SOL     OW24667   2.308   1.687  14.031  0.3275 -0.1689  0.2961
 4403SOL    HW124668   2.340   1.620  14.093 -1.1129 -0.3095  0.8965
 4403SOL    HW224669   2.227   1.711  14.077  0.3792  0.2060  0.1846
 4404SOL     OW24670   0.940   2.521   4.568 -0.4968  0.1858 -0.7089
 4404SOL    HW124671   0.900   2.438   4.545 -2.4773  1.4678 -1.9055
 4404SOL    HW224672   0.904   2.526   4.657 -0.9841 -3.0235 -0.7309
 4405SOL     OW24673   1.354   1.642   3.920  0.2948 -0.0711 -0.1324
 4405SOL    HW124674   1.370   1.735   3.937 -2.4470  0.1205  1.5021
 4405SOL    HW224675   1.405   1.618   3.842 -1.2731 -0.1567 -1.1403
 4406SOL     OW24676   3.787   2.475  13.971  0.1993  0.3259 -0.2272
 4406SOL    HW124677   3.868   2.449  14.015 -0.6535 -0.7790  0.6767
 4406SOL    HW224678   3.726   2.421  14.022 -0.6827  2.0339  0.5088
 4407SOL     OW24679   1.042   0.939   4.948  0.1054  0.5826 -0.1664
 4407SOL    HW124680   1.058   0.871   5.013  0.6279 -0.5054 -1.4503
 4407SOL    HW224681   0.961   0.981   4.979  0.2606 -0.3272  1.4751
 4408SOL     OW24682   4.402   2.997  11.642 -0.1361  0.0064 -0.4985
 4408SOL    HW124683   4.350   2.918  11.655  0.0570 -0.4681 -2.5069
 4408SOL    HW224684   4.361   3.056  11.705 -1.4786 -1.7054  0.2260
 4409SOL     OW24685   3.004   0.859   8.401 -0.5909  0.1355  0.2541
 4409SOL    HW124686   2.929   0.824   8.352 -0.7012 -0.1424  0.6196
 4409SOL    HW224687   3.067   0.852   8.330 -0.9475  0.6875 -0.1155
 4410SOL     OW24688   4.235   3.262  16.752 -0.1969  0.0857 -0.1509
 4410SOL    HW124689   4.326   3.230  16.751 -1.2423 -2.8041 -0.7044
 4410SOL    HW224690   4.208   3.200  16.820  0.6819  0.5925  0.6701
 4411SOL     OW24691   4.328   4.388   2.134  0.2088  0.2284 -0.2656
 4411SOL    HW124692   4.354   4.314   2.189 -2.0457  0.3145  0.8833
 4411SOL    HW224693   4.268   4.342   2.076  1.1310 -1.8892  0.4855
 4412SOL     OW24694   4.263   3.511  15.078  0.4959 -0.1098  0.0241
 4412SOL    HW124695   4.173   3.483  15.092  0.7055 -1.5502 -1.5571
 4412SOL    HW224696   4.289   3.530  15.169 -1.3657  1.1476  0.2871
 4413SOL     OW24697   4.490   1.830   9.020 -0.1088  0.1327  0.5358
 4413SOL    HW124698   4.536   1.793   8.945 -0.6872  0.3993  0.0578
 4413SOL    HW224699   4.535   1.776   9.085  3.6804  1.6935 -0.8055
 4414SOL     OW24700   0.935   2.785  14.455 -0.4670 -0.1126  0.2793
 4414SOL    HW124701   0.895   2.707  14.492 -0.6141 -0.5060 -0.7049
 4414SOL    HW224702   0.881   2.798  14.377 -0.0157 -1.4095 -0.2324
 4415SOL     OW24703   0.539   4.199   8.120 -0.1129 -0.1805 -0.3955
 4415SOL    HW124704   0.480   4.265   8.083 -0.6076  0.5333  1.6322
 4415SOL    HW224705   0.556   4.242   8.204  2.5717  0.1770 -1.1262
 4416SOL     OW24706   0.325   2.676   5.578 -0.1684  0.0233  0.1906
 4416SOL    HW124707   0.413   2.711   5.564 -0.9109  2.7019  2.2507
 4416SOL    HW224708   0.317   2.688   5.672  4.3638  0.9802  0.4497
 4417SOL     OW24709   0.520   2.698   2.561 -0.7509  0.1225 -0.8868
 4417SOL    HW124710   0.572   2.756   2.617 -1.7547  0.7480 -0.6070
 4417SOL    HW224711   0.555   2.611   2.584 -0.2287  0.6124  0.1623
 4418SOL     OW24712   0.155   3.440   7.758  0.8994 -0.4402  0.0128
 4418SOL    HW124713   0.125   3.501   7.826  0.3006 -0.0862 -0.5734
 4418SOL    HW224714   0.204   3.498   7.701  2.1182 -0.2795  1.2213
 4419SOL     OW24715   1.069   1.452   1.419  0.0399 -0.3115 -0.5615
 4419SOL    HW124716   1.008   1.486   1.353 -1.5278  1.6217  1.8733
 4419SOL    HW224717   1.044   1.510   1.491 -0.5635 -0.1183 -0.9292
 4420SOL     OW24718   1.719   4.223   1.438 -0.2954 -0.3118  0.2999
 4420SOL    HW124719   1.701   4.314   1.460 -2.5870 -1.1474  1.9260
 4420SOL    HW224720   1.787   4.198   1.501  0.2947 -0.4141 -0.3773
 4421SOL     OW24721   1.008   0.108   4.643 -0.3926  0.4626 -0.2219
 4421SOL    HW124722   0.991   0.016   4.622  0.4941  0.1722  0.3455
 4421SOL    HW224723   0.922   0.131   4.678 -1.1907 -0.2937 -1.6962
 4422SOL     OW24724   0.427   2.753   2.299 -0.5991 -0.0884  0.7016
 4422SOL    HW124725   0.514   2.792   2.303  0.2433 -1.7862 -0.8830
 4422SOL    HW224726   0.424   2.733   2.393 -0.2965  0.8255  0.9002
 4423SOL     OW24727   1.938   1.186  10.925 -0.1738  0.3427 -0.0174
 4423SOL    HW124728   2.009   1.122  10.930  0.3518  0.9105 -0.1039
 4423SOL    HW224729   1.988   1.264  10.951 -0.4963  0.6260 -0.2413
 4424SOL     OW24730   3.710   4.705   7.000 -0.2251 -0.0770  0.9545
 4424SOL    HW124731   3.622   4.684   6.970  1.6938 -1.5550 -3.5741
 4424SOL    HW224732   3.687   0.063   7.046  0.4203  0.1121  0.9548
 4425SOL     OW24733   4.529   3.890  15.106 -0.1127  0.2577 -0.3527
 4425SOL    HW124734   4.552   3.971  15.061  2.0678  0.7664  1.6611
 4425SOL    HW224735   4.458   3.863  15.049  2.2888 -2.6764 -1.9758
 4426SOL     OW24736   1.907   4.520   0.559  0.1012  0.6571  0.6887
 4426SOL    HW124737   1.967   4.465   0.608  0.3591  0.7326  0.4568
 4426SOL    HW224738   1.967   4.558   0.495  0.8770 -0.5365  0.7134
 4427SOL     OW24739   4.383   1.985   3.947  0.6282 -0.3913 -0.6416
 4427SOL    HW124740   4.351   2.030   3.869 -0.0759  1.8450  0.9249
 4427SOL    HW224741   4.333   2.030   4.016 -2.4502 -2.7030 -1.3747
 4428SOL     OW24742   3.283   0.737  17.366  0.5516 -0.3716  0.2547
 4428SOL    HW124743   3.287   0.811  17.426  1.7152  0.6332 -1.0552
 4428SOL    HW224744   3.204   0.759  17.315  0.9826  0.4647 -0.0605
 4429SOL     OW24745   4.281   3.097  10.356  0.0444 -0.3248  0.3089
 4429SOL    HW124746   4.343   3.167  10.335  0.4216 -0.6000  0.4961
 4429SOL    HW224747   4.213   3.126  10.296  1.0072  0.8579 -0.2124
 4430SOL     OW24748   1.593   4.121   3.020 -0.4788 -0.1461 -0.5467
 4430SOL    HW124749   1.577   4.215   3.016 -1.4428 -0.3044 -0.3916
 4430SOL    HW224750   1.639   4.108   3.102 -0.5022 -0.5447 -0.5971
 4431SOL     OW24751   4.059   4.432  13.333 -0.0251  0.2294  0.0400
 4431SOL    HW124752   3.984   4.490  13.343  0.3967  1.0057 -1.3074
 4431SOL    HW224753   4.122   4.479  13.278  0.9959 -0.0499  0.9913
 4432SOL     OW24754   4.418   0.918   4.096 -0.1860 -0.0614 -0.3277
 4432SOL    HW124755   4.462   0.838   4.068  2.7583  1.7613 -0.8518
 4432SOL    HW224756   4.500   0.963   4.115  0.3229 -1.3387  0.4728
 4433SOL     OW24757   1.175   4.163   0.348 -0.2089  0.3488 -0.7936
 4433SOL    HW124758   1.148   4.142   0.438 -0.8937  2.1914 -0.5814
 4433SOL    HW224759   1.208   4.252   0.353 -0.4354  0.1949  3.3039
 4434SOL     OW24760   1.961   2.752   4.530  0.3095 -0.0969 -0.5398
 4434SOL    HW124761   2.038   2.696   4.545 -1.0939 -1.7186  0.6118
 4434SOL    HW224762   1.960   2.811   4.606  0.2094  0.3500 -0.8864
 4435SOL     OW24763   1.635   2.879   1.834  0.7228  0.2837 -0.4905
 4435SOL    HW124764   1.653   2.950   1.895 -3.1600 -0.3006  1.2583
 4435SOL    HW224765   1.722   2.839   1.828  0.8348  0.4215  0.2281
 4436SOL     OW24766   0.694   0.123   2.990  0.5444  0.2335  0.6123
 4436SOL    HW124767   0.642   0.164   2.921  2.5644 -3.3889 -3.0833
 4436SOL    HW224768   0.651   0.159   3.068 -1.7664 -1.2112  0.0059
 4437SOL     OW24769   3.560   4.377  16.338  0.3825  0.0887  0.3230
 4437SOL    HW124770   3.485   4.370  16.279  0.3905  0.2681  0.2896
 4437SOL    HW224771   3.630   4.333  16.289 -0.4088 -0.4709 -0.2918
 4438SOL     OW24772   0.444   1.114   6.395  0.3016 -0.1786  0.0615
 4438SOL    HW124773   0.456   1.034   6.344  0.7556  0.3716 -0.7025
 4438SOL    HW224774   0.385   1.164   6.338 -0.0626  0.6561  1.1828
 4439SOL     OW24775   2.813   1.051   1.554  0.3392 -0.1537  0.1633
 4439SOL    HW124776   2.791   0.958   1.545  0.1525  0.0244 -1.2047
 4439SOL    HW224777   2.733   1.094   1.522  0.9496 -0.6097 -1.9811
 4440SOL     OW24778   3.639   3.000  10.259 -0.7477 -0.2673  0.1490
 4440SOL    HW124779   3.593   3.082  10.242 -2.0721 -1.5846 -2.5227
 4440SOL    HW224780   3.733   3.017  10.248 -0.2206 -1.5902  2.8467
 4441SOL     OW24781   2.103   0.609   3.048  0.0631  0.0567  0.0060
 4441SOL    HW124782   2.065   0.673   2.988  0.6604 -0.5550 -1.0282
 4441SOL    HW224783   2.102   0.532   2.992  0.8003  1.0178 -1.3278
 4442SOL     OW24784   0.754   0.993   0.208  0.3131 -0.1005 -0.3126
 4442SOL    HW124785   0.705   0.931   0.263 -0.9267  1.1114 -0.0770
 4442SOL    HW224786   0.747   0.948   0.124  1.5091  0.9308 -0.9513
 4443SOL     OW24787   1.842   4.524   4.849  0.2875  0.2046  0.0571
 4443SOL    HW124788   1.783   4.454   4.821 -2.2549  2.9403 -1.4298
 4443SOL    HW224789   1.779   4.596   4.840 -1.7225 -2.0754 -3.7407
 4444SOL     OW24790   2.354   1.567   4.803 -0.4318 -0.0996  0.1955
 4444SOL    HW124791   2.333   1.649   4.848 -0.5349 -0.6642  1.1690
 4444SOL    HW224792   2.392   1.601   4.722  0.1333 -0.8445  0.1488
 4445SOL     OW24793   0.508   1.910   6.911  0.4810 -0.0070  0.3456
 4445SOL    HW124794   0.500   1.921   6.816  1.3391  3.2352  0.6608
 4445SOL    HW224795   0.416   1.920   6.935  0.7402  0.2580  1.2176
 4446SOL     OW24796   4.082   3.477   1.016 -0.1229 -0.5388  0.0469
 4446SOL    HW124797   4.063   3.571   1.012  0.9833 -0.3597 -0.9439
 4446SOL    HW224798   4.147   3.479   1.086  2.3248 -1.7546 -2.2206
 4447SOL     OW24799   2.216   0.370   8.018  0.6048  0.4752  0.2326
 4447SOL    HW124800   2.255   0.330   7.941 -2.0375 -1.4419 -0.1131
 4447SOL    HW224801   2.242   0.462   8.022 -0.0377  0.5930  1.8300
 4448SOL     OW24802   2.189   1.360   4.839 -0.1591  0.1331  0.2043
 4448SOL    HW124803   2.261   1.315   4.884 -0.6580  0.1057  0.9835
 4448SOL    HW224804   2.232   1.441   4.815  1.2416 -0.5321  0.4970
 4449SOL     OW24805   4.054   4.312   5.351 -0.7807  0.0450 -0.0820
 4449SOL    HW124806   4.102   4.249   5.405  2.4919  0.3685 -2.5804
 4449SOL    HW224807   4.059   4.398   5.392 -0.4909  0.6740 -1.4189
 4450SOL     OW24808   0.912   0.548   6.094 -0.1406  0.4509 -0.5180
 4450SOL    HW124809   0.845   0.592   6.043  0.3479 -0.2108 -1.7292
 4450SOL    HW224810   0.907   0.602   6.173  1.1531 -0.2512  0.0525
 4451SOL     OW24811   3.917   1.587  17.084 -0.4309  0.4220  0.0670
 4451SOL    HW124812   3.854   1.568  17.014 -1.6664 -1.3997  1.6760
 4451SOL    HW224813   3.967   1.506  17.084 -1.5476 -0.2734 -0.0022
 4452SOL     OW24814   4.437   2.636   4.220 -0.4396 -0.0859 -0.3622
 4452SOL    HW124815   4.416   2.555   4.174 -2.2102 -0.3432  0.8678
 4452SOL    HW224816   4.532   2.641   4.212 -0.3838 -1.1896 -0.4376
 4453SOL     OW24817   3.866   3.966   5.164  0.3216 -0.2985  0.3131
 4453SOL    HW124818   3.947   3.971   5.215 -1.0850 -0.0168  2.5595
 4453SOL    HW224819   3.857   4.060   5.149 -1.2200 -0.4665  0.2296
 4454SOL     OW24820   0.603   1.348   9.546  0.0313 -0.1572  0.0392
 4454SOL    HW124821   0.638   1.437   9.537  1.6031 -0.8341 -0.4864
 4454SOL    HW224822   0.574   1.350   9.637  0.8974  0.6247  0.3093
 4455SOL     OW24823   2.353   2.401  16.849 -0.4309 -0.3797  0.0398
 4455SOL    HW124824   2.400   2.351  16.782  4.6549  2.1941  1.7270
 4455SOL    HW224825   2.429   2.448  16.883 -1.1175  0.7586  0.0001
 4456SOL     OW24826   1.427   0.510  10.419 -0.0547 -0.0653 -0.1794
 4456SOL    HW124827   1.445   0.565  10.495 -1.1359  0.5590 -0.3856
 4456SOL    HW224828   1.333   0.493  10.415  0.3000 -2.2293  0.4146
 4457SOL     OW24829   4.278   1.350   5.450 -0.1098  0.4992 -0.0464
 4457SOL    HW124830   4.322   1.396   5.521  2.6771 -1.1028 -0.7425
 4457SOL    HW224831   4.353   1.329   5.394  0.3284  1.6582  0.1099
 4458SOL     OW24832   0.413   2.178   6.991 -0.2640 -0.2013 -0.1038
 4458SOL    HW124833   0.374   2.240   7.052  0.5459  0.6466 -0.4422
 4458SOL    HW224834   0.334   2.126   6.974 -0.2879 -0.3849  0.5829
 4459SOL     OW24835   3.708   3.722  14.078 -0.0190  0.6408  0.4606
 4459SOL    HW124836   3.727   3.726  14.172  0.5781 -1.4970  0.4562
 4459SOL    HW224837   3.679   3.632  14.061  1.1115  0.3664 -0.0643
 4460SOL     OW24838   0.134   2.470  10.998 -0.0962 -0.7176 -0.2460
 4460SOL    HW124839   0.220   2.501  11.024 -0.2193  0.1734 -0.9096
 4460SOL    HW224840   0.150   2.452  10.905 -0.8830  0.2136 -0.5736
 4461SOL     OW24841   1.787   0.100  12.972  0.0755  0.5634 -0.2477
 4461SOL    HW124842   1.812   0.061  13.056 -1.3473  2.3669  1.0032
 4461SOL    HW224843   1.697   0.069  12.964  0.2971 -0.0753 -0.2355
 4462SOL     OW24844   4.321   2.443   2.093 -0.4698  0.3082  0.2782
 4462SOL    HW124845   4.368   2.362   2.112  0.1128  0.7426  0.6939
 4462SOL    HW224846   4.292   2.424   2.004 -1.0727  1.2074  0.2772
 4463SOL     OW24847   4.676   1.150  10.251  0.0590 -0.4575  0.1867
 4463SOL    HW124848   0.019   1.090  10.284 -1.5281 -1.3852  1.6681
 4463SOL    HW224849   4.597   1.095  10.246 -1.1593  1.1239  1.9250
 4464SOL     OW24850   0.777   4.104   0.096  0.2975  0.6838  0.4449
 4464SOL    HW124851   0.701   4.141   0.050  1.2735  0.9476 -0.9314
 4464SOL    HW224852   0.847   4.117   0.033 -0.4267 -0.9397 -0.7163
 4465SOL     OW24853   0.132   2.606   2.883  0.0413 -0.2148  0.1065
 4465SOL    HW124854   0.117   2.557   2.964  0.5779 -2.1506 -0.9477
 4465SOL    HW224855   0.132   2.697   2.911 -3.2405 -0.1961  0.0129
 4466SOL     OW24856   2.313   0.812  17.444  0.6822  0.1692  0.0011
 4466SOL    HW124857   2.240   0.822  17.506  0.5661  0.1336 -0.1298
 4466SOL    HW224858   2.382   0.857  17.492  0.7512 -0.5372  0.5576
 4467SOL     OW24859   2.587   3.559   8.126  0.1856  0.6513 -0.1445
 4467SOL    HW124860   2.592   3.646   8.085 -0.2001  0.0647 -1.4571
 4467SOL    HW224861   2.535   3.581   8.203  0.9089 -0.0861  0.5532
 4468SOL     OW24862   2.651   4.311  11.475 -0.5084  0.6277 -0.4133
 4468SOL    HW124863   2.726   4.299  11.417 -0.4189 -0.2183 -0.1274
 4468SOL    HW224864   2.599   4.379  11.433 -1.4544  0.4845  0.5211
 4469SOL     OW24865   1.947   3.867   2.251  0.7434  0.2037 -0.4576
 4469SOL    HW124866   1.911   3.814   2.322  0.6523  3.0829  1.6373
 4469SOL    HW224867   2.041   3.878   2.269  0.9146 -2.0667  0.1047
 4470SOL     OW24868   4.073   3.696   5.976 -0.1795 -0.3585 -0.5760
 4470SOL    HW124869   4.036   3.702   5.888  0.6243  0.6531 -0.8490
 4470SOL    HW224870   4.078   3.788   6.002  0.2811 -1.2012  2.3532
 4471SOL     OW24871   0.650   1.890  14.041 -0.3253  0.3337  0.0699
 4471SOL    HW124872   0.665   1.833  13.966 -1.5058 -1.2038  1.0017
 4471SOL    HW224873   0.682   1.972  14.005  2.6069 -0.5102  0.7093
 4472SOL     OW24874   3.879   2.087   5.822 -0.1283  0.2981 -0.3842
 4472SOL    HW124875   3.882   1.992   5.826 -1.5856  0.2767  0.2478
 4472SOL    HW224876   3.796   2.111   5.862  0.3602  2.4737 -0.6746
 4473SOL     OW24877   2.581   3.618   9.816 -0.3370 -0.4270 -0.3140
 4473SOL    HW124878   2.634   3.680   9.866  1.7828 -2.6216  0.1803
 4473SOL    HW224879   2.495   3.659   9.814  0.3667  1.0655  0.2832
 4474SOL     OW24880   2.265   2.219   3.658  0.9266 -0.4495  0.0636
 4474SOL    HW124881   2.179   2.190   3.628  0.2251 -1.1022  2.7479
 4474SOL    HW224882   2.319   2.141   3.644 -0.4360 -1.4238  0.2053
 4475SOL     OW24883   0.609   2.401   1.547  0.5818  0.2584 -0.0857
 4475SOL    HW124884   0.531   2.429   1.595  0.7117  0.1989  0.1617
 4475SOL    HW224885   0.574   2.317   1.517  2.6370  0.1633 -2.2086
 4476SOL     OW24886   0.224   3.758  10.137  0.9609 -0.0640  0.7122
 4476SOL    HW124887   0.319   3.764  10.128  0.8577  1.8312  0.9036
 4476SOL    HW224888   0.193   3.763  10.046 -1.0650  0.0473  1.4150
 4477SOL     OW24889   0.244   1.495  13.074  0.3993 -0.2057 -0.3678
 4477SOL    HW124890   0.243   1.399  13.074  1.4905 -0.2256  0.0649
 4477SOL    HW224891   0.200   1.513  13.156  4.1899  1.7762  1.2197
 4478SOL     OW24892   3.408   3.074   0.661 -0.6772  0.4376 -0.2718
 4478SOL    HW124893   3.361   3.123   0.728  0.0786  2.9549 -1.6039
 4478SOL    HW224894   3.477   3.135   0.637  0.4519 -0.2806  1.2038
 4479SOL     OW24895   3.783   3.824   6.078  0.5096 -0.0499  0.5384
 4479SOL    HW124896   3.869   3.859   6.056  0.2370 -0.0230 -0.4938
 4479SOL    HW224897   3.762   3.768   6.003 -0.0659  0.0599  0.6136
 4480SOL     OW24898   4.172   3.648   4.009  0.0193 -0.5274 -0.2217
 4480SOL    HW124899   4.207   3.568   3.969  2.0659  0.1809  0.1439
 4480SOL    HW224900   4.078   3.632   4.015  0.3815 -2.4385  0.2698
 4481SOL     OW24901   0.014   4.250   1.114 -0.0533  0.4679  0.4100
 4481SOL    HW124902   0.041   4.336   1.083  1.3168 -0.3431 -0.6270
 4481SOL    HW224903   0.097   4.206   1.130 -0.7472 -0.8823  0.2690
 4482SOL     OW24904   2.676   3.341  11.899  0.3457 -0.7217 -0.0757
 4482SOL    HW124905   2.732   3.355  11.976 -2.2859 -1.1655  1.9147
 4482SOL    HW224906   2.606   3.300  11.950 -0.0703 -1.3161 -1.1436
 4483SOL     OW24907   0.750   2.776  14.258 -0.4105 -0.7415  0.1111
 4483SOL    HW124908   0.699   2.838  14.206  0.6278  1.6872  1.9736
 4483SOL    HW224909   0.695   2.698  14.254 -1.0638 -0.1695 -2.1396
 4484SOL     OW24910   3.669   0.375   2.723 -0.1698 -0.6459 -0.3159
 4484SOL    HW124911   3.693   0.458   2.682 -2.7396  0.1660 -0.1622
 4484SOL    HW224912   3.579   0.372   2.692 -0.2407 -0.8530 -0.0947
 4485SOL     OW24913   4.153   4.717   3.182  0.0667 -0.4040  0.0442
 4485SOL    HW124914   4.135   4.642   3.125 -1.9881 -0.4183  0.7139
 4485SOL    HW224915   4.074   0.048   3.187 -0.2509 -0.4657 -3.9319
 4486SOL     OW24916   1.694   4.069   3.706 -0.1199  0.0536 -0.2529
 4486SOL    HW124917   1.681   4.143   3.647 -3.3250 -0.7220 -0.5407
 4486SOL    HW224918   1.790   4.069   3.703 -0.0390  1.6587  2.0467
 4487SOL     OW24919   4.502   4.043   6.160 -0.1048  0.0667  0.2164
 4487SOL    HW124920   4.468   4.121   6.202 -2.4584 -1.1532  0.5580
 4487SOL    HW224921   4.447   4.047   6.082  0.4821 -0.9260 -0.2523
 4488SOL     OW24922   1.822   1.568   0.798 -0.0574 -0.3279 -0.3902
 4488SOL    HW124923   1.803   1.641   0.739  0.2625 -0.4384 -0.6340
 4488SOL    HW224924   1.738   1.568   0.843  1.0307  0.6756  1.6458
 4489SOL     OW24925   1.408   0.612  16.180 -0.0765 -0.2301 -0.0035
 4489SOL    HW124926   1.363   0.691  16.148  2.0490  1.1804  0.5525
 4489SOL    HW224927   1.498   0.618  16.149 -0.3952  1.8956 -0.5171
 4490SOL     OW24928   3.976   3.440  11.474 -0.1808 -0.4096 -0.0103
 4490SOL    HW124929   4.032   3.503  11.428  0.8649 -0.9225  0.5564
 4490SOL    HW224930   4.037   3.373  11.505  1.7660  0.9047 -0.9738
 4491SOL     OW24931   1.593   1.123   3.088  0.0347 -0.3564 -0.0415
 4491SOL    HW124932   1.683   1.093   3.106 -0.4309 -1.6557  0.1454
 4491SOL    HW224933   1.627   1.208   3.061 -1.6027 -0.0335 -1.0251
 4492SOL     OW24934   1.341   0.609   1.825 -0.1101 -0.2140 -0.7007
 4492SOL    HW124935   1.430   0.622   1.791  0.2434 -1.7247 -0.3288
 4492SOL    HW224936   1.353   0.528   1.873 -1.2947 -1.1492 -1.9778
 4493SOL     OW24937   0.418   0.743   0.213 -0.4095  0.0691 -0.1047
 4493SOL    HW124938   0.450   0.786   0.134  3.6011 -0.7386  1.0845
 4493SOL    HW224939   0.347   0.798   0.247  0.7376  1.1346  0.5828
 4494SOL     OW24940   1.410   1.258   3.481 -0.2399  0.0823  0.0422
 4494SOL    HW124941   1.428   1.223   3.394  1.2822  0.5072  0.1772
 4494SOL    HW224942   1.416   1.352   3.470  1.0307  0.3773  3.0408
 4495SOL     OW24943   2.284   0.490   8.370 -0.3970 -0.1857 -0.2062
 4495SOL    HW124944   2.275   0.435   8.448 -3.4538  1.1805  0.4060
 4495SOL    HW224945   2.284   0.574   8.417  0.1628 -0.5164  0.3950
 4496SOL     OW24946   1.332   3.822   3.929 -0.5432 -0.2115  0.5340
 4496SOL    HW124947   1.397   3.858   3.989  1.1700 -1.8069 -0.3874
 4496SOL    HW224948   1.286   3.902   3.901 -0.1654 -0.0866  0.2760
 4497SOL     OW24949   2.996   0.001   4.844 -0.6232 -0.1094 -0.2699
 4497SOL    HW124950   2.978   4.719   4.938 -1.1028  0.6020 -0.3322
 4497SOL    HW224951   2.943   0.072   4.808 -2.1227 -1.8352 -1.4994
 4498SOL     OW24952   4.618   3.651  13.144  0.1679  0.5532 -0.3470
 4498SOL    HW124953   4.697   3.603  13.168  0.2147  0.8069  0.0002
 4498SOL    HW224954   4.543   3.593  13.160  1.2937 -0.4482  1.3372
 4499SOL     OW24955   3.623   2.643   5.540  0.0168 -0.2334 -0.4160
 4499SOL    HW124956   3.680   2.572   5.568  1.4825  1.1212  0.0101
 4499SOL    HW224957   3.568   2.659   5.617  1.5647 -1.1201  0.8719
 4500SOL     OW24958   2.995   0.919   8.030  0.0244  0.2818 -0.1823
 4500SOL    HW124959   2.924   0.867   8.069  0.8957 -1.0719 -0.3991
 4500SOL    HW224960   2.959   1.007   8.025 -1.1580 -0.1230  1.0372
 4501SOL     OW24961   0.014   3.187   7.034  0.3950 -0.1627 -0.0744
 4501SOL    HW124962   4.674   3.205   6.964 -0.5681 -1.2566  0.5048
 4501SOL    HW224963   0.030   3.279   7.054  0.7477  0.0565 -1.3559
 4502SOL     OW24964   4.092   2.872   3.398 -0.7595  0.0543 -0.2691
 4502SOL    HW124965   4.000   2.892   3.384 -0.8658 -0.8536 -0.9162
 4502SOL    HW224966   4.085   2.833   3.485  1.7166  0.6472  0.1878
 4503SOL     OW24967   3.859   1.291   1.418 -0.4058 -0.0780  0.4260
 4503SOL    HW124968   3.814   1.218   1.376  1.0898 -0.9284  0.3126
 4503SOL    HW224969   3.793   1.360   1.416 -2.2563 -1.7811  2.2045
 4504SOL     OW24970   2.184   0.247   5.927 -0.2572  0.1618 -0.5523
 4504SOL    HW124971   2.180   0.215   5.837  1.6785 -0.6830 -0.3390
 4504SOL    HW224972   2.259   0.198   5.962  0.8853  1.7533 -0.7642
 4505SOL     OW24973   3.481   1.512  11.659  0.4522  0.1518 -0.1667
 4505SOL    HW124974   3.404   1.455  11.657 -0.4825  1.3574  1.5228
 4505SOL    HW224975   3.450   1.588  11.708  0.4048  0.4590 -0.6810
 4506SOL     OW24976   3.810   3.897   5.490  0.7150 -0.1256 -0.8880
 4506SOL    HW124977   3.734   3.944   5.456  1.2590  1.4221  0.0281
 4506SOL    HW224978   3.839   3.959   5.557  0.2016 -0.3954 -0.4151
 4507SOL     OW24979   1.959   2.836   5.815  0.4745  0.0053 -0.1867
 4507SOL    HW124980   1.925   2.824   5.904  1.5869  0.0853  0.2503
 4507SOL    HW224981   1.997   2.749   5.799 -1.1342 -0.4799 -1.3306
 4508SOL     OW24982   3.320   4.033   3.010 -0.6974  0.1780 -0.0594
 4508SOL    HW124983   3.378   4.092   2.962 -0.8266  0.6815  0.4033
 4508SOL    HW224984   3.370   3.953   2.993 -2.3086 -1.1269  1.2646
 4509SOL     OW24985   2.620   3.285  10.148  0.0364 -0.5042 -0.2092
 4509SOL    HW124986   2.639   3.376  10.126 -1.1226 -0.4132 -0.8574
 4509SOL    HW224987   2.525   3.274  10.140  0.6291 -3.8063 -2.7552
 4510SOL     OW24988   1.845   1.031   5.199 -0.4228 -0.6958  0.4719
 4510SOL    HW124989   1.793   0.957   5.230 -0.0511 -0.4537  1.6959
 4510SOL    HW224990   1.834   1.014   5.106  1.3170 -2.1969  0.5328
 4511SOL     OW24991   0.119   1.369   0.920 -0.5174  0.1456 -0.0934
 4511SOL    HW124992   0.137   1.455   0.881  4.8228 -1.9377 -2.1966
 4511SOL    HW224993   0.109   1.312   0.844  0.9525 -0.9530  0.5325
 4512SOL     OW24994   4.041   1.236   6.157 -0.3153  0.3955  0.3166
 4512SOL    HW124995   4.131   1.255   6.132 -0.7687  2.0000 -0.1173
 4512SOL    HW224996   3.989   1.283   6.092 -0.2093 -1.3821 -1.0515
 4513SOL     OW24997   1.216   2.917   8.694 -0.8982  0.6045  0.2473
 4513SOL    HW124998   1.310   2.908   8.710 -1.4371 -1.1957  2.3530
 4513SOL    HW224999   1.201   2.978   8.766 -0.1758  1.4851 -0.3317
 4514SOL     OW25000   3.673   4.436   2.848 -0.5476 -0.2898 -0.3188
 4514SOL    HW125001   3.666   4.442   2.943 -0.2198 -1.0958 -0.2449
 4514SOL    HW225002   3.742   4.369   2.847 -0.9123 -0.6733  1.1033
 4515SOL     OW25003   1.723   1.305   7.650 -0.0286  0.3035 -0.2861
 4515SOL    HW125004   1.677   1.244   7.708  0.7474 -0.3099 -0.3241
 4515SOL    HW225005   1.771   1.250   7.588  1.0400  1.5245 -0.5521
 4516SOL     OW25006   0.544   2.048  10.748 -0.1713 -0.1728 -0.7063
 4516SOL    HW125007   0.573   2.053  10.839 -0.1678  1.1755 -0.7800
 4516SOL    HW225008   0.523   2.141  10.737  2.2813  0.5399  0.6015
 4517SOL     OW25009   0.843   3.415  13.463 -0.7248  0.2246 -0.3353
 4517SOL    HW125010   0.935   3.388  13.464 -0.3518  1.5214  0.0634
 4517SOL    HW225011   0.841   3.480  13.533  0.2103  0.5594 -0.6164
 4518SOL     OW25012   1.429   1.626  10.143  0.4376 -0.0637  0.0146
 4518SOL    HW125013   1.515   1.668  10.141 -0.4360  1.7198 -0.3237
 4518SOL    HW225014   1.400   1.630  10.234 -0.7384 -0.5860 -0.3468
 4519SOL     OW25015   2.048   4.679   7.114 -0.6421  0.3056 -0.0738
 4519SOL    HW125016   2.037   4.686   7.019  1.3751 -1.5307 -0.4286
 4519SOL    HW225017   2.130   4.631   7.124 -0.1296  1.1419 -0.1659
 4520SOL     OW25018   1.161   3.283  16.205 -0.7322  0.1640 -0.1045
 4520SOL    HW125019   1.091   3.220  16.220  0.1039 -0.4427  1.3015
 4520SOL    HW225020   1.205   3.246  16.129 -0.6663 -1.5634  0.7773
 4521SOL     OW25021   1.484   1.694   7.230  0.5497 -0.3291  0.0422
 4521SOL    HW125022   1.399   1.723   7.197 -0.2770  0.3485  2.7741
 4521SOL    HW225023   1.513   1.626   7.169 -1.0451 -0.4467 -0.5852
 4522SOL     OW25024   3.254   2.529   6.675  0.0902 -0.3452 -0.6888
 4522SOL    HW125025   3.347   2.517   6.658  0.2916  2.0003 -1.3634
 4522SOL    HW225026   3.262   2.607   6.730  2.9647 -1.5773  0.5726
 4523SOL     OW25027   2.224   0.790   1.547  0.0696 -0.0328  0.1924
 4523SOL    HW125028   2.141   0.837   1.561  0.4803  0.5990  0.5313
 4523SOL    HW225029   2.191   0.710   1.508  1.7922 -2.4436  3.6664
 4524SOL     OW25030   3.717   0.262   6.332  0.5052  0.4193  0.1283
 4524SOL    HW125031   3.730   0.252   6.237  0.8861 -0.9272  0.3286
 4524SOL    HW225032   3.763   0.183   6.359 -0.3651 -1.3006 -3.3290
 4525SOL     OW25033   0.143   1.698  15.126 -0.4135 -0.5121  0.2032
 4525SOL    HW125034   0.075   1.764  15.120  0.0007 -0.2962 -1.9754
 4525SOL    HW225035   0.146   1.708  15.221  0.3917  0.6859  0.0545
 4526SOL     OW25036   0.051   3.565  10.259  0.2140  0.0790 -0.3944
 4526SOL    HW125037   0.092   3.629  10.202  0.7299  0.2834  0.2091
 4526SOL    HW225038   0.111   3.563  10.333  0.5269  2.1992 -0.6005
 4527SOL     OW25039   0.318   2.942   9.163  0.5158 -0.2183  0.5376
 4527SOL    HW125040   0.285   2.868   9.213 -0.6813 -0.3007 -0.3622
 4527SOL    HW225041   0.240   2.997   9.161 -0.2229 -1.2386  1.3641
 4528SOL     OW25042   0.274   1.321   5.134  0.2440 -0.0200 -0.1003
 4528SOL    HW125043   0.245   1.289   5.049 -1.0497  0.7434  0.0458
 4528SOL    HW225044   0.304   1.239   5.173  1.0500  0.6903  0.7783
 4529SOL     OW25045   3.623   1.040   5.570  0.6060 -0.5635 -0.1120
 4529SOL    HW125046   3.544   1.093   5.564  1.2857  0.2846 -1.4921
 4529SOL    HW225047   3.690   1.106   5.585 -1.8655  1.8770  0.1409
 4530SOL     OW25048   0.785   3.499   2.489 -0.6440  0.5896  0.1437
 4530SOL    HW125049   0.788   3.416   2.443 -1.1422  1.3370 -1.2230
 4530SOL    HW225050   0.727   3.479   2.562 -1.8723  2.1068 -0.4172
 4531SOL     OW25051   1.127   1.750   4.399 -0.2106 -0.6699  0.6229
 4531SOL    HW125052   1.047   1.735   4.450 -0.2569 -0.2615  0.6715
 4531SOL    HW225053   1.092   1.715   4.316 -0.0110 -0.4774  0.4591
 4532SOL     OW25054   1.698   1.729   2.930  0.0684 -0.0860 -0.0637
 4532SOL    HW125055   1.712   1.814   2.889 -0.9533 -0.2898 -0.8198
 4532SOL    HW225056   1.717   1.671   2.857 -2.1493 -1.6754  0.5984
 4533SOL     OW25057   1.274   0.927   3.180  0.2939  0.0054 -0.2777
 4533SOL    HW125058   1.346   0.930   3.117 -0.1155  0.3167 -0.7279
 4533SOL    HW225059   1.304   0.864   3.246 -1.9019  0.8213  1.4853
 4534SOL     OW25060   4.688   0.930   2.580 -0.5855 -0.4109  0.1764
 4534SOL    HW125061   4.711   0.976   2.499  1.2202 -1.2259  0.2348
 4534SOL    HW225062   4.657   1.007   2.628  0.8919 -0.3880  1.1104
 4535SOL     OW25063   2.055   4.005   6.431  0.5186 -0.4981  0.1745
 4535SOL    HW125064   2.000   4.024   6.507 -0.1834 -2.6202  0.2135
 4535SOL    HW225065   2.011   3.926   6.399 -0.7309  0.5272 -0.6224
 4536SOL     OW25066   1.333   3.142   7.757  0.5493 -0.4285 -0.0324
 4536SOL    HW125067   1.401   3.103   7.701 -0.6593 -0.9535 -1.1239
 4536SOL    HW225068   1.352   3.108   7.844  0.6506  2.0379  0.9143
 4537SOL     OW25069   2.008   3.622  17.349 -0.3250 -0.2579  0.1047
 4537SOL    HW125070   1.923   3.626  17.393  0.3622  2.4036  1.2163
 4537SOL    HW225071   2.072   3.619  17.420 -3.2093  1.1240  2.7861
 4538SOL     OW25072   1.403   1.521   2.179 -0.6461 -0.2083  0.5290
 4538SOL    HW125073   1.385   1.610   2.148 -2.8645  0.9756  5.0865
 4538SOL    HW225074   1.320   1.475   2.164 -0.1910 -0.7224 -0.3464
 4539SOL     OW25075   3.522   3.375   4.242 -0.6096 -0.7027  0.0045
 4539SOL    HW125076   3.455   3.409   4.302  1.0851 -0.2560  1.6759
 4539SOL    HW225077   3.570   3.456   4.229 -0.2447 -0.3013  3.6704
 4540SOL     OW25078   0.886   1.459   5.008  0.0444  0.0594 -0.4782
 4540SOL    HW125079   0.850   1.419   5.087  1.0535 -1.3204 -0.7214
 4540SOL    HW225080   0.975   1.477   5.039 -0.7369  1.4053  0.9849
 4541SOL     OW25081   1.641   1.422  10.397  0.3524  0.0072 -0.3354
 4541SOL    HW125082   1.699   1.350  10.419  0.9852  1.0867  1.5442
 4541SOL    HW225083   1.593   1.388  10.321 -0.8952 -0.1393  0.5099
 4542SOL     OW25084   2.812   1.865  13.108 -0.1405  0.2944 -0.5352
 4542SOL    HW125085   2.729   1.826  13.134 -0.0456  0.5453  0.1372
 4542SOL    HW225086   2.837   1.919  13.183  0.6611  0.4724 -0.9307
 4543SOL     OW25087   1.179   2.695   0.787  0.1541 -0.0569 -0.0944
 4543SOL    HW125088   1.188   2.779   0.832  0.6229 -0.9477  1.4677
 4543SOL    HW225089   1.209   2.632   0.851  1.4942  0.9687  0.2883
 4544SOL     OW25090   4.477   3.269  10.326  0.5374  0.2971 -0.0832
 4544SOL    HW125091   4.540   3.303  10.262  0.4886 -1.4246 -1.0567
 4544SOL    HW225092   4.537   3.248  10.397  1.3037  0.7673 -0.5878
 4545SOL     OW25093   3.778   0.427   5.885 -0.3440 -0.3723  0.1971
 4545SOL    HW125094   3.830   0.505   5.906 -0.9641 -0.1823  1.0094
 4545SOL    HW225095   3.685   0.448   5.897 -0.4252  0.5700 -2.0110
 4546SOL     OW25096   0.683   1.146   2.243 -0.1794 -0.4021 -0.1115
 4546SOL    HW125097   0.650   1.057   2.231  1.7466 -0.9733 -1.2281
 4546SOL    HW225098   0.598   1.188   2.257  1.1562  1.2823  3.0215
 4547SOL     OW25099   4.403   2.012  17.270 -0.1930 -0.1723  0.3577
 4547SOL    HW125100   4.478   2.044  17.322 -0.2472  0.1545  0.2336
 4547SOL    HW225101   4.346   2.089  17.266 -0.5776 -0.3125  3.1551
 4548SOL     OW25102   0.976   0.653   2.215  0.0825 -0.4638 -0.0158
 4548SOL    HW125103   1.018   0.734   2.185  0.9771 -1.2998 -0.9722
 4548SOL    HW225104   0.966   0.693   2.302  0.9450  1.1063 -0.6364
 4549SOL     OW25105   3.806   1.599  15.933 -0.0087  0.4310 -0.3432
 4549SOL    HW125106   3.878   1.540  15.956 -0.2742  0.2614  0.0487
 4549SOL    HW225107   3.822   1.617  15.841 -1.2471  0.9552 -0.4512
 4550SOL     OW25108   1.134   0.931   0.084 -0.5544  0.3734 -0.0877
 4550SOL    HW125109   1.075   0.948   0.011 -0.5004 -2.5836 -0.8416
 4550SOL    HW225110   1.150   1.020   0.115  0.6094  0.1339 -0.0090
 4551SOL     OW25111   0.273   3.327   4.044 -0.2397 -1.1277 -0.0241
 4551SOL    HW125112   0.255   3.415   4.013 -0.3386 -0.3897  2.1359
 4551SOL    HW225113   0.258   3.338   4.138 -0.4724 -0.5845 -0.1255
 4552SOL     OW25114   3.876   0.813   3.445  0.5659  0.3900 -0.2170
 4552SOL    HW125115   3.815   0.784   3.513 -0.1088  0.4947 -0.7765
 4552SOL    HW225116   3.818   0.848   3.377 -0.3440  0.4917  0.6126
 4553SOL     OW25117   3.767   0.458   2.021 -0.3141 -0.4971  0.0822
 4553SOL    HW125118   3.722   0.542   2.028  0.6524 -0.0820  1.3129
 4553SOL    HW225119   3.843   0.479   2.076  0.0672  0.9798 -1.0135
 4554SOL     OW25120   3.123   4.103   7.997 -0.5676  0.0217 -0.0751
 4554SOL    HW125121   3.158   4.057   7.920 -0.5084 -0.3072  0.1487
 4554SOL    HW225122   3.204   4.113   8.046 -0.0809  0.3427 -0.9468
 4555SOL     OW25123   0.820   3.367  15.781 -0.6017  0.2338  0.2586
 4555SOL    HW125124   0.897   3.419  15.758  0.5498 -0.8100  1.7636
 4555SOL    HW225125   0.767   3.435  15.823 -0.1957  0.3469  0.5856
 4556SOL     OW25126   0.265   4.193  11.006  0.1719 -0.1618  0.3626
 4556SOL    HW125127   0.343   4.167  11.055  0.9513  0.7319 -0.3757
 4556SOL    HW225128   0.289   4.153  10.922 -0.6518  0.0993  0.0086
 4557SOL     OW25129   0.921   3.126   2.682 -0.2036  1.0215 -0.6881
 4557SOL    HW125130   0.893   3.216   2.698  0.0473  1.1440 -0.9415
 4557SOL    HW225131   1.014   3.127   2.705 -1.2936 -1.5459  3.9754
 4558SOL     OW25132   0.473   2.994   8.943 -0.1214 -0.8218  0.4629
 4558SOL    HW125133   0.446   2.977   9.034 -0.1571 -0.2775  0.5534
 4558SOL    HW225134   0.397   3.041   8.910  1.6706  0.3498 -1.9519
 4559SOL     OW25135   0.263   2.840  12.780 -0.6984 -0.1040  0.1313
 4559SOL    HW125136   0.269   2.754  12.820  0.8623  0.5176  1.2459
 4559SOL    HW225137   0.213   2.826  12.699  0.3374  0.3706 -0.5962
 4560SOL     OW25138   3.177   3.011   3.018 -0.4577  0.3859  0.6549
 4560SOL    HW125139   3.192   3.093   2.972  1.0544 -0.3133 -0.0883
 4560SOL    HW225140   3.217   2.947   2.958  0.7188 -1.4298  3.3704
 4561SOL     OW25141   1.978   4.201   4.568 -0.5508 -0.0669  0.5640
 4561SOL    HW125142   2.052   4.235   4.518  0.9167 -2.3320  1.1962
 4561SOL    HW225143   1.991   4.106   4.570  0.6597  0.0514 -1.2042
 4562SOL     OW25144   4.103   2.740   6.004  0.5547 -0.2363  0.0036
 4562SOL    HW125145   4.118   2.835   6.002  3.3859 -0.7060 -0.1232
 4562SOL    HW225146   4.017   2.735   5.962  0.3174  3.7766 -0.0439
 4563SOL     OW25147   0.362   4.125  10.763 -0.4034 -0.3657  0.2256
 4563SOL    HW125148   0.371   4.126  10.668  3.4765  2.2141  0.6173
 4563SOL    HW225149   0.434   4.187  10.776 -1.3244  0.6805  0.3581
 4564SOL     OW25150   4.658   1.505   7.807 -0.4188  0.4272 -0.6389
 4564SOL    HW125151   4.626   1.454   7.732 -1.9571 -1.9250  1.6072
 4564SOL    HW225152   0.029   1.490   7.794 -0.6871 -1.6883 -0.1649
 4565SOL     OW25153   4.628   0.489   4.847 -0.6634 -0.7895  0.2658
 4565SOL    HW125154   4.545   0.529   4.875 -0.0890  1.3152 -1.0229
 4565SOL    HW225155   4.598   0.399   4.860 -1.5487 -0.0720  3.1905
 4566SOL     OW25156   1.856   2.625   0.339  0.3296 -0.0710  0.5143
 4566SOL    HW125157   1.829   2.606   0.250 -3.5292 -0.2990  1.7694
 4566SOL    HW225158   1.952   2.635   0.338  0.1277  1.7665 -1.2572
 4567SOL     OW25159   0.286   3.243   7.515 -0.0929  0.0081 -0.3397
 4567SOL    HW125160   0.264   3.210   7.602 -2.1787 -2.8387 -1.9970
 4567SOL    HW225161   0.378   3.270   7.522  0.1205 -0.7565 -0.2291
 4568SOL     OW25162   0.135   0.302   0.569  0.2111 -0.0068  0.2748
 4568SOL    HW125163   0.040   0.295   0.568  0.2602 -0.6551  0.3121
 4568SOL    HW225164   0.156   0.371   0.506  2.1906 -1.1892 -0.3429
 4569SOL     OW25165   3.506   3.993   7.692  0.4410  0.2179 -0.2624
 4569SOL    HW125166   3.540   4.022   7.607  0.7806  0.7737  0.0626
 4569SOL    HW225167   3.568   3.924   7.716  0.7486  1.0826  1.4251
 4570SOL     OW25168   2.718   1.848  15.563  0.5717 -0.0274  0.0191
 4570SOL    HW125169   2.754   1.807  15.642 -0.7735 -0.8482  0.2183
 4570SOL    HW225170   2.635   1.884  15.595 -0.1105 -3.1359  1.7896
 4571SOL     OW25171   3.481   1.634   6.396 -0.1553  0.4605  0.0033
 4571SOL    HW125172   3.493   1.624   6.302 -1.1040 -1.5384  0.1003
 4571SOL    HW225173   3.412   1.700   6.389 -1.0941 -0.4802  0.4217
 4572SOL     OW25174   2.708   3.209  10.637 -0.0273  0.5546 -0.7982
 4572SOL    HW125175   2.632   3.215  10.578  0.4924  2.1358 -1.3242
 4572SOL    HW225176   2.770   3.214  10.564 -1.7841 -1.7899 -2.4343
 4573SOL     OW25177   0.664   1.639   5.048 -0.7213  0.7483 -0.0238
 4573SOL    HW125178   0.740   1.584   5.032 -0.2899  1.9960 -2.2559
 4573SOL    HW225179   0.602   1.584   5.097 -2.1393  1.2837 -1.2149
 4574SOL     OW25180   4.560   0.294   2.050  0.5146  0.0661  0.4946
 4574SOL    HW125181   4.523   0.279   1.964  1.0407  1.5197  0.0139
 4574SOL    HW225182   4.552   0.204   2.080  4.0198 -0.2770  0.4579
 4575SOL     OW25183   1.460   2.602   7.356 -0.1733  0.2106 -0.7359
 4575SOL    HW125184   1.368   2.578   7.357  0.0756 -0.6383  0.8050
 4575SOL    HW225185   1.496   2.528   7.404  0.9166  0.9526 -0.3975
 4576SOL     OW25186   1.505   1.638  13.600  0.5947 -0.7796  0.6395
 4576SOL    HW125187   1.533   1.626  13.509  0.9271  1.5920  0.4220
 4576SOL    HW225188   1.416   1.607  13.584 -0.1161  0.9449  1.2366
 4577SOL     OW25189   2.922   3.921   3.646  0.2172  0.1747 -0.3316
 4577SOL    HW125190   2.944   4.007   3.610 -1.8050  1.3701  1.3130
 4577SOL    HW225191   3.012   3.895   3.670  0.4391  1.4785  0.2533
 4578SOL     OW25192   3.746   1.784   2.802 -0.4874 -0.6963 -0.1502
 4578SOL    HW125193   3.753   1.804   2.896 -0.3031  1.0069 -0.5191
 4578SOL    HW225194   3.757   1.689   2.803 -1.1508 -0.7658  3.0133
 4579SOL     OW25195   2.342   4.602   1.456  0.7540  0.1030 -0.4453
 4579SOL    HW125196   2.432   4.635   1.449  1.0989 -0.3210  1.7524
 4579SOL    HW225197   2.290   4.675   1.425  0.6672  0.2509  0.0473
 4580SOL     OW25198   1.676   2.063   3.397  0.0610 -0.5518  0.4677
 4580SOL    HW125199   1.636   2.111   3.470 -1.6855 -1.4127  0.0787
 4580SOL    HW225200   1.723   2.000   3.451 -1.9846 -1.7270  0.8758
 4581SOL     OW25201   3.354   2.891   6.372 -0.5707  0.5680  0.2487
 4581SOL    HW125202   3.277   2.842   6.400 -0.5525  1.2518  1.5032
 4581SOL    HW225203   3.428   2.853   6.420 -2.2281 -1.3804  1.2132
 4582SOL     OW25204   0.171   0.106  11.747 -0.2990 -0.3792 -0.5609
 4582SOL    HW125205   0.137   0.022  11.778 -1.4602  0.3879  0.2351
 4582SOL    HW225206   0.141   0.116  11.657  1.5444 -0.9858 -1.2538
 4583SOL     OW25207   3.081   3.857  17.321 -0.2062 -0.2128 -0.3585
 4583SOL    HW125208   3.117   3.837  17.407  2.6595  0.4969 -1.3896
 4583SOL    HW225209   3.147   3.819  17.263 -1.1055  0.3296 -1.7419
 4584SOL     OW25210   2.214   2.138  11.916  0.5686  0.0850  0.4753
 4584SOL    HW125211   2.204   2.044  11.925  1.8883 -0.1578 -0.6413
 4584SOL    HW225212   2.151   2.156  11.846 -0.2300 -3.9271  0.1685
 4585SOL     OW25213   1.806   1.452  11.649 -0.4739  0.3701  0.8320
 4585SOL    HW125214   1.847   1.368  11.668  0.3359  0.5673 -0.0486
 4585SOL    HW225215   1.717   1.428  11.625  0.9595 -1.2424 -2.8940
 4586SOL     OW25216   1.462   0.392   6.701 -0.0895  0.1409  0.5894
 4586SOL    HW125217   1.459   0.421   6.793 -0.0363  0.3403  0.5294
 4586SOL    HW225218   1.374   0.392   6.664  0.1026 -2.2700  0.1583
 4587SOL     OW25219   2.472   1.793   5.437  0.0282  0.0525  0.2874
 4587SOL    HW125220   2.390   1.756   5.404  0.0454  2.3497 -2.3340
 4587SOL    HW225221   2.439   1.883   5.446  1.8023  0.9323 -1.8592
 4588SOL     OW25222   4.142   4.119  11.779 -0.0880 -0.1665 -0.2708
 4588SOL    HW125223   4.108   4.084  11.862 -1.0580  0.4460 -0.4092
 4588SOL    HW225224   4.222   4.167  11.801  0.1749 -0.6239 -0.2277
 4589SOL     OW25225   0.673   0.716  14.860  0.1585  0.0311  0.1523
 4589SOL    HW125226   0.711   0.630  14.841  0.1226  0.4901 -2.0822
 4589SOL    HW225227   0.655   0.741  14.769 -0.7442 -1.4704 -0.0868
 4590SOL     OW25228   3.045   3.463   5.514 -0.6136  0.0400 -0.8547
 4590SOL    HW125229   3.022   3.429   5.601  1.0909 -0.1685 -0.4809
 4590SOL    HW225230   2.980   3.533   5.509  0.3274  0.9691 -0.4141
 4591SOL     OW25231   3.852   2.988  14.524 -0.2000  0.2837  0.3109
 4591SOL    HW125232   3.878   2.903  14.561 -0.5234 -0.8097 -1.9846
 4591SOL    HW225233   3.804   2.970  14.443 -1.1256  0.7886  0.7456
 4592SOL     OW25234   0.323   1.905   5.386  0.9202  0.0878 -0.3140
 4592SOL    HW125235   0.288   1.881   5.472 -1.5969  2.2615 -0.7176
 4592SOL    HW225236   0.277   1.989   5.387  1.6193  0.4699 -1.5481
 4593SOL     OW25237   1.492   3.223   7.353 -0.1357  0.3462  0.4204
 4593SOL    HW125238   1.575   3.267   7.372  0.4110 -0.3004 -0.4766
 4593SOL    HW225239   1.432   3.292   7.381 -0.4472  0.0180  0.5559
 4594SOL     OW25240   1.853   3.030   7.657  0.1735  0.5838  0.4300
 4594SOL    HW125241   1.925   3.082   7.694 -0.1432  2.3299 -1.3969
 4594SOL    HW225242   1.804   2.991   7.729  1.3269 -0.0137  0.8868
 4595SOL     OW25243   4.552   0.494   3.793 -0.1248 -0.5084  0.3041
 4595SOL    HW125244   4.516   0.546   3.721 -1.2812 -2.4662 -0.5412
 4595SOL    HW225245   4.475   0.439   3.806 -0.2203  0.1148  2.4098
 4596SOL     OW25246   2.951   1.840   5.572  0.8932 -0.0907 -0.1392
 4596SOL    HW125247   2.876   1.900   5.571  0.0984 -1.1094 -2.5141
 4596SOL    HW225248   3.003   1.868   5.497 -2.2157  0.1901 -2.2036
 4597SOL     OW25249   3.489   2.661   1.753  0.1784 -0.5271 -0.1347
 4597SOL    HW125250   3.498   2.740   1.701  0.1561 -0.3475  0.1362
 4597SOL    HW225251   3.580   2.632   1.737 -0.0744 -2.1789  1.3906
 4598SOL     OW25252   1.666   0.816   5.353 -0.2841  0.1586  0.1894
 4598SOL    HW125253   1.623   0.731   5.345 -0.3945  0.2086  0.2535
 4598SOL    HW225254   1.594   0.855   5.402  0.1787  0.6527  0.4757
 4599SOL     OW25255   1.258   3.373   2.286  0.3211  0.2316 -0.0069
 4599SOL    HW125256   1.180   3.349   2.336 -0.6547 -1.8527 -2.4909
 4599SOL    HW225257   1.234   3.464   2.270  1.0391  0.7356  1.7994
 4600SOL     OW25258   0.795   2.823   5.321  0.2442  0.5211 -0.0207
 4600SOL    HW125259   0.878   2.785   5.292 -0.1572 -1.1967  1.0969
 4600SOL    HW225260   0.750   2.809   5.237  0.2555 -1.7261  0.3368
 4601SOL     OW25261   1.361   2.393   9.518 -0.6922  0.3933 -0.5756
 4601SOL    HW125262   1.378   2.420   9.428  0.3918  0.3991 -0.3683
 4601SOL    HW225263   1.430   2.445   9.559 -0.9639 -0.7534  1.3768
 4602SOL     OW25264   0.420   0.482   2.387 -0.4481 -0.2318  0.8457
 4602SOL    HW125265   0.387   0.518   2.304  1.5663  0.6467  0.4228
 4602SOL    HW225266   0.372   0.543   2.443  0.1215  1.0697 -0.0754
 4603SOL     OW25267   0.000   0.494  15.959 -0.3888  0.2567 -0.1582
 4603SOL    HW125268   0.067   0.481  16.026 -1.0118  1.0974  0.6149
 4603SOL    HW225269   4.647   0.532  16.002  0.0394  1.0501 -0.0996
 4604SOL     OW25270   1.999   1.505   8.875 -0.1107  0.2768  0.7651
 4604SOL    HW125271   2.019   1.500   8.968  2.6201 -3.1445  0.0104
 4604SOL    HW225272   2.078   1.547   8.841 -0.8389  1.0924  0.0856
 4605SOL     OW25273   3.271   1.704   2.703 -0.3650 -0.1738  0.1018
 4605SOL    HW125274   3.247   1.622   2.746 -0.1409 -0.0162  0.5301
 4605SOL    HW225275   3.331   1.735   2.771  2.2615 -0.3604 -2.1148
 4606SOL     OW25276   0.512   3.221   3.920  0.5849  0.3434  0.4969
 4606SOL    HW125277   0.423   3.252   3.937  1.8908  2.8513  2.8292
 4606SOL    HW225278   0.550   3.256   4.001  1.1091 -0.6224  0.6686
 4607SOL     OW25279   0.088   2.690   6.318  0.0114 -0.0103 -0.1825
 4607SOL    HW125280   0.080   2.781   6.288 -0.3728  0.3926  1.1526
 4607SOL    HW225281   0.183   2.680   6.314  0.1188  1.5609 -1.6174
 4608SOL     OW25282   4.416   4.241  12.656  0.2724  0.0345  0.0877
 4608SOL    HW125283   4.438   4.234  12.748 -1.3716  1.8057  0.6158
 4608SOL    HW225284   4.458   4.325  12.637  0.4408  0.0320  0.4502
 4609SOL     OW25285   4.366   2.671  12.876 -0.1827  0.6701  0.1823
 4609SOL    HW125286   4.415   2.637  12.801 -0.3420 -1.4777  1.0364
 4609SOL    HW225287   4.432   2.737  12.895 -0.5716  0.3000  2.7538
 4610SOL     OW25288   3.959   2.992   1.031 -0.4995  0.1807  0.8708
 4610SOL    HW125289   4.006   3.075   1.030 -0.2979  0.0593  0.0172
 4610SOL    HW225290   3.878   3.024   1.072 -2.6892  0.1027 -3.3659
 4611SOL     OW25291   3.335   4.497   8.396 -0.2478  0.2979  0.1773
 4611SOL    HW125292   3.345   4.424   8.335  0.6365  0.9439 -0.4513
 4611SOL    HW225293   3.304   4.574   8.347 -4.1078 -0.8453  0.7999
 4612SOL     OW25294   2.176   1.554   3.667 -0.0612  0.9369  0.1809
 4612SOL    HW125295   2.170   1.465   3.702  1.0951  1.1682  0.9700
 4612SOL    HW225296   2.175   1.611   3.744 -1.8597 -1.4484  1.8854
 4613SOL     OW25297   3.128   0.431   5.071  0.3756  0.0279  0.2803
 4613SOL    HW125298   3.092   0.476   5.147  0.1105  0.5186 -0.1445
 4613SOL    HW225299   3.121   0.337   5.088  0.6196 -0.2765 -1.3121
 4614SOL     OW25300   0.322   1.068   1.077  0.3850  0.4528 -0.3289
 4614SOL    HW125301   0.373   0.990   1.100 -2.7070 -0.9843  1.6679
 4614SOL    HW225302   0.245   1.052   1.131  2.4138 -2.2215  1.7715
 4615SOL     OW25303   0.463   1.776   7.507  0.5436  0.3058 -0.5211
 4615SOL    HW125304   0.549   1.813   7.528  0.3160  0.6796 -0.2517
 4615SOL    HW225305   0.478   1.683   7.525  1.2892  0.5644  0.1970
 4616SOL     OW25306   3.294   3.795   3.503 -0.1772 -0.1762 -0.0516
 4616SOL    HW125307   3.274   3.703   3.521 -1.8098  0.5074  1.6225
 4616SOL    HW225308   3.385   3.771   3.484 -0.3888 -1.3825  0.4613
 4617SOL     OW25309   0.497   2.865  10.011  0.9288 -0.4661 -0.4603
 4617SOL    HW125310   0.421   2.888   9.957  1.2039  1.4392 -0.0353
 4617SOL    HW225311   0.511   2.778   9.975 -1.8485 -1.7272  1.4669
 4618SOL     OW25312   3.397   1.751  11.776 -0.3555 -0.7237 -0.2387
 4618SOL    HW125313   3.469   1.806  11.745  0.7006 -0.7837  2.0737
 4618SOL    HW225314   3.338   1.815  11.817 -1.0978 -0.2334 -2.0709
 4619SOL     OW25315   2.184   4.648  10.605  0.3482 -0.6937  0.5562
 4619SOL    HW125316   2.162   4.630  10.513  1.3510 -0.9696  0.3671
 4619SOL    HW225317   2.237   0.005  10.599 -0.3912 -0.2261  0.1332
 4620SOL     OW25318   4.703   0.873   4.683  0.7288  0.2410  0.8448
 4620SOL    HW125319   4.644   0.941   4.715 -1.9882 -1.7974  0.2032
 4620SOL    HW225320   4.702   0.892   4.589  0.6822 -0.1940  0.7540
 4621SOL     OW25321   2.302   1.360  12.843 -0.6202 -0.0654 -0.2101
 4621SOL    HW125322   2.260   1.435  12.802  0.4444  1.3209  1.2358
 4621SOL    HW225323   2.375   1.337  12.786  1.0205  0.8160  1.5088
 4622SOL     OW25324   0.016   2.867   8.592  0.2468 -0.1563 -0.7234
 4622SOL    HW125325   4.713   2.777   8.614 -0.7740 -0.0525 -1.5384
 4622SOL    HW225326   0.098   2.878   8.640  1.2214 -0.3238 -2.3338
 4623SOL     OW25327   2.064   4.678  10.978  0.1265  0.4118 -0.5371
 4623SOL    HW125328   2.038   4.591  10.949 -1.2381  0.6935 -0.1575
 4623SOL    HW225329   1.977   4.714  10.995 -0.0871 -1.2427  1.9496
 4624SOL     OW25330   1.021   0.117   1.992 -0.1574 -0.5148  0.0424
 4624SOL    HW125331   1.016   0.160   2.078 -0.5810 -0.8742  0.1948
 4624SOL    HW225332   1.113   0.109   1.965 -0.1314 -1.5181  0.4547
 4625SOL     OW25333   3.746   0.597   6.888 -0.3970  0.1228  0.4853
 4625SOL    HW125334   3.682   0.573   6.820 -0.1629 -1.5269  0.8310
 4625SOL    HW225335   3.703   0.655   6.950  0.3798  1.6866 -0.4304
 4626SOL     OW25336   3.721   4.507   8.054 -0.0539  0.0799 -0.1914
 4626SOL    HW125337   3.646   4.526   8.110 -0.0478 -2.1552  0.6065
 4626SOL    HW225338   3.727   4.412   8.069 -1.7382 -0.3526 -2.4005
 4627SOL     OW25339   4.151   2.893   8.443  0.2773 -0.3122  0.5080
 4627SOL    HW125340   4.217   2.903   8.511  0.7265  3.1639 -0.3964
 4627SOL    HW225341   4.075   2.917   8.497  1.1257  0.7741  1.2204
 4628SOL     OW25342   0.566   0.139  13.128  0.3043  0.9537 -0.5070
 4628SOL    HW125343   0.656   0.168  13.111  0.9638  0.2023  1.7165
 4628SOL    HW225344   0.518   0.220  13.108 -0.0595  1.0852  0.8959
 4629SOL     OW25345   0.974   1.960   2.848 -0.2478 -0.2973 -0.2629
 4629SOL    HW125346   0.880   1.969   2.864 -0.4846 -1.8550 -0.8418
 4629SOL    HW225347   1.001   1.922   2.931  1.6993  0.7992 -0.3951
 4630SOL     OW25348   2.876   4.150  12.737 -0.2098 -0.2154 -0.9286
 4630SOL    HW125349   2.907   4.145  12.646  1.8783 -0.7666 -0.1961
 4630SOL    HW225350   2.814   4.222  12.728 -1.2151 -1.0576 -0.7738
 4631SOL     OW25351   3.696   1.949  17.541 -0.5484 -0.7744  0.3841
 4631SOL    HW125352   3.641   2.002  17.483 -0.2703 -1.5267 -0.5603
 4631SOL    HW225353   3.728   2.010  17.608  3.5193 -0.4328 -1.8330
 4632SOL     OW25354   3.796   0.605   6.544  0.1504 -0.1188 -0.1457
 4632SOL    HW125355   3.876   0.552   6.536  1.3899  1.7798 -0.2611
 4632SOL    HW225356   3.843   0.673   6.593 -4.5302  2.8442  0.1527
 4633SOL     OW25357   1.419   4.179  14.343  0.5716  0.4254 -0.0928
 4633SOL    HW125358   1.497   4.125  14.332  0.2909 -0.2399  1.2440
 4633SOL    HW225359   1.404   4.186  14.437 -1.2422 -0.6465 -0.2977
 4634SOL     OW25360   4.528   0.098  16.091 -0.3820 -0.2864 -1.0418
 4634SOL    HW125361   4.600   0.141  16.137 -0.2907 -0.8952 -0.6222
 4634SOL    HW225362   4.490   0.177  16.051 -0.7291  0.6214  1.0613
 4635SOL     OW25363   0.267   2.089   3.045 -0.0876 -0.0163 -0.2004
 4635SOL    HW125364   0.202   2.143   3.000 -1.5019 -0.1413  1.6851
 4635SOL    HW225365   0.200   2.043   3.096  1.0534  0.0904  1.3999
 4636SOL     OW25366   2.005   1.071   3.070 -0.0662 -0.8804 -0.2415
 4636SOL    HW125367   1.973   1.045   2.984 -1.1658 -0.9312  0.1857
 4636SOL    HW225368   1.932   1.052   3.128 -0.6527  0.9098 -0.3750
 4637SOL     OW25369   4.470   2.968   6.685 -0.2198 -0.6044 -0.7122
 4637SOL    HW125370   4.381   2.999   6.666 -0.2389 -0.2894 -0.1141
 4637SOL    HW225371   4.509   3.054   6.701 -0.7374 -0.6115  0.5952
 4638SOL     OW25372   0.402   3.425  17.445 -0.0598 -0.2394  0.5802
 4638SOL    HW125373   0.460   3.467  17.382 -1.2925  0.8369  0.1460
 4638SOL    HW225374   0.376   3.344  17.400 -3.1329  2.8545 -3.2403
 4639SOL     OW25375   0.136   3.293  13.234  0.2064  0.5169  0.4696
 4639SOL    HW125376   0.223   3.276  13.198 -0.5996 -1.1327 -0.6861
 4639SOL    HW225377   0.092   3.332  13.158  0.5675 -0.7119 -0.3583
 4640SOL     OW25378   1.225   3.155   4.134  0.1154  0.0618  0.0660
 4640SOL    HW125379   1.299   3.122   4.184 -0.2553  0.2583  0.7433
 4640SOL    HW225380   1.260   3.147   4.045  1.3070 -1.1845  0.6615
 4641SOL     OW25381   4.416   2.015   4.327 -0.1954 -0.4449  0.4651
 4641SOL    HW125382   4.401   2.070   4.403  0.6323 -0.8628  0.9290
 4641SOL    HW225383   4.436   2.089   4.270 -0.8285  0.3648  1.3021
 4642SOL     OW25384   4.416   2.708  14.233 -0.0336 -0.3022  0.2273
 4642SOL    HW125385   4.470   2.650  14.181  0.2737  0.8417 -0.7255
 4642SOL    HW225386   4.330   2.667  14.222  1.1551 -1.9711 -2.7684
 4643SOL     OW25387   1.596   1.982  14.531  0.0052 -0.8390 -0.3391
 4643SOL    HW125388   1.619   2.075  14.532  1.4538 -1.2136  2.2672
 4643SOL    HW225389   1.657   1.945  14.467 -1.0030 -2.8496 -0.1173
 4644SOL     OW25390   3.160   2.707   5.310 -0.0130  0.1178 -0.9227
 4644SOL    HW125391   3.117   2.758   5.378  0.8712  0.6257 -0.7443
 4644SOL    HW225392   3.226   2.770   5.279 -0.4758  0.0360 -2.0675
 4645SOL     OW25393   2.057   0.013  15.906 -0.3683  0.1956 -0.0403
 4645SOL    HW125394   2.137   0.029  15.857  0.7296 -1.5907  1.1801
 4645SOL    HW225395   1.994   4.693  15.848  0.1545 -1.7822  0.8376
 4646SOL     OW25396   2.690   0.443   3.755 -0.0437 -0.5374  0.1325
 4646SOL    HW125397   2.779   0.430   3.787 -0.0191 -0.7450 -0.0188
 4646SOL    HW225398   2.642   0.432   3.837 -0.1376 -3.1383 -0.2492
 4647SOL     OW25399   2.290   1.443   6.011 -0.0442  0.1208  0.2440
 4647SOL    HW125400   2.232   1.439   5.935 -1.2760  2.2106  1.0920
 4647SOL    HW225401   2.377   1.444   5.972  0.7324  2.1774  2.0931
 4648SOL     OW25402   0.734   3.114  12.828  0.6302 -0.7686  0.1567
 4648SOL    HW125403   0.647   3.110  12.788  1.7641  0.5049 -2.4513
 4648SOL    HW225404   0.735   3.046  12.895  2.0684 -2.6806 -1.8326
 4649SOL     OW25405   2.349   2.527   7.514  0.3424 -0.2300 -0.6036
 4649SOL    HW125406   2.312   2.555   7.598 -1.4753  0.7718 -1.7352
 4649SOL    HW225407   2.382   2.609   7.479  1.1227 -0.5162 -0.5400
 4650SOL     OW25408   3.337   0.651   9.332 -0.2585 -0.1823  0.0065
 4650SOL    HW125409   3.392   0.573   9.342  0.3692  0.0940 -1.3920
 4650SOL    HW225410   3.290   0.635   9.414  0.0409 -2.7912 -0.3340
 4651SOL     OW25411   1.080   0.638   2.597  0.1633 -0.1051  0.7022
 4651SOL    HW125412   1.005   0.653   2.541 -0.5714 -2.0426  1.1620
 4651SOL    HW225413   1.152   0.649   2.534 -0.9241 -2.2482 -0.9109
 4652SOL     OW25414   1.076   3.870  14.089 -0.3107  0.1569 -0.6276
 4652SOL    HW125415   1.080   3.775  14.081  0.2845  0.0928  0.4617
 4652SOL    HW225416   0.986   3.888  14.116  0.2322  1.3179  0.4180
 4653SOL     OW25417   4.564   3.635   1.524 -0.4690 -0.3771 -0.0590
 4653SOL    HW125418   4.597   3.545   1.530  1.2469  0.4803  3.4075
 4653SOL    HW225419   4.646   3.684   1.516 -0.0296 -0.8501  1.5103
 4654SOL     OW25420   0.443   0.173  16.403  0.3090  0.1641  0.4568
 4654SOL    HW125421   0.381   0.225  16.352 -1.9955 -3.2578 -0.2090
 4654SOL    HW225422   0.513   0.151  16.341  0.3041  0.8131  0.2201
 4655SOL     OW25423   1.594   4.326   2.402  0.0739  0.5032 -0.4969
 4655SOL    HW125424   1.683   4.359   2.418 -0.5976 -0.5825  5.4510
 4655SOL    HW225425   1.539   4.397   2.434  0.5784  0.4491  0.4954
 4656SOL     OW25426   0.130   2.768  14.691  0.3556  0.1388 -0.5975
 4656SOL    HW125427   0.057   2.811  14.647 -0.0211  1.0158  0.8797
 4656SOL    HW225428   0.207   2.801  14.646  0.0958  1.9728  0.3085
 4657SOL     OW25429   2.537   1.141   7.502 -0.1247 -0.1684 -0.4252
 4657SOL    HW125430   2.621   1.144   7.548  1.1791  0.4316 -2.8264
 4657SOL    HW225431   2.476   1.182   7.564  0.7650 -0.0769  0.3919
 4658SOL     OW25432   2.980   0.640  15.642  0.0735  0.4119 -0.0281
 4658SOL    HW125433   2.924   0.698  15.695  1.2608 -0.3566  2.0620
 4658SOL    HW225434   3.029   0.580  15.698  0.2074  0.5970  0.0521
 4659SOL     OW25435   0.557   1.078   2.825 -0.3989 -0.1677 -0.2251
 4659SOL    HW125436   0.601   1.047   2.904  0.2521 -0.5058 -0.7227
 4659SOL    HW225437   0.606   1.021   2.766 -1.0643 -1.5892  0.6128
 4660SOL     OW25438   0.595   2.756   7.063  0.4443  0.0809 -0.0362
 4660SOL    HW125439   0.685   2.784   7.079  0.8389 -0.6794 -0.9367
 4660SOL    HW225440   0.579   2.685   7.126 -2.0963  0.8028  0.1429
 4661SOL     OW25441   3.325   0.659   5.446  0.3473 -0.0063 -0.3071
 4661SOL    HW125442   3.317   0.735   5.388  0.5223  0.4001  0.2010
 4661SOL    HW225443   3.345   0.699   5.531 -0.3159  1.0924 -0.6573
 4662SOL     OW25444   3.673   2.970   8.762  0.0740 -0.6568 -0.3154
 4662SOL    HW125445   3.686   2.904   8.694 -1.4174  0.5033 -1.7110
 4662SOL    HW225446   3.641   2.909   8.828 -1.9500  0.4295 -0.3322
 4663SOL     OW25447   2.709   4.199   5.550  0.3409  0.7392  0.1424
 4663SOL    HW125448   2.772   4.140   5.508 -0.7518 -0.7126  0.5369
 4663SOL    HW225449   2.768   4.264   5.586  1.9388 -0.1135 -0.9415
 4664SOL     OW25450   2.854   3.485   6.797  0.1279  0.3960  0.2992
 4664SOL    HW125451   2.924   3.468   6.733  1.9209  0.4470  2.2543
 4664SOL    HW225452   2.860   3.581   6.802 -0.4271  0.4896 -0.7995
 4665SOL     OW25453   1.619   1.085   6.256  0.1005  0.8096  0.4140
 4665SOL    HW125454   1.674   1.122   6.325 -1.6590  1.4234  1.4837
 4665SOL    HW225455   1.567   1.030   6.314 -0.2082  0.3756 -0.2667
 4666SOL     OW25456   3.189   3.436  10.060 -0.0679  0.6264 -0.5549
 4666SOL    HW125457   3.220   3.346  10.058  1.3449  1.1144 -0.4676
 4666SOL    HW225458   3.255   3.459  10.126 -1.7079  2.3120  0.4874
 4667SOL     OW25459   2.778   1.739   1.400  0.0348 -0.3046  0.1166
 4667SOL    HW125460   2.787   1.818   1.452  1.3349 -0.1307 -0.3824
 4667SOL    HW225461   2.689   1.753   1.367  0.8361  1.6370 -1.1847
 4668SOL     OW25462   3.877   2.283   9.657 -0.3401  0.1655 -0.1262
 4668SOL    HW125463   3.807   2.297   9.721 -1.4889  1.2173 -1.5961
 4668SOL    HW225464   3.883   2.374   9.626  2.1765  1.3533  3.8865
 4669SOL     OW25465   1.319   3.826   3.487 -0.7045 -0.4239 -0.2665
 4669SOL    HW125466   1.303   3.732   3.495  1.7068 -0.6402  2.2014
 4669SOL    HW225467   1.400   3.834   3.437  1.2431  0.5614  2.9770
 4670SOL     OW25468   2.140   0.010   8.370  0.4778  0.1817 -0.4329
 4670SOL    HW125469   2.185   4.697   8.447 -0.2219  0.6979  0.2116
 4670SOL    HW225470   2.199   0.084   8.354  2.7758 -1.1241  1.9652
 4671SOL     OW25471   3.802   3.800   3.537  0.5075  0.2528  0.5455
 4671SOL    HW125472   3.833   3.860   3.469 -1.6048 -0.4539 -1.0353
 4671SOL    HW225473   3.883   3.748   3.541 -0.5487 -1.6018 -1.9723
 4672SOL     OW25474   2.783   1.586   0.633 -0.1538  1.0071  0.0242
 4672SOL    HW125475   2.875   1.599   0.656  0.3625  1.5954 -2.3445
 4672SOL    HW225476   2.744   1.672   0.647 -0.0453  0.8289  1.4085
 4673SOL     OW25477   1.711   2.699   4.384  0.5718 -0.0551 -0.3169
 4673SOL    HW125478   1.756   2.753   4.319  0.1388 -1.4962 -1.8128
 4673SOL    HW225479   1.775   2.703   4.456  0.7526 -0.8252 -0.4356
 4674SOL     OW25480   2.271   4.370  14.145  0.0730 -0.9368  0.4714
 4674SOL    HW125481   2.333   4.315  14.097  1.0997  1.3285 -0.7641
 4674SOL    HW225482   2.336   4.409  14.203 -1.1525  0.1644  1.0956
 4675SOL     OW25483   0.355   3.801   8.053 -0.0757 -0.0513 -0.0585
 4675SOL    HW125484   0.353   3.871   8.118  1.3281 -0.1377  0.0849
 4675SOL    HW225485   0.270   3.764   8.076 -0.4345 -1.2236 -3.2942
 4676SOL     OW25486   0.393   4.415   5.839  0.0019  0.4534 -0.1614
 4676SOL    HW125487   0.346   4.482   5.790  0.5117  2.3833  1.9791
 4676SOL    HW225488   0.324   4.349   5.829 -0.3514  0.7458  0.3461
 4677SOL     OW25489   0.717   0.985  14.886 -0.3379  0.4254  0.1064
 4677SOL    HW125490   0.678   0.900  14.864  2.9968 -0.8780 -0.7229
 4677SOL    HW225491   0.800   0.974  14.839  1.0246  1.5920  2.2325
 4678SOL     OW25492   3.018   3.493   0.413 -0.3211 -0.7568 -0.6132
 4678SOL    HW125493   2.927   3.503   0.387 -0.1491  0.9014 -0.6105
 4678SOL    HW225494   3.043   3.414   0.365 -1.1787 -1.7393  0.5770
 4679SOL     OW25495   2.207   4.452  10.154  0.1311  0.2850  0.1268
 4679SOL    HW125496   2.159   4.373  10.177 -2.5719  1.8516 -0.1370
 4679SOL    HW225497   2.186   4.516  10.222  2.9444  0.3826  0.8755
 4680SOL     OW25498   3.647   1.525  10.645 -1.3096 -0.7244  0.4197
 4680SOL    HW125499   3.650   1.604  10.591  0.4918 -1.4694 -0.5617
 4680SOL    HW225500   3.564   1.484  10.618 -0.9456 -0.4099 -1.1598
 4681SOL     OW25501   2.028   4.652   5.587  0.4022  0.1782 -0.3354
 4681SOL    HW125502   1.983   4.572   5.559  0.2369  0.1088  0.1211
 4681SOL    HW225503   2.100   4.620   5.640  1.0670  1.1297 -0.6682
 4682SOL     OW25504   3.140   3.671   5.245  0.2388 -0.2554  0.3057
 4682SOL    HW125505   3.229   3.689   5.276  1.5840  1.7361 -4.7432
 4682SOL    HW225506   3.119   3.759   5.213 -0.8244 -0.8990 -0.7752
 4683SOL     OW25507   2.917   3.904  12.471 -0.0046 -0.3536  0.2025
 4683SOL    HW125508   2.883   3.912  12.382  2.1295  0.6656 -0.5208
 4683SOL    HW225509   2.947   3.995  12.477 -0.7533 -0.0759 -0.1827
 4684SOL     OW25510   3.822   0.798   0.966 -0.3348 -0.0036  0.3791
 4684SOL    HW125511   3.768   0.868   1.001  0.8305  1.7594 -1.3576
 4684SOL    HW225512   3.851   0.762   1.051 -1.6285 -1.4532  0.2062
 4685SOL     OW25513   3.201   3.112   4.928  0.1964 -0.0486 -0.6458
 4685SOL    HW125514   3.133   3.156   4.878  1.4450  1.0538 -1.3865
 4685SOL    HW225515   3.171   3.024   4.907 -1.8975  0.6903 -0.7633
 4686SOL     OW25516   3.599   4.561   8.289 -0.2571 -0.0751 -0.2810
 4686SOL    HW125517   3.674   4.529   8.339 -0.0470 -0.9965 -1.1861
 4686SOL    HW225518   3.524   4.529   8.340  0.9711  1.5265  2.5206
 4687SOL     OW25519   4.699   1.045   2.913  0.8599 -0.0333  0.4099
 4687SOL    HW125520   0.060   1.061   2.871  0.3498 -2.0080 -1.3358
 4687SOL    HW225521   0.013   0.998   2.987 -1.0039  0.2036  1.4993
 4688SOL     OW25522   3.382   2.452   6.997  0.0908 -0.1997  0.2637
 4688SOL    HW125523   3.462   2.437   7.048 -0.7286 -0.5728  1.4420
 4688SOL    HW225524   3.418   2.498   6.921  0.1149 -0.4726  0.1106
 4689SOL     OW25525   4.457   2.862  15.550  0.0168 -0.3535  0.2978
 4689SOL    HW125526   4.479   2.921  15.478  0.1881  1.6859  2.0446
 4689SOL    HW225527   4.437   2.932  15.612  0.9830  0.0809  0.1327
 4690SOL     OW25528   0.088   4.630   6.937  0.2875  0.2029  0.0916
 4690SOL    HW125529   0.029   4.554   6.938  0.8797 -0.2635 -1.4422
 4690SOL    HW225530   0.153   4.603   6.873 -3.0595 -1.4221 -2.6325
 4691SOL     OW25531   2.403   0.200   3.874  0.0352 -0.0871 -0.4468
 4691SOL    HW125532   2.338   0.179   3.941 -0.5263 -0.5654 -1.1393
 4691SOL    HW225533   2.435   0.110   3.871 -3.7967 -1.3756 -2.9897
 4692SOL     OW25534   1.938   1.452  14.046 -0.0214 -0.0609 -0.5490
 4692SOL    HW125535   2.002   1.505  14.093  0.3747 -0.0105 -1.1441
 4692SOL    HW225536   1.904   1.401  14.119  2.2631  0.4621  0.8694
 4693SOL     OW25537   1.239   3.261   6.977  0.1988  0.7007  0.0190
 4693SOL    HW125538   1.270   3.202   7.046 -1.0541 -3.0816 -2.6579
 4693SOL    HW225539   1.317   3.278   6.924  0.7614 -0.1790  0.5572
 4694SOL     OW25540   2.120   0.804   7.578  0.4405 -0.0204 -0.3564
 4694SOL    HW125541   2.085   0.890   7.605  1.3299  0.0526  0.5701
 4694SOL    HW225542   2.070   0.787   7.499 -1.4275 -0.6932  0.9586
 4695SOL     OW25543   3.412   1.788   5.711  0.2158 -0.3940  0.0943
 4695SOL    HW125544   3.333   1.840   5.731  2.2033  3.0833 -1.0247
 4695SOL    HW225545   3.419   1.716   5.774 -0.5944 -0.5911 -0.0421
 4696SOL     OW25546   3.878   4.249   5.148  0.0589  0.0801  0.2319
 4696SOL    HW125547   3.795   4.279   5.185  0.8441 -0.8247  2.7481
 4696SOL    HW225548   3.941   4.282   5.212  0.0954  1.3422 -0.4722
 4697SOL     OW25549   3.557   4.182  10.613 -0.1092  0.0716 -0.1678
 4697SOL    HW125550   3.534   4.273  10.634  0.0220 -0.1680  1.0498
 4697SOL    HW225551   3.479   4.141  10.577  1.6473 -2.9805 -0.5700
 4698SOL     OW25552   3.310   0.503   4.178  0.1646  0.3734 -0.3484
 4698SOL    HW125553   3.302   0.548   4.093 -2.0854 -0.4256 -0.5629
 4698SOL    HW225554   3.373   0.557   4.226 -0.1337  2.8148 -2.6561
 4699SOL     OW25555   0.801   0.005   8.947  0.4158 -0.6985  0.2379
 4699SOL    HW125556   0.848   0.072   8.897 -0.7172 -2.4705 -3.1804
 4699SOL    HW225557   0.749   4.685   8.879 -1.5482 -1.7427  2.4376
 4700SOL     OW25558   2.249   3.739   9.619  0.5812 -0.0268 -0.1434
 4700SOL    HW125559   2.223   3.772   9.533  1.0743  1.3544  0.2301
 4700SOL    HW225560   2.269   3.823   9.662  1.5345 -0.6837  0.6963
 4701SOL     OW25561   4.261   2.377   8.191 -0.8668 -0.0605  0.1032
 4701SOL    HW125562   4.269   2.292   8.148  1.3555 -1.5051  3.2892
 4701SOL    HW225563   4.276   2.345   8.281 -0.0649 -0.2806 -0.1026
 4702SOL     OW25564   4.303   3.273   8.287 -0.1497 -0.0642 -0.0888
 4702SOL    HW125565   4.220   3.225   8.286  0.9204 -1.9584  0.5411
 4702SOL    HW225566   4.358   3.212   8.237 -2.6946 -2.4459 -0.0044
 4703SOL     OW25567   1.176   1.322   5.894 -0.3862  0.2493 -0.2750
 4703SOL    HW125568   1.198   1.334   5.802 -1.2929  0.6374 -0.4400
 4703SOL    HW225569   1.242   1.256   5.916  1.4007  1.2584 -2.4995
 4704SOL     OW25570   4.644   0.978   8.965  0.4207  0.0696  0.1214
 4704SOL    HW125571   4.615   0.971   8.874  1.6283  0.7805 -0.3182
 4704SOL    HW225572   4.686   0.893   8.979  1.5455  0.5524 -0.3498
 4705SOL     OW25573   2.684   1.134   0.456 -0.0091 -0.2554 -0.0796
 4705SOL    HW125574   2.772   1.143   0.420 -0.1514  3.0984  0.4538
 4705SOL    HW225575   2.680   1.216   0.505  0.1500  0.4099 -1.1829
 4706SOL     OW25576   1.569   1.146  12.145 -0.2471  0.5550 -0.1424
 4706SOL    HW125577   1.503   1.142  12.214 -1.5930 -1.2722 -1.5550
 4706SOL    HW225578   1.508   1.165  12.074 -0.1403  0.2520 -0.3168
 4707SOL     OW25579   2.844   3.181   3.667  0.3152 -0.7505 -0.7326
 4707SOL    HW125580   2.886   3.111   3.619 -1.5486 -0.2005 -3.1541
 4707SOL    HW225581   2.753   3.153   3.659  1.0909 -2.9884 -1.7200
 4708SOL     OW25582   4.203   3.516   6.467 -0.1232 -0.1401  0.4138
 4708SOL    HW125583   4.178   3.490   6.378  0.0120  0.8808  0.0788
 4708SOL    HW225584   4.260   3.444   6.493  0.2998 -0.2523 -0.8070
 4709SOL     OW25585   1.540   0.796   2.117  0.4696  0.1579 -0.2356
 4709SOL    HW125586   1.597   0.729   2.080  1.9854  0.0621  2.2711
 4709SOL    HW225587   1.598   0.855   2.164 -1.2952  2.0592 -0.4646
 4710SOL     OW25588   0.761   0.173  12.704 -0.2234  0.2525  0.3521
 4710SOL    HW125589   0.850   0.206  12.687 -0.8891  1.6442 -0.4316
 4710SOL    HW225590   0.722   0.251  12.742  1.4944  0.6604  1.2768
 4711SOL     OW25591   1.242   4.379   8.600 -0.4625  0.2215 -0.2195
 4711SOL    HW125592   1.322   4.326   8.602  0.0597  0.9692 -1.4254
 4711SOL    HW225593   1.252   4.430   8.520 -0.4803  0.0774 -0.3139
 4712SOL     OW25594   1.695   0.382   5.553 -0.3434 -0.0369  0.1525
 4712SOL    HW125595   1.777   0.339   5.575 -0.6543 -0.3695  0.6560
 4712SOL    HW225596   1.682   0.331   5.473 -1.6527 -1.8920  1.5348
 4713SOL     OW25597   3.065   2.134  12.203 -0.6261  0.3273  0.3648
 4713SOL    HW125598   3.102   2.190  12.135 -0.7982 -1.3553 -1.1215
 4713SOL    HW225599   3.101   2.168  12.284 -3.0290 -0.0068  1.5684
 4714SOL     OW25600   1.110   4.557   8.768 -0.1336  0.2528 -0.0512
 4714SOL    HW125601   1.149   4.496   8.705 -0.4782  0.3672 -0.3686
 4714SOL    HW225602   1.186   4.557   8.827 -0.3029  2.5389  0.1625
 4715SOL     OW25603   1.726   3.537  10.417  0.4347 -0.3676  0.4441
 4715SOL    HW125604   1.633   3.538  10.441  0.2846 -3.6255  0.0249
 4715SOL    HW225605   1.736   3.630  10.439 -0.3915  0.3111 -1.9779
 4716SOL     OW25606   0.935   4.029   4.650 -0.0163 -0.1547  0.3254
 4716SOL    HW125607   0.927   3.962   4.719 -0.6517 -2.3326 -1.8708
 4716SOL    HW225608   0.986   3.990   4.579  2.8599 -0.0893  2.3562
 4717SOL     OW25609   0.472   0.428   7.433  0.2856  0.4528 -0.2961
 4717SOL    HW125610   0.421   0.429   7.514  0.8391 -1.1632  0.0740
 4717SOL    HW225611   0.484   0.523   7.432 -0.0774  0.5251  1.5802
 4718SOL     OW25612   1.391   3.945   3.103 -0.0022  0.0634  0.3480
 4718SOL    HW125613   1.373   4.027   3.148  0.4067 -0.7305  1.9620
 4718SOL    HW225614   1.474   3.964   3.058 -1.5125  0.3675 -2.3008
 4719SOL     OW25615   4.243   0.662   0.368  0.0872 -0.3402 -0.0149
 4719SOL    HW125616   4.188   0.673   0.445  0.5626 -1.7788  0.5337
 4719SOL    HW225617   4.189   0.647   0.290 -0.8660  1.1311  0.3742
 4720SOL     OW25618   1.710   2.897   8.981  0.2857 -0.2363 -0.4250
 4720SOL    HW125619   1.777   2.833   8.957  0.1768  0.4055 -2.5023
 4720SOL    HW225620   1.744   2.979   8.944 -0.5556 -0.1876 -1.1009
 4721SOL     OW25621   2.126   1.092   5.190 -0.2104  0.8694 -0.3236
 4721SOL    HW125622   2.128   1.038   5.111  0.3822 -1.6746  1.4067
 4721SOL    HW225623   2.035   1.096   5.220 -0.1060 -0.1523  0.1535
 4722SOL     OW25624   2.565   2.677   7.925  0.1078  0.1981  0.5825
 4722SOL    HW125625   2.626   2.674   7.851 -0.2971 -2.3620  0.3397
 4722SOL    HW225626   2.542   2.585   7.914  4.2545 -0.5383 -1.9504
 4723SOL     OW25627   3.270   2.076   2.772 -0.4302 -0.3517  0.2892
 4723SOL    HW125628   3.304   2.132   2.702  0.6140 -0.4484  0.7052
 4723SOL    HW225629   3.331   2.003   2.756  0.1337  0.5718 -1.7878
 4724SOL     OW25630   4.631   0.279   5.789 -0.1669  0.5238  0.2081
 4724SOL    HW125631   4.661   0.188   5.795  0.9364  0.8745  0.0226
 4724SOL    HW225632   4.579   0.283   5.869 -2.1196  2.3062 -1.1346
 4725SOL     OW25633   1.877   3.171   6.805 -0.6699 -0.1800 -0.3509
 4725SOL    HW125634   1.800   3.118   6.826 -0.7453  0.0973  0.0710
 4725SOL    HW225635   1.871   3.245   6.865 -2.0806  0.1665 -0.9077
 4726SOL     OW25636   2.648   1.033   2.426  0.1343 -0.7581  0.4450
 4726SOL    HW125637   2.578   0.975   2.456  0.3923 -1.6030 -0.5566
 4726SOL    HW225638   2.727   1.000   2.468  0.3608 -1.1906 -0.3241
 4727SOL     OW25639   2.616   3.963   7.549 -0.7661 -0.3595 -0.3014
 4727SOL    HW125640   2.560   4.034   7.520 -0.1466 -0.3412 -1.4443
 4727SOL    HW225641   2.564   3.883   7.541 -0.9799 -0.0056 -2.5216
 4728SOL     OW25642   0.518   2.976   4.750  0.3251 -0.0177  0.4551
 4728SOL    HW125643   0.588   2.914   4.730  1.1438  0.2949  2.3293
 4728SOL    HW225644   0.557   3.039   4.810  1.1633  0.0203 -0.1233
 4729SOL     OW25645   2.457   2.454   5.067  0.6826 -0.1859  0.0496
 4729SOL    HW125646   2.366   2.470   5.091  0.8915  1.8754 -0.5196
 4729SOL    HW225647   2.480   2.512   4.994 -1.5234 -0.8075 -1.1228
 4730SOL     OW25648   2.734   0.031   4.362  0.1459  0.1291 -0.1015
 4730SOL    HW125649   2.830   0.025   4.362  0.0533 -1.3375 -0.0455
 4730SOL    HW225650   2.725   0.065   4.451 -1.0798  0.3599 -0.3134
 4731SOL     OW25651   0.263   3.124   1.596 -0.1973 -0.0614  0.0433
 4731SOL    HW125652   0.334   3.188   1.605  0.6624 -1.0900  0.6030
 4731SOL    HW225653   0.197   3.180   1.637  0.9609  0.0860  1.7232
 4732SOL     OW25654   1.861   1.228   1.605 -0.3229 -0.1932  0.2057
 4732SOL    HW125655   1.947   1.260   1.631  0.3012 -2.6033  1.0777
 4732SOL    HW225656   1.855   1.276   1.522 -0.1638  1.0225  0.8980
 4733SOL     OW25657   3.027   1.833   7.478 -0.0358 -0.1072 -0.0926
 4733SOL    HW125658   3.093   1.798   7.538 -0.7123  0.9447  1.2789
 4733SOL    HW225659   3.020   1.771   7.406  0.6237 -2.2453  1.6742
 4734SOL     OW25660   1.865   1.582  13.426  0.1722  0.5862  0.1991
 4734SOL    HW125661   1.812   1.506  13.446  2.1309 -0.9845 -0.5700
 4734SOL    HW225662   1.799   1.635  13.380  0.1089 -0.0515 -0.4410
 4735SOL     OW25663   1.901   1.449   8.638 -0.0375 -0.1100 -0.3331
 4735SOL    HW125664   1.964   1.430   8.708 -3.0858 -1.3249  2.0750
 4735SOL    HW225665   1.852   1.516   8.686  2.2353 -0.3865  2.3920
 4736SOL     OW25666   1.371   0.685   0.513 -0.3570  0.7277 -0.0162
 4736SOL    HW125667   1.305   0.643   0.568  0.5369 -0.0004  0.5024
 4736SOL    HW225668   1.318   0.743   0.459 -0.6458 -0.3283 -0.8597
 4737SOL     OW25669   4.216   0.544  12.320 -0.0537 -0.3167 -0.3814
 4737SOL    HW125670   4.293   0.576  12.273  0.8595  3.1732  3.5200
 4737SOL    HW225671   4.227   0.592  12.402 -1.6430 -0.8814  0.1617
 4738SOL     OW25672   3.421   0.704  16.229  0.1827  0.8577  0.2965
 4738SOL    HW125673   3.362   0.736  16.160  0.2885 -0.3789 -0.3860
 4738SOL    HW225674   3.485   0.647  16.186 -1.3961 -1.2081  0.6578
 4739SOL     OW25675   0.140   3.091  17.341  0.3867 -0.1192 -0.4643
 4739SOL    HW125676   0.132   3.011  17.393  2.4679  0.2431  0.4148
 4739SOL    HW225677   0.232   3.118  17.334  0.2834  0.6263  1.0970
 4740SOL     OW25678   1.695   0.603  15.268 -0.8338  0.2377  0.1989
 4740SOL    HW125679   1.610   0.646  15.275 -0.5421  1.0914 -1.7881
 4740SOL    HW225680   1.691   0.545  15.192 -1.3493  2.0497 -1.1566
 4741SOL     OW25681   4.677   1.492  16.121 -0.5839  0.5502  0.6161
 4741SOL    HW125682   4.720   1.546  16.054  1.6023 -0.5532  1.1188
 4741SOL    HW225683   4.704   1.403  16.099  2.3290  1.3255  0.9343
 4742SOL     OW25684   1.894   1.257  10.044 -0.1761  0.4079 -0.2461
 4742SOL    HW125685   1.946   1.182  10.015  0.4304  0.1363  1.5465
 4742SOL    HW225686   1.918   1.307   9.966  1.2911 -0.2645 -0.2176
 4743SOL     OW25687   1.148   0.184   7.804 -0.7305 -0.4834  0.1221
 4743SOL    HW125688   1.215   0.115   7.803 -1.5451 -1.2074 -4.4614
 4743SOL    HW225689   1.195   0.253   7.852  1.2413 -0.9054 -1.2176
 4744SOL     OW25690   3.689   0.895  17.645  0.0527  0.1950 -0.5305
 4744SOL    HW125691   3.595   0.879  17.645 -0.2954  2.1646  0.4406
 4744SOL    HW225692   3.699   0.949   0.032  3.5457  0.7539 -1.3402
 4745SOL     OW25693   3.643   1.990   4.244  0.2254 -0.2921 -0.3690
 4745SOL    HW125694   3.730   1.961   4.271  1.1173  1.1795 -1.6553
 4745SOL    HW225695   3.584   1.985   4.319 -0.5756  0.2146 -0.9538
 4746SOL     OW25696   1.609   0.672   6.840  0.0960 -0.7700  0.9307
 4746SOL    HW125697   1.701   0.646   6.841  0.3923  0.2551  0.5224
 4746SOL    HW225698   1.576   0.597   6.889  1.4567 -0.9123  1.6143
 4747SOL     OW25699   0.242   2.718   7.764 -0.2282 -0.4672 -0.3662
 4747SOL    HW125700   0.265   2.693   7.675  2.1625 -0.0432  0.1184
 4747SOL    HW225701   0.194   2.639   7.789 -0.8048 -0.8393 -2.6613
 4748SOL     OW25702   0.540   2.881   6.407 -0.0833 -0.4385 -0.6610
 4748SOL    HW125703   0.615   2.835   6.445 -0.8267 -1.8201 -0.8981
 4748SOL    HW225704   0.582   2.947   6.351  0.9521  1.0719  1.9157
 4749SOL     OW25705   4.169   3.392   7.402  0.1936  0.1438  0.1085
 4749SOL    HW125706   4.092   3.448   7.397  0.3314  0.6309  3.5140
 4749SOL    HW225707   4.237   3.447   7.364  0.7200 -1.3035 -1.0253
 4750SOL     OW25708   3.162   3.141   5.580 -0.3169  0.3411  0.1736
 4750SOL    HW125709   3.235   3.085   5.608 -1.7849 -0.6495  2.0352
 4750SOL    HW225710   3.134   3.107   5.495  1.3485 -0.3286 -0.1095
 4751SOL     OW25711   3.064   3.897   4.572  0.6121  0.3844  0.0351
 4751SOL    HW125712   3.067   3.887   4.477 -0.1976  0.4551  0.0012
 4751SOL    HW225713   3.158   3.914   4.579  0.9360 -0.9706 -0.9695
 4752SOL     OW25714   4.701   4.547   6.323  0.0798 -0.2433 -0.6429
 4752SOL    HW125715   0.060   4.554   6.372  0.4768  0.7627 -1.4528
 4752SOL    HW225716   4.647   4.608   6.373  0.4324  1.0408 -1.8244
 4753SOL     OW25717   1.276   2.875   0.980 -0.1341 -0.3316 -0.4394
 4753SOL    HW125718   1.278   2.968   0.999  1.1735 -0.5068  0.2344
 4753SOL    HW225719   1.194   2.853   1.025  0.3020 -1.6232 -0.2847
 4754SOL     OW25720   2.048   0.142   4.621 -0.1904  0.1218  0.0132
 4754SOL    HW125721   2.050   0.126   4.715  3.3495  1.4530  0.1708
 4754SOL    HW225722   2.035   0.053   4.588 -0.0582 -1.4342  4.1879
 4755SOL     OW25723   1.815   0.325   8.120 -0.1982  0.4751  0.1560
 4755SOL    HW125724   1.864   0.408   8.125  1.1753 -0.3242 -0.0275
 4755SOL    HW225725   1.881   0.270   8.162 -0.7252 -1.1898 -1.2083
 4756SOL     OW25726   3.749   1.913  11.187 -0.1489 -0.0076  0.1352
 4756SOL    HW125727   3.701   1.917  11.269  0.0782  0.0249  0.2668
 4756SOL    HW225728   3.831   1.952  11.217  0.8856 -2.1964  0.1412
 4757SOL     OW25729   2.805   4.087   8.398 -0.1847  0.2179 -0.8227
 4757SOL    HW125730   2.795   4.004   8.444  0.7859 -0.0234 -1.0420
 4757SOL    HW225731   2.851   4.055   8.320  3.1992  1.5299  0.6263
 4758SOL     OW25732   1.165   2.251   6.365  0.3187 -0.2039  0.5560
 4758SOL    HW125733   1.149   2.289   6.279  0.0219 -1.7791 -0.0896
 4758SOL    HW225734   1.093   2.190   6.378 -0.1834 -0.5783 -3.9574
 4759SOL     OW25735   0.231   4.194   5.177  0.8505  0.1562 -0.4940
 4759SOL    HW125736   0.207   4.280   5.141  0.0368 -0.0498 -0.4598
 4759SOL    HW225737   0.259   4.214   5.267 -0.7329 -0.5724  0.1642
 4760SOL     OW25738   1.361   0.830   1.344  0.1772  0.2201  0.1259
 4760SOL    HW125739   1.322   0.871   1.267 -1.3887 -0.7951  0.3716
 4760SOL    HW225740   1.291   0.806   1.404  0.9055  0.6990  1.1605
 4761SOL     OW25741   4.714   2.171   0.108  0.3638 -0.3083  0.0128
 4761SOL    HW125742   0.023   2.261   0.096 -1.2157  0.0840 -1.2944
 4761SOL    HW225743   4.722   2.160   0.203  1.4781 -1.3537 -0.2109
 4762SOL     OW25744   4.339   4.495   7.191 -0.1059  0.2360 -0.4894
 4762SOL    HW125745   4.317   4.535   7.275  1.9774 -1.1037  0.6896
 4762SOL    HW225746   4.261   4.511   7.137  0.2276  0.7258 -0.8190
 4763SOL     OW25747   2.069   2.664   3.181  0.1918 -0.0214 -0.2682
 4763SOL    HW125748   2.066   2.590   3.120 -0.0606 -0.8753  0.7768
 4763SOL    HW225749   2.157   2.656   3.218  0.2578 -0.7252 -0.5761
 4764SOL     OW25750   1.983   3.259   8.493 -0.2723  0.1064 -0.5062
 4764SOL    HW125751   2.019   3.172   8.475  0.3841  0.4839 -1.0263
 4764SOL    HW225752   1.953   3.295   8.409 -2.2078 -1.1562 -0.3406
 4765SOL     OW25753   2.288   1.785   3.841 -0.0285 -0.0899 -0.4507
 4765SOL    HW125754   2.347   1.712   3.859 -1.3560 -0.8316  0.9177
 4765SOL    HW225755   2.223   1.767   3.910  2.5120  0.2089  2.0343
 4766SOL     OW25756   4.653   2.881  14.551 -0.1716  0.2053 -0.0762
 4766SOL    HW125757   4.565   2.861  14.520  0.8801 -2.4799 -1.2669
 4766SOL    HW225758   4.667   2.966  14.509  1.2734  0.0335  0.0653
 4767SOL     OW25759   4.604   0.260   1.580  0.1339 -0.2292  0.0900
 4767SOL    HW125760   4.608   0.352   1.554  0.6967 -0.6396 -1.3256
 4767SOL    HW225761   4.694   0.252   1.612  0.1738 -0.4455 -0.0773
 4768SOL     OW25762   3.018   0.160   8.658 -0.3915 -0.3546 -0.6704
 4768SOL    HW125763   3.108   0.187   8.678 -0.5661 -0.3636  0.1206
 4768SOL    HW225764   2.980   0.143   8.744  2.6838 -1.0526  0.5472
 4769SOL     OW25765   4.465   4.034   8.274  0.3618  0.1246 -0.0833
 4769SOL    HW125766   4.416   4.006   8.196 -1.5887  1.6756  0.5656
 4769SOL    HW225767   4.411   3.994   8.342 -0.6799 -0.5420 -1.2983
 4770SOL     OW25768   3.558   1.587   6.149  1.2487 -0.6965  0.4943
 4770SOL    HW125769   3.504   1.514   6.121  0.6936 -1.2983  3.1083
 4770SOL    HW225770   3.647   1.565   6.120  0.0695 -1.5622 -2.4307
 4771SOL     OW25771   0.657   3.436   1.463 -0.2449 -0.6441 -1.1272
 4771SOL    HW125772   0.596   3.377   1.507  1.5809 -1.3069  0.5207
 4771SOL    HW225773   0.734   3.385   1.439 -2.2368 -3.1115 -2.2453
 4772SOL     OW25774   0.038   3.194   4.426 -0.4965  0.2707  0.5956
 4772SOL    HW125775   0.041   3.100   4.444 -1.3182  0.2068  0.4366
 4772SOL    HW225776   0.128   3.218   4.446 -0.2934  1.6295 -1.9825
 4773SOL     OW25777   0.299   2.408  10.762  0.3713  0.7035  0.6515
 4773SOL    HW125778   0.365   2.469  10.795  1.6250 -0.1880 -0.2035
 4773SOL    HW225779   0.361   2.364  10.705 -1.2938 -0.8434  0.0643
 4774SOL     OW25780   0.478   4.107  13.489 -0.2768  0.8354 -0.0811
 4774SOL    HW125781   0.553   4.051  13.467 -0.0964  1.0585 -0.0378
 4774SOL    HW225782   0.483   4.170  13.416  2.3789  0.0118 -0.6203
 4775SOL     OW25783   3.762   2.658   4.130 -0.8884 -0.3671 -0.4602
 4775SOL    HW125784   3.747   2.611   4.047  0.9145 -0.4031 -0.7678
 4775SOL    HW225785   3.856   2.677   4.128 -0.5082 -2.1170  1.5354
 4776SOL     OW25786   3.861   2.002   2.535  0.6050  0.2507  0.1610
 4776SOL    HW125787   3.925   2.066   2.565  0.5279  0.6385 -0.4973
 4776SOL    HW225788   3.908   1.923   2.560 -0.5694  0.2873  2.4559
 4777SOL     OW25789   3.190   3.027   0.477  0.2881 -0.4084  0.3968
 4777SOL    HW125790   3.217   3.107   0.432 -2.1526 -0.9311 -1.9238
 4777SOL    HW225791   3.255   3.030   0.548 -0.6875 -0.1821  1.2778
 4778SOL     OW25792   1.211   3.577   4.332 -0.1752 -0.2168  0.0802
 4778SOL    HW125793   1.209   3.625   4.249 -0.0736  0.1233  0.2720
 4778SOL    HW225794   1.283   3.514   4.318  1.7199  2.3953 -2.0624
 4779SOL     OW25795   2.647   3.396   8.383 -0.9849 -0.6783  0.3110
 4779SOL    HW125796   2.571   3.435   8.340 -0.4881 -0.0968 -0.0321
 4779SOL    HW225797   2.626   3.303   8.366  1.7633 -0.8241 -2.2778
 4780SOL     OW25798   3.839   3.999   0.666 -0.7818 -0.6712  0.2837
 4780SOL    HW125799   3.884   4.075   0.704 -0.0072 -1.1069  0.2298
 4780SOL    HW225800   3.750   4.023   0.694 -0.6043  1.1939 -0.7376
 4781SOL     OW25801   0.586   4.584   2.451  0.3396 -0.0074  0.1550
 4781SOL    HW125802   0.610   4.557   2.539 -1.6276  0.8113  0.9354
 4781SOL    HW225803   0.493   4.565   2.456  0.7062 -1.6427  0.8408
 4782SOL     OW25804   2.801   4.391   5.716  0.1267  0.0853  0.3961
 4782SOL    HW125805   2.829   4.322   5.776 -3.2758 -1.4778  0.1575
 4782SOL    HW225806   2.808   4.471   5.768 -0.0369  0.2592  0.1496
 4783SOL     OW25807   0.189   2.013   4.924  0.3095 -0.1211 -0.1878
 4783SOL    HW125808   0.160   2.063   5.000  0.6104  1.7396 -1.2913
 4783SOL    HW225809   0.197   1.923   4.955  0.6357 -0.3878 -1.0418
 4784SOL     OW25810   2.227   1.251   9.824 -0.3959  0.1164 -0.2961
 4784SOL    HW125811   2.215   1.158   9.844 -0.1699  0.5856  2.0807
 4784SOL    HW225812   2.268   1.285   9.903 -0.6961  0.1735 -0.1677
 4785SOL     OW25813   0.945   2.113   6.715  0.1707 -0.5227 -1.1028
 4785SOL    HW125814   0.885   2.098   6.788 -1.6154  1.0651 -2.2394
 4785SOL    HW225815   0.926   2.207   6.708 -0.0628 -0.4313  0.8531
 4786SOL     OW25816   1.981   1.665   1.374 -0.1321 -0.3913 -0.2083
 4786SOL    HW125817   2.014   1.584   1.336  0.9281 -1.6682  3.4315
 4786SOL    HW225818   1.949   1.704   1.293 -2.8570 -1.5869  0.2789
 4787SOL     OW25819   3.129   0.171   5.118 -0.1216  0.4162  0.5117
 4787SOL    HW125820   3.133   0.158   5.213 -5.3389  0.5685  0.7516
 4787SOL    HW225821   3.044   0.133   5.095 -0.0810  0.0009  1.0355
 4788SOL     OW25822   3.226   0.310  13.479  0.2269  0.3653 -0.3425
 4788SOL    HW125823   3.238   0.346  13.391  1.3434  0.0104 -0.3249
 4788SOL    HW225824   3.307   0.338  13.521  1.5940 -2.4779 -1.1240
 4789SOL     OW25825   0.094   3.570   6.132 -0.0492  0.2073  0.4728
 4789SOL    HW125826   0.144   3.651   6.146 -1.6188  1.3625 -0.6885
 4789SOL    HW225827   0.016   3.619   6.106 -0.8258  0.1091  2.6801
 4790SOL     OW25828   0.464   3.505   4.292 -0.2200 -0.3488 -0.5684
 4790SOL    HW125829   0.474   3.593   4.327  0.0584 -0.5023 -0.2612
 4790SOL    HW225830   0.526   3.507   4.219 -1.2839  0.6011 -1.4397
 4791SOL     OW25831   0.086   3.390  12.310  0.0335  0.2484  0.2082
 4791SOL    HW125832   0.001   3.411  12.350 -0.1685 -2.3790  1.1937
 4791SOL    HW225833   0.120   3.472  12.274 -2.0993  0.8460 -0.4620
 4792SOL     OW25834   3.454   1.644   5.124 -0.0470  0.2284  0.1596
 4792SOL    HW125835   3.375   1.593   5.141  1.2315 -1.6832  0.3363
 4792SOL    HW225836   3.522   1.581   5.148  0.7910  1.3509  0.7005
 4793SOL     OW25837   2.653   3.766   4.146 -0.3886  0.7317 -0.3063
 4793SOL    HW125838   2.619   3.824   4.078 -1.8422 -0.1649 -0.3685
 4793SOL    HW225839   2.701   3.702   4.093 -0.7886 -2.7870  3.5703
 4794SOL     OW25840   2.691   4.277   7.148 -0.6425  0.0451 -0.2262
 4794SOL    HW125841   2.767   4.298   7.202 -2.3831  2.5805  1.2035
 4794SOL    HW225842   2.713   4.325   7.068  0.3721 -0.3108 -0.1569
 4795SOL     OW25843   3.594   1.499   0.811  0.1441 -0.0039 -0.1146
 4795SOL    HW125844   3.681   1.512   0.773  0.1261 -0.3227 -0.2697
 4795SOL    HW225845   3.543   1.544   0.744 -1.4188 -3.5261 -1.2805
 4796SOL     OW25846   0.275   1.845  14.758 -0.2878  0.1974  0.3675
 4796SOL    HW125847   0.309   1.758  14.739  0.7262  0.1863  2.2520
 4796SOL    HW225848   0.240   1.827  14.845 -1.0155  1.3893  0.3255
 4797SOL     OW25849   2.688   0.779   0.423  0.6029  0.6679 -0.6560
 4797SOL    HW125850   2.720   0.703   0.472  0.9299  0.3202 -1.4106
 4797SOL    HW225851   2.756   0.798   0.357 -2.3885  1.0307 -3.6320
 4798SOL     OW25852   0.182   0.298   7.292  0.3338  0.3230 -0.0798
 4798SOL    HW125853   0.232   0.245   7.229  1.4057  0.5269  0.6077
 4798SOL    HW225854   0.215   0.259   7.373 -2.8194 -2.5160 -0.1584
 4799SOL     OW25855   2.636   1.601   6.246 -0.4290 -0.4825 -0.5258
 4799SOL    HW125856   2.561   1.544   6.260 -0.3807  0.4049  3.1881
 4799SOL    HW225857   2.617   1.687   6.283 -2.2225 -1.7483  1.4766
 4800SOL     OW25858   0.383   4.397   7.983  0.1126 -0.0839  0.7731
 4800SOL    HW125859   0.453   4.392   7.919  0.4242  0.2465  1.0921
 4800SOL    HW225860   0.306   4.389   7.926  0.4287 -1.9192  0.6030
 4801SOL     OW25861   4.161   3.662   5.313 -0.2538 -0.3922 -0.0236
 4801SOL    HW125862   4.194   3.656   5.403 -0.1160  1.5061  0.0593
 4801SOL    HW225863   4.243   3.671   5.266  1.8368 -1.6244  3.3792
 4802SOL     OW25864   3.623   2.222   3.629  0.3010 -0.1712  0.2467
 4802SOL    HW125865   3.655   2.275   3.556  1.9712 -0.5424  0.7100
 4802SOL    HW225866   3.676   2.142   3.629 -0.7487 -0.8461  3.7247
 4803SOL     OW25867   0.903   2.808  13.897  0.2209 -0.2284  0.2729
 4803SOL    HW125868   0.919   2.715  13.908  1.3466  0.0339  0.8010
 4803SOL    HW225869   0.950   2.843  13.973  2.2294 -2.1247 -0.1151
 4804SOL     OW25870   1.155   2.319  10.007 -0.5272  0.0974  0.4109
 4804SOL    HW125871   1.246   2.342  10.027 -0.9133  1.4254  0.6025
 4804SOL    HW225872   1.176   2.232   9.974 -0.7754  0.1723  0.0545
 4805SOL     OW25873   4.064   2.051   5.396  0.3626  0.7944 -0.3876
 4805SOL    HW125874   4.105   2.015   5.317  0.5270  0.7699 -0.2929
 4805SOL    HW225875   3.987   2.087   5.354 -1.6368 -1.8283  1.0231
 4806SOL     OW25876   2.965   3.948   0.462 -0.5275  0.3753 -0.0250
 4806SOL    HW125877   3.015   3.867   0.478  0.9613  1.2776 -0.1217
 4806SOL    HW225878   2.944   3.982   0.549 -1.9692  0.6880 -0.4942
 4807SOL     OW25879   0.565   3.599  14.328  0.6308  0.0512 -0.3648
 4807SOL    HW125880   0.529   3.678  14.288  0.7862 -0.6674 -1.9009
 4807SOL    HW225881   0.530   3.608  14.417 -1.1150 -0.2551 -1.0171
 4808SOL     OW25882   0.785   2.198   0.866  0.3375 -0.2130 -0.1378
 4808SOL    HW125883   0.810   2.290   0.879  0.2279 -0.5242  2.3192
 4808SOL    HW225884   0.828   2.163   0.944  1.0666  0.0746 -0.4041
 4809SOL     OW25885   1.847   1.850   6.038  0.0900 -0.2549 -0.1499
 4809SOL    HW125886   1.917   1.785   6.044 -0.3452 -0.5602  1.8304
 4809SOL    HW225887   1.790   1.802   6.099 -0.7459 -2.4485 -2.6617
 4810SOL     OW25888   2.443   3.565   3.281  0.2026  0.5787  0.1579
 4810SOL    HW125889   2.520   3.604   3.239  0.0856  0.8837  0.2330
 4810SOL    HW225890   2.494   3.508   3.338  0.6905 -0.4987 -1.3620
 4811SOL     OW25891   1.341   3.912   2.521 -0.3832  0.0476 -0.7719
 4811SOL    HW125892   1.374   3.989   2.474 -1.1216 -0.6297 -2.3916
 4811SOL    HW225893   1.427   3.874   2.539 -0.6437  1.4545  3.5267
 4812SOL     OW25894   4.691   3.005   3.137  0.0017  0.4183  0.2910
 4812SOL    HW125895   0.008   3.064   3.201  1.3940 -0.7024  0.4600
 4812SOL    HW225896   4.644   3.066   3.079  0.8096 -0.3905 -1.2262
 4813SOL     OW25897   4.233   0.472   3.968 -0.3295  0.3750 -0.0868
 4813SOL    HW125898   4.275   0.394   4.004  1.4420  1.7759  0.9120
 4813SOL    HW225899   4.242   0.451   3.875 -0.4316 -1.7293  0.3780
 4814SOL     OW25900   3.930   1.772   4.716 -0.0084 -0.3763 -0.4076
 4814SOL    HW125901   4.011   1.740   4.676  0.8962  2.4780 -0.8947
 4814SOL    HW225902   3.963   1.835   4.780 -0.4212 -3.1454  2.5259
 4815SOL     OW25903   0.497   3.142   7.333  0.2078  0.2350  0.0083
 4815SOL    HW125904   0.544   3.222   7.312  0.2109 -0.5737 -3.0693
 4815SOL    HW225905   0.566   3.096   7.381 -0.2971  0.8744  1.3738
 4816SOL     OW25906   1.919   2.646   6.535 -0.2787 -0.1560  0.0899
 4816SOL    HW125907   1.895   2.637   6.443  1.1516 -2.0136 -0.1017
 4816SOL    HW225908   1.906   2.741   6.536 -2.8552 -0.4716 -2.9273
 4817SOL     OW25909   1.623   3.642   6.438 -0.2890 -0.1012  0.4593
 4817SOL    HW125910   1.593   3.561   6.478 -0.4029 -0.2989 -0.0260
 4817SOL    HW225911   1.655   3.695   6.511  0.3582  2.9986 -2.0469
 4818SOL     OW25912   2.611   4.080  13.636 -0.0972 -0.1509 -0.2324
 4818SOL    HW125913   2.685   4.022  13.620 -0.8303 -0.2660 -3.1586
 4818SOL    HW225914   2.653   4.161  13.665  0.3203 -1.4793  2.8213
 4819SOL     OW25915   1.973   3.357  16.973  0.2117  0.0586 -0.1913
 4819SOL    HW125916   2.022   3.350  17.054 -2.8689  0.9343  1.7392
 4819SOL    HW225917   1.964   3.451  16.955  1.6050  0.7367  2.7343
 4820SOL     OW25918   0.255   0.356  16.326 -0.3595 -0.3745  0.2997
 4820SOL    HW125919   0.245   0.414  16.251  2.9724  2.5550  2.1259
 4820SOL    HW225920   0.285   0.419  16.391 -0.3025  2.3305 -2.3797
 4821SOL     OW25921   3.790   0.800   7.865  0.0915 -0.3513  0.8964
 4821SOL    HW125922   3.830   0.736   7.806 -0.4716  1.8781 -1.9417
 4821SOL    HW225923   3.699   0.799   7.834  0.0188  0.2718  1.0815
 4822SOL     OW25924   2.498   3.858   8.299  0.3008  0.3955 -0.1415
 4822SOL    HW125925   2.507   3.765   8.322 -1.8078  0.2515  0.0491
 4822SOL    HW225926   2.557   3.867   8.224  0.2672  1.2152 -0.0664
 4823SOL     OW25927   3.897   3.679   8.955 -0.1033  0.3411 -0.0727
 4823SOL    HW125928   3.949   3.729   8.892  1.1691  0.0019  0.7171
 4823SOL    HW225929   3.916   3.720   9.039 -1.4126  1.1200 -0.1597
 4824SOL     OW25930   4.472   2.470   0.643  0.3833 -0.7355  0.5292
 4824SOL    HW125931   4.539   2.492   0.708  0.2357  0.5091  0.2512
 4824SOL    HW225932   4.408   2.535   0.671 -0.7826 -3.0726  3.3172
 4825SOL     OW25933   2.278   2.148  10.615 -0.1773 -0.5664 -0.3616
 4825SOL    HW125934   2.216   2.204  10.568  1.4476  1.3063 -0.2717
 4825SOL    HW225935   2.220   2.076  10.637  0.7552 -1.5622 -1.1782
 4826SOL     OW25936   0.930   3.553   8.472 -0.3819  0.2241  0.7364
 4826SOL    HW125937   1.023   3.556   8.495 -0.5526  0.3898  1.4052
 4826SOL    HW225938   0.918   3.461   8.452 -0.4431  0.3802  0.0419
 4827SOL     OW25939   0.529   4.328   5.144  0.2032  0.3157 -0.1966
 4827SOL    HW125940   0.477   4.348   5.222  1.1276 -2.1935  1.0606
 4827SOL    HW225941   0.561   4.416   5.123  2.7971 -0.0596  2.2588
 4828SOL     OW25942   2.413   0.617   1.731  0.1857  0.7099 -0.4899
 4828SOL    HW125943   2.349   0.680   1.699 -2.2463 -0.8553  1.2491
 4828SOL    HW225944   2.487   0.640   1.675 -0.4677  1.6517 -0.9735
 4829SOL     OW25945   3.515   0.598   2.860  0.1254 -0.0114 -0.0992
 4829SOL    HW125946   3.577   0.551   2.916  1.4386  0.1982 -1.3678
 4829SOL    HW225947   3.463   0.524   2.829  1.2809 -0.9870  0.2483
 4830SOL     OW25948   4.715   0.674   0.417 -0.0033  0.2810 -0.1640
 4830SOL    HW125949   4.647   0.713   0.361 -0.1056 -1.9873 -1.6061
 4830SOL    HW225950   4.682   0.698   0.503  0.0424 -2.2258  0.5463
 4831SOL     OW25951   3.116   0.127   6.528  0.3038  0.7076 -0.0187
 4831SOL    HW125952   3.197   0.112   6.479  0.6900 -1.1137  1.1682
 4831SOL    HW225953   3.056   0.062   6.492  0.9394  0.3310 -0.3886
 4832SOL     OW25954   1.023   0.567   9.226  0.4300 -0.3748  0.0771
 4832SOL    HW125955   0.937   0.583   9.189  0.2489  0.3683  0.8274
 4832SOL    HW225956   1.041   0.651   9.269 -3.1974  0.1284  0.5970
 4833SOL     OW25957   3.197   3.941   6.648 -0.2959  0.0192  0.4975
 4833SOL    HW125958   3.270   3.895   6.689 -1.5811 -0.3427  2.3893
 4833SOL    HW225959   3.185   4.020   6.701  0.8207  0.9901 -0.6910
 4834SOL     OW25960   0.055   0.619  14.325 -0.2956  0.5492  0.5901
 4834SOL    HW125961   0.015   0.571  14.253  2.8669 -0.4818 -0.5152
 4834SOL    HW225962   0.015   0.573  14.399  1.8459 -0.3773  1.2073
 4835SOL     OW25963   1.914   3.436  15.575 -0.4011 -0.5070 -0.0208
 4835SOL    HW125964   1.985   3.378  15.605  0.2586 -1.0832 -2.7334
 4835SOL    HW225965   1.900   3.493  15.651  0.2575 -1.1558  0.6006
 4836SOL     OW25966   3.644   0.045   3.136  0.6080 -0.0113 -0.4114
 4836SOL    HW125967   3.596   0.121   3.167  0.5330 -0.3800  0.3834
 4836SOL    HW225968   3.640   4.703   3.207 -0.8697  1.7480  1.0973
 4837SOL     OW25969   2.643   2.622  14.272  0.1396 -0.1442  0.0789
 4837SOL    HW125970   2.637   2.690  14.339 -1.6302 -0.2208  0.0134
 4837SOL    HW225971   2.600   2.669  14.199  1.5501  0.7738 -0.1642
 4838SOL     OW25972   1.343   2.028   5.605 -0.1217 -0.1692 -0.3020
 4838SOL    HW125973   1.363   2.107   5.656 -2.0590 -0.0020  0.1976
 4838SOL    HW225974   1.420   2.023   5.548  2.6394  0.2948  3.4108
 4839SOL     OW25975   0.902   4.427   7.163  0.5280 -0.1023  0.0619
 4839SOL    HW125976   0.904   4.443   7.257 -1.8897  3.1822 -0.4430
 4839SOL    HW225977   0.847   4.350   7.174  1.1766 -0.3192  1.6961
 4840SOL     OW25978   3.688   2.742  13.929  0.1991 -0.4653 -0.3453
 4840SOL    HW125979   3.730   2.788  14.002 -1.6012 -0.1154  0.4653
 4840SOL    HW225980   3.692   2.651  13.958  0.6195 -0.8530 -1.5910
 4841SOL     OW25981   1.063   1.795   7.694 -0.2385 -0.2649  0.3287
 4841SOL    HW125982   1.149   1.832   7.676 -1.2172  0.6150 -2.5377
 4841SOL    HW225983   1.048   1.831   7.781 -1.0094 -0.1838  0.1639
 4842SOL     OW25984   1.872   2.175   5.211 -0.2335 -0.4466 -0.3200
 4842SOL    HW125985   1.895   2.176   5.304  1.4685 -0.5892 -0.7343
 4842SOL    HW225986   1.777   2.190   5.212 -0.3267 -0.9244 -1.7012
 4843SOL     OW25987   0.820   0.919   3.938  0.1267  0.0210 -0.3304
 4843SOL    HW125988   0.855   0.875   4.016 -0.5820  0.0230 -0.0085
 4843SOL    HW225989   0.760   0.851   3.909 -0.1561  0.6096 -1.1038
 4844SOL     OW25990   1.466   3.237  15.534 -0.3124  0.5951  0.2977
 4844SOL    HW125991   1.458   3.144  15.513 -1.8389  0.4595  1.4309
 4844SOL    HW225992   1.557   3.254  15.511 -0.0654  0.2156  0.9811
 4845SOL     OW25993   2.275   2.347   6.757  0.0283 -0.6679  0.2196
 4845SOL    HW125994   2.337   2.311   6.693  0.2347  1.4417 -0.7839
 4845SOL    HW225995   2.229   2.403   6.694 -0.4053 -3.9638 -2.3836
 4846SOL     OW25996   3.300   2.271   0.874 -0.6870  0.4140 -0.3615
 4846SOL    HW125997   3.238   2.214   0.918  1.1653  0.8458  2.7730
 4846SOL    HW225998   3.310   2.332   0.947 -1.1557  0.3440 -0.2428
 4847SOL     OW25999   1.676   3.464   1.304 -0.1395  0.0458  0.4005
 4847SOL    HW126000   1.703   3.421   1.385 -1.0063 -2.4728 -0.6409
 4847SOL    HW226001   1.597   3.416   1.280 -0.1633 -0.0028  0.5722
 4848SOL     OW26002   2.156   3.775   3.666  0.4720 -0.0040  0.0429
 4848SOL    HW126003   2.234   3.745   3.713  0.0822 -0.2335  0.5487
 4848SOL    HW226004   2.172   3.745   3.577  3.2955 -1.4155  1.0308
 4849SOL     OW26005   3.408   2.319   0.198 -0.1550 -0.2231  0.2309
 4849SOL    HW126006   3.392   2.413   0.210 -2.7337 -0.9706  2.7763
 4849SOL    HW226007   3.369   2.278   0.276  0.2068  1.9166  1.5499
 4850SOL     OW26008   0.970   2.355   0.640  0.0407  0.5899  0.2479
 4850SOL    HW126009   0.884   2.395   0.648  0.2025  0.8051  0.9875
 4850SOL    HW226010   0.945   2.268   0.609  3.4128  0.4948 -2.2048
 4851SOL     OW26011   1.568   0.837  17.637 -0.3450 -0.4011  0.7226
 4851SOL    HW126012   1.499   0.876  17.583  1.7486  0.6735 -1.1628
 4851SOL    HW226013   1.630   0.822  17.566 -0.9226  0.6949 -0.0214
 4852SOL     OW26014   1.682   2.904   7.813 -0.1271 -0.4733  0.2951
 4852SOL    HW126015   1.697   2.817   7.775 -3.0026 -0.8626  0.0990
 4852SOL    HW226016   1.618   2.933   7.748 -0.6691  1.3142  1.6230
 4853SOL     OW26017   1.925   2.074   0.912 -0.2276  0.1823  0.3933
 4853SOL    HW126018   1.939   2.155   0.960 -0.8149  1.6852 -1.9934
 4853SOL    HW226019   1.870   2.106   0.841  0.2726  0.7508  0.2672
 4854SOL     OW26020   0.136   0.695  14.750  0.1921 -0.0790 -0.1317
 4854SOL    HW126021   0.139   0.649  14.666 -1.2171 -0.1358 -0.1507
 4854SOL    HW226022   0.135   0.788  14.728  1.3835  0.4823  2.1806
 4855SOL     OW26023   1.875   1.759   2.138  0.6471  0.4709 -0.6133
 4855SOL    HW126024   1.799   1.718   2.098  0.5829  0.9118 -0.9330
 4855SOL    HW226025   1.836   1.798   2.217 -0.3565 -0.7021 -0.5232
 4856SOL     OW26026   0.285   4.408   3.009  0.3195 -0.3696  0.0825
 4856SOL    HW126027   0.268   4.372   2.922  2.6570 -3.5773  0.9529
 4856SOL    HW226028   0.348   4.347   3.047  0.3590  0.8566  2.0155
 4857SOL     OW26029   2.301   2.203   0.964 -0.3517  0.2872  0.2404
 4857SOL    HW126030   2.224   2.255   0.986  0.1087  1.2644 -0.4404
 4857SOL    HW226031   2.376   2.262   0.960  0.1403 -0.3652 -0.0696
 4858SOL     OW26032   4.512   4.279  12.901 -0.3653 -0.0536 -0.0510
 4858SOL    HW126033   4.569   4.205  12.880  0.3633  0.8100 -1.0991
 4858SOL    HW226034   4.567   4.344  12.858  1.0983  0.0830  2.0074
 4859SOL     OW26035   2.295   3.534   5.869  0.3133  0.5843  0.5659
 4859SOL    HW126036   2.368   3.589   5.895  0.5538  0.9490 -0.9135
 4859SOL    HW226037   2.339   3.514   5.787  0.9922 -1.7530  1.5001
 4860SOL     OW26038   2.818   0.676   7.041 -0.0597 -0.5825  0.8167
 4860SOL    HW126039   2.722   0.675   7.031  0.0626  0.6138 -0.4566
 4860SOL    HW226040   2.822   0.677   7.137  0.4634  0.9993  0.7638
 4861SOL     OW26041   0.315   0.273   2.234 -0.1802 -0.5837  0.0060
 4861SOL    HW126042   0.337   0.310   2.319  0.4064  1.0159 -0.8462
 4861SOL    HW226043   0.229   0.314   2.224 -0.0635  0.2572  2.3766
 4862SOL     OW26044   0.769   4.328  16.907  0.3234  0.4034  0.6021
 4862SOL    HW126045   0.704   4.392  16.936  1.9198  1.8201  1.0671
 4862SOL    HW226046   0.780   4.361  16.818 -1.4635  0.1006  0.2695
 4863SOL     OW26047   2.978   4.240   3.541 -0.0884  0.1148  0.4102
 4863SOL    HW126048   2.965   4.292   3.462 -0.2112  1.4065  1.2720
 4863SOL    HW226049   2.896   4.260   3.587 -0.4878 -1.3303  0.3208
 4864SOL     OW26050   0.608   3.501   8.398 -0.1228 -0.6086  0.0544
 4864SOL    HW126051   0.519   3.514   8.431 -0.5406 -1.9730 -0.5058
 4864SOL    HW226052   0.628   3.591   8.374  1.0777 -0.6171  1.0676
 4865SOL     OW26053   2.707   1.008   6.528 -0.2382 -0.4635 -0.2756
 4865SOL    HW126054   2.615   0.990   6.507 -0.7033  0.0438  1.3080
 4865SOL    HW226055   2.735   0.938   6.588 -0.3581  0.7567  1.2089
 4866SOL     OW26056   3.704   4.410   1.702 -0.3248  0.2687  0.4508
 4866SOL    HW126057   3.713   4.453   1.617  0.8280  0.0652  0.4737
 4866SOL    HW226058   3.769   4.456   1.754 -1.6746  0.9278  1.5386
 4867SOL     OW26059   3.604   3.569  15.166  0.5951  0.2530  0.1105
 4867SOL    HW126060   3.565   3.482  15.175  2.6896 -0.7500 -0.4686
 4867SOL    HW226061   3.529   3.621  15.138  2.6149  2.3188 -1.4967
 4868SOL     OW26062   0.769   0.740   9.514  0.1084 -0.4486  0.5410
 4868SOL    HW126063   0.718   0.737   9.594 -1.3709 -0.5819 -0.4050
 4868SOL    HW226064   0.838   0.796   9.551  0.5618 -0.4500 -0.2896
 4869SOL     OW26065   3.758   1.411   6.179 -0.0845 -0.0540  0.5397
 4869SOL    HW126066   3.735   1.333   6.128  1.1134  2.4393 -3.8376
 4869SOL    HW226067   3.748   1.384   6.270  0.0305  0.2425  0.6391
 4870SOL     OW26068   2.335   3.322   3.586 -0.2023  0.2292 -0.3647
 4870SOL    HW126069   2.297   3.239   3.557 -2.8705  1.8419 -1.4107
 4870SOL    HW226070   2.379   3.351   3.507 -0.9677  0.1971 -0.7971
 4871SOL     OW26071   3.456   3.341   6.539  0.2310  0.1311  0.2100
 4871SOL    HW126072   3.494   3.377   6.459 -1.2343 -0.2959 -0.6832
 4871SOL    HW226073   3.391   3.409   6.558 -0.2464 -0.2457 -0.0566
 4872SOL     OW26074   4.051   1.807   6.070  0.3264 -0.0674  0.2651
 4872SOL    HW126075   3.977   1.852   6.110  0.2348  1.3246 -1.4745
 4872SOL    HW226076   4.014   1.749   6.003  1.3599 -2.0888  1.4477
 4873SOL     OW26077   1.350   1.937   0.295  0.0824  0.0794 -0.2322
 4873SOL    HW126078   1.326   1.896   0.212 -0.0876 -0.7204  0.2031
 4873SOL    HW226079   1.439   1.903   0.302  0.5684  1.3095 -0.5358
 4874SOL     OW26080   1.995   0.525   8.161  0.0276 -0.4149  0.0080
 4874SOL    HW126081   2.089   0.521   8.145 -0.1465 -0.5877 -0.9533
 4874SOL    HW226082   1.964   0.600   8.111  0.4384  0.6201  1.3105
 4875SOL     OW26083   0.755   3.001   4.407 -0.5062 -0.7162 -0.0408
 4875SOL    HW126084   0.782   2.919   4.449 -0.0359 -0.6984 -0.3096
 4875SOL    HW226085   0.768   3.056   4.484 -0.2763 -1.5896  0.5441
 4876SOL     OW26086   3.389   3.747   5.242  0.4277 -0.0871 -0.6052
 4876SOL    HW126087   3.429   3.699   5.169 -0.2012 -0.7297 -0.5242
 4876SOL    HW226088   3.449   3.822   5.244 -0.0618  0.2787  0.6328
 4877SOL     OW26089   0.010   0.051   1.828  0.3917  0.4462 -0.3856
 4877SOL    HW126090   0.055   4.719   1.893  0.4652  0.9207 -0.0334
 4877SOL    HW226091   4.641   0.042   1.852  0.8750 -0.2389  1.2129
 4878SOL     OW26092   0.655   0.181  16.638 -0.0084 -0.0554 -0.4133
 4878SOL    HW126093   0.626   0.211  16.551 -0.2243  1.2780  0.1226
 4878SOL    HW226094   0.572   0.147  16.671  0.9526 -0.4720  1.5619
 4879SOL     OW26095   2.596   3.955   3.961  0.1410  0.3725 -0.0494
 4879SOL    HW126096   2.560   4.040   3.935 -1.5637 -0.3082  0.0767
 4879SOL    HW226097   2.650   3.937   3.884  1.0700  0.9473  0.4606
 4880SOL     OW26098   0.086   1.711   5.824 -0.5898 -0.2596  0.0655
 4880SOL    HW126099   0.173   1.674   5.814 -0.8842 -0.9053 -0.0958
 4880SOL    HW226100   0.032   1.637   5.849 -1.0679  0.0006 -0.1950
 4881SOL     OW26101   3.619   0.565  13.123 -0.3818 -0.7245 -0.3709
 4881SOL    HW126102   3.548   0.564  13.059  0.8636  1.3117 -1.7853
 4881SOL    HW226103   3.570   0.607  13.194  0.3302  0.4074 -0.5455
 4882SOL     OW26104   3.024   2.940   8.475  0.7638  0.2708  0.5141
 4882SOL    HW126105   3.020   3.002   8.547  0.7911  1.0084 -0.1183
 4882SOL    HW226106   3.022   2.984   8.389  1.8293 -0.2818  0.2108
 4883SOL     OW26107   2.668   3.995   3.707  0.3847  0.1761 -0.5906
 4883SOL    HW126108   2.611   3.952   3.643 -1.7629  1.4042  0.5099
 4883SOL    HW226109   2.757   3.965   3.686  0.4671  0.8281 -1.1768
 4884SOL     OW26110   3.685   1.179   2.867  0.4874  0.1979 -0.3003
 4884SOL    HW126111   3.635   1.098   2.867  0.7191  0.0589 -0.6847
 4884SOL    HW226112   3.685   1.218   2.780  3.9119 -0.4168 -0.5690
 4885SOL     OW26113   1.061   2.304   7.695 -0.2295 -0.5178 -0.2499
 4885SOL    HW126114   1.131   2.248   7.728  2.0543  1.9143 -0.9890
 4885SOL    HW226115   1.015   2.326   7.776  2.1957  0.7695  0.7588
 4886SOL     OW26116   2.448   3.653   2.839 -0.3327 -0.1211  0.0975
 4886SOL    HW126117   2.462   3.584   2.904  0.7265  1.0844  1.1459
 4886SOL    HW226118   2.481   3.601   2.767  0.3560 -2.5088  2.1368
 4887SOL     OW26119   3.946   3.223  15.995 -0.4491  0.4091 -0.0980
 4887SOL    HW126120   3.997   3.299  16.022  2.4533 -0.7000 -2.3878
 4887SOL    HW226121   3.898   3.259  15.920  0.5124  0.1712 -0.8341
 4888SOL     OW26122   1.443   0.821   5.657 -0.4433 -0.3651 -0.2276
 4888SOL    HW126123   1.350   0.808   5.677 -0.1168 -1.8429  0.3334
 4888SOL    HW226124   1.470   0.735   5.625 -0.8188 -1.0724  1.3615
 4889SOL     OW26125   1.618   1.224  12.480  0.4160  0.4049  0.2446
 4889SOL    HW126126   1.557   1.152  12.495  0.9642 -0.1394 -0.1050
 4889SOL    HW226127   1.685   1.174  12.433  0.1619 -2.3094  2.6991
 4890SOL     OW26128   3.646   1.703  14.696  0.4228 -0.0730  0.0944
 4890SOL    HW126129   3.706   1.649  14.747 -3.1281 -0.6998  3.5822
 4890SOL    HW226130   3.689   1.787  14.710 -1.1327  0.9000 -1.0557
 4891SOL     OW26131   0.289   3.181   4.961 -0.0012 -0.2709 -0.5646
 4891SOL    HW126132   0.200   3.213   4.973  0.7868  2.0315 -0.7140
 4891SOL    HW226133   0.336   3.265   4.957  0.0061 -0.1462  1.9119
 4892SOL     OW26134   4.438   1.122   7.994 -0.3656 -0.3350 -0.0429
 4892SOL    HW126135   4.495   1.187   8.035  0.8309 -0.5455 -1.3608
 4892SOL    HW226136   4.380   1.095   8.066  0.4585  2.2052  1.5718
 4893SOL     OW26137   2.284   3.990  15.351  0.0303  0.1637 -0.2628
 4893SOL    HW126138   2.366   4.020  15.389 -0.6345  0.6966  0.7506
 4893SOL    HW226139   2.317   3.937  15.279 -0.5984 -1.6183  0.7379
 4894SOL     OW26140   4.145   3.346   7.871 -0.0037 -0.3694  0.2113
 4894SOL    HW126141   4.150   3.324   7.778  0.5738 -1.8034  0.5797
 4894SOL    HW226142   4.219   3.292   7.899  1.0020  1.0901  0.3426
 4895SOL     OW26143   4.424   2.397   0.108 -0.4321  0.1389 -0.2961
 4895SOL    HW126144   4.464   2.402   0.195 -0.5585  2.5554 -0.3887
 4895SOL    HW226145   4.493   2.430   0.051 -2.6692  0.0592 -3.0216
 4896SOL     OW26146   4.064   1.638   8.767  0.3220 -0.0121  0.2088
 4896SOL    HW126147   4.046   1.720   8.720  1.6026 -0.0844 -0.4020
 4896SOL    HW226148   3.990   1.581   8.745 -0.4362  0.7758  0.7188
 4897SOL     OW26149   3.341   2.228   6.857  0.2137  0.2807 -0.2887
 4897SOL    HW126150   3.336   2.302   6.917  1.7523 -1.1270  1.5417
 4897SOL    HW226151   3.420   2.237   6.804 -1.5254  0.7115 -2.8509
 4898SOL     OW26152   0.437   0.048   8.816  0.0026  0.2105  0.1904
 4898SOL    HW126153   0.508   4.708   8.805 -0.4386 -0.2583 -0.0017
 4898SOL    HW226154   0.379   4.712   8.865 -3.0400  1.6935 -1.6621
 4899SOL     OW26155   4.145   2.955  17.001  0.7062 -0.3782 -0.1764
 4899SOL    HW126156   4.169   2.958  16.908 -1.4550  5.0625 -0.5700
 4899SOL    HW226157   4.236   2.941  17.029 -0.2191 -1.1784  2.4203
 4900SOL     OW26158   3.385   1.841   3.158  0.0456  0.1619 -0.0837
 4900SOL    HW126159   3.326   1.896   3.210 -0.3706 -0.2654 -0.1074
 4900SOL    HW226160   3.327   1.781   3.112  0.9274  0.2105 -1.2719
 4901SOL     OW26161   0.090   4.374  11.349 -0.0191  0.5158 -0.0052
 4901SOL    HW126162   0.089   4.449  11.408 -2.5880  0.5327 -0.0424
 4901SOL    HW226163   0.178   4.386  11.315  0.3854 -1.3302  0.3746
 4902SOL     OW26164   0.158   3.684  15.324  0.0127 -0.0856 -0.2047
 4902SOL    HW126165   0.135   3.726  15.241  0.6750  1.7394  0.5532
 4902SOL    HW226166   0.108   3.731  15.390  0.4714  0.2268 -0.0848
 4903SOL     OW26167   3.182   0.505   7.127 -0.3283 -0.2349 -0.4824
 4903SOL    HW126168   3.269   0.528   7.092  0.3579  1.6452  2.4548
 4903SOL    HW226169   3.128   0.521   7.050  1.3263  0.7360 -1.4416
 4904SOL     OW26170   0.848   3.019   3.671 -0.3853 -0.2176  0.5287
 4904SOL    HW126171   0.857   3.114   3.664 -1.4226 -0.3066 -2.0487
 4904SOL    HW226172   0.781   3.000   3.605  0.8833 -1.8630 -0.2862
 4905SOL     OW26173   1.421   2.002   8.256  0.4349  0.1250 -0.4770
 4905SOL    HW126174   1.436   2.052   8.336 -1.2944 -0.1819  0.0339
 4905SOL    HW226175   1.410   1.909   8.279 -1.5438  0.3607 -0.4460
 4906SOL     OW26176   3.757   1.067   6.716  0.4165 -0.2146 -0.3081
 4906SOL    HW126177   3.723   1.129   6.651 -1.7764 -2.0174 -0.9069
 4906SOL    HW226178   3.677   1.016   6.699 -1.2006  1.8906  1.0088
 4907SOL     OW26179   1.783   0.350   5.936  0.7121 -0.0853 -0.0574
 4907SOL    HW126180   1.857   0.321   5.990  0.9060 -1.1413 -0.8902
 4907SOL    HW226181   1.773   0.269   5.885 -0.2407  1.3673 -2.1541
 4908SOL     OW26182   1.740   4.227   4.734  0.1248 -0.3300 -0.3796
 4908SOL    HW126183   1.770   4.141   4.764  1.4695  0.0172 -0.7340
 4908SOL    HW226184   1.799   4.243   4.660  1.0049 -0.9488  0.1872
 4909SOL     OW26185   0.372   2.962   4.113  0.0188 -0.7520 -0.5252
 4909SOL    HW126186   0.438   2.928   4.052 -0.2833 -1.8687 -0.2379
 4909SOL    HW226187   0.410   2.972   4.200 -1.6244 -3.6185  0.5238
 4910SOL     OW26188   3.353   3.452  10.718 -0.6017 -0.1825  0.4789
 4910SOL    HW126189   3.298   3.462  10.795 -0.1348 -2.2195  1.0717
 4910SOL    HW226190   3.434   3.498  10.741 -0.4893  0.0796 -0.4063
 4911SOL     OW26191   1.919   0.051   6.624  0.0348 -0.0892  0.6255
 4911SOL    HW126192   1.923   0.009   6.539  0.4242  1.2975 -0.0441
 4911SOL    HW226193   1.823   0.052   6.634 -0.2720  1.9630 -2.7852
 4912SOL     OW26194   1.051   4.296   0.970  0.1255 -0.4219 -0.2002
 4912SOL    HW126195   1.038   4.391   0.982 -1.6810 -0.4514 -1.9901
 4912SOL    HW226196   1.146   4.283   0.970  0.0708 -0.7767 -0.5499
 4913SOL     OW26197   0.162   0.111   1.593 -0.1324 -0.0332  0.2765
 4913SOL    HW126198   0.110   0.087   1.670 -0.4955  2.0945  0.7077
 4913SOL    HW226199   0.235   0.053   1.616  0.6192  1.2947  1.2961
 4914SOL     OW26200   2.580   4.305   3.348 -0.5887 -0.0661 -0.4500
 4914SOL    HW126201   2.616   4.277   3.432 -1.5596 -1.3640 -0.4742
 4914SOL    HW226202   2.633   4.254   3.287  2.2044 -1.2642  2.9552
 4915SOL     OW26203   3.977   1.877  17.436  0.1074  0.4790 -0.0230
 4915SOL    HW126204   3.898   1.929  17.450  0.4972  1.1000 -0.1254
 4915SOL    HW226205   4.044   1.935  17.471  0.0653  1.0575 -0.8915
 4916SOL     OW26206   0.441   3.554  11.082  0.4114 -0.0523  0.0168
 4916SOL    HW126207   0.396   3.477  11.045  0.6111  0.3558 -1.0903
 4916SOL    HW226208   0.374   3.618  11.106  1.4908  1.8508 -2.1116
 4917SOL     OW26209   4.448   3.400  13.868  0.3697 -0.1806  0.3508
 4917SOL    HW126210   4.375   3.457  13.892 -0.2002 -0.6676 -0.2534
 4917SOL    HW226211   4.496   3.465  13.817 -0.5343 -0.6823 -1.1277
 4918SOL     OW26212   3.756   3.693   3.062  0.2438 -0.9095 -0.1000
 4918SOL    HW126213   3.670   3.650   3.062  0.1270 -0.6615  1.0721
 4918SOL    HW226214   3.798   3.639   3.129  2.3668  0.8224 -0.0491
 4919SOL     OW26215   1.848   2.008  13.320 -0.0705  0.3555 -0.8138
 4919SOL    HW126216   1.764   1.994  13.365  0.6642  0.2582  0.5388
 4919SOL    HW226217   1.861   2.102  13.325 -0.5643  0.4248 -0.8197
 4920SOL     OW26218   3.269   2.267  13.163  0.3668  0.4647  0.1443
 4920SOL    HW126219   3.187   2.302  13.130 -0.2358 -1.2199 -0.1316
 4920SOL    HW226220   3.259   2.290  13.255  4.0786  1.0423  0.4029
 4921SOL     OW26221   3.204   3.854   0.783  0.3808  0.3777  0.0299
 4921SOL    HW126222   3.288   3.878   0.744 -0.5708  0.6195 -1.8934
 4921SOL    HW226223   3.208   3.894   0.870  1.9407 -0.0996  0.1728
 4922SOL     OW26224   4.037   0.643   7.916 -0.1618 -0.2040  0.8111
 4922SOL    HW126225   4.087   0.633   7.835 -1.4881 -1.3765  0.1403
 4922SOL    HW226226   4.036   0.739   7.915 -0.0461 -0.2133 -0.7435
 4923SOL     OW26227   0.740   1.744   1.919 -0.4861 -0.4236 -0.3570
 4923SOL    HW126228   0.729   1.787   1.834  0.2596 -0.2743 -0.3809
 4923SOL    HW226229   0.655   1.753   1.962 -0.5151 -0.4914 -0.4001
 4924SOL     OW26230   4.642   2.247   6.903 -0.5946  0.0517 -0.2038
 4924SOL    HW126231   4.587   2.291   6.838 -1.6707 -2.8622 -1.2682
 4924SOL    HW226232   4.707   2.219   6.839 -1.3958  1.6851 -1.7124
 4925SOL     OW26233   2.812   0.095   1.158  0.2671 -0.2946  0.3288
 4925SOL    HW126234   2.814   0.153   1.082  0.5501  0.5676  0.9779
 4925SOL    HW226235   2.832   0.163   1.223  0.9125  0.3497 -0.5385
 4926SOL     OW26236   3.023   1.460   1.555  0.2565 -0.8101 -0.5994
 4926SOL    HW126237   3.032   1.376   1.599  0.4252 -0.2721  0.4034
 4926SOL    HW226238   3.103   1.506   1.581 -0.7252  1.5129 -1.6342
 4927SOL     OW26239   2.175   0.507   1.828 -0.3925 -0.3414 -0.4439
 4927SOL    HW126240   2.267   0.520   1.803 -0.3925  1.3101  0.4257
 4927SOL    HW226241   2.185   0.529   1.920  0.5766  0.9464 -0.8472
 4928SOL     OW26242   3.570   2.469  12.321 -0.7615  0.6321  0.5711
 4928SOL    HW126243   3.595   2.377  12.311  0.2533  1.3001 -3.0436
 4928SOL    HW226244   3.484   2.464  12.361 -0.4218  0.6480  1.3132
 4929SOL     OW26245   3.358   0.970   3.449  0.1823 -0.2295  0.7468
 4929SOL    HW126246   3.356   1.063   3.471  0.1822 -0.3173  1.1086
 4929SOL    HW226247   3.356   0.985   3.354  2.6254  0.5420  0.8245
 4930SOL     OW26248   2.050   1.182   1.153 -0.4080  0.7623 -0.2899
 4930SOL    HW126249   1.993   1.106   1.140  0.3718 -0.3344  2.8479
 4930SOL    HW226250   2.049   1.202   1.059 -0.5545 -1.4053 -0.7620
 4931SOL     OW26251   3.120   0.277  14.068  0.1818  0.2004 -0.4080
 4931SOL    HW126252   3.093   0.227  14.146 -2.1514  2.1669  0.0463
 4931SOL    HW226253   3.206   0.240  14.049  0.6646  0.5410  1.1382
 4932SOL     OW26254   3.367   2.361  10.465  0.4001 -0.2536  0.3829
 4932SOL    HW126255   3.311   2.438  10.457  0.5728 -0.0305  1.3216
 4932SOL    HW226256   3.407   2.366  10.551  0.5101 -2.9709  0.5106
 4933SOL     OW26257   1.143   2.805   2.046 -0.4040  0.3461 -0.1141
 4933SOL    HW126258   1.157   2.850   2.129  2.7861 -0.7536 -0.0222
 4933SOL    HW226259   1.231   2.801   2.009  0.3660 -0.3316  1.7723
 4934SOL     OW26260   2.791   0.351   5.710 -0.0868  0.0991 -0.3971
 4934SOL    HW126261   2.713   0.342   5.764 -0.7984  1.0528 -1.2657
 4934SOL    HW226262   2.820   0.438   5.736  1.1886  0.0138 -1.5499
 4935SOL     OW26263   2.869   2.798   1.303  0.0351 -0.0445  0.5594
 4935SOL    HW126264   2.848   2.821   1.212 -0.0657  1.6706  1.0066
 4935SOL    HW226265   2.864   2.703   1.304  0.1830 -0.1094 -2.8403
 4936SOL     OW26266   2.270   2.750   6.601  0.3730 -0.2670 -0.2380
 4936SOL    HW126267   2.354   2.743   6.555  0.5970 -1.7941  0.4114
 4936SOL    HW226268   2.239   2.830   6.558  0.8530 -0.7276 -1.4282
 4937SOL     OW26269   2.713   0.064   6.737 -0.4877 -0.2805 -0.3433
 4937SOL    HW126270   2.659   0.027   6.667 -0.8666 -0.1933 -0.0931
 4937SOL    HW226271   2.652   0.127   6.774 -0.6912 -1.0738  0.6670
 4938SOL     OW26272   3.356   0.026   6.428 -0.0429  0.1319  0.6986
 4938SOL    HW126273   3.344   0.037   6.334 -2.6687 -0.4978  0.9607
 4938SOL    HW226274   3.450   0.045   6.432 -0.3472  1.4829  1.2586
 4939SOL     OW26275   3.034   2.462   6.840  0.1727 -0.2670  0.1638
 4939SOL    HW126276   3.113   2.454   6.786  1.3820 -2.7119  2.2981
 4939SOL    HW226277   2.997   2.374   6.840 -0.1375 -0.1314  1.8125
 4940SOL     OW26278   1.368   2.333   2.343  0.5680 -0.0378  0.3224
 4940SOL    HW126279   1.369   2.293   2.255 -1.3051  0.1644  0.2127
 4940SOL    HW226280   1.416   2.413   2.324  0.9724 -0.7662 -1.7954
 4941SOL     OW26281   4.697   4.263   7.330  0.2039 -0.2409  0.2561
 4941SOL    HW126282   0.045   4.203   7.355 -0.2127 -0.4734  0.8400
 4941SOL    HW226283   4.718   4.334   7.390  1.7462  0.2426 -0.8265
 4942SOL     OW26284   3.347   1.375   0.235  0.1065  0.3371  0.2981
 4942SOL    HW126285   3.382   1.293   0.271 -2.1261  0.5819  2.9632
 4942SOL    HW226286   3.298   1.410   0.309  0.4292  0.6328  0.3767
 4943SOL     OW26287   1.292   1.147   5.119 -0.2918 -0.2851  0.5939
 4943SOL    HW126288   1.272   1.201   5.043 -0.1939  0.5657  1.1768
 4943SOL    HW226289   1.206   1.128   5.156 -1.3346  3.2944  0.0105
 4944SOL     OW26290   1.640   0.632   7.200  0.3593 -0.1217  0.3950
 4944SOL    HW126291   1.702   0.698   7.168 -0.0068  0.8606  1.7108
 4944SOL    HW226292   1.691   0.599   7.274 -1.3690  2.6103  2.7992
 4945SOL     OW26293   2.797   3.182   1.917  0.1644  0.4114 -0.2041
 4945SOL    HW126294   2.740   3.105   1.918  2.2388 -1.1482 -0.8219
 4945SOL    HW226295   2.871   3.152   1.970 -0.1408  1.8695  1.0581
 4946SOL     OW26296   3.200   1.067  16.539  0.2029  0.5746  0.5067
 4946SOL    HW126297   3.183   0.973  16.540 -0.9938  0.7840 -0.0284
 4946SOL    HW226298   3.227   1.083  16.448  0.2044 -2.0795  0.0611
 4947SOL     OW26299   0.255   0.095   7.457  0.2245 -0.6138 -0.5351
 4947SOL    HW126300   0.350   0.091   7.456  0.2098 -0.7477 -1.1671
 4947SOL    HW226301   0.238   0.116   7.549  1.1035 -0.2489 -0.4606
 4948SOL     OW26302   0.976   2.517   7.567 -0.4108  0.3629 -0.1515
 4948SOL    HW126303   1.026   2.440   7.594 -0.3339  0.5112  0.1253
 4948SOL    HW226304   0.890   2.513   7.608 -0.9215 -0.0609 -1.2635
 4949SOL     OW26305   4.555   3.894  10.258  0.0907 -0.1731 -0.0790
 4949SOL    HW126306   4.595   3.901  10.172  1.3261  2.2032  0.6918
 4949SOL    HW226307   4.530   3.984  10.277  0.6272 -0.4748  2.0788
 4950SOL     OW26308   0.744   3.164   4.945 -0.2526  0.2805  0.8576
 4950SOL    HW126309   0.785   3.151   4.859 -1.7836  1.5977 -0.0714
 4950SOL    HW226310   0.769   3.255   4.958  0.4846  0.1059  0.6528
 4951SOL     OW26311   4.079   1.981  17.138 -0.5477  0.1205  0.4852
 4951SOL    HW126312   4.095   2.076  17.143 -0.0565  0.0831 -0.3189
 4951SOL    HW226313   4.117   1.949  17.219 -1.0759 -0.6939  0.4030
 4952SOL     OW26314   3.808   2.681   0.459 -0.0321  0.1938  0.0424
 4952SOL    HW126315   3.784   2.745   0.526  1.0614  1.7215 -1.0222
 4952SOL    HW226316   3.756   2.610   0.496  0.2789  0.1942  0.4770
 4953SOL     OW26317   0.280   1.442   6.307 -0.7724  0.2433  0.6697
 4953SOL    HW126318   0.268   1.425   6.214 -0.0699 -1.7075  0.9453
 4953SOL    HW226319   0.348   1.508   6.294  0.4400 -0.4007  3.5540
 4954SOL     OW26320   4.419   4.426  15.012 -0.0136 -0.4312 -0.1854
 4954SOL    HW126321   4.476   4.418  14.936  0.0445 -1.7210  0.0002
 4954SOL    HW226322   4.351   4.359  15.002 -0.5443  0.2646 -1.3024
 4955SOL     OW26323   0.685   2.525   7.688 -0.0050 -0.0691 -0.3016
 4955SOL    HW126324   0.638   2.585   7.629  0.5761  2.7378  2.0698
 4955SOL    HW226325   0.627   2.528   7.764  2.0235  0.0145  1.2264
 4956SOL     OW26326   1.778   1.308   4.155  0.4775 -0.1680 -0.2629
 4956SOL    HW126327   1.705   1.247   4.164  0.3847 -0.0594 -0.2748
 4956SOL    HW226328   1.846   1.286   4.218 -0.5113  0.5043  1.0372
 4957SOL     OW26329   1.004   2.854  14.154  0.6562  0.0590  0.3489
 4957SOL    HW126330   0.930   2.814  14.200 -0.6145  1.5325 -0.4101
 4957SOL    HW226331   1.017   2.927  14.215 -0.5770  0.3964  0.1947
 4958SOL     OW26332   1.314   1.956  14.516  0.4252 -0.0557  0.3479
 4958SOL    HW126333   1.312   1.902  14.595  3.6088 -1.0977 -0.2674
 4958SOL    HW226334   1.409   1.951  14.503  0.6807  3.4089  0.8430
 4959SOL     OW26335   0.695   0.531  17.169 -0.0106  0.1607 -0.3347
 4959SOL    HW126336   0.699   0.495  17.081  0.7127 -2.8125  0.8789
 4959SOL    HW226337   0.715   0.455  17.225 -2.9516  0.9793  1.7918
 4960SOL     OW26338   2.705   4.530   7.842 -0.2698 -0.9281 -0.7471
 4960SOL    HW126339   2.775   4.512   7.906  1.8457  0.5137 -2.6417
 4960SOL    HW226340   2.697   4.443   7.803  2.1566 -1.2903 -0.4420
 4961SOL     OW26341   3.320   2.797   8.479 -0.2087 -0.5600  0.4709
 4961SOL    HW126342   3.394   2.855   8.461 -1.3978  1.1142  0.9683
 4961SOL    HW226343   3.275   2.854   8.542  0.2588  0.7795 -0.4095
 4962SOL     OW26344   3.273   2.230   0.425  0.0076  0.0721 -0.0311
 4962SOL    HW126345   3.177   2.236   0.423 -0.0274  0.2573  3.3015
 4962SOL    HW226346   3.303   2.293   0.489  0.1913  0.2630 -0.3043
 4963SOL     OW26347   3.193   4.184  11.639  0.4934 -0.0762 -0.3115
 4963SOL    HW126348   3.248   4.258  11.612 -0.5049  1.2139  1.2388
 4963SOL    HW226349   3.165   4.150  11.555 -0.0178 -0.3257 -0.0370
 4964SOL     OW26350   1.823   4.403   3.348  0.1666  0.1374  0.0401
 4964SOL    HW126351   1.880   4.333   3.315 -0.5171 -1.1402  1.5469
 4964SOL    HW226352   1.883   4.461   3.396  0.4643 -0.7413  0.7441
 4965SOL     OW26353   2.704   3.026   8.882 -0.0805 -0.4555  0.3755
 4965SOL    HW126354   2.724   2.979   8.963 -0.3885 -1.2924 -0.0320
 4965SOL    HW226355   2.755   2.980   8.815  0.1040  1.8489 -1.0622
 4966SOL     OW26356   3.035   0.552   6.906  0.4870  0.2866 -1.2309
 4966SOL    HW126357   3.033   0.575   6.813 -2.3332 -0.0083 -1.2438
 4966SOL    HW226358   2.950   0.588   6.931 -0.6487 -0.2919 -4.2138
 4967SOL     OW26359   2.772   1.885   6.189  0.2158 -0.2424  0.5070
 4967SOL    HW126360   2.769   1.976   6.220 -4.2121 -0.4720  0.8771
 4967SOL    HW226361   2.683   1.888   6.153  0.0755  0.6649  0.9364
 4968SOL     OW26362   2.011   1.018   6.108  0.0509 -0.0823  0.3233
 4968SOL    HW126363   2.008   1.022   6.012  1.2715 -0.0347  0.2936
 4968SOL    HW226364   1.922   0.986   6.123 -0.0320  0.2567  0.5454
 4969SOL     OW26365   2.172   0.942   2.400  1.0420  0.7416  0.0639
 4969SOL    HW126366   2.223   0.915   2.323 -0.1974  2.2130 -1.2675
 4969SOL    HW226367   2.193   1.035   2.397  1.4405  0.7430  2.5608
 4970SOL     OW26368   4.542   1.758   5.684 -0.4465 -0.1715  0.1028
 4970SOL    HW126369   4.479   1.824   5.715 -0.7021  0.1601 -1.1349
 4970SOL    HW226370   4.612   1.765   5.749 -0.8527 -0.4458  0.5739
 4971SOL     OW26371   2.280   2.643   4.833 -0.2391 -0.1504 -0.3793
 4971SOL    HW126372   2.294   2.572   4.770 -0.6212  0.2971 -0.9591
 4971SOL    HW226373   2.268   2.595   4.915 -0.6373 -0.8043 -0.8119
 4972SOL     OW26374   4.577   2.242   3.080 -0.4828 -0.0728  0.1144
 4972SOL    HW126375   4.658   2.231   3.031  0.5898 -1.1641  2.1354
 4972SOL    HW226376   4.603   2.211   3.167  1.7008 -0.3195 -0.6385
 4973SOL     OW26377   3.931   1.564  10.617 -0.5035  0.2400 -0.0203
 4973SOL    HW126378   3.944   1.530  10.528 -0.7098  0.4661 -0.1351
 4973SOL    HW226379   3.843   1.545  10.650  0.5362 -2.2362  1.3066
 4974SOL     OW26380   2.232   0.627   2.078  0.4482 -0.2385 -0.3486
 4974SOL    HW126381   2.172   0.602   2.149 -1.4965 -0.6258 -2.1381
 4974SOL    HW226382   2.306   0.668   2.123 -0.3493  0.0448  0.7296
 4975SOL     OW26383   4.520   0.052  13.421 -0.2996 -0.1061  0.5264
 4975SOL    HW126384   4.504   4.721  13.343  0.0492  1.3863 -0.5564
 4975SOL    HW226385   4.580   0.110  13.375 -2.4329  1.4336 -0.2895
 4976SOL     OW26386   1.195   4.381   5.761  0.1240 -0.2054  0.0000
 4976SOL    HW126387   1.198   4.464   5.713 -0.7245 -0.6662 -0.8563
 4976SOL    HW226388   1.114   4.349   5.722  0.7777 -1.5679 -0.2210
 4977SOL     OW26389   0.290   0.571   4.399 -0.7499  0.4540  0.2287
 4977SOL    HW126390   0.233   0.571   4.322  1.1689 -0.7000 -1.1806
 4977SOL    HW226391   0.299   0.663   4.425 -1.0237  0.5354  0.0378
 4978SOL     OW26392   1.728   2.453  11.595  0.6948 -0.6723  0.2614
 4978SOL    HW126393   1.686   2.386  11.648  1.7638 -1.4082  0.1859
 4978SOL    HW226394   1.649   2.500  11.568  0.7006 -1.2684 -0.7815
 4979SOL     OW26395   1.891   2.697   8.898  0.2567 -0.2426  0.8231
 4979SOL    HW126396   1.915   2.706   8.806  0.3683 -2.2445  0.6615
 4979SOL    HW226397   1.864   2.606   8.908 -0.5577 -0.1797 -0.7340
 4980SOL     OW26398   3.837   1.739   0.032  0.2654  0.2137  0.4518
 4980SOL    HW126399   3.879   1.822   0.012  0.0021  0.3809  0.5860
 4980SOL    HW226400   3.743   1.754   0.019 -0.3476 -1.5191  2.8018
 4981SOL     OW26401   3.534   2.373   2.927  0.1912 -0.0827 -0.1923
 4981SOL    HW126402   3.613   2.320   2.939  3.3094  4.1141 -2.1958
 4981SOL    HW226403   3.517   2.378   2.833  1.0683  1.0567 -0.2836
 4982SOL     OW26404   1.551   3.045  17.454  0.0567 -0.2115  0.1469
 4982SOL    HW126405   1.614   3.111  17.483 -0.9003  0.1052  1.5156
 4982SOL    HW226406   1.541   3.074  17.364  1.4965  1.2688  0.4598
 4983SOL     OW26407   2.808   1.931  10.201  0.3023 -0.0837  0.3263
 4983SOL    HW126408   2.850   1.885  10.129 -2.2949 -0.6608 -0.8257
 4983SOL    HW226409   2.886   1.948  10.254  0.9050  0.9029 -0.8658
 4984SOL     OW26410   0.683   1.979  17.583 -0.4011 -0.1038  0.0228
 4984SOL    HW126411   0.751   2.043  17.604 -1.2568  0.7531  0.1346
 4984SOL    HW226412   0.697   1.900  17.635  1.5261  1.3707  1.7669
 4985SOL     OW26413   3.484   2.491   4.702  0.5752  0.6127  0.0448
 4985SOL    HW126414   3.447   2.432   4.768  1.1478  0.2702  0.0579
 4985SOL    HW226415   3.445   2.458   4.621 -0.3710 -0.3096  0.8711
 4986SOL     OW26416   4.329   1.119   7.751 -0.3796  0.4497 -0.6642
 4986SOL    HW126417   4.342   1.102   7.845  0.0388 -0.7129 -0.9320
 4986SOL    HW226418   4.327   1.032   7.712  2.0737 -0.5033  1.3043
 4987SOL     OW26419   4.433   3.121  12.823  0.6789  0.3913 -0.0147
 4987SOL    HW126420   4.375   3.146  12.895 -0.3843 -1.1552 -0.3302
 4987SOL    HW226421   4.394   3.170  12.750  0.5584  2.5316  1.4857
 4988SOL     OW26422   2.369   4.290  16.703 -0.1818  0.2991  0.0081
 4988SOL    HW126423   2.279   4.257  16.699  0.3069 -1.3517  2.6459
 4988SOL    HW226424   2.359   4.382  16.680  0.2864 -0.3359 -2.8123
 4989SOL     OW26425   2.204   0.940  12.569  0.5094  0.2116  0.0674
 4989SOL    HW126426   2.210   1.034  12.547  1.5703  0.2013  0.2945
 4989SOL    HW226427   2.224   0.893  12.489 -0.0174 -0.6520  0.4497
 4990SOL     OW26428   2.020   2.452   4.580  0.2707 -0.2015  0.6416
 4990SOL    HW126429   1.988   2.497   4.658  1.2967  1.5032  0.0964
 4990SOL    HW226430   1.940   2.430   4.532 -0.7122  1.6788  1.4257
 4991SOL     OW26431   4.163   4.588  14.135 -0.3759 -0.3836 -0.3382
 4991SOL    HW126432   4.228   4.573  14.204 -0.1444  1.4738 -0.1381
 4991SOL    HW226433   4.191   4.675  14.106  0.0604  0.3284  2.1913
 4992SOL     OW26434   0.099   3.866   1.148 -0.1374 -0.1660 -0.3598
 4992SOL    HW126435   0.149   3.903   1.221  1.4962  2.2091 -2.6478
 4992SOL    HW226436   0.147   3.784   1.139  0.9462  0.3664  0.5156
 4993SOL     OW26437   3.627   0.161   5.796  0.8714  0.3547  0.8672
 4993SOL    HW126438   3.588   0.227   5.738 -0.6534 -0.8421  0.5408
 4993SOL    HW226439   3.716   0.172   5.762  1.8540 -1.0597  2.9482
 4994SOL     OW26440   1.417   2.642   9.942  0.4411  0.0011 -0.2927
 4994SOL    HW126441   1.399   2.680  10.029  0.0195 -3.0297  0.9355
 4994SOL    HW226442   1.434   2.551   9.965 -1.2470 -0.2998 -0.2148
 4995SOL     OW26443   1.537   3.161   6.124 -0.0607  0.3227 -0.2642
 4995SOL    HW126444   1.617   3.213   6.127  0.8084 -0.8543 -2.2819
 4995SOL    HW226445   1.527   3.141   6.030 -0.8052  2.3157 -0.6243
 4996SOL     OW26446   3.947   3.770  17.195 -0.2175  0.3424 -0.0843
 4996SOL    HW126447   3.957   3.680  17.166 -0.5564  0.7619 -1.5088
 4996SOL    HW226448   4.011   3.770  17.266 -1.1076 -1.8332  0.6963
 4997SOL     OW26449   1.888   0.019   8.015  0.3205  0.9740  0.2909
 4997SOL    HW126450   1.955   0.077   8.052 -0.1736  2.4897 -1.1945
 4997SOL    HW226451   1.878   4.679   8.087 -1.1207 -0.7148 -1.4060
 4998SOL     OW26452   0.076   2.752   6.646 -0.0623 -0.2247  0.4006
 4998SOL    HW126453   0.157   2.803   6.642  1.8907 -3.1732  2.2026
 4998SOL    HW226454   0.034   2.770   6.562 -0.3032 -1.5712  0.2227
 4999SOL     OW26455   0.033   1.100   7.718  0.6556  0.1200  0.3336
 4999SOL    HW126456   4.703   1.022   7.734  0.8403  0.6106  3.3742
 4999SOL    HW226457   0.115   1.063   7.685 -1.2484 -2.2573 -1.7422
 5000SOL     OW26458   0.225   1.663   7.961  0.0547  0.0167  0.0108
 5000SOL    HW126459   0.287   1.723   8.002 -0.3404  0.3106  0.1687
 5000SOL    HW226460   0.232   1.673   7.866 -1.7124 -1.2361 -0.2381
 5001SOL     OW26461   1.856   0.427   4.208 -0.2234 -0.0367 -0.7074
 5001SOL    HW126462   1.777   0.407   4.259 -1.4228  1.3844 -2.0034
 5001SOL    HW226463   1.877   0.336   4.185 -1.3175 -0.3550 -0.4556
 5002SOL     OW26464   3.398   4.405  10.190 -0.6408 -0.5923 -0.0639
 5002SOL    HW126465   3.336   4.366  10.252  0.6194  0.0660  1.6091
 5002SOL    HW226466   3.471   4.355  10.225 -0.1495  0.0539 -0.1641
 5003SOL     OW26467   1.643   2.247   2.869  0.1481  0.2336 -0.1796
 5003SOL    HW126468   1.550   2.254   2.889 -0.2189 -0.2128 -1.7983
 5003SOL    HW226469   1.678   2.223   2.955 -1.7742  3.4311  1.5114
 5004SOL     OW26470   1.494   0.764  11.269 -0.5913  0.1075 -0.1431
 5004SOL    HW126471   1.568   0.741  11.213  0.5999 -1.8166  2.2087
 5004SOL    HW226472   1.420   0.723  11.224 -1.7162  0.6072  1.2669
 5005SOL     OW26473   3.432   2.858   5.218 -0.4495 -0.4584  0.1118
 5005SOL    HW126474   3.373   2.930   5.241 -0.1131 -0.2662  0.3778
 5005SOL    HW226475   3.523   2.876   5.244 -0.5738 -0.7671  0.7508
 5006SOL     OW26476   2.449   2.150   0.289 -0.0128  0.0627  0.1453
 5006SOL    HW126477   2.406   2.123   0.207 -1.0163 -0.5688  0.8858
 5006SOL    HW226478   2.499   2.071   0.307 -1.5969 -0.7836  0.7998
 5007SOL     OW26479   4.032   2.251  17.025 -0.5665 -0.3694  0.4160
 5007SOL    HW126480   4.114   2.288  16.994 -0.7230 -0.5989 -0.2835
 5007SOL    HW226481   3.971   2.260  16.952 -1.3718 -1.4502  0.9415
 5008SOL     OW26482   4.380   0.188   1.720 -0.3392  0.3402 -0.6978
 5008SOL    HW126483   4.466   0.208   1.684  0.6152 -0.8629  0.9617
 5008SOL    HW226484   4.340   0.275   1.708 -1.8449 -0.4023 -1.0671
 5009SOL     OW26485   4.433   2.819   5.776 -0.2064 -0.3453 -0.2026
 5009SOL    HW126486   4.516   2.807   5.729 -0.8386  0.6688 -1.5591
 5009SOL    HW226487   4.386   2.736   5.769  0.8368 -0.7682 -2.1619
 5010SOL     OW26488   0.965   4.582   7.665 -0.0476  0.5904 -0.4559
 5010SOL    HW126489   0.980   4.676   7.654 -1.9863  0.6676 -2.4210
 5010SOL    HW226490   1.050   4.552   7.698 -0.6446  0.9204  1.3689
 5011SOL     OW26491   0.804   0.906   8.526 -0.0140  0.2283 -0.2929
 5011SOL    HW126492   0.878   0.847   8.539 -1.9749 -2.1259  0.0777
 5011SOL    HW226493   0.756   0.855   8.461  2.3418 -0.2308 -1.6800
 5012SOL     OW26494   2.560   4.160   8.908 -0.5245 -0.3119  0.3743
 5012SOL    HW126495   2.557   4.113   8.824  0.8619 -0.9270  0.6824
 5012SOL    HW226496   2.467   4.184   8.905  0.7422  4.3990 -0.9312
 5013SOL     OW26497   3.621   2.378   7.378  0.1792  0.3976 -0.2780
 5013SOL    HW126498   3.595   2.303   7.431 -0.7245  0.6735 -0.3333
 5013SOL    HW226499   3.537   2.424   7.373  1.2379  2.1559 -1.7496
 5014SOL     OW26500   2.153   3.908  15.580 -0.1045 -0.2905 -0.3983
 5014SOL    HW126501   2.192   3.898  15.493  1.2276 -1.2135  0.3041
 5014SOL    HW226502   2.130   3.819  15.607 -3.2229  0.2794 -1.1417
 5015SOL     OW26503   1.409   1.699   7.899 -0.5345  0.7732  0.6984
 5015SOL    HW126504   1.433   1.611   7.872  1.8639  1.1195  1.7548
 5015SOL    HW226505   1.336   1.683   7.959 -1.9526 -1.2820 -1.5600
 5016SOL     OW26506   3.805   2.846   3.430  1.1641  0.2222  0.1345
 5016SOL    HW126507   3.806   2.758   3.393  0.1213  0.0820  0.4430
 5016SOL    HW226508   3.757   2.895   3.364 -0.7082 -1.4142  0.2952
 5017SOL     OW26509   4.557   0.712   3.948 -0.2300  0.6959  0.3555
 5017SOL    HW126510   4.547   0.752   3.862  0.6881 -0.2513 -0.1880
 5017SOL    HW226511   4.551   0.624   3.913  1.3310  1.4127 -1.6849
 5018SOL     OW26512   1.588   1.312  11.721 -0.1238  0.0406 -0.2535
 5018SOL    HW126513   1.617   1.230  11.761 -0.8587 -0.4187 -0.6636
 5018SOL    HW226514   1.575   1.367  11.798 -0.0229 -1.1338  0.5947
 5019SOL     OW26515   1.410   1.390   2.954 -0.6212  0.1328  0.3332
 5019SOL    HW126516   1.340   1.395   2.888 -0.1204 -1.6872 -0.3505
 5019SOL    HW226517   1.364   1.340   3.021 -1.4622  2.0208  1.1495
 5020SOL     OW26518   2.525   0.958   6.915 -0.1694 -0.3565 -0.4568
 5020SOL    HW126519   2.524   1.053   6.925  0.9346 -0.4517  0.6668
 5020SOL    HW226520   2.506   0.924   7.003 -0.8547  0.4383 -0.2992
 5021SOL     OW26521   0.289   0.883  15.403  0.0934 -0.1589 -0.2778
 5021SOL    HW126522   0.256   0.847  15.321  0.8224 -0.9707 -0.2143
 5021SOL    HW226523   0.210   0.920  15.441  0.4833  0.8492 -0.4439
 5022SOL     OW26524   2.206   1.637   8.823  0.1553  0.0332  0.1526
 5022SOL    HW126525   2.271   1.582   8.780  0.0791 -0.7831  1.1026
 5022SOL    HW226526   2.256   1.697   8.878 -1.3629  0.3609  1.1747
 5023SOL     OW26527   0.019   2.381   5.389  0.4539 -0.5189 -0.5141
 5023SOL    HW126528   4.660   2.422   5.420  0.1522  0.6892 -2.8753
 5023SOL    HW226529   0.083   2.452   5.394 -0.6271  0.3479  1.2432
 5024SOL     OW26530   1.068   1.018  15.274 -0.0399  0.0853  0.0639
 5024SOL    HW126531   1.155   0.991  15.246  0.7581  1.0133  1.6374
 5024SOL    HW226532   1.089   1.099  15.321  1.3668  0.4927 -1.2684
 5025SOL     OW26533   2.528   0.929   2.852 -0.1563 -0.1948 -0.5004
 5025SOL    HW126534   2.457   0.961   2.796 -0.7992 -2.3628 -0.9282
 5025SOL    HW226535   2.472   0.888   2.918  1.5034 -0.1854  0.9068
 5026SOL     OW26536   2.289   4.470   2.778 -0.4176 -0.1597  0.3461
 5026SOL    HW126537   2.376   4.432   2.785 -1.5135 -2.5539  1.0297
 5026SOL    HW226538   2.265   4.425   2.697 -0.1972 -1.2627  0.8938
 5027SOL     OW26539   0.244   4.167   5.512  0.4915  0.3915  0.3331
 5027SOL    HW126540   0.214   4.194   5.599 -1.1078  1.5898 -0.6133
 5027SOL    HW226541   0.166   4.125   5.476 -0.1089  1.9599 -0.1767
 5028SOL     OW26542   2.332   2.042   5.832  0.0864  0.4569 -0.5744
 5028SOL    HW126543   2.298   1.960   5.868 -2.6111  0.6509 -2.6904
 5028SOL    HW226544   2.309   2.023   5.741  1.1701  1.4593 -1.0636
 5029SOL     OW26545   2.016   0.138   5.126 -0.1325 -0.0140 -0.6788
 5029SOL    HW126546   2.067   0.179   5.196  0.2387 -1.3297 -0.1941
 5029SOL    HW226547   2.043   0.048   5.141  3.9460  1.4608  0.9453
 5030SOL     OW26548   0.089   4.119   2.212 -0.2247  0.1770 -0.2631
 5030SOL    HW126549   0.092   4.126   2.117  0.5329  1.1190 -0.1746
 5030SOL    HW226550   0.074   4.211   2.234  2.2524  0.5844 -0.2674
 5031SOL     OW26551   0.576   4.686   2.722  0.6086 -0.4671  0.8999
 5031SOL    HW126552   0.648   4.665   2.781 -1.3562 -1.0893  3.0764
 5031SOL    HW226553   0.502   4.691   2.783 -0.8916 -2.1026 -0.8093
 5032SOL     OW26554   3.661   2.968  16.397  0.1316 -0.1097  0.6439
 5032SOL    HW126555   3.701   3.008  16.320 -1.9925  1.2348  0.2523
 5032SOL    HW226556   3.570   2.994  16.381  0.4544  1.4052  1.2498
 5033SOL     OW26557   1.825   3.403   6.920 -0.3899 -0.1236  0.1652
 5033SOL    HW126558   1.909   3.447   6.909 -0.9588  1.2818  1.4007
 5033SOL    HW226559   1.757   3.471   6.917  0.7232  1.0048  0.2524
 5034SOL     OW26560   1.293   2.201  14.785  0.0414 -0.1976  0.1340
 5034SOL    HW126561   1.381   2.165  14.798  0.8531  2.3820  1.6489
 5034SOL    HW226562   1.320   2.288  14.757 -0.1572 -0.4537 -0.8696
 5035SOL     OW26563   3.115   2.623  14.641 -0.0145 -0.3191 -0.0746
 5035SOL    HW126564   3.173   2.668  14.579  0.3518 -3.4944 -1.9901
 5035SOL    HW226565   3.031   2.641  14.599  0.2233  2.8551  0.7736
 5036SOL     OW26566   1.812   2.823   4.817  0.4597 -0.4671  0.2736
 5036SOL    HW126567   1.884   2.765   4.842  1.1812 -0.0633 -0.8567
 5036SOL    HW226568   1.857   2.903   4.789  0.2365 -0.3508  0.2455
 5037SOL     OW26569   0.964   3.594  10.455  0.0312  0.0108 -0.3489
 5037SOL    HW126570   1.013   3.521  10.418  0.7695 -0.0214  0.6776
 5037SOL    HW226571   0.881   3.569  10.416 -0.0073  1.0890 -0.9463
 5038SOL     OW26572   1.851   4.525   1.303  0.1308  0.6900 -0.3611
 5038SOL    HW126573   1.831   4.591   1.370 -0.1038 -0.2212  0.4511
 5038SOL    HW226574   1.918   4.473   1.347 -0.5456  0.2833  0.1675
 5039SOL     OW26575   4.114   1.014   6.644  0.1164 -0.1888  0.8239
 5039SOL    HW126576   4.104   1.097   6.596  0.3679  0.2078  1.4528
 5039SOL    HW226577   4.165   1.031   6.724  0.8533 -0.8257  0.4840
 5040SOL     OW26578   3.746   2.273  10.127 -0.1893 -0.5809  0.6164
 5040SOL    HW126579   3.732   2.223  10.047 -0.4088 -0.8510  0.8261
 5040SOL    HW226580   3.664   2.263  10.174 -1.2190 -0.6712 -1.2097
 5041SOL     OW26581   3.778   3.942   9.147  0.1736  0.1020 -0.2831
 5041SOL    HW126582   3.871   3.925   9.165 -0.3257 -1.5442  0.7768
 5041SOL    HW226583   3.779   3.996   9.068  0.5615 -0.5886 -0.7561
 5042SOL     OW26584   2.896   2.842   7.953 -0.0586  0.4124 -0.4246
 5042SOL    HW126585   2.987   2.815   7.945 -0.8621 -1.4073 -3.2990
 5042SOL    HW226586   2.867   2.801   8.035 -1.8326  3.4469  0.4541
 5043SOL     OW26587   2.558   3.221   8.964 -0.1512  0.7094 -0.6968
 5043SOL    HW126588   2.605   3.160   8.908 -0.5097  0.4195 -0.6868
 5043SOL    HW226589   2.484   3.161   8.978 -0.5253  2.1009  3.5339
 5044SOL     OW26590   0.831   4.269   3.203  0.3695 -0.4104 -0.2946
 5044SOL    HW126591   0.887   4.202   3.165  1.4085  1.9895 -2.9826
 5044SOL    HW226592   0.865   4.339   3.147 -0.0434 -0.0767 -0.1306
 5045SOL     OW26593   2.307   0.855  12.098  0.3941  0.1190  0.3301
 5045SOL    HW126594   2.286   0.830  12.188 -3.1056  2.5666  0.1904
 5045SOL    HW226595   2.277   0.946  12.099 -1.6027 -0.4913 -2.7608
 5046SOL     OW26596   0.225   3.791   6.764  0.2538 -0.1214  0.4174
 5046SOL    HW126597   0.246   3.782   6.671 -0.1663 -1.9291  0.5084
 5046SOL    HW226598   0.145   3.741   6.781  0.6375 -0.9918 -0.3306
 5047SOL     OW26599   0.265   2.930   9.874 -0.2743  0.3016 -0.7136
 5047SOL    HW126600   0.268   3.009   9.821 -0.0755  0.4588 -0.4668
 5047SOL    HW226601   0.197   2.877   9.832 -2.6673  1.0365  2.2573
 5048SOL     OW26602   0.957   1.470   3.934 -0.4826  0.2538  0.4140
 5048SOL    HW126603   0.904   1.528   3.880  1.6287  2.2734  0.5388
 5048SOL    HW226604   0.951   1.387   3.887  0.3080  0.6530 -0.3748
 5049SOL     OW26605   2.070   3.243  15.684 -0.4226  0.3307  0.3003
 5049SOL    HW126606   2.155   3.221  15.647 -0.5751  0.9907 -0.4294
 5049SOL    HW226607   2.086   3.251  15.778 -2.0670  1.9448  0.4566
 5050SOL     OW26608   3.756   0.020   7.341 -0.2134  0.1875  0.3035
 5050SOL    HW126609   3.798   0.079   7.278  1.1718 -1.7498 -0.5942
 5050SOL    HW226610   3.743   0.086   7.409  1.6920  0.0372  0.8109
 5051SOL     OW26611   1.695   1.810   0.722  0.0512  0.4186  0.0911
 5051SOL    HW126612   1.738   1.826   0.806  0.0366 -0.7735  0.3242
 5051SOL    HW226613   1.664   1.896   0.694  0.9367  0.4382 -0.8530
 5052SOL     OW26614   1.726   3.687   5.549  0.1465 -0.1675 -0.1908
 5052SOL    HW126615   1.743   3.763   5.494  0.7752 -0.0393  0.1804
 5052SOL    HW226616   1.676   3.719   5.624  0.2939  0.3804 -0.3286
 5053SOL     OW26617   3.258   3.536   3.442  0.1870 -0.0429  0.2418
 5053SOL    HW126618   3.188   3.487   3.400 -1.8197  1.5796  1.7357
 5053SOL    HW226619   3.335   3.487   3.411 -0.5033 -1.5854  0.9569
 5054SOL     OW26620   4.033   3.882   8.842  0.6262 -0.0172 -0.0425
 5054SOL    HW126621   3.978   3.959   8.833 -0.7062 -0.8486  0.9762
 5054SOL    HW226622   4.045   3.879   8.937 -0.1255 -2.6578 -0.0365
 5055SOL     OW26623   1.485   3.427   4.270  0.0497 -0.5150  0.0150
 5055SOL    HW126624   1.496   3.474   4.188  0.9082  0.4180  0.6751
 5055SOL    HW226625   1.513   3.336   4.256  1.9654  0.1455 -0.3697
 5056SOL     OW26626   2.397   2.991   3.910 -0.6621 -0.3648 -0.4020
 5056SOL    HW126627   2.424   2.909   3.870  2.4173 -0.1990  1.3355
 5056SOL    HW226628   2.465   3.006   3.976 -0.5056 -1.1906 -0.3748
 5057SOL     OW26629   2.206   1.651   7.347  0.3670 -0.0453 -0.0778
 5057SOL    HW126630   2.241   1.682   7.431 -0.8319 -0.9558  0.7648
 5057SOL    HW226631   2.113   1.671   7.347  0.3237 -0.2447 -0.0606
 5058SOL     OW26632   2.733   3.506   5.830  0.3166  0.4513 -0.2482
 5058SOL    HW126633   2.756   3.435   5.771  3.1308  1.1763 -0.0181
 5058SOL    HW226634   2.641   3.526   5.810  0.1550  1.7489  1.7827
 5059SOL     OW26635   0.221   4.218   5.775  0.0668  0.4377  0.1190
 5059SOL    HW126636   0.130   4.214   5.805 -0.1620 -3.3932 -1.0142
 5059SOL    HW226637   0.259   4.137   5.810 -1.8364 -0.2693  0.5591
 5060SOL     OW26638   1.996   4.584   2.197  1.0755 -0.3874  0.3825
 5060SOL    HW126639   1.914   4.624   2.225  0.6680 -0.9336 -0.0321
 5060SOL    HW226640   2.029   4.652   2.138  0.1034  0.8679  1.2823
 5061SOL     OW26641   3.688   2.807   8.131 -0.1887  0.3264  0.2945
 5061SOL    HW126642   3.698   2.829   8.038  1.4167  0.0162  0.3920
 5061SOL    HW226643   3.773   2.768   8.151 -1.1821 -1.7032  0.5021
 5062SOL     OW26644   2.798   2.825   4.858  0.1095 -0.0777 -0.0201
 5062SOL    HW126645   2.837   2.912   4.850  2.0304 -1.0855 -1.5845
 5062SOL    HW226646   2.834   2.788   4.938 -0.4364  2.4503  1.3861
 5063SOL     OW26647   0.958   2.487   1.301 -0.0410  0.0161 -0.1454
 5063SOL    HW126648   1.027   2.511   1.362  0.1817 -2.3783  0.5755
 5063SOL    HW226649   1.009   2.465   1.223  0.6875 -1.2887  0.6983
 5064SOL     OW26650   3.937   0.919  17.476  0.0017  0.0807  0.3067
 5064SOL    HW126651   3.998   0.897  17.547 -0.4234  1.3552  1.0575
 5064SOL    HW226652   3.859   0.879  17.514  1.0615 -1.6859  0.6481
 5065SOL     OW26653   1.999   0.694   5.866  0.1933  0.1626  0.5777
 5065SOL    HW126654   2.029   0.657   5.949  2.6425 -0.5836 -0.6692
 5065SOL    HW226655   1.955   0.619   5.825  1.9467 -1.1027  1.0027
 5066SOL     OW26656   3.935   3.481   7.081 -0.8415 -0.6526  0.4174
 5066SOL    HW126657   3.876   3.556   7.071  1.0924  1.0192  1.4414
 5066SOL    HW226658   4.018   3.505   7.039 -0.4876 -1.4890  0.6335
 5067SOL     OW26659   2.873   1.165  11.612  0.0873 -0.1850 -0.3047
 5067SOL    HW126660   2.930   1.189  11.539 -0.3531  0.4200 -0.4494
 5067SOL    HW226661   2.902   1.075  11.628  1.4165  0.1794 -0.7325
 5068SOL     OW26662   4.440   3.933  11.513 -0.0965 -0.0706  0.6216
 5068SOL    HW126663   4.493   3.962  11.439  0.0503  3.2956  2.0576
 5068SOL    HW226664   4.501   3.964  11.580 -0.5675 -1.2761  1.5995
 5069SOL     OW26665   0.943   3.997   5.092  0.0705 -0.0453  0.1694
 5069SOL    HW126666   0.864   4.052   5.087  0.1720  0.1454  0.6559
 5069SOL    HW226667   0.918   3.932   5.026 -1.8840 -0.6178  1.4584
 5070SOL     OW26668   4.180   0.764  15.126  0.0549 -0.1186  0.7790
 5070SOL    HW126669   4.104   0.737  15.178 -1.2724  0.2847 -0.9382
 5070SOL    HW226670   4.147   0.767  15.036  2.2760  0.7316  0.0129
 5071SOL     OW26671   2.723   3.162   9.880  0.2357 -0.0932 -0.1824
 5071SOL    HW126672   2.772   3.243   9.869 -0.6505  0.5636  0.6361
 5071SOL    HW226673   2.667   3.184   9.955 -1.1155 -1.0671 -0.9123
 5072SOL     OW26674   0.311   2.442   5.430 -0.3066 -0.5898 -0.6085
 5072SOL    HW126675   0.293   2.500   5.356 -0.8301 -0.2284 -0.1999
 5072SOL    HW226676   0.327   2.499   5.506  0.2493 -0.7115 -0.6349
 5073SOL     OW26677   0.281   1.900   3.297  0.1532 -0.4991  0.6786
 5073SOL    HW126678   0.343   1.856   3.239  0.6776 -1.1243  1.7130
 5073SOL    HW226679   0.308   1.991   3.284 -0.2890 -0.4500  0.0837
 5074SOL     OW26680   0.838   0.474   8.337 -0.3750 -0.1793  0.0675
 5074SOL    HW126681   0.922   0.500   8.301  0.4703 -1.1743  1.3376
 5074SOL    HW226682   0.784   0.541   8.294 -0.9711 -1.4751 -1.2078
 5075SOL     OW26683   2.402   3.776  10.476 -0.1055  0.0452  0.1393
 5075SOL    HW126684   2.406   3.720  10.553 -3.8275 -1.1127 -0.4918
 5075SOL    HW226685   2.417   3.861  10.518 -1.4663 -0.5369  1.7870
 5076SOL     OW26686   4.154   2.760  15.468  0.6152  0.3637  0.3538
 5076SOL    HW126687   4.238   2.722  15.493  0.5263 -0.8934 -1.2799
 5076SOL    HW226688   4.125   2.793  15.553 -0.4780  1.1351 -0.3239
 5077SOL     OW26689   2.473   3.905   2.680 -0.3475 -0.2230 -0.3036
 5077SOL    HW126690   2.406   3.885   2.614 -2.4275  0.2624  1.6839
 5077SOL    HW226691   2.454   3.844   2.750  2.1968 -1.2971 -0.5329
 5078SOL     OW26692   3.993   2.072   8.718 -0.6393  0.0860 -0.2640
 5078SOL    HW126693   3.927   2.021   8.765  0.0194  0.1836  0.7638
 5078SOL    HW226694   3.962   2.074   8.628 -2.5164 -0.0985  0.3764
 5079SOL     OW26695   1.770   3.827  10.879 -0.5235  0.2759  0.0469
 5079SOL    HW126696   1.706   3.779  10.931  0.2315 -0.5946  0.1670
 5079SOL    HW226697   1.721   3.883  10.818 -1.3729  1.2725  1.6511
 5080SOL     OW26698   1.577   2.866  12.796 -0.3840  0.5391 -0.1037
 5080SOL    HW126699   1.585   2.867  12.892 -0.6034  3.0611 -0.1233
 5080SOL    HW226700   1.605   2.776  12.779 -0.2276  0.4775  0.4917
 5081SOL     OW26701   1.079   2.907   3.775  0.5607 -0.2018  0.4770
 5081SOL    HW126702   1.053   2.821   3.742 -0.7389  0.5364 -0.3954
 5081SOL    HW226703   1.010   2.962   3.740  0.8022 -0.2843 -0.1377
 5082SOL     OW26704   3.361   1.570  12.150 -0.7935 -0.0927 -0.5144
 5082SOL    HW126705   3.276   1.529  12.164 -2.5765  3.8235  0.2128
 5082SOL    HW226706   3.403   1.573  12.236 -1.2020 -0.8437 -0.2958
 5083SOL     OW26707   3.738   4.446   5.650 -0.5650 -0.2479 -0.5604
 5083SOL    HW126708   3.717   4.497   5.571 -2.2011  0.7559  0.5279
 5083SOL    HW226709   3.795   4.508   5.695 -3.3024  0.2384  2.2221
 5084SOL     OW26710   2.397   0.479   6.788  0.1713  0.5056 -0.0884
 5084SOL    HW126711   2.441   0.549   6.836 -1.1475  1.9177 -0.9320
 5084SOL    HW226712   2.377   0.422   6.862  1.6556  1.0294  0.7206
 5085SOL     OW26713   1.244   0.912   6.654  0.0264  0.0399 -0.4612
 5085SOL    HW126714   1.282   0.888   6.739 -0.2114  1.1773 -0.0318
 5085SOL    HW226715   1.182   0.982   6.675  0.9355  0.3354  1.2790
 5086SOL     OW26716   3.213   1.605   6.776 -1.1926  0.0505 -0.1658
 5086SOL    HW126717   3.282   1.647   6.827 -0.1021 -0.0228 -1.5979
 5086SOL    HW226718   3.260   1.627   6.696 -0.2787  3.1686  1.2494
 5087SOL     OW26719   0.346   1.260   4.296 -0.2821  0.4087 -0.1548
 5087SOL    HW126720   0.371   1.323   4.228  4.8312 -0.8096  0.6287
 5087SOL    HW226721   0.393   1.185   4.260 -1.0094  0.7925 -1.9126
 5088SOL     OW26722   4.558   0.199   4.552 -0.5210  0.1102 -0.1520
 5088SOL    HW126723   4.543   0.291   4.531  1.5851  0.2187 -1.1022
 5088SOL    HW226724   4.564   0.195   4.647  0.1981  0.9145 -0.1717
 5089SOL     OW26725   1.226   1.310   4.320  0.0322 -0.0044  0.1470
 5089SOL    HW126726   1.310   1.271   4.343 -0.0815 -0.7162 -0.6491
 5089SOL    HW226727   1.244   1.373   4.250  1.3295 -0.6215 -0.0795
 5090SOL     OW26728   2.535   1.478   8.180 -0.5666  0.4652 -0.1648
 5090SOL    HW126729   2.598   1.514   8.118 -1.3381  0.4294 -0.9669
 5090SOL    HW226730   2.450   1.521   8.175 -1.5143 -1.4402 -0.5761
 5091SOL     OW26731   1.788   4.671  11.698 -0.0385  0.0044  0.3021
 5091SOL    HW126732   1.769   4.711  11.784  1.4080 -0.0067  0.6282
 5091SOL    HW226733   1.880   4.654  11.720  0.1552  0.2477 -0.3367
 5092SOL     OW26734   2.465   4.121   0.039 -0.3161  0.6212 -0.4945
 5092SOL    HW126735   2.415   4.202   0.032  1.7083  1.8832 -0.3561
 5092SOL    HW226736   2.486   4.112   0.132 -0.1493 -4.1046 -0.9654
 5093SOL     OW26737   3.958   3.098   0.574 -0.0649 -0.5359  0.3958
 5093SOL    HW126738   4.045   3.069   0.601  0.5021 -0.4849 -1.3650
 5093SOL    HW226739   3.927   3.157   0.643  1.0977 -0.8229  1.1549
 5094SOL     OW26740   1.470   1.740   1.098 -0.3545  0.2095 -0.3221
 5094SOL    HW126741   1.491   1.831   1.118 -2.3873  0.7785 -0.7085
 5094SOL    HW226742   1.508   1.732   1.011  2.3500 -0.3657  0.9239
 5095SOL     OW26743   3.775   1.632   3.319  0.5027 -0.3091  0.1105
 5095SOL    HW126744   3.807   1.721   3.333  0.1105 -0.3443  1.2265
 5095SOL    HW226745   3.824   1.590   3.390  0.2189 -2.1766 -0.8147
 5096SOL     OW26746   0.823   3.533  17.406  0.5926  0.3067 -0.0931
 5096SOL    HW126747   0.848   3.600  17.469 -1.2641 -0.3459  1.3641
 5096SOL    HW226748   0.870   3.456  17.438  1.1754 -0.0544 -1.8051
 5097SOL     OW26749   1.521   3.302  14.224 -0.2427  0.2503 -0.7229
 5097SOL    HW126750   1.426   3.305  14.211 -0.4409 -0.2456  0.6306
 5097SOL    HW226751   1.551   3.242  14.155 -0.2382  0.3066 -0.7701
 5098SOL     OW26752   2.590   1.543  11.661 -0.3613 -0.1468  0.8236
 5098SOL    HW126753   2.615   1.633  11.640 -1.2809  0.1672  1.0691
 5098SOL    HW226754   2.530   1.521  11.590 -0.1538  1.0985  0.2594
 5099SOL     OW26755   4.174   0.579   2.437  0.4668 -0.1989 -0.8231
 5099SOL    HW126756   4.192   0.499   2.387 -0.3355 -0.4326 -0.7500
 5099SOL    HW226757   4.164   0.652   2.376  0.1692 -0.9919 -1.7313
 5100SOL     OW26758   3.070   3.438   3.224 -0.0118  0.2699 -0.3333
 5100SOL    HW126759   3.008   3.447   3.151 -0.5568 -0.9085  0.0011
 5100SOL    HW226760   3.055   3.351   3.261 -0.5533 -0.0927 -1.3766
 5101SOL     OW26761   2.861   3.527  11.425  0.2470  0.1757  0.0986
 5101SOL    HW126762   2.825   3.541  11.513 -0.6022  2.3139 -0.5780
 5101SOL    HW226763   2.947   3.564  11.441 -0.1505  0.6333  1.1407
 5102SOL     OW26764   0.557   1.972   1.917 -0.2176  0.2473  0.3289
 5102SOL    HW126765   0.551   1.984   2.012  0.0221  0.2883  0.3377
 5102SOL    HW226766   0.512   2.054   1.896 -1.0614 -0.6611 -1.4039
 5103SOL     OW26767   0.097   0.155   3.480  0.1763 -0.2030 -0.2741
 5103SOL    HW126768   0.032   0.187   3.543  1.3851  0.6155  0.5532
 5103SOL    HW226769   0.134   0.225   3.426  0.9079  0.0667  0.5912
 5104SOL     OW26770   4.487   3.138   5.028 -0.0047 -0.2756  0.1398
 5104SOL    HW126771   4.472   3.073   5.096 -0.3317  0.4522  0.7580
 5104SOL    HW226772   4.439   3.100   4.954  0.4851 -1.7883  0.5937
 5105SOL     OW26773   2.942   3.803   3.978 -0.3180  0.1198 -0.1277
 5105SOL    HW126774   2.993   3.828   3.902  0.2542 -0.8438 -0.0612
 5105SOL    HW226775   2.858   3.782   3.937 -0.7292 -2.8669  2.1994
 5106SOL     OW26776   2.096   3.327  17.603 -0.6445 -0.3562  0.1013
 5106SOL    HW126777   2.089   3.254  17.542 -1.6180  0.7570 -1.1225
 5106SOL    HW226778   2.013   3.314  17.649 -0.6821 -1.4607 -0.2938
 5107SOL     OW26779   0.654   0.372   2.453  0.0268 -0.3245  0.0456
 5107SOL    HW126780   0.570   0.412   2.431  1.0659  0.8826 -1.6719
 5107SOL    HW226781   0.718   0.408   2.392 -0.0391  0.8895  0.6939
 5108SOL     OW26782   3.430   4.368  16.773  0.2260  0.2582 -0.1225
 5108SOL    HW126783   3.453   4.421  16.697 -0.8951  0.9356  0.0125
 5108SOL    HW226784   3.335   4.373  16.772  0.1229 -1.7313 -0.1988
 5109SOL     OW26785   4.088   2.561   5.412 -0.6984 -0.0576  0.0443
 5109SOL    HW126786   4.009   2.554   5.358 -2.0161  0.0299  1.9583
 5109SOL    HW226787   4.082   2.485   5.470  0.0194 -1.6257 -1.9320
 5110SOL     OW26788   0.649   0.916  17.517  0.4844 -1.1722 -0.3946
 5110SOL    HW126789   0.629   0.824  17.532 -1.0990 -0.8179 -0.2956
 5110SOL    HW226790   0.576   0.958  17.564  1.3400 -0.5395  0.3713
 5111SOL     OW26791   4.497   1.537   8.199 -0.4438  0.1969 -0.9026
 5111SOL    HW126792   4.455   1.534   8.285 -2.2148 -2.0935 -1.8379
 5111SOL    HW226793   4.559   1.608   8.215 -2.4302  2.4313 -3.0603
 5112SOL     OW26794   0.654   2.685  16.290 -0.4974 -0.0746 -0.2642
 5112SOL    HW126795   0.580   2.652  16.340 -1.5244  0.8197 -1.2191
 5112SOL    HW226796   0.644   2.622  16.219 -1.2481  1.3368 -1.4123
 5113SOL     OW26797   3.274   0.757   1.898 -0.9151 -0.4116 -0.3036
 5113SOL    HW126798   3.265   0.674   1.945 -2.4364  1.4169  2.6683
 5113SOL    HW226799   3.366   0.781   1.908 -0.4274 -1.9698 -1.0768
 5114SOL     OW26800   3.452   3.407   2.593 -0.0838 -0.3199  0.1212
 5114SOL    HW126801   3.406   3.448   2.520 -1.4437 -1.3676  0.3971
 5114SOL    HW226802   3.390   3.336   2.605 -0.3635  0.3586  2.8030
 5115SOL     OW26803   1.035   3.419   5.551  0.1403 -0.5002 -0.3833
 5115SOL    HW126804   1.019   3.490   5.613  1.2805 -0.8478  0.3105
 5115SOL    HW226805   0.945   3.390   5.539 -0.8602  1.2576  2.6881
 5116SOL     OW26806   3.903   3.698   0.908  0.0161 -0.3814 -0.4837
 5116SOL    HW126807   3.949   3.658   0.834  0.0994 -1.7470  0.3149
 5116SOL    HW226808   3.973   3.725   0.967 -1.2444  3.3522 -0.6486
 5117SOL     OW26809   2.014   3.607   5.744 -0.4340 -0.2624  0.9332
 5117SOL    HW126810   2.031   3.516   5.719 -0.2694  0.3787 -1.2681
 5117SOL    HW226811   2.000   3.634   5.654  1.6753  0.6297  0.8873
 5118SOL     OW26812   3.465   3.302  16.147  0.3699  0.1465 -0.1898
 5118SOL    HW126813   3.455   3.208  16.163 -1.8995  0.5882  0.9456
 5118SOL    HW226814   3.526   3.329  16.216 -1.3654 -1.4985  1.9871
 5119SOL     OW26815   3.006   4.472   5.552  0.4719  0.5877  0.1934
 5119SOL    HW126816   3.066   4.517   5.612 -1.1578  4.4388 -1.0936
 5119SOL    HW226817   2.923   4.454   5.596 -0.2375  0.3323 -1.2451
 5120SOL     OW26818   3.426   2.479   9.102  0.8850 -0.5826 -0.1055
 5120SOL    HW126819   3.335   2.451   9.096 -0.1108  3.0636 -2.4163
 5120SOL    HW226820   3.450   2.491   9.010  0.9459  0.6546  0.0691
 5121SOL     OW26821   0.359   4.668   1.672  0.1869  0.3986 -0.4239
 5121SOL    HW126822   0.361   4.574   1.653  0.5632  0.1954  0.5922
 5121SOL    HW226823   0.451   4.677   1.696  0.0772  1.8821 -0.5883
 5122SOL     OW26824   3.774   4.130   6.215 -0.3127 -0.0719  0.0564
 5122SOL    HW126825   3.796   4.037   6.208  0.4067  0.1168 -0.2107
 5122SOL    HW226826   3.678   4.126   6.215 -0.2600 -1.3775 -0.5435
 5123SOL     OW26827   2.339   3.653   4.073 -0.2851  0.2349  0.1799
 5123SOL    HW126828   2.326   3.724   4.010 -1.9376  1.5870  2.0528
 5123SOL    HW226829   2.389   3.590   4.021  1.0141  0.6976  0.8807
 5124SOL     OW26830   0.746   2.872  16.482  0.3675  0.6765  0.0784
 5124SOL    HW126831   0.838   2.849  16.491  0.8606  2.2413 -1.0362
 5124SOL    HW226832   0.721   2.807  16.415 -1.0439  1.8941 -0.5689
 5125SOL     OW26833   3.652   2.248   4.626 -0.7299  0.1842 -0.8476
 5125SOL    HW126834   3.686   2.311   4.691  0.4490  0.7033 -1.9626
 5125SOL    HW226835   3.653   2.299   4.545  0.7265 -0.7792 -1.4191
 5126SOL     OW26836   1.629   4.266   8.960 -0.2434  0.1704  0.2739
 5126SOL    HW126837   1.586   4.183   8.980  4.0974 -2.1183  0.3337
 5126SOL    HW226838   1.677   4.265   9.044 -2.0767  0.8629  1.3294
 5127SOL     OW26839   3.801   4.171   1.604 -0.1663  0.4769 -0.3564
 5127SOL    HW126840   3.738   4.203   1.540 -1.2463  1.3968  1.1536
 5127SOL    HW226841   3.806   4.254   1.651  1.6510  0.5682 -0.7297
 5128SOL     OW26842   1.111   4.578   5.078  0.0456 -0.2787 -0.2878
 5128SOL    HW126843   1.035   4.565   5.136  0.0770 -0.4717 -0.2895
 5128SOL    HW226844   1.157   4.634   5.140 -0.3171 -0.5923  0.2663
 5129SOL     OW26845   1.459   3.054   2.673 -0.3387 -0.3115 -0.1501
 5129SOL    HW126846   1.431   3.069   2.763 -1.6796 -0.1414 -0.6034
 5129SOL    HW226847   1.495   3.138   2.647  3.0766 -0.8425  2.7260
 5130SOL     OW26848   2.486   1.211  12.667  0.1451 -0.1936 -0.3906
 5130SOL    HW126849   2.436   1.145  12.716  1.9218  0.6435  2.5488
 5130SOL    HW226850   2.552   1.230  12.733 -0.8422 -0.7910  0.7798
 5131SOL     OW26851   1.737   1.495  16.893  0.8179  0.9864  0.6199
 5131SOL    HW126852   1.787   1.473  16.972 -0.5094  1.8588  1.7220
 5131SOL    HW226853   1.781   1.577  16.874 -4.1100  3.3383 -0.4869
 5132SOL     OW26854   4.561   1.252   7.310  0.4209  0.1342 -0.3485
 5132SOL    HW126855   4.521   1.280   7.393 -0.6884  1.0831 -1.2009
 5132SOL    HW226856   4.655   1.245   7.327  0.3186 -1.6268 -0.4791
 5133SOL     OW26857   0.402   1.489   7.677  0.9157 -0.1416 -0.2608
 5133SOL    HW126858   0.426   1.461   7.588 -1.8926 -0.1306 -1.0086
 5133SOL    HW226859   0.324   1.436   7.692 -0.4751  1.5493 -1.4784
 5134SOL     OW26860   0.332   2.132   9.876  0.5859 -0.4399 -0.7135
 5134SOL    HW126861   0.337   2.186   9.798  1.3846 -1.4483 -1.3631
 5134SOL    HW226862   0.239   2.150   9.891  0.5972 -1.2179  0.3060
 5135SOL     OW26863   0.281   1.187   2.585 -0.2798  0.5320  0.0886
 5135SOL    HW126864   0.242   1.176   2.672 -2.1689  0.9025 -0.7327
 5135SOL    HW226865   0.372   1.203   2.612 -0.8828  3.3773  0.3733
 5136SOL     OW26866   3.946   2.194  16.373  0.1956 -0.4730 -0.6258
 5136SOL    HW126867   3.911   2.110  16.343  1.1047 -1.1422  0.2009
 5136SOL    HW226868   3.992   2.153  16.446  0.6556  1.5310  0.1981
 5137SOL     OW26869   1.065   0.585   8.002 -0.0180 -0.0192 -0.5228
 5137SOL    HW126870   1.130   0.655   8.011  0.3630 -0.3155 -0.9406
 5137SOL    HW226871   1.072   0.575   7.907 -2.4068 -0.2506 -0.6734
 5138SOL     OW26872   0.593   0.212   6.129 -0.0101  0.5302  0.2693
 5138SOL    HW126873   0.502   0.241   6.123  0.3727  1.2004 -2.3407
 5138SOL    HW226874   0.627   0.283   6.183  1.5008  0.6631 -0.8351
 5139SOL     OW26875   3.330   0.032   4.842  0.1260  0.3461  0.2583
 5139SOL    HW126876   3.327   4.697   4.919 -1.3920 -0.3571 -0.3192
 5139SOL    HW226877   3.244   0.073   4.853  0.3894  1.0627 -0.3829
 5140SOL     OW26878   2.797   2.123   4.611 -0.2249 -0.0139  0.4459
 5140SOL    HW126879   2.858   2.064   4.566 -2.8080 -0.9958 -1.7630
 5140SOL    HW226880   2.837   2.207   4.588 -1.3886  1.1735  2.7793
 5141SOL     OW26881   2.748   4.681   0.803 -0.2025  0.1603 -0.7448
 5141SOL    HW126882   2.707   4.616   0.860  0.8193 -1.3023 -1.6552
 5141SOL    HW226883   2.683   0.028   0.806 -0.8266 -0.4026 -1.1349
 5142SOL     OW26884   2.021   2.626   1.384 -0.0235  0.2616  0.0857
 5142SOL    HW126885   2.013   2.668   1.298 -0.2010  0.5817  0.2559
 5142SOL    HW226886   2.112   2.648   1.407 -0.1732  1.1681 -0.1652
 5143SOL     OW26887   1.745   4.435   5.991 -0.3095 -0.1336  0.0368
 5143SOL    HW126888   1.809   4.465   6.055 -1.8050  1.7009  0.6653
 5143SOL    HW226889   1.676   4.497   6.014  2.6126  2.8492  0.8744
 5144SOL     OW26890   1.336   4.181   1.042  0.1899  0.3175  0.1938
 5144SOL    HW126891   1.386   4.207   1.119 -0.0034 -0.6617  0.6476
 5144SOL    HW226892   1.361   4.256   0.989 -0.4019  1.0133  0.8968
 5145SOL     OW26893   1.976   0.492  16.630  0.0100 -0.1071  0.4571
 5145SOL    HW126894   2.055   0.439  16.645 -0.2733 -0.8806 -0.8196
 5145SOL    HW226895   1.992   0.570  16.683  0.3423 -2.2533  3.5440
 5146SOL     OW26896   0.185   1.531   4.860  0.3988 -0.2129 -0.3518
 5146SOL    HW126897   0.116   1.534   4.794 -1.5914  3.9263  1.8553
 5146SOL    HW226898   0.155   1.452   4.905  0.6493  0.6471  1.3483
 5147SOL     OW26899   2.578   0.732   0.078  1.0362  0.6325 -0.0650
 5147SOL    HW126900   2.510   0.707   0.140  1.2490  1.8324  0.6521
 5147SOL    HW226901   2.660   0.737   0.127  0.3550 -1.5439  1.2997
 5148SOL     OW26902   1.508   4.494   9.619 -0.4435 -0.0928 -0.3442
 5148SOL    HW126903   1.526   4.488   9.525  0.2361 -0.0452 -0.2219
 5148SOL    HW226904   1.478   4.406   9.638 -1.3803 -0.0553 -1.6718
 5149SOL     OW26905   3.619   2.150   6.726  0.1651 -0.0588 -0.3062
 5149SOL    HW126906   3.691   2.148   6.664  0.0973 -0.3445 -0.3707
 5149SOL    HW226907   3.666   2.136   6.809 -1.2965 -2.0630  0.1791
 5150SOL     OW26908   3.546   0.806   3.928  0.4518  0.0613  0.0010
 5150SOL    HW126909   3.582   0.885   3.967  1.3798  0.4086 -1.5624
 5150SOL    HW226910   3.605   0.784   3.857 -0.5295  0.2725 -0.8823
 5151SOL     OW26911   3.976   3.402   3.260 -0.5153 -0.1827  0.2624
 5151SOL    HW126912   4.045   3.437   3.316 -1.0375 -0.8259  1.3075
 5151SOL    HW226913   4.020   3.349   3.194  0.3869 -0.9445  1.4711
 5152SOL     OW26914   0.695   1.947   6.396 -0.3101  0.1915  0.3860
 5152SOL    HW126915   0.686   1.853   6.410  2.2716  0.0631  1.1186
 5152SOL    HW226916   0.660   1.986   6.476  2.1785  1.5658  0.7843
 5153SOL     OW26917   2.665   0.032  10.333 -0.3709 -0.4376  0.3132
 5153SOL    HW126918   2.622   4.722  10.412  0.1523 -1.3238  0.2251
 5153SOL    HW226919   2.628   0.120  10.327  2.3499  0.4815 -2.8489
 5154SOL     OW26920   2.847   3.041   5.233 -0.0603 -0.2213  0.5752
 5154SOL    HW126921   2.816   3.034   5.323 -0.2616 -1.7283  0.3885
 5154SOL    HW226922   2.814   2.965   5.186  2.2580 -0.0014 -1.4305
 5155SOL     OW26923   0.313   2.437   4.972  0.1732  0.8236 -0.1250
 5155SOL    HW126924   0.406   2.434   4.995  0.0181 -0.5238  0.2765
 5155SOL    HW226925   0.314   2.502   4.902  2.6989 -0.4462 -1.2620
 5156SOL     OW26926   3.262   1.156  15.044  0.4281  1.0107 -0.9240
 5156SOL    HW126927   3.179   1.134  15.087  0.6829  0.4696 -0.7126
 5156SOL    HW226928   3.251   1.243  15.005 -1.6416  1.7112  1.1735
 5157SOL     OW26929   2.815   1.309   4.061 -0.2352  0.1880  0.1583
 5157SOL    HW126930   2.779   1.251   4.127 -0.1398 -0.1363 -0.0738
 5157SOL    HW226931   2.822   1.384   4.120 -0.7501  0.5203 -0.1972
 5158SOL     OW26932   0.694   2.695   3.328  0.0069 -0.1065 -0.0395
 5158SOL    HW126933   0.719   2.621   3.273  2.9140 -0.5790  1.9561
 5158SOL    HW226934   0.600   2.691   3.307  0.1712 -1.0585 -0.5650
 5159SOL     OW26935   0.306   1.478   7.225  0.1020 -0.4248 -0.1237
 5159SOL    HW126936   0.277   1.412   7.162  0.0889 -0.4963 -0.0421
 5159SOL    HW226937   0.294   1.559   7.175 -1.0769 -0.3022  0.3681
 5160SOL     OW26938   0.552   3.928   4.857 -0.2165  0.2693  0.3101
 5160SOL    HW126939   0.509   3.876   4.788 -1.9181  2.3044 -0.1477
 5160SOL    HW226940   0.607   3.990   4.810 -0.3336 -0.4640 -0.8096
 5161SOL     OW26941   0.826   0.565   0.898  0.2029 -0.3741  0.5949
 5161SOL    HW126942   0.895   0.625   0.925  1.3260 -0.7657 -1.3906
 5161SOL    HW226943   0.863   0.481   0.925 -0.0959 -1.1358 -1.3662
 5162SOL     OW26944   1.185   3.415   0.979 -0.2155 -0.2562  0.5299
 5162SOL    HW126945   1.144   3.474   0.916  1.0756 -0.2092 -0.2452
 5162SOL    HW226946   1.183   3.472   1.056 -1.5074 -0.7996  0.9000
 5163SOL     OW26947   1.883   1.078   0.507 -0.1637 -0.6958  0.0622
 5163SOL    HW126948   1.805   1.057   0.558 -1.9031 -0.5714 -2.5627
 5163SOL    HW226949   1.916   0.989   0.494 -1.0222 -0.7809 -1.4897
 5164SOL     OW26950   2.121   1.088   7.333 -0.3698  0.0177 -0.0262
 5164SOL    HW126951   2.109   1.000   7.298  1.2773 -0.6332  1.0582
 5164SOL    HW226952   2.087   1.145   7.265  0.8286 -0.0665 -0.6970
 5165SOL     OW26953   2.248   0.305   8.584 -0.0951  0.2442  0.0597
 5165SOL    HW126954   2.340   0.283   8.571 -0.0790 -0.4988  1.5177
 5165SOL    HW226955   2.223   0.243   8.652 -0.7338 -1.2612 -1.5653
 5166SOL     OW26956   2.057   2.011   1.314 -0.3465  0.2440 -0.5681
 5166SOL    HW126957   2.049   2.106   1.319 -1.1198  0.1832 -0.6759
 5166SOL    HW226958   1.966   1.984   1.305 -0.4427  0.9210 -1.5057
 5167SOL     OW26959   0.942   4.148   8.980  0.0329  0.1867  0.0549
 5167SOL    HW126960   0.930   4.236   8.942  0.7402 -0.5283 -1.8649
 5167SOL    HW226961   0.934   4.177   9.071  3.2064 -0.2815  0.4860
 5168SOL     OW26962   0.147   3.408   2.455 -0.1984 -0.0498 -0.0866
 5168SOL    HW126963   0.163   3.359   2.374  0.0562  1.0908 -0.7313
 5168SOL    HW226964   0.091   3.346   2.501 -0.3168  0.9246  1.0966
 5169SOL     OW26965   1.069   3.018  13.015  0.3120  0.1840 -0.5164
 5169SOL    HW126966   1.042   3.072  12.941 -1.1459 -0.4353 -0.4344
 5169SOL    HW226967   1.069   2.932  12.974 -0.8114 -0.3934  0.6666
 5170SOL     OW26968   3.914   3.129   8.137 -0.0136 -0.1085 -0.3668
 5170SOL    HW126969   3.957   3.045   8.118  2.7680  1.3705 -0.5356
 5170SOL    HW226970   3.870   3.130   8.051  0.6556 -1.0958 -0.7279
 5171SOL     OW26971   2.846   2.775   3.418 -0.3766  0.6514  0.4810
 5171SOL    HW126972   2.863   2.868   3.405 -0.0251  0.8776  2.6059
 5171SOL    HW226973   2.828   2.742   3.330  0.4637 -1.4223  1.0844
 5172SOL     OW26974   0.480   1.473   7.417 -0.6403  0.3492  0.7426
 5172SOL    HW126975   0.409   1.474   7.352 -0.1573  1.4593  0.2316
 5172SOL    HW226976   0.548   1.417   7.378 -0.7327 -0.0091  1.0941
 5173SOL     OW26977   3.105   1.513   7.010 -0.8254 -0.8133 -0.1217
 5173SOL    HW126978   3.179   1.481   7.061 -1.0355 -0.6430  0.2925
 5173SOL    HW226979   3.146   1.542   6.929 -0.1036  2.0618  1.2618
 5174SOL     OW26980   4.491   2.092  15.858  0.4975  0.3975 -0.2674
 5174SOL    HW126981   4.442   2.170  15.885  1.0026  0.5928  0.0848
 5174SOL    HW226982   4.424   2.047  15.807  0.5721  1.0863 -0.9791
 5175SOL     OW26983   2.520   1.723  14.894  0.0073 -0.1228  0.2291
 5175SOL    HW126984   2.556   1.643  14.855  0.7980  0.3538 -0.0402
 5175SOL    HW226985   2.455   1.688  14.955 -1.6438  2.0420 -0.3070
 5176SOL     OW26986   3.300   4.683  13.568  0.2272 -0.1691  0.0388
 5176SOL    HW126987   3.334   0.017  13.637  1.5649 -1.0465  0.0993
 5176SOL    HW226988   3.344   4.602  13.595  0.3068 -1.0383 -2.7174
 5177SOL     OW26989   0.859   3.023  13.187 -0.5173 -0.4091 -0.1247
 5177SOL    HW126990   0.930   3.038  13.125 -1.0542  2.0802 -0.1139
 5177SOL    HW226991   0.785   3.024  13.125 -0.6462  0.0712  0.0422
 5178SOL     OW26992   1.399   2.708   0.580  0.7292 -0.5219 -0.5292
 5178SOL    HW126993   1.418   2.617   0.558 -0.1183 -1.0096  0.7872
 5178SOL    HW226994   1.327   2.690   0.640 -1.7528  2.1758 -2.6760
 5179SOL     OW26995   4.353   2.694   1.824 -0.1746 -1.0219 -0.0959
 5179SOL    HW126996   4.431   2.663   1.871  1.5661  0.4239 -1.9903
 5179SOL    HW226997   4.291   2.691   1.896  0.1373 -1.9613  0.1291
 5180SOL     OW26998   1.856   0.763  15.082  0.0369 -0.4458  0.4071
 5180SOL    HW126999   1.890   0.676  15.060 -1.4359  0.0907 -4.0004
 5180SOL    HW227000   1.873   0.750  15.176  0.1599  1.6057  0.6497
 5181SOL     OW27001   1.928   2.195  15.371  0.1020 -0.0973  0.4504
 5181SOL    HW127002   1.876   2.121  15.340 -0.7740  1.2626 -1.3283
 5181SOL    HW227003   1.910   2.260  15.303 -1.4229 -0.0829  0.8543
 5182SOL     OW27004   0.690   2.385   8.357 -0.4641 -0.2808 -0.0407
 5182SOL    HW127005   0.603   2.424   8.351  1.6747  4.3306 -0.6919
 5182SOL    HW227006   0.684   2.322   8.285 -2.5536  1.1912 -1.1578
 5183SOL     OW27007   1.644   2.813   0.641  0.1933 -0.0415 -0.0766
 5183SOL    HW127008   1.702   2.771   0.578  0.8824  0.1206  0.4538
 5183SOL    HW227009   1.560   2.790   0.602  0.1636 -0.0735  0.0052
 5184SOL     OW27010   4.141   0.750   2.769 -0.5893  0.3897  0.5750
 5184SOL    HW127011   4.224   0.759   2.722 -1.9140 -0.7888 -1.9976
 5184SOL    HW227012   4.168   0.772   2.858  0.3202  0.1725  0.3493
 5185SOL     OW27013   4.233   1.510   6.491 -0.2780 -0.4041  0.3528
 5185SOL    HW127014   4.327   1.495   6.476 -0.9221 -2.3713 -1.7715
 5185SOL    HW227015   4.223   1.551   6.405  0.0095 -2.4468 -0.6587
 5186SOL     OW27016   0.579   2.029   5.939 -0.4873  0.2430 -0.1055
 5186SOL    HW127017   0.653   2.090   5.928  0.4069 -0.8849 -0.4060
 5186SOL    HW227018   0.527   2.059   6.014  1.0825  2.2137  0.2058
 5187SOL     OW27019   2.306   0.681  11.099 -0.3249 -0.1498 -0.4905
 5187SOL    HW127020   2.333   0.605  11.152  0.2650 -1.7496 -3.0961
 5187SOL    HW227021   2.235   0.647  11.045  1.2337 -0.5591 -2.2490
 5188SOL     OW27022   0.192   0.720  12.148  0.0401 -0.2733 -0.5667
 5188SOL    HW127023   0.253   0.794  12.147 -1.2127  0.7686 -0.6653
 5188SOL    HW227024   0.252   0.648  12.129 -2.1662 -2.5797  1.2971
 5189SOL     OW27025   2.703   4.388  13.046  0.4217  0.0000  0.4293
 5189SOL    HW127026   2.671   4.471  13.011  1.5007  0.5700  0.8125
 5189SOL    HW227027   2.712   4.406  13.139  1.3867  0.4565  0.2448
 5190SOL     OW27028   3.343   2.654   0.649 -0.2052 -0.1748 -0.9842
 5190SOL    HW127029   3.397   2.732   0.637 -3.0205  1.7392 -1.4787
 5190SOL    HW227030   3.277   2.675   0.715  0.0818 -1.1739 -0.3811
 5191SOL     OW27031   4.107   4.614   4.020  0.2006  0.2799  0.2535
 5191SOL    HW127032   4.131   4.675   4.090 -0.2742 -1.4633  1.9359
 5191SOL    HW227033   4.197   4.599   3.989  0.3761  0.1956  0.8072
 5192SOL     OW27034   2.650   2.103   2.763  0.3259 -0.0734  0.4464
 5192SOL    HW127035   2.647   2.023   2.815 -3.1625  0.0085  0.3951
 5192SOL    HW227036   2.737   2.106   2.725 -0.1179 -0.6671 -0.6269
 5193SOL     OW27037   0.556   3.762  11.249 -0.5767 -0.1112 -0.1182
 5193SOL    HW127038   0.604   3.690  11.210 -2.6857 -1.4022 -0.2770
 5193SOL    HW227039   0.536   3.815  11.172 -1.3544  0.7821  0.6884
 5194SOL     OW27040   3.165   2.159   0.034  0.3334  0.1406  0.2575
 5194SOL    HW127041   3.235   2.188   0.093  1.2912 -0.7526 -0.4354
 5194SOL    HW227042   3.214   2.108  17.662  1.3647  2.1918 -0.5915
 5195SOL     OW27043   1.068   1.836   7.962  0.1684 -0.3181 -0.1589
 5195SOL    HW127044   1.007   1.863   8.031  0.2497 -0.0820 -0.1804
 5195SOL    HW227045   1.124   1.781   8.017 -0.0701  0.0046  0.4098
 5196SOL     OW27046   4.359   0.588   7.156 -0.1776 -0.2262  0.5306
 5196SOL    HW127047   4.317   0.503   7.166  0.7896 -0.3544  3.5081
 5196SOL    HW227048   4.427   0.584   7.223 -0.6988 -1.6708  0.9768
 5197SOL     OW27049   2.705   3.841   0.722 -0.0015 -0.0735 -0.2141
 5197SOL    HW127050   2.728   3.933   0.708 -1.5589  0.0023 -2.2442
 5197SOL    HW227051   2.613   3.839   0.696 -0.8723  0.7320  2.8521
 5198SOL     OW27052   1.699   0.645  11.903 -0.2481 -0.0631  0.4737
 5198SOL    HW127053   1.780   0.599  11.881  0.5930  1.9689 -0.6998
 5198SOL    HW227054   1.727   0.707  11.970 -0.5980 -0.7205  1.2339
 5199SOL     OW27055   3.957   2.250   6.906  0.0728  0.4499 -0.3090
 5199SOL    HW127056   3.879   2.194   6.900 -0.3978  0.8892  1.9687
 5199SOL    HW227057   3.975   2.265   6.813 -0.2098  0.8709 -0.2937
 5200SOL     OW27058   2.242   1.374   6.758 -0.2211  0.6316 -0.3124
 5200SOL    HW127059   2.285   1.325   6.827 -0.4912  0.2728 -0.3986
 5200SOL    HW227060   2.268   1.328   6.678  1.7296 -1.2445  1.4197
 5201SOL     OW27061   1.761   1.233  11.933 -0.2037  0.2776 -0.3961
 5201SOL    HW127062   1.736   1.325  11.944  0.1737  0.2275  0.8868
 5201SOL    HW227063   1.833   1.235  11.870  1.5394  2.9099  1.7183
 5202SOL     OW27064   4.455   2.243   2.719 -0.1404 -0.2332 -0.8088
 5202SOL    HW127065   4.426   2.310   2.781 -1.3161 -0.2132 -1.3704
 5202SOL    HW227066   4.459   2.290   2.636 -1.3837  1.5559  0.1339
 5203SOL     OW27067   2.493   1.705   0.454 -0.4967 -0.2436  0.5640
 5203SOL    HW127068   2.470   1.638   0.518 -1.2925  1.3020  1.8894
 5203SOL    HW227069   2.440   1.771   0.498  1.5003  1.3643  0.5700
 5204SOL     OW27070   3.933   1.301   5.895 -0.1752 -0.1390  0.3840
 5204SOL    HW127071   4.015   1.316   5.848 -0.2178 -1.2434 -0.0354
 5204SOL    HW227072   3.903   1.220   5.854  1.0157 -1.4134  2.0512
 5205SOL     OW27073   2.785   2.408  14.151  0.2907  0.2311 -0.5225
 5205SOL    HW127074   2.727   2.474  14.190  0.4046 -0.0247  0.0781
 5205SOL    HW227075   2.827   2.370  14.227 -3.3164 -1.4719  0.5851
 5206SOL     OW27076   3.309   0.706  13.055  0.1183  0.0455  0.4342
 5206SOL    HW127077   3.316   0.622  13.010  1.4565  0.0729  0.5926
 5206SOL    HW227078   3.289   0.684  13.147 -0.0487 -0.8811  0.1742
 5207SOL     OW27079   2.190   1.893   4.221  0.1616 -0.0605  0.0369
 5207SOL    HW127080   2.132   1.824   4.253 -0.2424  0.3018  0.0915
 5207SOL    HW227081   2.216   1.939   4.301  0.2518 -0.0233 -0.0136
 5208SOL     OW27082   2.521   4.308   9.381  0.3739  0.5140  0.4590
 5208SOL    HW127083   2.472   4.335   9.459 -1.7896  0.8060 -0.9905
 5208SOL    HW227084   2.582   4.250   9.427 -0.8350 -0.5131  0.7776
 5209SOL     OW27085   2.116   2.653   7.339 -0.9357 -0.4270 -0.3954
 5209SOL    HW127086   2.032   2.618   7.369 -0.7435 -0.3971  0.1857
 5209SOL    HW227087   2.100   2.656   7.245 -0.8799  0.5747 -0.3701
 5210SOL     OW27088   1.636   0.939   9.370  0.5254 -0.4882  0.0494
 5210SOL    HW127089   1.723   0.934   9.408 -0.4332 -0.5862  2.2292
 5210SOL    HW227090   1.588   0.876   9.424  1.3823 -0.0872  1.2596
 5211SOL     OW27091   2.801   0.867  15.275 -0.2160 -0.6297  0.5062
 5211SOL    HW127092   2.767   0.794  15.223  1.8802 -0.2596 -1.3910
 5211SOL    HW227093   2.882   0.836  15.318 -0.6691 -1.5636  0.6973
 5212SOL     OW27094   2.927   1.347   7.900  0.2551  0.2741 -0.0834
 5212SOL    HW127095   2.979   1.295   7.838  1.1051 -0.2650  1.0664
 5212SOL    HW227096   2.996   1.401   7.939  0.5933 -1.2864  1.5446
 5213SOL     OW27097   3.876   0.646  13.102  0.2274 -0.0986  0.3832
 5213SOL    HW127098   3.877   0.741  13.095 -2.7341  0.0171  1.5547
 5213SOL    HW227099   3.789   0.622  13.069  0.2351 -0.4997  0.6513
 5214SOL     OW27100   0.953   4.044   6.122 -0.0698  0.0347  0.3036
 5214SOL    HW127101   1.025   4.002   6.074 -2.2540  0.1981 -3.1073
 5214SOL    HW227102   0.958   4.136   6.095  0.0817  0.0292  0.3095
 5215SOL     OW27103   0.132   2.853   6.984 -0.1677 -0.1700 -0.1791
 5215SOL    HW127104   0.167   2.835   6.897  0.8102  0.3343  0.0989
 5215SOL    HW227105   0.040   2.832   6.973  0.2559 -3.1273  1.8046
 5216SOL     OW27106   1.857   0.639   8.397 -0.0822 -0.3089  0.0313
 5216SOL    HW127107   1.937   0.611   8.354  0.9664  2.6817  0.0386
 5216SOL    HW227108   1.862   0.587   8.477 -1.7785  0.3876  0.6109
 5217SOL     OW27109   0.035   4.088   2.704 -0.1151  0.6288  0.0291
 5217SOL    HW127110   4.686   4.029   2.681  0.5966  0.5392 -1.9356
 5217SOL    HW227111   0.039   4.090   2.800 -0.1137 -0.4078  0.0538
 5218SOL     OW27112   2.919   1.670   2.361 -0.0474 -0.6034  0.3103
 5218SOL    HW127113   2.851   1.737   2.366 -0.6535 -1.1895 -0.0556
 5218SOL    HW227114   2.993   1.731   2.356  1.2688 -2.2941 -0.6678
 5219SOL     OW27115   4.355   1.562   4.166  0.4104  0.4421  0.3889
 5219SOL    HW127116   4.266   1.526   4.170  0.6409 -0.0538  1.1204
 5219SOL    HW227117   4.335   1.643   4.119  1.0068  0.1588 -0.3576
 5220SOL     OW27118   3.789   1.390   6.920 -0.3285 -0.1245  0.1120
 5220SOL    HW127119   3.702   1.422   6.896 -0.3107 -1.0993 -1.2494
 5220SOL    HW227120   3.802   1.331   6.846 -1.0942  1.3849 -1.2398
 5221SOL     OW27121   2.849   3.560  11.165  0.3802 -0.1463  0.1248
 5221SOL    HW127122   2.781   3.504  11.128  0.9443  0.2362 -1.4668
 5221SOL    HW227123   2.863   3.534  11.256  1.1754 -1.2375 -0.3085
 5222SOL     OW27124   2.829   2.938   9.156 -0.4883  0.3309  0.0801
 5222SOL    HW127125   2.807   3.030   9.171  1.4685  1.0843 -1.6610
 5222SOL    HW227126   2.864   2.913   9.241 -0.1945 -1.0691 -0.4637
 5223SOL     OW27127   3.349   0.512   3.209  0.4899  0.1302  0.3421
 5223SOL    HW127128   3.368   0.605   3.219  1.1255 -0.0037  0.3492
 5223SOL    HW227129   3.255   0.514   3.230  0.3290 -1.3769 -0.2821
 5224SOL     OW27130   1.652   3.546  15.532 -0.0053 -0.1373  0.3948
 5224SOL    HW127131   1.698   3.465  15.555  1.1756  0.6948  0.9888
 5224SOL    HW227132   1.668   3.545  15.438  3.7622  0.7188  0.9827
 5225SOL     OW27133   0.655   2.516   5.259 -0.1319 -0.4337  0.2995
 5225SOL    HW127134   0.712   2.478   5.325  1.0633 -0.0304 -0.4985
 5225SOL    HW227135   0.633   2.440   5.205  0.5845 -0.3185 -0.1612
 5226SOL     OW27136   4.286   0.486  15.824 -0.3150  0.1408  0.5261
 5226SOL    HW127137   4.314   0.496  15.733  1.4817 -2.9745  0.7356
 5226SOL    HW227138   4.213   0.547  15.832  0.0024  0.7104 -1.0219
 5227SOL     OW27139   2.118   2.095  14.030  0.0166  0.1606 -0.0987
 5227SOL    HW127140   2.192   2.086  14.090 -0.2007  0.1523  0.1665
 5227SOL    HW227141   2.043   2.097  14.089 -0.1659  1.5138 -0.3679
 5228SOL     OW27142   1.622   1.792   1.525 -0.3570 -0.7457 -0.4543
 5228SOL    HW127143   1.572   1.746   1.457 -0.5761  0.5887 -1.2000
 5228SOL    HW227144   1.558   1.814   1.593  1.3347  0.4315  0.7479
 5229SOL     OW27145   2.664   1.073   5.212 -0.0346  0.1519  0.1284
 5229SOL    HW127146   2.694   1.056   5.301  0.3982 -1.1578 -0.2636
 5229SOL    HW227147   2.576   1.039   5.227  0.5138 -0.3102  2.3604
 5230SOL     OW27148   1.042   4.531   6.806  0.8093  0.4142 -0.5006
 5230SOL    HW127149   1.091   4.605   6.771  1.1438 -0.3996 -1.7211
 5230SOL    HW227150   1.086   4.522   6.890 -2.6474  1.2568  1.4144
 5231SOL     OW27151   0.355   4.079  14.192  0.5453  0.7155 -0.2517
 5231SOL    HW127152   0.394   4.144  14.134  0.9993 -0.4828 -1.2978
 5231SOL    HW227153   0.270   4.118  14.210  0.6074  0.8442 -0.2418
 5232SOL     OW27154   0.832   3.810   4.423 -0.2894 -0.8798 -0.5022
 5232SOL    HW127155   0.764   3.875   4.404  0.8343  0.2597 -0.6310
 5232SOL    HW227156   0.806   3.783   4.511  0.1618 -2.0228 -0.7271
 5233SOL     OW27157   0.636   0.271   7.675  0.1338 -0.1303 -0.0698
 5233SOL    HW127158   0.589   0.338   7.724  0.9091  0.5954 -0.3125
 5233SOL    HW227159   0.725   0.305   7.690  0.1238 -0.2876  0.3441
 5234SOL     OW27160   2.976   0.561   8.032  0.9763 -0.4684  0.7341
 5234SOL    HW127161   2.959   0.471   8.005  2.7851 -1.1777  1.9684
 5234SOL    HW227162   2.955   0.609   7.952  2.4650  0.0587  0.6572
 5235SOL     OW27163   2.555   4.425   0.213  0.2916 -0.0963  0.3219
 5235SOL    HW127164   2.530   4.498   0.270 -0.6352 -0.2926  0.1582
 5235SOL    HW227165   2.503   4.437   0.133  0.8119 -0.8261 -0.1307
 5236SOL     OW27166   4.560   4.484   6.776 -0.0286 -0.2688 -0.2120
 5236SOL    HW127167   4.572   4.454   6.866  1.3861  3.7365  0.9366
 5236SOL    HW227168   4.470   4.466   6.750  0.1751 -2.5629  0.6452
 5237SOL     OW27169   0.977   4.592   4.838  0.1858  0.1663 -0.2401
 5237SOL    HW127170   1.039   4.531   4.796 -1.3398 -1.3686 -0.2306
 5237SOL    HW227171   1.014   4.608   4.925 -0.3500  1.4558 -0.2467
 5238SOL     OW27172   4.172   2.026   6.492  0.4249 -0.4118 -0.3164
 5238SOL    HW127173   4.202   2.113   6.518 -1.1376  0.4653 -1.4312
 5238SOL    HW227174   4.150   1.979   6.573  1.0437  0.6754  0.4845
 5239SOL     OW27175   0.932   3.387   1.931 -0.2611 -0.2817 -0.0490
 5239SOL    HW127176   0.851   3.420   1.971  0.6383 -1.0747  2.4169
 5239SOL    HW227177   0.893   3.341   1.857  0.3768 -0.2590 -0.3964
 5240SOL     OW27178   4.718   2.961   9.917 -0.0924 -0.9083 -0.0519
 5240SOL    HW127179   0.043   2.921   9.990  0.0329 -0.8357 -0.0954
 5240SOL    HW227180   0.014   3.053   9.935 -2.6858  0.1594 -2.8943
 5241SOL     OW27181   1.936   4.326  12.311  0.0953 -0.1856 -0.5749
 5241SOL    HW127182   1.876   4.286  12.248 -2.9802  1.8877  0.9942
 5241SOL    HW227183   1.872   4.373  12.364  0.3748 -1.3886  0.8147
 5242SOL     OW27184   1.460   0.647  12.241  0.1776 -0.4453  0.3861
 5242SOL    HW127185   1.500   0.604  12.316 -0.3407 -1.3614  0.1339
 5242SOL    HW227186   1.394   0.584  12.211  1.2242  0.2819 -3.4064
 5243SOL     OW27187   3.066   1.468   2.469 -0.2535 -0.0437 -0.9070
 5243SOL    HW127188   3.021   1.547   2.441  2.3468  0.7547 -2.8924
 5243SOL    HW227189   3.013   1.406   2.418  0.6503  0.1189 -2.0366
 5244SOL     OW27190   0.519   0.720   7.810 -0.1598 -0.2330  0.2426
 5244SOL    HW127191   0.610   0.742   7.789  0.1606  0.5855  2.5604
 5244SOL    HW227192   0.496   0.804   7.849 -0.7154 -1.1897  1.9515
 5245SOL     OW27193   0.201   2.340   8.534  0.5243  0.5354 -0.1554
 5245SOL    HW127194   0.126   2.295   8.573  1.2659  0.8199  1.5867
 5245SOL    HW227195   0.217   2.418   8.586  2.3060  1.6098 -2.3595
 5246SOL     OW27196   0.147   0.632   3.965 -0.4045  0.6543  0.2297
 5246SOL    HW127197   0.134   0.619   3.871  0.5994 -0.2114  0.2077
 5246SOL    HW227198   0.184   0.720   3.965  1.5681 -0.1740  1.2220
 5247SOL     OW27199   4.164   1.663   1.527 -0.0743 -0.2253 -0.2175
 5247SOL    HW127200   4.192   1.578   1.558  0.6801  0.1133  0.0261
 5247SOL    HW227201   4.216   1.726   1.577  0.8177 -0.5062 -0.7907
 5248SOL     OW27202   2.872   4.165   5.871  0.0689  0.5233 -0.0272
 5248SOL    HW127203   2.835   4.102   5.809  2.0612 -0.6244 -0.0670
 5248SOL    HW227204   2.965   4.156   5.849  0.5684  2.4274  1.3055
 5249SOL     OW27205   2.618   2.089   3.565  0.0394 -0.0645  0.3291
 5249SOL    HW127206   2.556   2.031   3.609 -0.9872  0.3159 -0.6373
 5249SOL    HW227207   2.672   2.115   3.640  0.2359  1.2962 -0.2936
 5250SOL     OW27208   0.025   3.309  10.203 -0.3734  0.2183  0.3311
 5250SOL    HW127209   0.066   3.248  10.264 -0.6641  0.6437  0.9460
 5250SOL    HW227210   0.055   3.397  10.224  2.1742 -0.5674  0.0032
 5251SOL     OW27211   1.477   1.659   6.440 -0.6509 -0.3492  0.4376
 5251SOL    HW127212   1.485   1.724   6.511 -0.7004 -0.2057  0.3117
 5251SOL    HW227213   1.449   1.710   6.364 -0.8093  0.0232  0.7419
 5252SOL     OW27214   3.043   2.034   4.902 -0.4487 -0.0530  0.1224
 5252SOL    HW127215   2.949   2.013   4.905 -0.7013  1.1728  0.9082
 5252SOL    HW227216   3.035   2.126   4.877  0.4156  0.1929  0.7225
 5253SOL     OW27217   0.636   3.033   3.503  0.1837  0.2790 -0.3094
 5253SOL    HW127218   0.568   3.051   3.438  1.3617 -0.7558 -1.8429
 5253SOL    HW227219   0.603   2.948   3.533  1.1940  0.7455  2.1350
 5254SOL     OW27220   1.980   1.882  11.683  0.4695  0.2862  0.3397
 5254SOL    HW127221   1.898   1.841  11.710  1.4136 -3.2230 -2.1716
 5254SOL    HW227222   1.971   1.862  11.590 -2.1255 -1.0492  0.8671
 5255SOL     OW27223   0.760   3.078   6.581  0.3343  0.1682  0.8702
 5255SOL    HW127224   0.856   3.082   6.575  0.3551  0.5734  1.4456
 5255SOL    HW227225   0.744   3.028   6.662 -2.1552 -0.7877 -0.2103
 5256SOL     OW27226   1.983   3.600  11.350  0.1445 -0.5426 -0.4908
 5256SOL    HW127227   2.044   3.654  11.301 -1.0279  0.6473 -0.6340
 5256SOL    HW227228   1.945   3.533  11.293 -1.2464 -0.5808  0.4963
 5257SOL     OW27229   2.964   1.479   4.790  0.1651  0.2444 -0.0171
 5257SOL    HW127230   2.911   1.415   4.743 -0.0695 -0.2884  0.9728
 5257SOL    HW227231   3.018   1.517   4.721 -0.0019  0.2223 -0.1611
 5258SOL     OW27232   3.407   2.257   5.306  0.5063 -0.1136  0.4608
 5258SOL    HW127233   3.493   2.290   5.332 -0.4370  0.9669  2.2591
 5258SOL    HW227234   3.354   2.336   5.306  0.2208 -0.3081 -0.2025
 5259SOL     OW27235   3.072   4.009  16.015  0.1460 -0.3699  0.0362
 5259SOL    HW127236   3.161   3.977  16.026  0.8373  1.4962 -0.0795
 5259SOL    HW227237   3.050   4.031  16.106 -1.1526  2.0381 -0.8517
 5260SOL     OW27238   4.578   1.804   8.248 -1.0834  0.2262 -0.0820
 5260SOL    HW127239   4.642   1.869   8.278 -0.4583 -1.7088  2.7799
 5260SOL    HW227240   4.613   1.784   8.161  1.3784  0.0213  0.9338
 5261SOL     OW27241   2.670   1.410   3.167 -0.6581 -0.6148  0.0544
 5261SOL    HW127242   2.631   1.496   3.151  0.6453 -0.0223  0.0547
 5261SOL    HW227243   2.631   1.370   3.089  3.7781 -0.2317 -2.3924
 5262SOL     OW27244   1.085   0.398  11.517  0.1141 -0.1971  0.3763
 5262SOL    HW127245   1.017   0.464  11.532 -0.8066 -0.7884 -1.2106
 5262SOL    HW227246   1.134   0.429  11.441  0.8253  0.7179  1.2146
 5263SOL     OW27247   4.682   3.219   2.571 -0.6073 -0.0483 -0.3743
 5263SOL    HW127248   0.003   3.228   2.655 -0.6946  0.4919 -0.3889
 5263SOL    HW227249   4.636   3.136   2.584  0.3203 -0.8162 -1.9578
 5264SOL     OW27250   0.476   3.746   2.665  0.3758 -0.3333  0.2096
 5264SOL    HW127251   0.555   3.799   2.664 -0.0526  0.3115  1.3801
 5264SOL    HW227252   0.457   3.749   2.758  0.1826  2.0915  0.0816
 5265SOL     OW27253   1.797   2.442   3.421 -0.5334 -0.0586 -0.3803
 5265SOL    HW127254   1.809   2.457   3.328 -0.7347  0.0537 -0.3886
 5265SOL    HW227255   1.884   2.462   3.455 -1.3111  0.6279  1.2212
 5266SOL     OW27256   3.900   1.629   4.432  0.0221  1.0536  0.3693
 5266SOL    HW127257   3.915   1.722   4.449  0.0392  0.7515  2.0457
 5266SOL    HW227258   3.925   1.593   4.517 -1.7134 -1.2733 -0.0981
 5267SOL     OW27259   0.063   0.373   7.612 -0.0728  0.1774 -0.2251
 5267SOL    HW127260   0.033   0.282   7.612  0.4934 -0.0112  0.0126
 5267SOL    HW227261   0.065   0.391   7.706  3.4923 -1.2087 -0.0081
 5268SOL     OW27262   1.204   1.271   4.869 -0.3917 -0.0348 -0.5013
 5268SOL    HW127263   1.266   1.238   4.805  1.0025 -0.6750  1.1687
 5268SOL    HW227264   1.119   1.261   4.826  0.0253  2.8982 -2.0174
 5269SOL     OW27265   2.692   3.495   9.315 -0.1318  0.4003  0.0452
 5269SOL    HW127266   2.610   3.467   9.356 -0.2882  0.2446 -0.3745
 5269SOL    HW227267   2.668   3.476   9.224  2.4763 -1.6653 -0.2373
 5270SOL     OW27268   1.593   4.589   7.321 -0.2054  0.8431 -0.8523
 5270SOL    HW127269   1.547   4.663   7.360 -1.1064  0.6692 -1.5545
 5270SOL    HW227270   1.605   4.530   7.395 -0.4475  1.6573 -0.1643
 5271SOL     OW27271   1.188   2.731   2.660 -0.6025 -0.4761  0.2817
 5271SOL    HW127272   1.137   2.650   2.662  0.3687 -1.1116 -0.5218
 5271SOL    HW227273   1.237   2.703   2.583  2.6692  4.3083  0.6829
 5272SOL     OW27274   4.090   2.537   8.520  0.5981  0.0509 -0.4935
 5272SOL    HW127275   4.052   2.555   8.434  0.7638 -0.1656 -0.6135
 5272SOL    HW227276   4.111   2.624   8.553 -1.2231  0.4293 -0.3552
 5273SOL     OW27277   1.967   3.554   3.931  0.5198  0.3136  0.0503
 5273SOL    HW127278   2.022   3.517   3.861  0.3205 -3.4612  1.8898
 5273SOL    HW227279   1.933   3.635   3.893 -1.6345 -1.3463 -1.5502
 5274SOL     OW27280   0.120   0.904  14.347 -0.0731 -0.2685  0.4166
 5274SOL    HW127281   0.069   0.831  14.382 -2.6602  0.5283 -1.6974
 5274SOL    HW227282   0.196   0.857  14.311 -0.6471  0.0436 -1.2083
 5275SOL     OW27283   3.577   0.556   4.226 -0.2653  0.0643  0.2046
 5275SOL    HW127284   3.606   0.514   4.307 -0.6808 -0.2535  0.1908
 5275SOL    HW227285   3.655   0.601   4.194 -0.6070 -1.2632 -2.4592
 5276SOL     OW27286   1.646   0.824   8.071 -0.1007  0.3563 -0.1000
 5276SOL    HW127287   1.646   0.918   8.053  0.9697 -0.0906 -2.4011
 5276SOL    HW227288   1.662   0.784   7.986  2.0172  0.2283  0.3690
 5277SOL     OW27289   1.520   4.482  10.164 -0.4053 -0.4994 -0.1429
 5277SOL    HW127290   1.571   4.538  10.106  0.0501 -1.2800 -0.4999
 5277SOL    HW227291   1.464   4.541  10.215 -0.5033 -1.8493  1.3021
 5278SOL     OW27292   2.597   3.107  12.357  0.6034  0.5230  0.1985
 5278SOL    HW127293   2.657   3.089  12.284 -0.4413  0.2645 -0.6032
 5278SOL    HW227294   2.524   3.051  12.331  0.9093  0.3520 -0.2806
 5279SOL     OW27295   3.153   3.695   0.529  0.0290 -0.3177  0.1913
 5279SOL    HW127296   3.232   3.713   0.478  0.3251  2.3087  1.5478
 5279SOL    HW227297   3.109   3.644   0.461 -0.8596 -0.0210  0.5387
 5280SOL     OW27298   3.603   3.772   7.817  0.1157  0.0924 -0.2831
 5280SOL    HW127299   3.592   3.677   7.808 -0.8689  0.2953 -1.2028
 5280SOL    HW227300   3.562   3.794   7.901 -0.7874 -3.7838  0.2769
 5281SOL     OW27301   0.332   2.658   1.139  0.3505 -0.4056  0.4602
 5281SOL    HW127302   0.365   2.605   1.211 -1.3960  0.8188  2.1591
 5281SOL    HW227303   0.257   2.696   1.185 -0.5183 -0.0252 -1.2762
 5282SOL     OW27304   2.979   1.662   3.558 -0.5579  0.3176 -0.2159
 5282SOL    HW127305   2.884   1.664   3.541 -0.2205  1.9735 -1.9308
 5282SOL    HW227306   3.017   1.603   3.494  1.0373 -1.3928  2.3436
 5283SOL     OW27307   0.368   4.022   8.222  0.0926 -0.0223  0.1224
 5283SOL    HW127308   0.430   4.089   8.191  1.3003 -0.9341  0.5941
 5283SOL    HW227309   0.386   4.013   8.316  0.0672  2.1367  0.3514
 5284SOL     OW27310   3.233   4.546  14.798  0.2376 -0.0428  0.4412
 5284SOL    HW127311   3.154   4.535  14.852 -1.4303 -0.5318 -2.0866
 5284SOL    HW227312   3.237   4.459  14.758  1.3052 -0.2957  1.1182
 5285SOL     OW27313   0.382   4.354   5.389 -0.8964 -0.1091 -0.0745
 5285SOL    HW127314   0.351   4.288   5.450 -1.6899 -0.4824 -0.8813
 5285SOL    HW227315   0.420   4.423   5.444  0.8435  0.5067 -2.0043
 5286SOL     OW27316   1.417   2.475   0.767  0.2732  0.0168  0.1876
 5286SOL    HW127317   1.353   2.421   0.813 -0.8649  0.7819 -0.5179
 5286SOL    HW227318   1.472   2.497   0.842 -0.1322  0.8709  0.2343
 5287SOL     OW27319   0.417   2.863   7.390 -0.0693  0.1161 -0.3131
 5287SOL    HW127320   0.480   2.793   7.408 -0.4344  0.1318  1.0221
 5287SOL    HW227321   0.451   2.933   7.446 -0.6383 -0.2994  0.5499
 5288SOL     OW27322   2.443   0.735  10.775  0.2048 -0.3355  0.4548
 5288SOL    HW127323   2.520   0.784  10.747 -0.1820 -0.0929 -0.1828
 5288SOL    HW227324   2.405   0.784  10.848 -1.7282 -1.0398 -0.0701
 5289SOL     OW27325   2.742   1.780   0.041 -0.2289  0.1924 -0.1570
 5289SOL    HW127326   2.794   1.722  17.678  0.0859  0.1342  0.1922
 5289SOL    HW227327   2.686   1.714   0.082 -0.1889  1.3706  1.8230
 5290SOL     OW27328   0.472   0.304  10.049 -0.0449 -0.4095  0.6056
 5290SOL    HW127329   0.422   0.235  10.005  1.2166 -0.5454 -0.6235
 5290SOL    HW227330   0.553   0.279  10.003 -1.0514 -1.1388 -0.7973
 5291SOL     OW27331   0.300   1.145   5.697  0.4327  0.3495 -0.0124
 5291SOL    HW127332   0.259   1.223   5.660 -1.1462 -1.2247 -1.5795
 5291SOL    HW227333   0.384   1.134   5.652  0.9910  1.0435  0.8669
 5292SOL     OW27334   4.414   3.672   5.138  0.4757  0.0174  0.0849
 5292SOL    HW127335   4.456   3.666   5.224  2.3368  1.7384 -0.7107
 5292SOL    HW227336   4.461   3.601   5.094 -0.7514 -0.9575  0.3293
 5293SOL     OW27337   4.444   1.390  16.386 -0.4132  0.1371  0.2157
 5293SOL    HW127338   4.436   1.326  16.315 -0.6569  0.2546  0.1364
 5293SOL    HW227339   4.351   1.412  16.395  0.3219  2.9332  1.0583
 5294SOL     OW27340   4.471   3.566   3.692  0.1548  0.2456  0.3522
 5294SOL    HW127341   4.463   3.587   3.599  2.9192  0.5137  0.1683
 5294SOL    HW227342   4.564   3.585   3.701 -0.1871  1.2549  1.7461
 5295SOL     OW27343   0.784   1.183  10.505  0.2211 -0.2694  0.2940
 5295SOL    HW127344   0.705   1.130  10.498  0.5655 -0.6057 -1.0572
 5295SOL    HW227345   0.778   1.209  10.597  1.4123 -0.6146  0.4734
 5296SOL     OW27346   1.032   0.549   4.016 -0.4948  0.6103 -0.0393
 5296SOL    HW127347   1.034   0.484   3.945  1.8978  0.1801  0.3906
 5296SOL    HW227348   1.082   0.506   4.086 -2.4959  0.3530  1.2130
 5297SOL     OW27349   2.791   2.662   7.301 -0.0898 -0.2987  0.6254
 5297SOL    HW127350   2.837   2.686   7.221 -1.7857  0.7127 -0.0457
 5297SOL    HW227351   2.746   2.742   7.328  1.4081  0.3162  1.2884
 5298SOL     OW27352   4.135   1.624   5.113 -0.0186  0.4625  0.0275
 5298SOL    HW127353   4.133   1.576   5.031 -2.2684 -3.5237  2.3958
 5298SOL    HW227354   4.045   1.657   5.108  0.1639  1.0647  0.6287
 5299SOL     OW27355   0.880   4.517  15.571 -0.1277 -0.6442  0.0102
 5299SOL    HW127356   0.802   4.462  15.565 -0.3113 -0.3582 -0.2140
 5299SOL    HW227357   0.864   4.576  15.497 -2.3344  1.1333  1.9021
 5300SOL     OW27358   1.181   1.929   1.891  0.3993  0.1434  0.3279
 5300SOL    HW127359   1.129   1.921   1.811 -1.6561 -0.7150  1.7415
 5300SOL    HW227360   1.123   1.975   1.951 -1.2755  0.2601 -1.3784
 5301SOL     OW27361   0.158   4.378   5.003  0.3690  0.0270  0.0618
 5301SOL    HW127362   0.125   4.327   4.929  0.5880 -0.1883  0.1133
 5301SOL    HW227363   0.126   4.465   4.977 -0.2710 -1.2436 -3.4124
 5302SOL     OW27364   3.441   1.054   9.910  0.0620  0.2349 -0.2540
 5302SOL    HW127365   3.447   0.959   9.906 -1.8752  0.0354  1.3214
 5302SOL    HW227366   3.358   1.061   9.862 -1.5128  0.2417  2.4660
 5303SOL     OW27367   2.440   0.521  15.366  0.1061  0.2942 -0.4427
 5303SOL    HW127368   2.506   0.584  15.395  0.3650  0.0503 -0.4933
 5303SOL    HW227369   2.421   0.548  15.276  0.4019 -0.1961 -0.6561
 5304SOL     OW27370   2.284   1.569   0.982 -0.1023 -0.7422 -0.3111
 5304SOL    HW127371   2.206   1.513   0.984 -0.3568 -0.4066 -0.8004
 5304SOL    HW227372   2.274   1.634   1.051  0.1755  0.1415 -1.0988
 5305SOL     OW27373   1.915   1.873  12.518 -0.1323 -0.1526  0.6664
 5305SOL    HW127374   1.863   1.952  12.529  0.5440  0.4655 -0.5149
 5305SOL    HW227375   1.887   1.812  12.586  1.2464 -2.0477 -0.4910
 5306SOL     OW27376   3.605   0.071  16.498 -0.3019  0.1678  0.6137
 5306SOL    HW127377   3.660   0.104  16.568 -1.0251 -0.3147  1.4071
 5306SOL    HW227378   3.673   0.034  16.442  0.0920  3.0912 -0.8545
 5307SOL     OW27379   2.760   0.943  17.342 -0.5195 -0.8012 -0.4953
 5307SOL    HW127380   2.778   0.995  17.420 -0.3482  0.8586 -1.6325
 5307SOL    HW227381   2.826   0.981  17.283 -1.3765  1.8683  0.2915
 5308SOL     OW27382   1.007   2.021   5.802 -0.4659  0.3041 -0.0813
 5308SOL    HW127383   1.003   2.091   5.868 -0.9004 -0.9381  1.1885
 5308SOL    HW227384   1.043   2.079   5.734  1.5866 -2.1491 -1.0657
 5309SOL     OW27385   3.855   3.774   8.060  0.6739 -0.4263 -0.0615
 5309SOL    HW127386   3.786   3.790   8.124 -0.0318  3.1483 -1.6797
 5309SOL    HW227387   3.856   3.853   8.006  1.9752  1.9367  3.3973
 5310SOL     OW27388   0.543   4.410   7.326  0.5119 -0.0021  0.2777
 5310SOL    HW127389   0.608   4.355   7.370  0.0387  1.1934  2.4852
 5310SOL    HW227390   0.522   4.454   7.409  0.0674  0.9674 -0.3528
 5311SOL     OW27391   3.444   3.801   9.463 -0.3520 -0.3396  0.2138
 5311SOL    HW127392   3.390   3.727   9.434  0.2165 -0.6904  0.0537
 5311SOL    HW227393   3.374   3.859   9.493  0.0324  0.3651 -0.2565
 5312SOL     OW27394   2.450   1.771  11.531  0.1433  0.5386  0.2734
 5312SOL    HW127395   2.400   1.809  11.603  0.8492 -1.1568  1.6590
 5312SOL    HW227396   2.410   1.685  11.522 -1.6272  0.9773  3.9274
 5313SOL     OW27397   1.466   1.440   7.822  0.2690 -0.2420  0.5542
 5313SOL    HW127398   1.450   1.354   7.862 -0.2383 -1.1580 -1.6207
 5313SOL    HW227399   1.433   1.412   7.737  1.8720  0.6674 -0.3843
 5314SOL     OW27400   0.133   2.919   7.519 -0.1660  0.0560  0.1123
 5314SOL    HW127401   0.218   2.898   7.482 -0.6568 -1.2324 -0.2856
 5314SOL    HW227402   0.155   2.934   7.611  1.0295  1.9452 -0.4784
 5315SOL     OW27403   2.504   3.253   0.412 -0.2578  0.1834 -0.0603
 5315SOL    HW127404   2.455   3.175   0.438  0.7603 -0.9806 -1.6040
 5315SOL    HW227405   2.482   3.259   0.319 -0.3491  2.3007  0.1113
 5316SOL     OW27406   3.339   0.251  11.372  0.1685 -0.4339 -0.4768
 5316SOL    HW127407   3.405   0.206  11.318  1.4786 -1.5927  2.0876
 5316SOL    HW227408   3.270   0.258  11.307 -0.3094 -1.2490 -0.0595
 5317SOL     OW27409   3.816   3.563   6.511  0.3764  0.0184  0.3485
 5317SOL    HW127410   3.774   3.574   6.596  0.9778 -3.1910  1.0561
 5317SOL    HW227411   3.826   3.655   6.486 -1.9054  0.2200  0.1629
 5318SOL     OW27412   4.657   1.531  14.313  0.1274  0.1937 -0.4592
 5318SOL    HW127413   4.707   1.607  14.282  1.3558 -0.0533  0.9361
 5318SOL    HW227414   4.701   1.451  14.283  1.4264  0.4009  0.8869
 5319SOL     OW27415   3.524   1.617  11.188  0.0379  0.1177  0.1819
 5319SOL    HW127416   3.578   1.614  11.109 -1.9488  0.0761 -1.1576
 5319SOL    HW227417   3.436   1.636  11.156 -0.6325  1.7183  2.9189
 5320SOL     OW27418   3.645   4.377  16.927 -0.0892  0.4120 -0.3108
 5320SOL    HW127419   3.688   4.293  16.911 -1.5852  0.0564 -2.5380
 5320SOL    HW227420   3.563   4.371  16.877  0.2111  0.3196 -0.7992
 5321SOL     OW27421   1.889   0.091   5.836 -0.0934  0.4505  0.8256
 5321SOL    HW127422   1.878   0.015   5.779 -0.2750  1.8211 -0.9728
 5321SOL    HW227423   1.957   0.131   5.781 -0.9427 -1.9878 -1.9855
 5322SOL     OW27424   2.080   3.317   7.961  0.4599 -0.2023  0.1615
 5322SOL    HW127425   2.167   3.347   7.985 -0.0409  0.8530  0.6538
 5322SOL    HW227426   2.027   3.369   8.022 -2.5822 -2.3013 -0.6671
 5323SOL     OW27427   4.574   1.210   7.038  0.0878 -0.5832 -0.2214
 5323SOL    HW127428   4.553   1.237   7.128  2.4186  2.2363 -0.4972
 5323SOL    HW227429   4.517   1.268   6.988 -0.0834 -1.6825 -1.3038
 5324SOL     OW27430   1.410   2.838   4.461  0.4298 -0.1165 -0.2635
 5324SOL    HW127431   1.469   2.825   4.536  1.5310  3.6686 -0.4701
 5324SOL    HW227432   1.424   2.748   4.433  0.8209 -0.1045 -0.1146
 5325SOL     OW27433   0.850   0.653  12.006 -0.3117 -0.0031 -0.2791
 5325SOL    HW127434   0.905   0.714  12.056 -1.5413 -0.1039  1.1745
 5325SOL    HW227435   0.896   0.571  12.024 -2.1908 -0.3519  2.7962
 5326SOL     OW27436   0.719   3.599   3.438  0.2224  0.6593 -0.1445
 5326SOL    HW127437   0.771   3.637   3.367 -0.1744 -1.7011 -1.6967
 5326SOL    HW227438   0.656   3.665   3.466 -2.7243 -2.1517 -0.1661
 5327SOL     OW27439   0.643   2.414   1.112  0.1604 -0.3847 -0.2435
 5327SOL    HW127440   0.674   2.482   1.171  0.3232 -0.8915  0.2634
 5327SOL    HW227441   0.718   2.383   1.061  0.2233  1.9147 -1.5108
 5328SOL     OW27442   1.436   0.720   3.264 -0.3595 -0.3755  0.0234
 5328SOL    HW127443   1.531   0.734   3.254 -0.3628  0.8500  1.6540
 5328SOL    HW227444   1.419   0.636   3.222  3.6669 -1.3716  0.3547
 5329SOL     OW27445   1.741   0.939   7.806 -0.2317 -0.5688 -0.5897
 5329SOL    HW127446   1.720   0.991   7.884 -0.5025 -0.2728 -0.8552
 5329SOL    HW227447   1.766   1.002   7.737 -2.7734  1.4825  0.3670
 5330SOL     OW27448   1.874   0.535   2.785 -0.6671  0.5792  0.0685
 5330SOL    HW127449   1.863   0.488   2.703  0.8015  0.5878 -0.1320
 5330SOL    HW227450   1.968   0.521   2.800 -0.9757 -2.0454 -0.4890
 5331SOL     OW27451   2.904   3.049   0.865 -0.3291  0.1424  0.2324
 5331SOL    HW127452   2.937   3.075   0.778 -1.4329 -0.9730 -0.5192
 5331SOL    HW227453   2.857   3.131   0.884  0.5730  0.4550  1.0606
 5332SOL     OW27454   0.125   1.251   1.336 -0.0539 -0.7378  0.1550
 5332SOL    HW127455   0.076   1.333   1.333  1.7551  0.3457 -0.1630
 5332SOL    HW227456   0.215   1.283   1.330  0.5505 -2.6030 -0.6871
 5333SOL     OW27457   3.551   0.506   7.884  0.2817  0.0033  0.1438
 5333SOL    HW127458   3.601   0.462   7.953 -1.3857 -0.9800  0.7468
 5333SOL    HW227459   3.462   0.506   7.921  1.7193 -0.1499  3.5676
 5334SOL     OW27460   2.328   3.077   2.803  0.2778 -0.1810  0.0497
 5334SOL    HW127461   2.292   3.153   2.848 -1.8519  0.4652 -2.8013
 5334SOL    HW227462   2.319   3.015   2.875  1.3699 -0.9639 -0.4742
 5335SOL     OW27463   3.112   3.158  15.191  0.3080  0.1313 -0.4368
 5335SOL    HW127464   3.108   3.203  15.107 -0.7594 -1.3288 -1.1717
 5335SOL    HW227465   3.204   3.133  15.193  0.4827  0.7432 -1.0449
 5336SOL     OW27466   3.519   2.918   7.498 -0.0790 -0.7589  0.6524
 5336SOL    HW127467   3.578   2.844   7.481  0.2486 -0.1247 -0.9648
 5336SOL    HW227468   3.467   2.878   7.567 -1.0058 -2.2142 -0.8618
 5337SOL     OW27469   3.463   3.712  10.446  0.4126  0.5042 -0.5040
 5337SOL    HW127470   3.450   3.778  10.378 -1.6099 -1.9082 -2.4431
 5337SOL    HW227471   3.375   3.718  10.483  0.2414  1.7474 -1.0887
 5338SOL     OW27472   0.854   0.911   8.888  0.7577  0.2929  0.3666
 5338SOL    HW127473   0.822   1.000   8.869  0.2213 -0.2686 -1.3646
 5338SOL    HW227474   0.908   0.888   8.812  1.4951 -0.9236  1.2564
 5339SOL     OW27475   1.976   1.775   6.426  0.2379 -0.0934 -0.5467
 5339SOL    HW127476   1.943   1.697   6.471  1.5584  0.6600  1.6899
 5339SOL    HW227477   1.921   1.846   6.458 -1.1681 -0.4588 -2.1521
 5340SOL     OW27478   3.957   4.654   6.886 -0.2739  0.2728  0.5223
 5340SOL    HW127479   3.869   4.650   6.923 -0.1207  0.6922  0.9333
 5340SOL    HW227480   3.996   4.587   6.942 -1.9883 -0.2228  1.1328
 5341SOL     OW27481   2.971   0.129   4.499 -0.2435 -0.2019 -0.1352
 5341SOL    HW127482   3.066   0.123   4.510 -0.2561  3.4821  2.3489
 5341SOL    HW227483   2.955   0.173   4.583 -0.6542  0.6139 -0.6433
 5342SOL     OW27484   4.164   0.303   2.362  0.2543 -0.3739  0.3086
 5342SOL    HW127485   4.233   0.239   2.348  1.5153  1.5403 -2.2265
 5342SOL    HW227486   4.164   0.295   2.457  0.4509  0.1826  0.3554
 5343SOL     OW27487   4.577   3.108   6.242 -0.2741 -0.0715 -0.8094
 5343SOL    HW127488   4.558   3.151   6.159 -1.3198  0.5927 -0.2401
 5343SOL    HW227489   4.592   3.185   6.298 -0.4526 -0.5010 -0.1746
 5344SOL     OW27490   2.378   0.327   2.983 -0.6147 -0.2992  0.5555
 5344SOL    HW127491   2.459   0.305   2.938 -0.3914  0.9094  0.3675
 5344SOL    HW227492   2.358   0.247   3.032 -1.8819 -0.9823 -1.0868
 5345SOL     OW27493   0.928   2.560  15.012  0.6372  0.0059  0.0006
 5345SOL    HW127494   0.843   2.527  14.983 -0.5568  2.7293  0.4556
 5345SOL    HW227495   0.938   2.632  14.950  0.6997  0.4140  0.4914
 5346SOL     OW27496   2.897   2.252  14.692 -0.0981  0.0964  0.2779
 5346SOL    HW127497   2.985   2.273  14.722 -0.7172  2.3931  0.4724
 5346SOL    HW227498   2.910   2.206  14.609 -1.5592 -0.1143  0.1571
 5347SOL     OW27499   2.756   4.350   2.980  0.0372 -0.9372  0.2907
 5347SOL    HW127500   2.782   4.259   2.991  0.2361 -0.8663  0.4013
 5347SOL    HW227501   2.828   4.379   2.923 -0.6616 -0.7131 -0.4746
 5348SOL     OW27502   1.821   1.515  13.778  0.1910 -0.1116 -0.7512
 5348SOL    HW127503   1.773   1.433  13.773  1.9940 -1.3258  1.9310
 5348SOL    HW227504   1.849   1.500  13.869  3.1806  2.1947 -1.2802
 5349SOL     OW27505   0.484   3.870   9.556  0.2123  0.0583  0.3104
 5349SOL    HW127506   0.579   3.882   9.563  0.7746 -2.9926 -2.1767
 5349SOL    HW227507   0.472   3.828   9.642  0.5789 -2.8880 -1.0555
 5350SOL     OW27508   4.486   2.202  10.355 -0.4832 -0.9369 -0.3277
 5350SOL    HW127509   4.398   2.163  10.354  0.2841 -2.6489 -0.5417
 5350SOL    HW227510   4.471   2.259  10.430  0.9967 -1.3907  0.2923
 5351SOL     OW27511   3.280   4.225  13.510 -0.1974 -0.3587 -0.2317
 5351SOL    HW127512   3.301   4.132  13.519 -4.5834 -1.4005 -0.7754
 5351SOL    HW227513   3.213   4.234  13.578  0.2965  0.5380  0.1340
 5352SOL     OW27514   1.613   0.026   2.782 -0.0671  0.0563 -0.0681
 5352SOL    HW127515   1.669   0.088   2.828  0.4893  0.0225 -0.7008
 5352SOL    HW227516   1.614   0.063   2.694  1.6423  1.1139  0.3961
 5353SOL     OW27517   2.619   2.703   6.168 -0.3897  0.1462  0.2535
 5353SOL    HW127518   2.585   2.793   6.168 -0.9394 -0.0592  0.6145
 5353SOL    HW227519   2.713   2.715   6.157  0.1624 -1.8792  2.8560
 5354SOL     OW27520   0.484   2.123   8.288  0.6426  0.5755 -0.4393
 5354SOL    HW127521   0.411   2.178   8.260 -0.2658 -0.8438 -0.9222
 5354SOL    HW227522   0.464   2.121   8.382 -2.1810  1.0762 -1.0376
 5355SOL     OW27523   4.362   1.862   9.514  0.0822 -0.1045 -0.2135
 5355SOL    HW127524   4.369   1.856   9.418  0.8894 -1.8819 -0.0327
 5355SOL    HW227525   4.402   1.948   9.525  1.0119 -0.5345 -0.2886
 5356SOL     OW27526   1.818   3.504   3.041 -0.1210 -0.0626  0.4028
 5356SOL    HW127527   1.801   3.526   2.949  0.8981  2.7950  0.9028
 5356SOL    HW227528   1.745   3.445   3.059 -0.5709  0.5506  0.6003
 5357SOL     OW27529   3.254   0.113   6.756 -0.8265  0.4631  0.0478
 5357SOL    HW127530   3.192   0.171   6.800 -0.2318 -0.2048  1.7936
 5357SOL    HW227531   3.206   0.110   6.673  1.3667 -3.3963 -1.0779
 5358SOL     OW27532   1.076   3.622   1.638  0.0505 -0.5219 -0.6162
 5358SOL    HW127533   1.025   3.689   1.684 -0.2106 -0.2755 -1.2686
 5358SOL    HW227534   1.021   3.619   1.560  1.2786  0.1170 -1.4908
 5359SOL     OW27535   3.307   0.574   8.804 -0.0150 -0.0354  0.2477
 5359SOL    HW127536   3.307   0.576   8.899 -1.2421 -0.7655  0.2537
 5359SOL    HW227537   3.402   0.563   8.793 -0.0086  0.1347  0.1080
 5360SOL     OW27538   1.361   3.444  10.761  0.3341 -0.6034  0.0821
 5360SOL    HW127539   1.279   3.444  10.811 -0.2314 -2.2449 -0.8450
 5360SOL    HW227540   1.395   3.369  10.810  1.2501  0.4001  0.9752
 5361SOL     OW27541   0.389   3.596   6.303 -0.5066  0.4240  0.3674
 5361SOL    HW127542   0.373   3.550   6.221 -1.3081 -1.4263  1.5504
 5361SOL    HW227543   0.396   3.517   6.357 -0.4462 -1.3933 -2.2753
 5362SOL     OW27544   0.356   4.519  12.572 -0.1305 -0.3702  0.2314
 5362SOL    HW127545   0.353   4.431  12.609  1.2576 -0.7694 -0.6114
 5362SOL    HW227546   0.430   4.518  12.512 -1.3109  0.3825 -1.2317
 5363SOL     OW27547   0.847   3.389   3.618  0.0153 -0.5800  0.2091
 5363SOL    HW127548   0.766   3.342   3.640 -0.3661 -1.4635 -3.0883
 5363SOL    HW227549   0.804   3.452   3.561  0.7594  0.7230  1.0869
 5364SOL     OW27550   4.101   3.034  17.358 -0.1385  0.2016  0.3150
 5364SOL    HW127551   4.154   2.979  17.416 -0.3664  0.0007  0.3344
 5364SOL    HW227552   4.165   3.094  17.318  1.5588 -2.2496 -0.6877
 5365SOL     OW27553   0.763   2.878   8.125  0.0251  0.4359 -0.8871
 5365SOL    HW127554   0.824   2.938   8.168  0.5057 -1.2235  0.7068
 5365SOL    HW227555   0.714   2.942   8.073 -1.2398 -0.4784 -0.8247
 5366SOL     OW27556   1.687   2.224   5.933  0.2201 -0.3361 -0.2091
 5366SOL    HW127557   1.689   2.173   6.015 -0.2248 -1.0730 -0.6527
 5366SOL    HW227558   1.644   2.306   5.956 -1.7478 -1.6820  0.9028
 5367SOL     OW27559   0.556   3.836   3.500  0.0662  0.5293  0.0363
 5367SOL    HW127560   0.525   3.896   3.568  2.4654 -0.6161  2.1039
 5367SOL    HW227561   0.587   3.894   3.430 -0.1585  1.6197  0.8416
 5368SOL     OW27562   0.193   4.118   8.654 -0.0661  0.4591 -0.0572
 5368SOL    HW127563   0.203   4.046   8.717  1.7435  0.7810  0.0218
 5368SOL    HW227564   0.142   4.180   8.706  1.2512  0.1140  1.6394
 5369SOL     OW27565   1.083   2.569   2.146 -0.2941 -0.0438 -0.2267
 5369SOL    HW127566   0.988   2.561   2.141 -0.3155 -0.4012  0.7164
 5369SOL    HW227567   1.102   2.650   2.098 -3.1247 -0.7735 -2.5281
 5370SOL     OW27568   4.538   4.419   8.501 -0.1261 -0.0676 -0.4658
 5370SOL    HW127569   4.571   4.400   8.589 -0.6283 -0.7480 -0.4202
 5370SOL    HW227570   4.448   4.395   8.523 -0.8471  1.0423 -2.2042
 5371SOL     OW27571   0.451   1.290   8.130  0.9100 -0.7513  0.1741
 5371SOL    HW127572   0.458   1.261   8.221  1.0351  0.2340  0.4880
 5371SOL    HW227573   0.475   1.382   8.143  1.0951 -0.9766  1.4434
 5372SOL     OW27574   2.255   0.732   0.757 -0.9055 -0.7106 -0.4532
 5372SOL    HW127575   2.234   0.644   0.726 -2.2316 -0.1915 -1.0326
 5372SOL    HW227576   2.200   0.786   0.701  0.9380  0.2309 -1.3479
 5373SOL     OW27577   0.623   0.838  12.236  0.1499 -0.6699  0.1198
 5373SOL    HW127578   0.575   0.800  12.161 -0.9497  0.4883  0.2371
 5373SOL    HW227579   0.666   0.914  12.198  2.4906 -2.6101 -1.1311
 5374SOL     OW27580   0.833   0.592  11.206 -0.2683  0.5490 -0.0402
 5374SOL    HW127581   0.832   0.556  11.295  0.9941 -0.8915 -0.6179
 5374SOL    HW227582   0.856   0.679  11.240 -1.1951  0.0248  1.9101
 5375SOL     OW27583   2.407   4.225   7.921 -0.2341  0.2562  0.5300
 5375SOL    HW127584   2.396   4.269   7.837 -1.5084  0.1488  0.6327
 5375SOL    HW227585   2.470   4.279   7.969  0.3891  0.8868 -1.0011
 5376SOL     OW27586   1.327   3.080   1.270  0.2550  0.2443  0.1419
 5376SOL    HW127587   1.289   2.994   1.291 -0.3981  0.2132 -1.1961
 5376SOL    HW227588   1.284   3.131   1.340 -3.6688 -0.3193 -1.8528
 5377SOL     OW27589   1.367   3.541  17.217 -0.3873  0.8157  0.6117
 5377SOL    HW127590   1.320   3.592  17.284  0.4081  0.8160  1.1651
 5377SOL    HW227591   1.301   3.476  17.192 -1.5364  1.2183  2.6112
 5378SOL     OW27592   0.969   4.623   2.695 -0.5375 -0.1510 -0.2827
 5378SOL    HW127593   0.898   4.574   2.655 -0.5956  0.6542 -1.1425
 5378SOL    HW227594   0.985   4.669   2.613 -1.4098 -0.7130 -0.7638
 5379SOL     OW27595   4.336   0.369  16.771  0.1389  0.0743  0.1146
 5379SOL    HW127596   4.310   0.379  16.863 -0.5950 -1.1682  0.0453
 5379SOL    HW227597   4.353   0.275  16.769 -0.9709 -0.2249  3.4350
 5380SOL     OW27598   2.741   2.898  17.559 -0.2746  0.3660  0.3886
 5380SOL    HW127599   2.719   2.992  17.559  0.4539  0.5325  0.9211
 5380SOL    HW227600   2.832   2.920  17.575 -0.5775  1.1098  1.1067
 5381SOL     OW27601   0.567   2.246   4.153 -0.1835 -0.0699  0.1322
 5381SOL    HW127602   0.626   2.250   4.078 -2.5809  1.2443 -1.6757
 5381SOL    HW227603   0.606   2.187   4.217  0.5599 -0.4028 -0.6239
 5382SOL     OW27604   0.379   0.408   8.444 -0.2243  0.2518  0.2551
 5382SOL    HW127605   0.404   0.344   8.511 -0.9012 -2.0553 -1.6920
 5382SOL    HW227606   0.329   0.359   8.379  0.5661  0.2170 -0.3244
 5383SOL     OW27607   0.852   2.764   4.480  0.1473  0.0391  0.0473
 5383SOL    HW127608   0.856   2.676   4.518 -0.5594 -1.0421 -2.3647
 5383SOL    HW227609   0.941   2.797   4.486 -0.1075  0.8424 -0.6148
 5384SOL     OW27610   1.475   4.284  10.326  0.5045 -0.1533  0.3013
 5384SOL    HW127611   1.400   4.271  10.268  1.0666  0.1684 -0.4981
 5384SOL    HW227612   1.530   4.347  10.279 -3.5922  1.8438 -1.7898
 5385SOL     OW27613   0.304   2.106  11.114  0.2342 -0.6623  0.3711
 5385SOL    HW127614   0.364   2.174  11.083  0.2786 -1.7739 -1.9052
 5385SOL    HW227615   0.317   2.125  11.207  0.9031  1.5981 -0.1798
 5386SOL     OW27616   1.298   2.336   1.366 -0.1936  0.1917 -0.5691
 5386SOL    HW127617   1.339   2.415   1.403 -0.6058 -0.7787  1.9980
 5386SOL    HW227618   1.249   2.313   1.445  2.1385 -4.2331 -0.4226
 5387SOL     OW27619   3.167   3.677   5.810 -0.4738  0.3868 -0.5020
 5387SOL    HW127620   3.125   3.591   5.815  1.6709 -0.7887 -2.4307
 5387SOL    HW227621   3.172   3.700   5.902  2.2836  0.0049 -0.5648
 5388SOL     OW27622   2.880   0.697   7.763  0.0924 -0.2923  0.3648
 5388SOL    HW127623   2.839   0.735   7.841  0.1774  1.2730 -0.3506
 5388SOL    HW227624   2.871   0.766   7.698  1.1647  0.3124  0.8566
 5389SOL     OW27625   3.435   0.371   9.346 -0.1602 -0.0715  0.1373
 5389SOL    HW127626   3.358   0.316   9.333  1.5195 -2.8144  1.6946
 5389SOL    HW227627   3.495   0.316   9.397  0.1782  0.7549  0.6301
 5390SOL     OW27628   3.953   1.703  14.472 -0.3408  0.0973  0.3527
 5390SOL    HW127629   4.011   1.680  14.400  1.5704 -0.1383  1.9607
 5390SOL    HW227630   3.921   1.614  14.488  2.1770 -0.4646  2.2856
 5391SOL     OW27631   3.214   1.860   0.912  0.1720  0.3361 -0.0053
 5391SOL    HW127632   3.288   1.875   0.853  0.0359  1.4081  0.0829
 5391SOL    HW227633   3.252   1.886   0.996 -1.1650  0.3621  0.5831
 5392SOL     OW27634   1.762   1.974   1.379  0.6899  0.6603 -0.6244
 5392SOL    HW127635   1.734   1.902   1.436 -0.7270  1.2297 -0.6155
 5392SOL    HW227636   1.807   2.025   1.446 -1.6585  2.4024 -0.3896
 5393SOL     OW27637   4.128   2.919  15.254 -0.7015  0.5724 -0.2854
 5393SOL    HW127638   4.108   2.850  15.318 -1.1126 -0.6064 -1.6911
 5393SOL    HW227639   4.219   2.906  15.225  0.1691  2.1449  1.6764
 5394SOL     OW27640   4.367   2.880   2.351  0.7086  0.3774 -0.4315
 5394SOL    HW127641   4.451   2.881   2.304  1.9388  1.1494  1.7641
 5394SOL    HW227642   4.330   2.802   2.310  0.1224 -0.1146  1.0376
 5395SOL     OW27643   3.311   3.508   7.428 -0.3086  0.6464 -0.0633
 5395SOL    HW127644   3.261   3.433   7.460  1.8386  1.1730  4.4197
 5395SOL    HW227645   3.273   3.517   7.340  0.4168 -1.0966 -0.5641
 5396SOL     OW27646   4.451   4.067   9.342  0.0624 -0.1486  0.1817
 5396SOL    HW127647   4.383   4.066   9.409 -1.1787 -0.0897 -1.0912
 5396SOL    HW227648   4.440   4.145   9.287  0.9530  0.7359  1.2562
 5397SOL     OW27649   0.949   3.695  17.650  1.1468 -0.0978  0.1016
 5397SOL    HW127650   0.891   3.638   0.007  1.0400  0.0447  0.1408
 5397SOL    HW227651   0.997   3.741   0.026  2.8182 -2.0350  0.2240
 5398SOL     OW27652   1.021   3.286   1.189  0.5440 -0.1868 -0.2234
 5398SOL    HW127653   0.967   3.339   1.130 -1.8334 -1.9028  0.3885
 5398SOL    HW227654   1.059   3.219   1.133  0.3312 -0.7906  0.3539
 5399SOL     OW27655   2.696   4.074   4.704  0.2764  0.7351  0.3363
 5399SOL    HW127656   2.676   4.008   4.769 -0.1087 -0.4623 -0.9926
 5399SOL    HW227657   2.758   4.137   4.740  0.1631  1.1411 -0.1713
 5400SOL     OW27658   3.726   3.331   5.033  0.6053  0.0962  0.7066
 5400SOL    HW127659   3.766   3.363   4.952 -0.6149  0.7373  0.3564
 5400SOL    HW227660   3.736   3.408   5.090  0.1093 -0.1087  1.0661
 5401SOL     OW27661   4.034   3.742   6.947 -0.0015 -0.4174  0.1795
 5401SOL    HW127662   4.096   3.812   6.928  0.9998 -1.2443  0.4300
 5401SOL    HW227663   4.071   3.674   6.891  0.8910  1.0750 -1.0432
 5402SOL     OW27664   3.675   2.691   4.787 -0.1014  0.1216  0.4631
 5402SOL    HW127665   3.740   2.717   4.722  0.1292 -0.0303  0.6329
 5402SOL    HW227666   3.616   2.627   4.748 -0.8746  1.4086 -0.4850
 5403SOL     OW27667   2.719   0.845   7.997  0.3948 -0.2757 -0.0330
 5403SOL    HW127668   2.735   0.935   7.969 -0.6840 -1.1660 -3.4624
 5403SOL    HW227669   2.625   0.840   7.977  0.9915  1.4718 -3.2555
 5404SOL     OW27670   1.471   1.021  11.146  0.0415 -0.3736  0.1835
 5404SOL    HW127671   1.454   0.941  11.096 -0.6056  1.5365 -2.6607
 5404SOL    HW227672   1.447   0.996  11.235  0.4440 -1.7532 -0.0935
 5405SOL     OW27673   4.676   1.326   2.866 -0.2147 -0.2766  0.0675
 5405SOL    HW127674   4.675   1.234   2.892  0.0460 -0.6748 -1.3295
 5405SOL    HW227675   0.001   1.369   2.937  0.3469 -1.7501  0.5870
 5406SOL     OW27676   1.562   1.873   3.189  0.2663 -0.4295 -0.0777
 5406SOL    HW127677   1.631   1.856   3.125  0.5253  0.5323 -0.0558
 5406SOL    HW227678   1.596   1.950   3.235  0.2212  0.4648 -1.5408
 5407SOL     OW27679   1.241   0.331   6.009  0.2526 -0.0151  0.5240
 5407SOL    HW127680   1.293   0.292   6.080 -2.3085  0.5274  2.6965
 5407SOL    HW227681   1.151   0.313   6.036 -0.2075  0.9422 -0.3738
 5408SOL     OW27682   0.770   0.550   7.434 -0.0071 -0.1156  0.1833
 5408SOL    HW127683   0.698   0.558   7.372  0.2793 -3.5519 -0.5982
 5408SOL    HW227684   0.824   0.616   7.392  0.0484 -0.0895  0.2960
 5409SOL     OW27685   4.516   2.047   7.915  0.3695  0.4028 -0.3833
 5409SOL    HW127686   4.521   2.138   7.884 -0.3874  0.4526 -0.3412
 5409SOL    HW227687   4.482   2.009   7.834 -2.9167 -0.1604  1.2891
 5410SOL     OW27688   1.641   1.286  10.163 -0.6485 -0.4079  0.5207
 5410SOL    HW127689   1.598   1.298  10.078  1.4516  0.8861 -0.3445
 5410SOL    HW227690   1.726   1.247  10.141 -1.6859 -2.0926 -0.4923
 5411SOL     OW27691   2.601   0.841   7.438 -0.4985  0.2534 -0.5302
 5411SOL    HW127692   2.574   0.932   7.425  4.6291  1.3546 -3.5847
 5411SOL    HW227693   2.515   0.801   7.428  0.1739 -1.0522 -1.2044
 5412SOL     OW27694   4.223   1.233   3.719  0.3827  0.1110  0.1405
 5412SOL    HW127695   4.275   1.295   3.770 -0.2936  0.5027  0.3575
 5412SOL    HW227696   4.234   1.152   3.769  0.3143  0.1077  0.1499
 5413SOL     OW27697   1.630   1.078   4.180 -0.4088 -0.1728  0.5062
 5413SOL    HW127698   1.674   1.048   4.260  2.8362  3.7284  0.1854
 5413SOL    HW227699   1.591   0.995   4.155  1.3698 -1.2960  1.4324
 5414SOL     OW27700   2.529   4.129   2.320 -0.3498 -0.1018  0.0946
 5414SOL    HW127701   2.453   4.101   2.372 -0.4192  0.5335  0.3407
 5414SOL    HW227702   2.492   4.175   2.245  0.0070  1.1806  0.7025
 5415SOL     OW27703   1.713   1.470   3.668  0.5349 -0.0954  0.4560
 5415SOL    HW127704   1.702   1.426   3.753  0.5500 -0.7200  0.1343
 5415SOL    HW227705   1.745   1.402   3.609  0.8423  1.3019 -0.9955
 5416SOL     OW27706   4.666   3.587   7.902  0.0846 -0.1505 -0.2631
 5416SOL    HW127707   4.652   3.492   7.912 -0.8767 -0.1871 -1.8913
 5416SOL    HW227708   4.598   3.623   7.959 -0.0672  0.2029 -0.6656
 5417SOL     OW27709   4.506   1.116   8.402 -0.3157 -0.2148  0.0942
 5417SOL    HW127710   4.482   1.024   8.393 -1.8614  0.2158 -0.2169
 5417SOL    HW227711   4.419   1.156   8.408 -0.2826 -0.0758 -0.3448
 5418SOL     OW27712   2.137   4.610   3.064 -0.2938  0.2871 -0.6350
 5418SOL    HW127713   2.221   4.567   3.082  0.0744  0.8328 -1.0789
 5418SOL    HW227714   2.085   4.542   3.021 -0.0228  1.6942 -3.1902
 5419SOL     OW27715   3.244   1.934  17.381 -0.9328  0.3390  0.0362
 5419SOL    HW127716   3.205   2.005  17.330 -0.1466  0.0486 -0.9705
 5419SOL    HW227717   3.174   1.868  17.375  0.4712 -1.2504  1.2895
 5420SOL     OW27718   0.494   2.643   9.851 -0.2738  0.1378 -0.3839
 5420SOL    HW127719   0.568   2.624   9.793 -0.7205  0.5237 -1.0874
 5420SOL    HW227720   0.415   2.649   9.797 -0.5603  2.0842  0.2626
 5421SOL     OW27721   0.228   1.657   4.406 -0.1432 -0.0860 -1.0074
 5421SOL    HW127722   0.285   1.710   4.461 -1.7595  0.5140  0.1085
 5421SOL    HW227723   0.188   1.731   4.360  0.4747  0.2996 -0.9218
 5422SOL     OW27724   1.553   2.047   0.669 -0.3123  1.0429 -0.1474
 5422SOL    HW127725   1.482   2.048   0.734 -1.9192 -2.2802 -1.8522
 5422SOL    HW227726   1.527   2.125   0.619  1.9819  1.1905 -1.0959
 5423SOL     OW27727   4.269   4.627   7.422  0.6261  0.2584  0.3430
 5423SOL    HW127728   4.265   4.718   7.395  0.2295 -0.2881 -1.4805
 5423SOL    HW227729   4.314   4.643   7.504  0.4813  0.2147  0.4309
 5424SOL     OW27730   1.300   1.659   4.567  0.3035  0.6377 -0.4347
 5424SOL    HW127731   1.236   1.696   4.506  0.3972  1.6867  0.1160
 5424SOL    HW227732   1.368   1.726   4.566  1.9819 -1.0637 -1.1088
 5425SOL     OW27733   2.534   3.384  14.954  0.6097  0.1531  0.1275
 5425SOL    HW127734   2.444   3.353  14.943  1.2877 -0.8932 -2.4298
 5425SOL    HW227735   2.523   3.431  15.037 -1.1005  0.9387 -0.5294
 5426SOL     OW27736   4.368   2.128   0.012  0.7013 -0.1306  0.5272
 5426SOL    HW127737   4.444   2.070   0.014  1.9875  1.4201 -2.6064
 5426SOL    HW227738   4.406   2.212   0.038 -0.8093  0.4692  0.8474
 5427SOL     OW27739   3.177   2.701   4.702 -0.0961  0.2671 -0.1310
 5427SOL    HW127740   3.221   2.620   4.675 -1.1500 -0.9825  1.8760
 5427SOL    HW227741   3.090   2.683   4.668  0.4031 -1.3058 -0.5829
 5428SOL     OW27742   3.815   1.690  12.366 -0.5118  0.2095  0.2677
 5428SOL    HW127743   3.797   1.639  12.445 -0.7002  1.6570  1.1411
 5428SOL    HW227744   3.869   1.759  12.403 -1.3022  0.1666  1.5042
 5429SOL     OW27745   0.279   4.042   4.500  0.7763 -0.0788  0.4127
 5429SOL    HW127746   0.328   4.031   4.419 -0.0734  0.8189 -0.2232
 5429SOL    HW227747   0.225   3.962   4.497 -0.5452  0.8907 -1.2474
 5430SOL     OW27748   1.079   4.488   6.074  0.0051 -0.2254  0.0249
 5430SOL    HW127749   1.105   4.572   6.110 -2.0354 -0.0541  1.1172
 5430SOL    HW227750   1.149   4.468   6.012  0.6202  0.1364  0.6022
 5431SOL     OW27751   2.000   0.799   1.183 -0.5064  0.1242  0.3667
 5431SOL    HW127752   2.037   0.713   1.204 -1.3943  0.0211  1.5314
 5431SOL    HW227753   2.076   0.853   1.205 -0.7429  0.2181  0.9410
 5432SOL     OW27754   1.806   4.168   9.162  0.3816  0.1848  0.4361
 5432SOL    HW127755   1.872   4.152   9.096  0.3898  1.9508  0.0008
 5432SOL    HW227756   1.793   4.083   9.204 -0.7322 -0.3737 -1.0548
 5433SOL     OW27757   2.503   3.442   6.939 -0.2896 -0.7946  0.0337
 5433SOL    HW127758   2.491   3.358   6.895  1.0902 -0.8032 -0.3157
 5433SOL    HW227759   2.525   3.495   6.863 -2.3649 -2.0894 -1.4657
 5434SOL     OW27760   2.222   0.393  14.817 -0.2565 -0.7512 -0.3566
 5434SOL    HW127761   2.303   0.414  14.863 -0.4525  0.8597 -0.7493
 5434SOL    HW227762   2.252   0.326  14.756  1.4183 -1.6828  1.4852
 5435SOL     OW27763   2.936   2.454   3.398  1.0489  0.3727 -0.5051
 5435SOL    HW127764   2.979   2.531   3.360  1.5619  0.3840  0.1068
 5435SOL    HW227765   2.993   2.381   3.376  1.2292  0.2246  0.4443
 5436SOL     OW27766   1.492   0.645  13.390  0.3709 -0.5404  0.1505
 5436SOL    HW127767   1.499   0.692  13.472  0.9197  0.3931 -0.4362
 5436SOL    HW227768   1.570   0.678  13.345  1.2593 -0.0347  2.0842
 5437SOL     OW27769   1.965   1.572   2.751 -0.0012 -0.0744  0.0007
 5437SOL    HW127770   1.893   1.588   2.691  0.7889  2.0551 -0.3847
 5437SOL    HW227771   2.009   1.657   2.758 -2.0277  1.2076 -3.0870
 5438SOL     OW27772   2.870   4.373   8.442 -0.1419 -0.0247  0.5427
 5438SOL    HW127773   2.873   4.294   8.388 -1.3595  1.2918 -1.4266
 5438SOL    HW227774   2.827   4.333   8.518 -0.7334  0.6271  0.5520
 5439SOL     OW27775   2.128   1.991  13.767  0.3762  0.0930  0.1851
 5439SOL    HW127776   2.112   2.039  13.849 -0.4974 -2.1850  1.3458
 5439SOL    HW227777   2.167   2.061  13.714 -1.6900  1.0460 -0.0758
 5440SOL     OW27778   3.676   2.478   8.588 -0.2524  0.1721 -0.1985
 5440SOL    HW127779   3.583   2.500   8.591 -0.1776  0.5465 -0.6532
 5440SOL    HW227780   3.698   2.440   8.673 -1.8803  0.2384  0.2480
 5441SOL     OW27781   3.962   4.148   4.323  0.2903  0.3987 -0.0689
 5441SOL    HW127782   3.888   4.156   4.383 -1.1986 -1.7088 -1.6032
 5441SOL    HW227783   4.000   4.236   4.323 -0.9496  0.9435 -3.2283
 5442SOL     OW27784   0.644   1.410  15.091 -0.0695 -0.0960  0.6499
 5442SOL    HW127785   0.703   1.424  15.017  0.7155  0.4031  1.3573
 5442SOL    HW227786   0.564   1.387  15.045 -0.3179 -1.4016  1.7359
 5443SOL     OW27787   3.543   2.310  11.978  0.5470 -0.1308  0.0179
 5443SOL    HW127788   3.513   2.256  12.051  0.1602  0.0318 -0.0218
 5443SOL    HW227789   3.606   2.244  11.949  0.0037 -1.1714  1.1954
 5444SOL     OW27790   3.820   0.262  17.085 -0.2091 -0.3031  0.3710
 5444SOL    HW127791   3.901   0.296  17.048 -0.5969 -0.5741 -0.7614
 5444SOL    HW227792   3.764   0.256  17.007 -1.3287  0.1963  1.1458
 5445SOL     OW27793   2.435   4.543   6.871 -0.1697 -0.3729  0.6466
 5445SOL    HW127794   2.527   4.555   6.894  0.3768 -0.7236 -1.4227
 5445SOL    HW227795   2.433   4.452   6.903  1.6144 -0.7370 -0.2757
 5446SOL     OW27796   0.417   0.726   5.145 -0.2335  0.5545  0.0855
 5446SOL    HW127797   0.342   0.757   5.094 -1.2352 -2.8604 -0.5266
 5446SOL    HW227798   0.379   0.745   5.231 -1.9870 -1.5782 -0.2126
 5447SOL     OW27799   1.020   2.332  17.055  0.6238  0.3549  0.7474
 5447SOL    HW127800   0.928   2.360  17.059  0.5038  0.3603 -2.1506
 5447SOL    HW227801   1.040   2.389  16.981  0.6104 -0.0005  0.4730
 5448SOL     OW27802   1.058   2.842   1.140 -0.2796 -0.2142  0.0644
 5448SOL    HW127803   0.969   2.806   1.145 -0.6011  0.6360  0.4101
 5448SOL    HW227804   1.093   2.859   1.228  1.1550  1.5250 -0.8578
 5449SOL     OW27805   1.311   4.419   0.892  0.5961 -0.3076 -0.5905
 5449SOL    HW127806   1.248   4.462   0.836 -0.6631 -1.6348 -0.2061
 5449SOL    HW227807   1.394   4.460   0.868  0.5180  0.5550  0.6113
 5450SOL     OW27808   1.860   0.542   6.831  0.5791 -0.1125  0.2057
 5450SOL    HW127809   1.895   0.518   6.746  0.1596 -1.4694  0.4143
 5450SOL    HW227810   1.933   0.530   6.892  1.1571 -0.8556 -0.6425
 5451SOL     OW27811   1.774   2.603   0.842 -0.1932  0.0493  0.5153
 5451SOL    HW127812   1.813   2.689   0.848 -0.2213  0.1144 -0.1391
 5451SOL    HW227813   1.682   2.630   0.846 -0.2843 -0.2682  0.5941
 5452SOL     OW27814   1.728   4.180   4.043 -0.7915  0.2438  0.0611
 5452SOL    HW127815   1.669   4.107   4.021  0.7838 -0.7640 -0.8332
 5452SOL    HW227816   1.693   4.255   3.994 -1.0323  0.5684  0.7258
 5453SOL     OW27817   2.538   1.473  14.761 -0.3336 -0.0928  0.5847
 5453SOL    HW127818   2.462   1.424  14.729 -2.8531  3.8611  0.5706
 5453SOL    HW227819   2.579   1.405  14.815 -1.7673  0.0676  1.9138
 5454SOL     OW27820   2.293   1.026   4.882 -0.1918  0.4655  0.0129
 5454SOL    HW127821   2.212   0.976   4.877  0.3500 -0.2563 -1.4580
 5454SOL    HW227822   2.313   1.039   4.789 -0.5844 -0.0351 -0.1447
 5455SOL     OW27823   2.785   0.174  12.057  0.6814 -0.1740  0.5019
 5455SOL    HW127824   2.785   0.162  11.962  0.2822 -1.7976  0.7051
 5455SOL    HW227825   2.831   0.258  12.061  1.9684 -0.8115 -1.2599
 5456SOL     OW27826   2.017   3.188   0.506  0.4577 -0.7033  0.1323
 5456SOL    HW127827   1.940   3.134   0.486  1.2011 -1.5725 -0.4298
 5456SOL    HW227828   1.980   3.274   0.521  0.5790 -1.0384  2.3866
 5457SOL     OW27829   4.548   3.771   1.170  0.4312  0.0909 -0.4049
 5457SOL    HW127830   4.630   3.810   1.140  0.7348 -0.8120 -0.7487
 5457SOL    HW227831   4.516   3.723   1.093 -1.2927  2.7915 -1.3596
 5458SOL     OW27832   3.829   0.630   4.578  0.0579 -0.1693  0.4920
 5458SOL    HW127833   3.901   0.663   4.524  1.6023 -0.7996  2.1523
 5458SOL    HW227834   3.860   0.540   4.588 -0.0651 -0.3257 -0.5411
 5459SOL     OW27835   1.995   3.370  16.200  0.0102 -0.2322  0.3298
 5459SOL    HW127836   2.052   3.446  16.191 -0.5827  0.2530  0.6239
 5459SOL    HW227837   2.045   3.321  16.265  0.3784  2.4441  2.0653
 5460SOL     OW27838   2.350   2.685  13.367 -0.0348 -0.4304 -0.0283
 5460SOL    HW127839   2.277   2.674  13.305  0.8389 -0.6294 -1.0218
 5460SOL    HW227840   2.426   2.723  13.323 -1.0673 -0.5310 -1.9261
 5461SOL     OW27841   1.075   2.292   8.904 -0.7185  0.0937 -0.0868
 5461SOL    HW127842   1.021   2.367   8.877 -0.0208  1.0319  1.1690
 5461SOL    HW227843   1.014   2.249   8.964 -1.9560  1.3764 -0.4328
 5462SOL     OW27844   0.362   4.561  10.633  0.7852  0.2697  0.4101
 5462SOL    HW127845   0.420   4.559  10.710 -2.3711  2.2089  2.8248
 5462SOL    HW227846   0.296   4.620  10.669 -0.0330  0.5763 -1.6120
 5463SOL     OW27847   3.053   1.952  10.307 -0.3094 -0.1950 -0.0804
 5463SOL    HW127848   3.131   1.921  10.260 -0.8273 -0.2050 -0.9285
 5463SOL    HW227849   3.095   2.018  10.363  0.5119 -1.2577  0.5766
 5464SOL     OW27850   2.312   3.804   5.461 -0.5765  0.0889  0.1405
 5464SOL    HW127851   2.374   3.877   5.461  1.0853 -1.3160  3.6638
 5464SOL    HW227852   2.294   3.807   5.555  0.6571  1.7427  0.3317
 5465SOL     OW27853   4.519   2.337   6.434  0.5822  0.1807 -0.2234
 5465SOL    HW127854   4.557   2.416   6.397  0.7046 -0.3420 -1.2188
 5465SOL    HW227855   4.519   2.363   6.526  2.7195 -0.7268  0.0274
 5466SOL     OW27856   2.054   4.389  17.098  0.5249  0.2649  0.0818
 5466SOL    HW127857   1.994   4.335  17.150 -1.2064  2.0218 -0.0856
 5466SOL    HW227858   1.998   4.427  17.031  0.9936  2.2076  0.8043
 5467SOL     OW27859   3.521   4.690   5.937  0.3433  0.7182 -0.6687
 5467SOL    HW127860   3.542   0.045   5.885  2.3181 -0.8844 -2.2651
 5467SOL    HW227861   3.603   4.689   5.986  1.1479  1.9109 -1.9796
 5468SOL     OW27862   3.561   3.193   9.967 -0.2691 -0.6757  0.1581
 5468SOL    HW127863   3.635   3.249   9.992 -0.5383 -0.4172  0.3736
 5468SOL    HW227864   3.529   3.180  10.056 -1.5545  1.0096 -0.0561
 5469SOL     OW27865   2.112   1.354  15.332 -0.1024  0.2899 -1.0759
 5469SOL    HW127866   2.139   1.300  15.406 -1.2396  1.3909  0.1248
 5469SOL    HW227867   2.199   1.378  15.300 -0.1553  2.2900  0.2764
 5470SOL     OW27868   2.662   1.774   4.981  0.3251  0.1879  0.0090
 5470SOL    HW127869   2.753   1.749   4.971  0.2154  0.5748 -2.0002
 5470SOL    HW227870   2.668   1.848   5.041  2.7977  2.0053 -2.5174
 5471SOL     OW27871   2.711   0.574  14.860  0.1087  0.6948 -0.3513
 5471SOL    HW127872   2.790   0.522  14.843 -0.3179 -0.1485  0.2744
 5471SOL    HW227873   2.722   0.655  14.809 -1.6573  2.0882  1.5175
 5472SOL     OW27874   3.360   3.611   0.839 -0.2937  0.0629 -0.1446
 5472SOL    HW127875   3.410   3.692   0.832  0.3886 -0.3766 -0.3850
 5472SOL    HW227876   3.395   3.571   0.918 -1.8188 -1.7105 -0.3706
 5473SOL     OW27877   0.741   2.820   2.844  0.6101 -0.5958 -0.6668
 5473SOL    HW127878   0.822   2.792   2.803  0.9522  0.0981 -0.4590
 5473SOL    HW227879   0.769   2.865   2.924 -0.8949 -0.3351 -0.2859
 5474SOL     OW27880   1.952   1.123   4.277  0.0469 -0.4110 -0.7038
 5474SOL    HW127881   2.039   1.084   4.283 -1.4889 -3.8333 -0.5774
 5474SOL    HW227882   1.889   1.052   4.291 -2.4842  2.1825  1.0047
 5475SOL     OW27883   3.423   2.058  13.882  0.4089 -0.0039  0.7551
 5475SOL    HW127884   3.473   1.980  13.860  1.7010  0.9473  0.2854
 5475SOL    HW227885   3.466   2.123  13.826 -1.0901 -1.4625 -2.0694
 5476SOL     OW27886   2.723   4.389   9.026 -0.0778 -0.6620  0.0845
 5476SOL    HW127887   2.702   4.468   8.976  3.4061 -0.1744 -0.6300
 5476SOL    HW227888   2.681   4.313   8.987  1.6280 -0.5054 -2.0629
 5477SOL     OW27889   3.217   1.716   6.525  0.7335 -0.1416 -0.0536
 5477SOL    HW127890   3.174   1.781   6.469  0.3485  0.7612  1.2765
 5477SOL    HW227891   3.186   1.636   6.482  0.4936 -1.2998  2.3039
 5478SOL     OW27892   3.162   1.090   4.122  0.3840  0.0669 -0.2886
 5478SOL    HW127893   3.135   1.006   4.159  1.2283 -0.1552 -0.1681
 5478SOL    HW227894   3.238   1.107   4.178  1.1902 -3.8366 -0.1815
 5479SOL     OW27895   4.093   0.307   4.391 -0.0651 -0.4902  0.3198
 5479SOL    HW127896   4.130   0.375   4.335 -3.9264 -0.3130 -2.0636
 5479SOL    HW227897   4.165   0.293   4.452  0.0662 -2.4146 -0.2810
 5480SOL     OW27898   1.009   1.126  12.812 -0.1136 -0.3073 -0.0719
 5480SOL    HW127899   0.986   1.161  12.726  0.4069 -0.4138 -0.2546
 5480SOL    HW227900   0.979   1.035  12.807  0.6553 -0.7426  2.7982
 5481SOL     OW27901   2.550   1.478   1.556 -0.2154  0.0847 -0.1638
 5481SOL    HW127902   2.642   1.497   1.574 -0.4361 -0.7103  1.7344
 5481SOL    HW227903   2.516   1.567   1.549  1.9224  0.6613 -3.4562
 5482SOL     OW27904   4.700   0.105  11.242  0.3371 -0.2503 -0.4990
 5482SOL    HW127905   0.008   0.172  11.182  0.7504  0.7451  0.8427
 5482SOL    HW227906   4.715   0.026  11.189  1.3714 -0.6636  0.4163
 5483SOL     OW27907   0.469   3.211   0.658 -0.5612 -0.1720  0.3948
 5483SOL    HW127908   0.503   3.196   0.570 -0.5287  1.6877  0.1031
 5483SOL    HW227909   0.501   3.132   0.703  0.0327  0.8926  1.8399
 5484SOL     OW27910   2.467   3.536  10.669 -0.4967 -0.4667 -0.3397
 5484SOL    HW127911   2.557   3.511  10.689 -0.3870  0.3589  0.1935
 5484SOL    HW227912   2.419   3.453  10.661 -1.9952  0.6007 -2.3418
 5485SOL     OW27913   1.762   1.868   0.978 -0.2228  0.6808  0.4101
 5485SOL    HW127914   1.805   1.953   0.977 -2.5573  1.8734  1.8180
 5485SOL    HW227915   1.700   1.883   1.050  0.7994 -1.6979  1.8042
 5486SOL     OW27916   0.125   2.974   7.989  0.0823  0.0027  0.0190
 5486SOL    HW127917   0.169   3.010   8.066 -0.2680  1.5716 -0.5172
 5486SOL    HW227918   0.140   2.882   8.009 -0.1642 -0.0751 -0.1426
 5487SOL     OW27919   1.568   1.492  11.950  0.4563  0.3166 -0.0930
 5487SOL    HW127920   1.504   1.462  12.014  0.4093 -0.3221 -0.4390
 5487SOL    HW227921   1.544   1.583  11.936 -1.5544  0.0622  1.7384
 5488SOL     OW27922   3.437   3.169   7.437  0.0539 -0.5315  0.9805
 5488SOL    HW127923   3.468   3.084   7.467  1.1239 -0.1091  1.0896
 5488SOL    HW227924   3.493   3.226   7.489 -0.4944 -1.7710  2.9042
 5489SOL     OW27925   3.179   1.631   9.167  0.2825  0.3817 -0.5795
 5489SOL    HW127926   3.148   1.550   9.127  1.1264 -1.0382  1.6460
 5489SOL    HW227927   3.116   1.652   9.236 -0.0972  3.7246 -1.9861
 5490SOL     OW27928   4.128   4.480   2.969 -1.1590 -0.2579 -1.0589
 5490SOL    HW127929   4.058   4.428   3.008 -0.0156  0.4536  1.9001
 5490SOL    HW227930   4.103   4.466   2.877 -3.6530  0.9971 -0.5720
 5491SOL     OW27931   3.207   3.054   5.244  0.2128 -0.2485 -0.1195
 5491SOL    HW127932   3.175   3.051   5.155 -0.1870  1.3236 -0.0307
 5491SOL    HW227933   3.186   3.145   5.264 -0.0104 -0.4449  0.5364
 5492SOL     OW27934   1.377   2.788   2.865 -0.0306  0.0196  0.2501
 5492SOL    HW127935   1.338   2.807   2.780 -1.1402  2.6670  1.3527
 5492SOL    HW227936   1.429   2.868   2.865  0.8376 -0.5445  1.6852
 5493SOL     OW27937   0.809   1.241  13.956 -0.1840  0.5153 -0.4302
 5493SOL    HW127938   0.723   1.239  13.998 -0.5736 -1.7049 -1.3242
 5493SOL    HW227939   0.862   1.203  14.026  0.7617  0.2851 -1.2751
 5494SOL     OW27940   0.655   3.120   8.000  0.0389  0.8617  0.3889
 5494SOL    HW127941   0.642   3.205   8.042 -1.1978  0.7785  0.2017
 5494SOL    HW227942   0.661   3.145   7.908  0.4600  0.2521  0.2533
 5495SOL     OW27943   3.164   2.311   3.246  0.4735  0.2550 -0.4699
 5495SOL    HW127944   3.209   2.300   3.162  1.6049  2.7754 -0.1725
 5495SOL    HW227945   3.229   2.335   3.311 -1.1936  3.0071  0.1524
 5496SOL     OW27946   3.099   2.160  15.814 -0.0769  0.5629  0.3168
 5496SOL    HW127947   3.119   2.179  15.905  0.0118 -1.5619  0.7431
 5496SOL    HW227948   3.151   2.230  15.774  1.3928 -0.7126 -0.0211
 5497SOL     OW27949   4.590   0.379   8.703 -0.2167 -0.0190 -0.3068
 5497SOL    HW127950   4.639   0.349   8.626 -0.0319  0.1301 -0.2453
 5497SOL    HW227951   4.595   0.472   8.682 -0.4023 -0.3826 -2.0100
 5498SOL     OW27952   1.343   0.285  16.673  0.1872 -0.1124  0.2807
 5498SOL    HW127953   1.304   0.354  16.726  2.0424  1.6604 -0.6743
 5498SOL    HW227954   1.365   0.229  16.747 -1.4609 -1.5546 -0.3133
 5499SOL     OW27955   2.529   4.668   2.283  0.4236 -0.1280 -0.3485
 5499SOL    HW127956   2.554   4.614   2.208  2.7633  2.6491 -1.5863
 5499SOL    HW227957   2.528   4.610   2.359  0.1279 -1.2694 -1.2200
 5500SOL     OW27958   2.064   2.265   1.103 -0.1504  0.3607  0.1757
 5500SOL    HW127959   2.066   2.354   1.069  0.5822  0.7006  1.0787
 5500SOL    HW227960   2.055   2.284   1.197 -2.7723 -0.1266  0.0072
 5501SOL     OW27961   2.203   1.796   7.925  0.2321  0.0682  0.7343
 5501SOL    HW127962   2.129   1.808   7.984  0.8955  0.6198  1.4724
 5501SOL    HW227963   2.211   1.891   7.915  0.8108  0.2042  2.3736
 5502SOL     OW27964   1.842   0.559   2.348 -0.4004  0.0059  0.8842
 5502SOL    HW127965   1.927   0.531   2.314 -1.5567 -1.7162 -0.5925
 5502SOL    HW227966   1.878   0.626   2.406  3.0423  0.2743 -1.5667
 5503SOL     OW27967   0.770   4.196   5.880 -0.0930  0.3201 -0.0953
 5503SOL    HW127968   0.778   4.104   5.907 -1.6313 -0.4372 -2.2352
 5503SOL    HW227969   0.811   4.249   5.948  0.2313 -2.6601  2.0626
 5504SOL     OW27970   3.097   2.665   3.200 -0.1062 -0.5035  0.6312
 5504SOL    HW127971   3.010   2.678   3.163 -0.2105  1.1038  1.4206
 5504SOL    HW227972   3.130   2.618   3.124 -1.1735 -1.5742  0.8305
 5505SOL     OW27973   0.408   3.837  14.304  0.2858  0.2790  0.1271
 5505SOL    HW127974   0.316   3.811  14.302  0.9156 -1.9778  1.3386
 5505SOL    HW227975   0.404   3.910  14.241  2.0473  0.4691  0.2424
 5506SOL     OW27976   3.638   2.119  13.119 -0.3591  0.2967  0.0342
 5506SOL    HW127977   3.572   2.142  13.054 -2.5954 -0.4802  2.0062
 5506SOL    HW227978   3.643   2.199  13.172  3.5694  1.3170 -1.8945
 5507SOL     OW27979   3.811   1.721  12.077  0.1087  0.7984  0.3448
 5507SOL    HW127980   3.725   1.684  12.057  0.4338 -1.3597  2.7659
 5507SOL    HW227981   3.815   1.695  12.169  2.6351  0.4588  0.1472
 5508SOL     OW27982   0.036   1.148   3.914  0.0911  0.3645 -0.0632
 5508SOL    HW127983   0.003   1.183   3.831 -2.1362  0.0077  0.6578
 5508SOL    HW227984   0.129   1.146   3.895  0.1438 -2.9742  0.6230
 5509SOL     OW27985   2.492   1.082  17.259  0.1097  0.5968 -0.2692
 5509SOL    HW127986   2.490   1.152  17.194  0.3096  0.9020  0.0603
 5509SOL    HW227987   2.545   1.114  17.331 -2.5137  0.0810  1.8731
 5510SOL     OW27988   0.322   0.520   7.984 -0.3510 -0.5303 -0.3692
 5510SOL    HW127989   0.390   0.491   8.044 -1.4604 -1.1741  0.5828
 5510SOL    HW227990   0.251   0.508   8.046  1.4166 -1.6620  1.4135
 5511SOL     OW27991   0.327   1.733  11.700 -0.0276  0.4436  0.1283
 5511SOL    HW127992   0.391   1.710  11.767 -0.6795  0.4894  0.7715
 5511SOL    HW227993   0.243   1.724  11.746 -0.1549  1.4938  0.0981
 5512SOL     OW27994   0.413   4.474  15.270  0.0288  0.0594  0.9727
 5512SOL    HW127995   0.328   4.431  15.273  0.7410 -1.1372  4.8724
 5512SOL    HW227996   0.463   4.393  15.280  0.9508  0.2530 -2.0535
 5513SOL     OW27997   2.003   4.677  12.006 -0.2253 -0.6096 -0.1255
 5513SOL    HW127998   2.021   4.681  11.912 -2.1160 -3.6617 -0.5957
 5513SOL    HW227999   1.923   4.627  11.993  0.1073 -1.4065  0.9190
 5514SOL     OW28000   3.074   2.370   0.595 -0.3271 -0.2270  0.0113
 5514SOL    HW128001   3.163   2.363   0.628 -0.9386 -1.2960  1.4839
 5514SOL    HW228002   3.079   2.442   0.532 -1.9669  0.4808  0.6773
 5515SOL     OW28003   0.010   2.287   2.359 -0.1412 -0.1963  0.2178
 5515SOL    HW128004   4.679   2.247   2.427  0.1024  0.7612  0.9684
 5515SOL    HW228005   0.094   2.242   2.365  0.3940  0.7637 -0.0765
 5516SOL     OW28006   2.860   2.661   2.246 -0.0309 -0.0017 -0.1536
 5516SOL    HW128007   2.814   2.612   2.314  1.5271 -1.8000 -0.4200
 5516SOL    HW228008   2.807   2.741   2.254 -2.1548 -1.2888 -1.4507
 5517SOL     OW28009   0.193   2.573   8.697 -0.0728 -0.3422  0.3852
 5517SOL    HW128010   0.195   2.612   8.784  0.6282  2.9354 -1.1151
 5517SOL    HW228011   0.273   2.589   8.647 -1.3041 -1.3203 -1.9105
 5518SOL     OW28012   0.525   3.721   6.643  0.2079  0.2288  0.3926
 5518SOL    HW128013   0.591   3.716   6.713  1.1898 -2.1309 -0.7186
 5518SOL    HW228014   0.567   3.783   6.583  0.0203 -0.8165 -0.8145
 5519SOL     OW28015   3.471   3.568   5.749 -0.0325 -0.2094 -0.7058
 5519SOL    HW128016   3.461   3.555   5.655 -0.9658  0.9406 -0.7705
 5519SOL    HW228017   3.383   3.604   5.764  0.3719  0.5773 -0.2254
 5520SOL     OW28018   3.443   0.776   3.209  0.1315 -0.1862  0.0438
 5520SOL    HW128019   3.530   0.764   3.170  0.6182 -0.2843  1.1788
 5520SOL    HW228020   3.458   0.869   3.224 -5.2909  0.1131  3.5948
 5521SOL     OW28021   1.362   2.941   3.597  0.4275  0.4408  0.7969
 5521SOL    HW128022   1.282   2.901   3.631  1.0312 -0.2773  1.3567
 5521SOL    HW228023   1.431   2.900   3.649 -0.2618 -1.0671  0.5023
 5522SOL     OW28024   0.224   3.081   7.267 -0.1936  0.3498  0.2596
 5522SOL    HW128025   0.181   3.069   7.352  3.5726 -1.0445  1.9515
 5522SOL    HW228026   0.304   3.122   7.300 -0.8535  2.4041 -0.6475
 5523SOL     OW28027   3.986   3.507  14.789 -0.5469 -0.0603 -0.1459
 5523SOL    HW128028   3.957   3.512  14.880 -1.2782 -2.7142 -0.2474
 5523SOL    HW228029   3.978   3.598  14.760  1.1668  0.5248  1.2318
 5524SOL     OW28030   4.634   0.253   5.520  0.3343 -0.0777  0.0657
 5524SOL    HW128031   4.650   0.288   5.608  1.1109  0.3538 -0.2422
 5524SOL    HW228032   4.719   0.276   5.481  0.2517  0.3665  0.1388
 5525SOL     OW28033   1.250   0.621   8.475 -0.2627 -0.7162  0.2587
 5525SOL    HW128034   1.315   0.690   8.485  0.0854 -1.0283  0.1911
 5525SOL    HW228035   1.296   0.541   8.502  1.3740 -0.0440 -0.5819
 5526SOL     OW28036   2.476   3.439  16.639  0.2677  0.2301  0.0489
 5526SOL    HW128037   2.511   3.470  16.555  1.5406 -0.3449  0.3636
 5526SOL    HW228038   2.429   3.518  16.665 -0.6357  0.4236 -2.2012
 5527SOL     OW28039   0.353   4.295   3.545  0.0736 -0.4074 -0.1824
 5527SOL    HW128040   0.339   4.257   3.459 -1.4918 -3.3190  1.3670
 5527SOL    HW228041   0.265   4.322   3.572 -0.2702 -0.7991 -0.9435
 5528SOL     OW28042   1.926   1.912  13.067 -0.3753  0.1976 -0.6032
 5528SOL    HW128043   1.841   1.874  13.045 -1.2219  0.4046  2.3490
 5528SOL    HW228044   1.905   1.954  13.150 -2.8042  0.5581 -1.4085
 5529SOL     OW28045   4.222   3.812   4.993  0.2947 -0.5865  0.5316
 5529SOL    HW128046   4.267   3.761   5.060  1.1959  0.6802  0.9046
 5529SOL    HW228047   4.268   3.896   5.001 -0.4926 -0.1237  0.1030
 5530SOL     OW28048   4.463   1.417   8.836 -0.4318  0.0828 -0.2196
 5530SOL    HW128049   4.402   1.366   8.889  0.2988 -0.9883 -0.4065
 5530SOL    HW228050   4.518   1.351   8.794  1.6775  1.6744  0.0180
 5531SOL     OW28051   3.321   4.210   1.202  0.6330 -0.0084  0.3902
 5531SOL    HW128052   3.334   4.280   1.265  1.5278 -1.0626  1.3857
 5531SOL    HW228053   3.374   4.142   1.243  0.0985 -0.2102  0.7403
 5532SOL     OW28054   1.419   3.828   7.748  0.1520 -0.3898  0.2014
 5532SOL    HW128055   1.465   3.841   7.831 -2.1354  3.1231  0.9485
 5532SOL    HW228056   1.335   3.786   7.769 -1.5982  1.5916 -2.8420
 5533SOL     OW28057   1.683   2.321   5.612 -0.2063  0.6062 -0.0189
 5533SOL    HW128058   1.637   2.396   5.574  0.6635  1.8630  1.3601
 5533SOL    HW228059   1.713   2.276   5.533 -1.5457 -0.0277 -0.1675
 5534SOL     OW28060   3.668   1.223   7.102  0.2143  0.2604  0.6569
 5534SOL    HW128061   3.729   1.272   7.047  0.3772  0.6962  1.2245
 5534SOL    HW228062   3.701   1.238   7.191 -2.2282 -0.1170  1.6254
 5535SOL     OW28063   2.782   1.270   1.241  0.1068  0.5732 -0.4510
 5535SOL    HW128064   2.807   1.363   1.241  2.0914  0.0372 -0.5223
 5535SOL    HW228065   2.872   1.239   1.235  0.2343  1.0556 -1.0148
 5536SOL     OW28066   3.948   2.035  15.942 -0.2273 -0.4843  0.1559
 5536SOL    HW128067   3.945   2.015  15.848  1.1937  1.2998 -0.2724
 5536SOL    HW228068   4.023   2.091  15.958  0.6992 -1.5043 -0.6278
 5537SOL     OW28069   1.461   4.234   4.837 -0.4584 -0.1957  0.0842
 5537SOL    HW128070   1.468   4.139   4.843 -0.4074 -0.1460  0.7791
 5537SOL    HW228071   1.553   4.261   4.828 -0.7803  0.0916 -2.4403
 5538SOL     OW28072   0.332   2.545   6.042  0.5511  0.5298  0.0834
 5538SOL    HW128073   0.344   2.564   6.135 -2.5130 -3.2501  1.2430
 5538SOL    HW228074   0.252   2.597   6.035  0.0995  0.2911  3.4048
 5539SOL     OW28075   1.574   3.377   2.883 -0.1604 -0.0696 -0.4757
 5539SOL    HW128076   1.577   3.468   2.854 -0.9464  0.0747 -0.1114
 5539SOL    HW228077   1.486   3.357   2.850 -0.3002  0.8970 -0.6713
 5540SOL     OW28078   2.841   4.074   1.803 -0.3006 -0.3028 -0.6239
 5540SOL    HW128079   2.801   4.038   1.724  0.7132  1.5378 -1.9767
 5540SOL    HW228080   2.849   4.167   1.781  0.9829 -0.7797 -2.1733
 5541SOL     OW28081   3.198   2.960   9.359  0.0451  0.3381  0.1772
 5541SOL    HW128082   3.110   2.984   9.387 -0.3254  0.3484 -1.0229
 5541SOL    HW228083   3.243   2.958   9.444 -1.2970  1.1816  0.9114
 5542SOL     OW28084   0.664   1.923  16.493  0.4054 -0.3187  0.7595
 5542SOL    HW128085   0.724   1.987  16.454  0.0735 -0.5673 -0.1477
 5542SOL    HW228086   0.652   1.856  16.426  0.3976 -0.5192  0.9622
 5543SOL     OW28087   2.811   1.010   6.024  0.0920 -0.6670  0.1083
 5543SOL    HW128088   2.722   0.983   6.001 -0.2105  0.6528 -0.2732
 5543SOL    HW228089   2.820   0.970   6.110  0.3136  0.6773  0.7191
 5544SOL     OW28090   0.233   0.103   2.614  0.7952 -0.0185 -0.2312
 5544SOL    HW128091   0.280   0.069   2.690 -0.7148  1.0807  1.1832
 5544SOL    HW228092   0.311   0.141   2.572 -0.7994  1.7177 -1.6328
 5545SOL     OW28093   1.367   1.170   4.661 -0.1273  0.1136 -1.1122
 5545SOL    HW128094   1.336   1.256   4.632  0.5055 -0.4494 -3.4693
 5545SOL    HW228095   1.391   1.140   4.573 -0.8253 -3.0810 -0.2154
 5546SOL     OW28096   1.052   2.610   6.616  0.5403  0.0123 -0.3408
 5546SOL    HW128097   1.072   2.649   6.531 -1.7621  1.2249 -0.3196
 5546SOL    HW228098   1.121   2.643   6.674  0.1751 -1.5286  0.9515
 5547SOL     OW28099   2.074   2.028   7.324 -0.0349  0.1311  0.1257
 5547SOL    HW128100   2.041   1.981   7.401 -1.5018  0.1864 -0.4596
 5547SOL    HW228101   2.096   2.113   7.362 -2.0572  1.0913 -0.8658
 5548SOL     OW28102   3.178   3.846   9.018 -0.8859  0.0589  0.5490
 5548SOL    HW128103   3.142   3.782   8.957 -1.3784 -0.4362  1.3589
 5548SOL    HW228104   3.111   3.841   9.086 -0.5247  3.3892  1.1657
 5549SOL     OW28105   0.329   4.173  15.412 -0.2133 -0.5573  0.2468
 5549SOL    HW128106   0.418   4.178  15.378 -0.3685  1.2753  0.1116
 5549SOL    HW228107   0.285   4.225  15.345  4.7311  0.3657 -2.3073
 5550SOL     OW28108   0.815   3.294   8.444 -0.0297  0.0782  0.0362
 5550SOL    HW128109   0.771   3.219   8.484  0.7266  1.5990  3.7523
 5550SOL    HW228110   0.739   3.352   8.448  1.4756  2.0927 -1.0814
 5551SOL     OW28111   3.976   1.271   3.607  0.5478 -0.4818 -0.4282
 5551SOL    HW128112   4.061   1.242   3.639  0.4755 -1.2645 -0.9538
 5551SOL    HW228113   3.920   1.262   3.685  1.2141 -1.5447 -0.0785
 5552SOL     OW28114   1.859   1.594   6.592  0.1011 -0.3213  0.6403
 5552SOL    HW128115   1.907   1.585   6.674 -1.5555  1.1486  1.7512
 5552SOL    HW228116   1.777   1.626   6.630  1.1909 -0.9329  3.5037
 5553SOL     OW28117   2.624   1.730   0.855 -0.3604 -0.5425 -0.3511
 5553SOL    HW128118   2.625   1.702   0.946 -0.6197 -2.1509 -0.8379
 5553SOL    HW228119   2.643   1.822   0.876 -2.2692 -0.0887 -0.5380
 5554SOL     OW28120   0.341   3.661   3.384  0.2497  0.1562 -0.2109
 5554SOL    HW128121   0.433   3.668   3.410 -0.2847  3.3794  0.7232
 5554SOL    HW228122   0.323   3.570   3.408  0.0078  0.3439  0.3084
 5555SOL     OW28123   2.985   3.847   6.134  0.2951 -0.0000 -0.0271
 5555SOL    HW128124   2.913   3.788   6.113  0.2067  1.1936 -3.0465
 5555SOL    HW228125   3.064   3.800   6.109 -0.0463 -0.1833 -0.7601
 5556SOL     OW28126   3.358   4.524   5.000 -0.0923  0.0451 -0.5238
 5556SOL    HW128127   3.391   4.434   4.996 -0.7460 -0.1983 -0.4363
 5556SOL    HW228128   3.266   4.499   4.988  0.0342  0.7728 -3.1463
 5557SOL     OW28129   3.362   4.017   6.107  0.0317 -0.2840  0.2289
 5557SOL    HW128130   3.437   3.994   6.162  0.2487  0.9176  0.4365
 5557SOL    HW228131   3.306   4.039   6.181 -0.3885  0.9228 -0.4349
 5558SOL     OW28132   0.435   4.347   6.855  0.0012  0.0568 -0.8407
 5558SOL    HW128133   0.453   4.254   6.866 -0.3723  0.4127  2.7289
 5558SOL    HW228134   0.426   4.385   6.942 -2.9537 -1.8421 -0.3184
 5559SOL     OW28135   1.435   1.343   7.566  0.2145 -0.2600 -0.0042
 5559SOL    HW128136   1.516   1.300   7.539 -0.0878 -1.0432  0.3621
 5559SOL    HW228137   1.408   1.274   7.626  1.0688 -0.1521  0.5014
 5560SOL     OW28138   0.845   4.577  15.289  0.2013  0.0849  0.1151
 5560SOL    HW128139   0.782   4.593  15.219  0.9710 -0.9510 -0.8136
 5560SOL    HW228140   0.842   4.481  15.298 -1.1013  0.2381  1.1505
 5561SOL     OW28141   2.902   1.539  12.895  0.8382 -0.4314 -0.5599
 5561SOL    HW128142   2.952   1.620  12.889  0.9371 -0.6208 -2.1899
 5561SOL    HW228143   2.949   1.488  12.962  0.6818  0.6589  0.3706
 5562SOL     OW28144   2.313   2.472   5.767  0.3416 -0.3409 -0.2412
 5562SOL    HW128145   2.355   2.424   5.838 -2.0083 -0.7197  0.8919
 5562SOL    HW228146   2.371   2.440   5.698  0.9424 -0.4236  0.3031
 5563SOL     OW28147   3.064   3.303   0.219  0.5215 -0.2905 -1.1261
 5563SOL    HW128148   3.133   3.351   0.173  1.2516  0.1703  0.4381
 5563SOL    HW228149   3.053   3.221   0.172  2.0672 -0.0868 -1.8350
 5564SOL     OW28150   3.893   0.301  11.346  0.2289 -0.1866 -0.9235
 5564SOL    HW128151   3.932   0.251  11.417 -0.7808 -1.2257 -1.0953
 5564SOL    HW228152   3.815   0.335  11.390  0.9874 -0.9000  0.9637
 5565SOL     OW28153   3.011   2.952   4.254  0.5197  0.1694  0.6054
 5565SOL    HW128154   3.020   2.959   4.159  1.9011  0.6358  0.7635
 5565SOL    HW228155   2.981   3.041   4.274  1.0578  1.0146 -2.4170
 5566SOL     OW28156   3.899   2.876   5.581 -0.1872 -0.0534 -0.3459
 5566SOL    HW128157   3.851   2.941   5.530  1.2163  0.0860 -1.4915
 5566SOL    HW228158   3.975   2.864   5.523  1.1031 -0.2783  1.4020
 5567SOL     OW28159   0.027   3.709   6.415 -0.2458  0.0407  0.0040
 5567SOL    HW128160   4.696   3.710   6.336 -0.0703 -0.5071 -0.1214
 5567SOL    HW228161   4.696   3.662   6.480  3.1526 -1.7723  1.4708
 5568SOL     OW28162   3.258   4.570  13.964 -0.5970  0.0580 -0.0633
 5568SOL    HW128163   3.195   4.624  13.917 -0.2981  0.7800  0.3642
 5568SOL    HW228164   3.314   4.544  13.891  1.0727  0.3023  1.1201
 5569SOL     OW28165   2.989   3.098   8.717 -0.0568  0.2206  0.5456
 5569SOL    HW128166   2.907   3.145   8.704 -0.7991 -0.6201  2.3173
 5569SOL    HW228167   2.983   3.082   8.811  0.4425  3.6804  1.1644
 5570SOL     OW28168   4.382   0.042  16.980 -0.1280 -0.1972 -0.0473
 5570SOL    HW128169   4.405   0.086  16.898  2.2643 -0.7031  0.3550
 5570SOL    HW228170   4.368   4.679  16.939 -0.4648 -1.2857  2.3461
 5571SOL     OW28171   2.748   4.358   3.880 -0.5512 -0.8184  0.1408
 5571SOL    HW128172   2.830   4.385   3.923 -0.0299  0.3151 -1.5409
 5571SOL    HW228173   2.702   4.342   3.962 -1.5898  0.5647 -0.1694
 5572SOL     OW28174   0.815   2.962   9.118  0.0379  0.2387 -0.2097
 5572SOL    HW128175   0.773   2.876   9.115  1.0583 -0.2056 -1.4713
 5572SOL    HW228176   0.771   3.000   9.043  0.7412 -1.8205 -1.6542
 5573SOL     OW28177   0.874   3.060   7.624 -0.5624 -0.5405 -0.0120
 5573SOL    HW128178   0.933   3.093   7.556 -2.9001 -0.2302 -1.9008
 5573SOL    HW228179   0.924   3.041   7.703 -0.4292 -2.8358 -0.6309
 5574SOL     OW28180   3.648   1.264   7.426 -0.5320  0.5056  1.1568
 5574SOL    HW128181   3.655   1.351   7.387  1.3276  0.0758  0.5793
 5574SOL    HW228182   3.735   1.254   7.465  0.0169 -0.1764 -0.2622
 5575SOL     OW28183   1.813   0.906   6.817 -0.3491 -0.0546 -0.1293
 5575SOL    HW128184   1.876   0.970   6.784 -2.1617  1.7830 -0.0565
 5575SOL    HW228185   1.746   0.959   6.860  1.2085  1.6373  0.2278
 5576SOL     OW28186   0.634   1.724   6.018 -0.3043  0.4491  0.4243
 5576SOL    HW128187   0.687   1.661   5.969  1.9382  2.2330  0.5077
 5576SOL    HW228188   0.683   1.805   6.030  0.1693 -0.1776  2.7622
 5577SOL     OW28189   3.573   3.606   2.752  0.3856 -0.1948 -0.1169
 5577SOL    HW128190   3.651   3.622   2.699 -0.0031 -0.5041 -0.7797
 5577SOL    HW228191   3.512   3.553   2.700 -2.6466  1.3525  1.8064
 5578SOL     OW28192   1.776   3.544  16.071 -0.2515  1.0505  0.4397
 5578SOL    HW128193   1.835   3.523  16.144 -1.2374 -0.5221  0.7919
 5578SOL    HW228194   1.704   3.482  16.083 -0.2222  0.5124 -2.0413
 5579SOL     OW28195   3.715   2.646  17.242  0.3653 -0.2916  0.6408
 5579SOL    HW128196   3.691   2.713  17.178 -0.4476  0.1072  1.3641
 5579SOL    HW228197   3.797   2.681  17.276 -0.8017 -0.0713  3.1819
 5580SOL     OW28198   2.150   0.061  16.501 -0.4635  0.7653  0.3731
 5580SOL    HW128199   2.205   0.094  16.430 -0.5022  0.7067  0.3161
 5580SOL    HW228200   2.165   0.139  16.554  0.0326  0.5385  0.5713
 5581SOL     OW28201   3.804   1.324   7.719  0.6625  0.1451 -0.1386
 5581SOL    HW128202   3.842   1.236   7.725  1.5406  0.6428  1.7962
 5581SOL    HW228203   3.722   1.324   7.768  0.8687 -1.3908  0.2011
 5582SOL     OW28204   4.702   4.528   4.623 -0.5337  0.3982  0.3396
 5582SOL    HW128205   0.016   4.604   4.579 -1.1705  1.6397  1.9393
 5582SOL    HW228206   4.649   4.486   4.555 -1.2292 -0.3681  1.3458
 5583SOL     OW28207   2.016   1.638   5.198  0.1857  0.0888  0.3575
 5583SOL    HW128208   2.016   1.563   5.138  1.5792 -1.1206  1.8407
 5583SOL    HW228209   2.013   1.591   5.281  1.2102  0.0533  0.3826
 5584SOL     OW28210   0.526   2.750   8.810 -0.4376 -0.0304 -0.1069
 5584SOL    HW128211   0.451   2.719   8.861 -0.7978  0.5733 -0.2608
 5584SOL    HW228212   0.529   2.845   8.823 -0.7690  0.1180 -1.0688
 5585SOL     OW28213   1.154   2.502   5.748  0.1131  0.3595 -0.1004
 5585SOL    HW128214   1.140   2.570   5.814 -0.1074  0.8710 -0.6786
 5585SOL    HW228215   1.125   2.419   5.785  0.7859  0.5382  0.8408
 5586SOL     OW28216   3.876   3.127  10.183 -0.0443  0.6078  0.1122
 5586SOL    HW128217   3.824   3.203  10.157  1.1845  1.7496  0.9605
 5586SOL    HW228218   3.962   3.169  10.183  0.1448  0.2255  0.9567
 5587SOL     OW28219   3.363   2.289  15.879  0.2603  0.3241  0.3067
 5587SOL    HW128220   3.340   2.342  15.956  0.9565  1.2209 -0.0979
 5587SOL    HW228221   3.320   2.340  15.810  1.9591 -1.4428 -2.0541
 5588SOL     OW28222   3.420   2.779   2.035 -0.1765  0.3235 -0.1170
 5588SOL    HW128223   3.454   2.725   1.964  1.4044  0.1109  0.8011
 5588SOL    HW228224   3.496   2.761   2.091  0.5880  1.9926 -0.6157
 5589SOL     OW28225   0.535   4.228   2.524  0.5258 -0.2227  0.1794
 5589SOL    HW128226   0.585   4.155   2.486 -0.3659 -0.6502 -0.1630
 5589SOL    HW228227   0.533   4.218   2.619 -1.4222 -0.3463  0.1292
 5590SOL     OW28228   0.052   1.537   6.383  0.1258  0.1023  0.0623
 5590SOL    HW128229   0.129   1.490   6.352  0.0244 -0.3944  0.5874
 5590SOL    HW228230   0.024   1.573   6.299 -0.4023 -0.1081  0.1513
 5591SOL     OW28231   2.818   0.305  10.708  0.3538 -0.1362  0.7426
 5591SOL    HW128232   2.809   0.291  10.802  0.3728  4.0109  1.3676
 5591SOL    HW228233   2.882   0.376  10.699 -0.6631  0.6548 -0.3250
 5592SOL     OW28234   3.998   1.871  11.934  0.6566  0.2212 -0.0941
 5592SOL    HW128235   4.025   1.801  11.875  0.0195 -0.8645  0.8819
 5592SOL    HW228236   3.931   1.820  11.980  2.0679 -1.0619  0.5390
 5593SOL     OW28237   2.257   0.844   5.269  0.3645  0.1708 -0.2059
 5593SOL    HW128238   2.320   0.885   5.210 -0.4857 -0.2641 -1.4083
 5593SOL    HW228239   2.234   0.913   5.332  2.5560 -1.3902  2.3431
 5594SOL     OW28240   4.464   0.088   3.799  0.0840  0.0183  0.4292
 5594SOL    HW128241   4.439   0.179   3.783 -2.4838 -1.0730 -1.8042
 5594SOL    HW228242   4.486   0.065   3.708 -2.3478 -0.3921 -0.0672
 5595SOL     OW28243   3.517   3.726   8.497  0.7394 -0.2597  0.5614
 5595SOL    HW128244   3.532   3.659   8.563  1.1365 -0.3548  0.3727
 5595SOL    HW228245   3.434   3.767   8.523  0.3128 -0.8066  0.0675
 5596SOL     OW28246   1.414   2.092   8.531 -0.0357 -0.7467  0.3824
 5596SOL    HW128247   1.320   2.102   8.544  0.0392 -1.7567  1.6554
 5596SOL    HW228248   1.443   2.183   8.528 -0.3291 -0.7175 -2.1017
 5597SOL     OW28249   2.988   3.121   0.636 -0.1635  0.0775 -0.3503
 5597SOL    HW128250   3.057   3.082   0.582  0.8648 -0.6011  1.4657
 5597SOL    HW228251   2.921   3.152   0.575  1.6986  1.7526 -1.5616
 5598SOL     OW28252   2.641   1.453  17.616  0.2877 -0.1334 -0.4626
 5598SOL    HW128253   2.586   1.381  17.647  0.8944 -0.4668 -0.1769
 5598SOL    HW228254   2.708   1.449  17.683  0.6618 -0.7860 -0.8832
 5599SOL     OW28255   3.077   0.031  13.838 -0.0675 -0.6298  0.3134
 5599SOL    HW128256   3.094   0.110  13.890  1.0111  0.1140 -1.1978
 5599SOL    HW228257   3.007   0.062  13.780  0.9217  0.8773 -0.0875
 5600SOL     OW28258   1.606   3.803   3.740 -0.1705 -0.5394 -0.3934
 5600SOL    HW128259   1.545   3.847   3.799 -1.3176 -1.1973 -1.0872
 5600SOL    HW228260   1.656   3.878   3.709 -1.5973 -0.4923 -2.5375
 5601SOL     OW28261   4.406   2.233   0.779  0.3222  0.1361 -0.4269
 5601SOL    HW128262   4.311   2.233   0.795 -0.3947  1.6759 -4.6072
 5601SOL    HW228263   4.423   2.292   0.705 -0.5645  2.4170  1.2070
 5602SOL     OW28264   2.630   3.036   4.117  0.1849 -0.0390  0.3668
 5602SOL    HW128265   2.604   2.968   4.179 -2.0458  1.2502  0.8520
 5602SOL    HW228266   2.701   2.996   4.067 -0.2314 -0.3933  0.0556
 5603SOL     OW28267   3.310   3.366   5.567  0.0037  0.1329 -0.0398
 5603SOL    HW128268   3.228   3.415   5.574 -0.0481 -0.2773  2.3005
 5603SOL    HW228269   3.284   3.275   5.577 -0.3102 -0.0687 -2.7794
 5604SOL     OW28270   2.694   4.608   5.287 -0.1212  0.3158  0.3717
 5604SOL    HW128271   2.668   4.681   5.343 -1.3279  1.0476 -1.1459
 5604SOL    HW228272   2.631   4.602   5.215 -1.9174 -1.4644  2.0803
 5605SOL     OW28273   1.828   3.910   2.022 -0.3756 -0.1337  0.2129
 5605SOL    HW128274   1.854   3.898   2.113  2.1263  1.4220 -0.2907
 5605SOL    HW228275   1.754   3.967   2.043 -0.7116 -0.5036  0.0216
 5606SOL     OW28276   2.156   4.190  15.119  0.2680 -0.2024  0.4794
 5606SOL    HW128277   2.069   4.228  15.116  0.4323 -0.0493 -2.1620
 5606SOL    HW228278   2.166   4.165  15.211  0.9085  1.4956  0.8634
 5607SOL     OW28279   0.935   2.122   8.575  0.2021  0.6712 -0.2041
 5607SOL    HW128280   1.026   2.150   8.571 -0.0210  1.4419  0.0569
 5607SOL    HW228281   0.941   2.027   8.573 -0.5285  0.6345 -0.7032
 5608SOL     OW28282   3.439   2.393  11.453  0.2246  0.2910 -0.7588
 5608SOL    HW128283   3.456   2.467  11.394  1.1178  0.7540  0.0835
 5608SOL    HW228284   3.529   2.378  11.481 -0.3823  0.1277  1.0728
 5609SOL     OW28285   1.984   1.969   2.775  0.0212 -1.0008 -0.0056
 5609SOL    HW128286   1.921   2.007   2.836 -1.0021  1.3157 -2.5347
 5609SOL    HW228287   2.010   1.892   2.825 -0.2179  0.1479  1.8972
 5610SOL     OW28288   3.405   3.603   3.782  0.0567  0.0043 -0.0836
 5610SOL    HW128289   3.488   3.558   3.770  0.7139  1.7289 -2.0991
 5610SOL    HW228290   3.352   3.524   3.776 -0.7322  0.6068 -1.1824
 5611SOL     OW28291   3.320   4.394   1.702 -0.4273  0.1697  0.1548
 5611SOL    HW128292   3.260   4.344   1.646 -0.6280  1.9671 -1.2476
 5611SOL    HW228293   3.278   4.414   1.785  1.1101 -0.7736  1.1497
 5612SOL     OW28294   2.341   3.042   9.774  0.6776  0.1079  0.0240
 5612SOL    HW128295   2.302   3.024   9.860 -1.5402  1.5595 -0.6841
 5612SOL    HW228296   2.261   3.074   9.732  0.6784  0.9185  0.6347
 5613SOL     OW28297   2.045   1.749  14.150 -0.1288  0.1207  0.8929
 5613SOL    HW128298   2.062   1.837  14.184  1.7388 -0.5465  1.6964
 5613SOL    HW228299   2.037   1.699  14.231 -2.2486  1.1704  1.3182
 5614SOL     OW28300   3.741   2.784  13.657  0.3549 -0.2290  0.4965
 5614SOL    HW128301   3.675   2.721  13.628 -1.2648  1.7964 -0.1791
 5614SOL    HW228302   3.729   2.787  13.751  0.0760 -2.2417  0.5318
 5615SOL     OW28303   0.843   0.215  17.629 -0.4008  0.2705 -0.0320
 5615SOL    HW128304   0.790   0.179  17.558 -2.2703 -0.7208  1.8578
 5615SOL    HW228305   0.916   0.153  17.632  0.8585  1.5929 -3.4599
 5616SOL     OW28306   2.151   3.557   2.971 -0.0368 -0.4911  0.2478
 5616SOL    HW128307   2.206   3.636   2.977  1.2859 -1.3619 -0.3344
 5616SOL    HW228308   2.084   3.587   3.032  0.8020  2.3166 -0.1978
 5617SOL     OW28309   2.611   0.188   6.060 -0.1414  0.9173 -0.6678
 5617SOL    HW128310   2.625   0.278   6.091  1.5934 -0.1042  1.4548
 5617SOL    HW228311   2.631   0.194   5.966 -2.7244 -0.3629 -1.3211
 5618SOL     OW28312   2.273   3.331   2.869 -0.3377 -0.2633 -0.0938
 5618SOL    HW128313   2.351   3.350   2.921 -1.4219 -1.6208  2.0296
 5618SOL    HW228314   2.214   3.392   2.915 -1.0878  0.5039 -2.0425
 5619SOL     OW28315   4.360   2.604   5.292 -0.6855  0.4822 -0.0407
 5619SOL    HW128316   4.367   2.651   5.210 -0.3899  0.2860 -0.1280
 5619SOL    HW228317   4.266   2.606   5.312 -0.6542 -0.7353  0.2587
 5620SOL     OW28318   0.448   4.555   7.536  0.0371 -0.1504 -0.0527
 5620SOL    HW128319   0.362   4.580   7.568  0.1949 -0.6258  0.7425
 5620SOL    HW228320   0.494   4.639   7.532  2.4367 -1.4442  0.0985
 5621SOL     OW28321   1.093   2.319   3.831  0.4755 -0.4889 -0.8413
 5621SOL    HW128322   1.175   2.280   3.804  1.5809  0.4555  1.1374
 5621SOL    HW228323   1.050   2.239   3.859 -0.5302  0.4191  0.2211
 5622SOL     OW28324   4.019   4.414   2.723  0.3683 -0.1710 -0.1749
 5622SOL    HW128325   3.978   4.334   2.758  1.1820 -1.2348 -1.6250
 5622SOL    HW228326   4.048   4.389   2.635 -2.1204  0.0666 -1.0774
 5623SOL     OW28327   0.009   3.251  12.077  0.9506  0.1352 -0.2608
 5623SOL    HW128328   0.076   3.283  12.017  2.0934  1.1655  1.5743
 5623SOL    HW228329   0.041   3.281  12.162 -0.1345  1.9962 -0.4931
 5624SOL     OW28330   0.271   2.275   6.385 -0.1803 -0.2118 -0.0264
 5624SOL    HW128331   0.220   2.338   6.436 -2.1752 -1.6191 -0.2789
 5624SOL    HW228332   0.232   2.195   6.422 -0.3072  0.0594  0.4202
 5625SOL     OW28333   4.316   2.164   9.469 -0.1067 -0.2436 -0.3702
 5625SOL    HW128334   4.264   2.177   9.548  1.3003 -2.3612  0.8920
 5625SOL    HW228335   4.347   2.254   9.463 -0.2155 -0.1084  1.1358
 5626SOL     OW28336   2.835   4.491  16.875 -0.0224  0.0327  0.6108
 5626SOL    HW128337   2.749   4.499  16.917 -1.7131 -1.2681 -2.6065
 5626SOL    HW228338   2.851   4.396  16.875  0.8322  0.1718 -2.5048
 5627SOL     OW28339   0.728   3.140   1.581 -0.2092  0.1569 -0.4433
 5627SOL    HW128340   0.754   3.111   1.668 -1.8124 -0.8688 -0.3134
 5627SOL    HW228341   0.811   3.174   1.547  0.0461  0.0969  0.1165
 5628SOL     OW28342   0.058   1.761   2.977 -0.2326 -0.0491 -0.1874
 5628SOL    HW128343   0.092   1.790   2.892  2.6059 -1.3193  0.5021
 5628SOL    HW228344   0.128   1.708   3.016 -0.5255  0.1065  0.5448
 5629SOL     OW28345   3.557   3.771   9.975  0.1907 -0.1029  0.5066
 5629SOL    HW128346   3.585   3.767   9.884  1.8531 -1.8551  1.1065
 5629SOL    HW228347   3.476   3.819   9.960  1.1627  0.8754 -1.6532
 5630SOL     OW28348   4.150   1.845  16.081  0.6511 -0.8750 -0.6918
 5630SOL    HW128349   4.177   1.937  16.093 -2.4141  0.0700 -1.0388
 5630SOL    HW228350   4.114   1.854  15.993 -3.1667  0.2751  0.9962
 5631SOL     OW28351   4.543   3.596   3.413 -0.4186  0.1300 -0.1670
 5631SOL    HW128352   4.600   3.521   3.398 -0.5171  0.2454 -1.0998
 5631SOL    HW228353   4.585   3.678   3.387  0.9049 -1.1372 -1.9577
 5632SOL     OW28354   2.187   0.303   2.158  0.0652 -0.0360  0.1980
 5632SOL    HW128355   2.262   0.350   2.123  0.6174 -0.0746  1.3224
 5632SOL    HW228356   2.164   0.247   2.084 -0.7662 -0.1287  0.5191
 5633SOL     OW28357   1.464   4.412  12.757 -0.6371  0.6897 -0.2470
 5633SOL    HW128358   1.521   4.479  12.720 -1.0396  0.2674 -1.6159
 5633SOL    HW228359   1.417   4.483  12.801  0.8546  0.9456  0.9181
 5634SOL     OW28360   0.221   2.734   7.234 -0.2192 -0.0725 -0.1764
 5634SOL    HW128361   0.293   2.792   7.259  0.7532 -1.6132  0.5765
 5634SOL    HW228362   0.207   2.756   7.142 -0.7016 -1.9936 -0.5661
 5635SOL     OW28363   2.333   0.804   3.038  0.4268  0.4408 -0.0166
 5635SOL    HW128364   2.397   0.737   3.063 -1.2054 -1.5719 -1.2432
 5635SOL    HW228365   2.255   0.750   3.033  2.0660 -1.9625  0.5404
 5636SOL     OW28366   3.894   4.505  15.647  0.1257  0.5912  0.0264
 5636SOL    HW128367   3.958   4.483  15.715  1.2568 -1.7509 -1.7622
 5636SOL    HW228368   3.945   4.571  15.600  0.3098 -0.4378 -1.2255
 5637SOL     OW28369   0.202   3.434   1.490  0.0504  0.0742 -0.2730
 5637SOL    HW128370   0.156   3.517   1.507  1.4965  1.1406 -1.7054
 5637SOL    HW228371   0.127   3.375   1.480 -0.1495  0.3067 -0.1702
 5638SOL     OW28372   3.275   0.962   5.549  0.4678  0.1931  0.3179
 5638SOL    HW128373   3.343   1.027   5.564  0.2738  1.6415 -4.8372
 5638SOL    HW228374   3.239   0.988   5.464  0.2987 -0.0378  0.3194
 5639SOL     OW28375   0.928   0.681   6.322  0.4732 -0.5003 -0.3166
 5639SOL    HW128376   1.005   0.726   6.356  0.6790 -1.6226  0.7061
 5639SOL    HW228377   0.865   0.721   6.382 -0.0633 -1.0903 -0.4837
 5640SOL     OW28378   3.677   0.485  11.464  0.1196 -0.0233  0.9909
 5640SOL    HW128379   3.723   0.466  11.546  2.4542  1.4287  0.0406
 5640SOL    HW228380   3.638   0.568  11.493 -1.6790 -0.1976 -0.9283
 5641SOL     OW28381   2.658   1.822   4.528  0.0108  0.0005 -0.0642
 5641SOL    HW128382   2.614   1.878   4.592  1.7812  1.0987  0.2125
 5641SOL    HW228383   2.742   1.869   4.526 -0.9645  1.7215 -0.8001
 5642SOL     OW28384   4.107   2.735   9.553 -0.1820 -0.1243 -0.0985
 5642SOL    HW128385   4.157   2.751   9.474 -0.7183 -1.3747 -0.6911
 5642SOL    HW228386   4.068   2.822   9.566  0.9705  0.3352  0.2702
 5643SOL     OW28387   1.395   0.898   6.869  0.4334  0.1286  0.0937
 5643SOL    HW128388   1.366   0.885   6.959  1.9930  0.5231  0.6508
 5643SOL    HW228389   1.471   0.840   6.869  0.5039  0.2294  0.6237
 5644SOL     OW28390   4.047   0.466   2.843 -0.0258 -0.3840 -0.1874
 5644SOL    HW128391   3.995   0.480   2.763  1.3480  1.5744 -0.7393
 5644SOL    HW228392   3.986   0.417   2.898 -0.3378 -1.6455 -1.6765
 5645SOL     OW28393   0.874   0.406   6.469 -0.3544 -0.0266  0.2544
 5645SOL    HW128394   0.894   0.496   6.443 -1.0314  0.1845  0.4611
 5645SOL    HW228395   0.815   0.383   6.397 -0.0960  0.2321 -0.0394
 5646SOL     OW28396   2.408   0.830  11.815  0.0584 -0.4918 -0.1634
 5646SOL    HW128397   2.409   0.920  11.782  0.3066  0.5595  2.7612
 5646SOL    HW228398   2.357   0.834  11.896 -3.3466  0.0394 -2.3146
 5647SOL     OW28399   0.090   0.944   4.930  0.0639  0.3479  0.0913
 5647SOL    HW128400   0.112   0.880   4.997  3.1293  2.4665  1.0835
 5647SOL    HW228401   0.081   0.888   4.852 -0.4300 -1.2934  1.3363
 5648SOL     OW28402   0.670   0.714  12.781 -0.6982  0.2357  0.5154
 5648SOL    HW128403   0.581   0.743  12.762 -0.6192  0.4726  0.5012
 5648SOL    HW228404   0.677   0.736  12.874 -1.2841  1.5648  0.2488
 5649SOL     OW28405   3.188   2.348  12.066  0.6369  0.0152  0.1980
 5649SOL    HW128406   3.250   2.361  12.138 -0.4448  0.5943  1.0126
 5649SOL    HW228407   3.136   2.428  12.075  0.8744  0.0819  0.9515
 5650SOL     OW28408   1.889   1.186   2.530  0.1033  0.3693  0.4350
 5650SOL    HW128409   1.922   1.265   2.488 -1.0474  0.0587 -1.0579
 5650SOL    HW228410   1.963   1.128   2.515 -0.7021 -0.6725  0.4638
 5651SOL     OW28411   4.433   0.107   8.254 -0.1138 -0.3324  0.9857
 5651SOL    HW128412   4.385   0.054   8.317 -0.3271  0.0485  1.1481
 5651SOL    HW228413   4.406   0.071   8.170 -0.2996  2.5482 -0.2098
 5652SOL     OW28414   4.303   2.023   2.786  0.1312 -0.0592  0.5994
 5652SOL    HW128415   4.376   2.083   2.793  0.1620 -0.1661  1.2558
 5652SOL    HW228416   4.310   1.971   2.867 -0.4177  0.6068  1.0752
 5653SOL     OW28417   0.076   0.201   8.626 -0.0815  0.2651 -0.1403
 5653SOL    HW128418   0.124   0.235   8.702  0.7564 -0.5908 -0.2923
 5653SOL    HW228419   0.116   0.115   8.609 -1.0493 -0.3565  0.6951
 5654SOL     OW28420   1.601   1.823   1.880 -0.3408  0.4257 -0.3183
 5654SOL    HW128421   1.647   1.744   1.910 -0.8533  0.7130  1.2187
 5654SOL    HW228422   1.514   1.795   1.852  0.2990 -0.6742 -1.2065
 5655SOL     OW28423   0.986   0.707   8.586 -0.4741  0.1486 -0.1583
 5655SOL    HW128424   0.942   0.634   8.629 -0.1406 -0.2417 -0.4797
 5655SOL    HW228425   1.039   0.656   8.525 -3.6584  0.1559 -2.9463
 5656SOL     OW28426   1.507   0.372   0.653 -0.3826  0.5403 -0.3668
 5656SOL    HW128427   1.503   0.448   0.712  1.2970  0.7437 -0.5001
 5656SOL    HW228428   1.523   0.424   0.574 -1.6962  2.7649  0.8360
 5657SOL     OW28429   1.283   1.380   1.074 -0.0391 -0.0364  0.5035
 5657SOL    HW128430   1.288   1.355   1.166  1.9940 -0.5754  0.2350
 5657SOL    HW228431   1.349   1.326   1.031 -0.1182  0.2531  0.0120
 5658SOL     OW28432   1.313   2.807   9.170 -0.0905  0.2984 -0.3462
 5658SOL    HW128433   1.382   2.741   9.158 -0.6652 -0.4666  0.5822
 5658SOL    HW228434   1.350   2.869   9.108 -0.7313  0.5034 -0.5194
 5659SOL     OW28435   0.401   4.496   8.243 -0.0036  0.5254  0.3411
 5659SOL    HW128436   0.382   4.469   8.153  1.1193 -1.3472  0.6556
 5659SOL    HW228437   0.483   4.448   8.256 -0.7954 -1.3742 -1.6553
 5660SOL     OW28438   3.784   3.548   8.577  0.7090  0.0301 -0.5645
 5660SOL    HW128439   3.714   3.565   8.640 -0.1433 -0.6203 -1.3371
 5660SOL    HW228440   3.837   3.480   8.617  1.4175  1.1673  0.4283
 5661SOL     OW28441   2.988   1.124   0.095  0.1502 -0.2310  0.1069
 5661SOL    HW128442   3.022   1.036   0.113  0.4657 -0.5369 -2.0016
 5661SOL    HW228443   3.065   1.169   0.060  0.1165  0.1181  0.4811
 5662SOL     OW28444   1.103   1.565   6.036  0.4721 -0.5534 -0.0010
 5662SOL    HW128445   1.134   1.484   5.994 -0.4412 -1.2496  0.6647
 5662SOL    HW228446   1.142   1.632   5.980  1.0289 -0.5474  0.3972
 5663SOL     OW28447   0.052   1.037   5.572  0.1222 -0.2274 -0.0660
 5663SOL    HW128448   0.140   1.003   5.582  0.8799  1.9351  0.4651
 5663SOL    HW228449   0.057   1.113   5.629 -0.9890 -0.2959  0.1253
 5664SOL     OW28450   0.932   3.752  16.469  0.4483  0.0072  0.4949
 5664SOL    HW128451   0.964   3.735  16.380 -0.9876  0.8547 -0.1950
 5664SOL    HW228452   0.864   3.818  16.455 -0.0171 -0.8519 -1.2730
 5665SOL     OW28453   4.199   3.847   6.250 -0.1876 -0.6758 -0.3000
 5665SOL    HW128454   4.142   3.912   6.293  0.3020  0.2756 -1.0845
 5665SOL    HW228455   4.240   3.800   6.323  1.7087  3.6204  1.4566
 5666SOL     OW28456   0.139   0.473   5.918  0.2459  0.3161  0.6932
 5666SOL    HW128457   0.177   0.386   5.930 -0.6088 -0.1628 -0.1290
 5666SOL    HW228458   0.099   0.491   6.004 -1.9176  1.5366 -0.5596
 5667SOL     OW28459   3.444   2.280   5.736  0.4175  0.5535  0.2502
 5667SOL    HW128460   3.465   2.219   5.665 -1.0827 -1.0427  1.1738
 5667SOL    HW228461   3.368   2.239   5.776  2.1226  0.3424  3.3182
 5668SOL     OW28462   3.354   4.432  13.346 -0.4057  0.1701 -0.6930
 5668SOL    HW128463   3.348   4.499  13.414 -0.6586 -0.8486  0.2870
 5668SOL    HW228464   3.334   4.354  13.398  1.9195  0.5539  0.7704
 5669SOL     OW28465   1.044   4.062   7.866 -0.1602 -0.2635  0.0175
 5669SOL    HW128466   1.040   3.990   7.929 -0.1939 -0.2310  0.0523
 5669SOL    HW228467   1.130   4.048   7.825 -0.2168  0.3397 -0.3172
 5670SOL     OW28468   3.747   4.104   8.299  0.4167  0.2804  0.5101
 5670SOL    HW128469   3.835   4.065   8.294  1.1745  1.8894  1.3026
 5670SOL    HW228470   3.740   4.109   8.394  0.6864  1.3764  0.4755
 5671SOL     OW28471   2.403   4.044  13.206  0.2943 -0.0587 -0.4859
 5671SOL    HW128472   2.328   4.081  13.159  0.5804  0.6188 -0.4068
 5671SOL    HW228473   2.398   4.094  13.288 -2.5395  0.3574 -0.9068
 5672SOL     OW28474   1.306   2.248   7.468 -0.0610 -0.1211  0.3486
 5672SOL    HW128475   1.400   2.258   7.455  0.0370 -1.8961 -0.2718
 5672SOL    HW228476   1.298   2.180   7.534  2.1770  0.9549  1.7426
 5673SOL     OW28477   4.701   0.392   5.235  0.1551 -0.0435 -0.0507
 5673SOL    HW128478   4.618   0.371   5.194 -0.0108 -0.5787  0.5649
 5673SOL    HW228479   0.010   0.310   5.272  0.5773 -0.0935 -0.5225
 5674SOL     OW28480   1.810   0.565   7.384  0.0902 -0.2129  0.6796
 5674SOL    HW128481   1.771   0.533   7.465  0.5614 -0.2518  0.8900
 5674SOL    HW228482   1.870   0.494   7.364  1.3675  1.9657 -3.2282
 5675SOL     OW28483   2.839   3.903  13.616  0.1953 -0.3246 -0.0167
 5675SOL    HW128484   2.853   3.910  13.710  1.3814  2.5549 -0.4031
 5675SOL    HW228485   2.790   3.821  13.617  1.2615 -0.9656 -0.1485
 5676SOL     OW28486   2.409   4.626  11.666 -0.4517 -0.2489 -0.0763
 5676SOL    HW128487   2.393   4.544  11.711  0.7305 -0.8673 -0.7904
 5676SOL    HW228488   2.437   4.683  11.738  2.2363  1.1617 -2.2136
 5677SOL     OW28489   2.368   1.490   6.288 -0.4707  0.0017  0.7560
 5677SOL    HW128490   2.330   1.464   6.204  0.6289 -2.0470  0.8743
 5677SOL    HW228491   2.315   1.566   6.310 -0.6859  0.3507 -0.9424
 5678SOL     OW28492   3.066   3.967   2.900  0.0179  0.3463  0.0772
 5678SOL    HW128493   3.011   4.019   2.958 -1.1218  1.4697 -1.9901
 5678SOL    HW228494   3.150   4.012   2.912 -0.6546  1.3401  0.9952
 5679SOL     OW28495   3.555   1.718   0.041 -0.0493 -0.0997 -0.0269
 5679SOL    HW128496   3.521   1.792   0.091  0.0098 -0.7155  0.9248
 5679SOL    HW228497   3.562   1.756  17.646  0.4576  0.0146  0.0578
 5680SOL     OW28498   2.879   0.929   2.753  0.0049 -0.0115 -0.7656
 5680SOL    HW128499   2.889   0.907   2.660  2.8528  1.3540 -0.7525
 5680SOL    HW228500   2.829   0.853   2.782 -0.2284  1.4443  2.6489
 5681SOL     OW28501   4.089   2.182   7.608 -0.6178  0.2250 -0.5565
 5681SOL    HW128502   4.084   2.099   7.656  0.0603  0.3706 -0.2318
 5681SOL    HW228503   4.073   2.142   7.523  1.1850 -0.9012 -0.3708
 5682SOL     OW28504   0.914   2.132   6.404  0.2232 -0.1995  0.0365
 5682SOL    HW128505   0.827   2.092   6.399  0.6393 -1.1439  0.4200
 5682SOL    HW228506   0.945   2.097   6.487 -0.8028 -0.8129  0.1608
 5683SOL     OW28507   4.169   2.481   9.365 -0.6155  0.1747  0.1912
 5683SOL    HW128508   4.113   2.424   9.311  0.0789  0.7471 -1.1499
 5683SOL    HW228509   4.156   2.442   9.451 -0.9282 -0.7190 -0.2563
 5684SOL     OW28510   0.214   1.990   6.980 -0.0968 -0.2648 -0.7342
 5684SOL    HW128511   0.167   1.976   6.898  1.8594  2.6379 -2.3502
 5684SOL    HW228512   0.176   1.913   7.023 -1.2293  1.0799  0.6571
 5685SOL     OW28513   4.236   0.928   5.641 -0.1427  0.2454  0.3623
 5685SOL    HW128514   4.310   0.966   5.595 -1.2515  0.6349 -1.1231
 5685SOL    HW228515   4.221   0.974   5.723  0.4746  1.1303 -0.0288
 5686SOL     OW28516   2.307   3.703   1.502 -0.4890 -0.3078 -0.5791
 5686SOL    HW128517   2.232   3.752   1.535 -0.2678 -0.2018 -0.2343
 5686SOL    HW228518   2.376   3.756   1.542 -2.1738  3.3744 -2.5671
 5687SOL     OW28519   1.220   1.558   6.486 -0.3512 -0.0773  0.0717
 5687SOL    HW128520   1.311   1.559   6.459 -0.4992 -0.1881 -0.4340
 5687SOL    HW228521   1.231   1.536   6.578  0.9472 -4.0775 -1.0373
 5688SOL     OW28522   4.667   3.364   1.469  0.4921 -0.0843  0.5857
 5688SOL    HW128523   4.633   3.344   1.382 -1.0382 -0.8111  1.3549
 5688SOL    HW228524   4.622   3.297   1.520  2.9696 -0.5241  2.2280
 5689SOL     OW28525   4.636   4.624   4.243 -0.3465 -0.6517  0.0007
 5689SOL    HW128526   4.699   4.610   4.172  1.3274  0.6937  1.2302
 5689SOL    HW228527   4.634   4.539   4.287  0.2763 -0.5214  0.2773
 5690SOL     OW28528   1.661   3.152   4.165  0.2295  0.1555  0.3366
 5690SOL    HW128529   1.748   3.126   4.135  0.1534  0.3852 -0.0779
 5690SOL    HW228530   1.613   3.106   4.096  1.0648  1.3777 -1.0516
 5691SOL     OW28531   4.159   2.865  10.431 -0.5028  0.4523 -0.3665
 5691SOL    HW128532   4.213   2.787  10.439  0.0891  0.7869 -1.1771
 5691SOL    HW228533   4.225   2.933  10.414  1.0938 -0.6490  1.3988
 5692SOL     OW28534   0.178   0.448   0.808  0.0797  0.4657 -0.3065
 5692SOL    HW128535   0.238   0.393   0.859  1.4993  0.5178 -1.9437
 5692SOL    HW228536   0.158   0.394   0.732  1.8100 -0.6432  0.0209
 5693SOL     OW28537   1.125   3.955   1.027  0.0940 -0.2323  0.4604
 5693SOL    HW128538   1.068   4.020   1.069  0.1444 -0.0014  0.1757
 5693SOL    HW228539   1.201   4.014   1.031 -0.2746  0.1482  1.6553
 5694SOL     OW28540   1.265   4.413   2.269  0.2602  0.7032 -0.0993
 5694SOL    HW128541   1.235   4.359   2.342 -0.8453 -0.7625 -1.6424
 5694SOL    HW228542   1.279   4.492   2.321  0.7628  1.4492 -1.3830
 5695SOL     OW28543   3.950   2.016  13.269 -0.4961 -0.3762  0.0169
 5695SOL    HW128544   3.865   2.059  13.271 -0.1634  0.2659  0.4764
 5695SOL    HW228545   3.970   2.006  13.176  0.1451  0.4316  0.0675
 5696SOL     OW28546   0.557   3.157   6.052 -0.0870 -0.1581  0.1656
 5696SOL    HW128547   0.474   3.110   6.059 -0.1074 -0.1998 -0.3433
 5696SOL    HW228548   0.589   3.178   6.140 -2.8046  2.5379  0.5185
 5697SOL     OW28549   4.147   1.802   9.688 -0.3112  0.0224  0.1934
 5697SOL    HW128550   4.095   1.882   9.691 -0.8340 -0.3111  0.0113
 5697SOL    HW228551   4.221   1.816   9.629  0.1907 -0.1003  0.7890
 5698SOL     OW28552   1.875   1.822  11.406  0.1076  0.3627 -0.4803
 5698SOL    HW128553   1.820   1.899  11.416 -1.0556 -0.6286  0.6570
 5698SOL    HW228554   1.937   1.853  11.340  0.6619  1.6913  0.6738
 5699SOL     OW28555   1.551   1.716  12.762  0.0912 -0.2516  0.0173
 5699SOL    HW128556   1.470   1.728  12.713  0.4591 -0.6582 -0.6919
 5699SOL    HW228557   1.543   1.629  12.801  2.5640 -0.6114 -0.2603
 5700SOL     OW28558   4.632   4.506   4.905  0.0072 -0.3099 -0.0106
 5700SOL    HW128559   4.650   4.516   4.812 -0.3532 -2.2749 -0.2841
 5700SOL    HW228560   4.555   4.450   4.902 -1.3139  1.6186 -2.6437
 5701SOL     OW28561   2.780   4.001   3.336  0.0392 -0.1095 -0.1934
 5701SOL    HW128562   2.718   3.972   3.403 -0.4527  1.1367 -0.0979
 5701SOL    HW228563   2.865   3.975   3.371 -0.8750 -0.2273  1.9451
 5702SOL     OW28564   3.678   3.667  15.823  0.0225  1.1390  0.5811
 5702SOL    HW128565   3.669   3.655  15.729 -2.6937  0.8799  0.8789
 5702SOL    HW228566   3.759   3.616  15.829 -0.9434 -0.2954  1.6541
 5703SOL     OW28567   3.897   3.405   9.586  0.3783 -0.0995  0.2512
 5703SOL    HW128568   3.804   3.406   9.563  0.9120  1.7906 -1.8161
 5703SOL    HW228569   3.893   3.358   9.669 -1.6945  1.9782  1.3320
 5704SOL     OW28570   2.042   4.401  11.837  0.3743 -0.3894 -0.0923
 5704SOL    HW128571   2.122   4.388  11.889  0.5003  0.7708  0.0084
 5704SOL    HW228572   2.068   4.474  11.781 -0.1451  1.4997  2.1141
 5705SOL     OW28573   2.633   2.583  14.657  0.3986 -0.6848 -0.2298
 5705SOL    HW128574   2.622   2.527  14.580 -0.2960 -0.9217  0.0382
 5705SOL    HW228575   2.605   2.671  14.632 -0.4143 -0.7244  0.5474
 5706SOL     OW28576   1.611   1.043   0.578  0.0748  0.0555  0.5925
 5706SOL    HW128577   1.592   1.129   0.615 -0.9707 -1.4626  3.5793
 5706SOL    HW228578   1.548   1.047   0.505 -0.8930  2.5203  1.5400
 5707SOL     OW28579   2.701   3.139   6.281  0.7117  1.2116 -0.1288
 5707SOL    HW128580   2.793   3.159   6.265  1.4319 -2.2611 -0.3037
 5707SOL    HW228581   2.670   3.219   6.323  0.3640  0.9909  0.0395
 5708SOL     OW28582   3.028   3.703  10.680  0.3759 -0.3280  0.1999
 5708SOL    HW128583   3.010   3.662  10.765  3.5485 -0.9660  0.5707
 5708SOL    HW228584   2.955   3.764  10.689 -1.1280 -2.2402  0.9623
 5709SOL     OW28585   0.784   3.672   8.044 -0.0333 -0.4834  0.2232
 5709SOL    HW128586   0.758   3.760   8.018  0.8032 -0.2639  0.1141
 5709SOL    HW228587   0.861   3.688   8.099 -1.8199  1.2202  2.1965
 5710SOL     OW28588   1.034   4.520   8.393  0.1109  0.2016  0.3814
 5710SOL    HW128589   0.953   4.573   8.392  0.6828  1.0755  0.2779
 5710SOL    HW228590   1.014   4.449   8.453  0.2262  1.2958  1.7268
 5711SOL     OW28591   3.686   0.252  13.713  0.1074  0.4920 -0.7833
 5711SOL    HW128592   3.702   0.286  13.625 -1.6422 -0.5601 -1.5001
 5711SOL    HW228593   3.741   0.316  13.760 -0.0940  0.6007 -0.6983
 5712SOL     OW28594   2.988   0.410   6.100  0.0253  0.2315  0.0932
 5712SOL    HW128595   3.019   0.439   6.014 -1.2962  0.3037 -0.3679
 5712SOL    HW228596   2.978   0.499   6.133  0.8539 -0.5254  2.4105
 5713SOL     OW28597   0.930   1.419   7.415 -0.3822  0.1939 -0.4997
 5713SOL    HW128598   0.984   1.398   7.338  0.2543  2.2986 -0.6415
 5713SOL    HW228599   0.971   1.504   7.432 -0.9626 -0.1201  2.3808
 5714SOL     OW28600   1.751   2.005   4.870  0.4215 -0.1419 -0.0074
 5714SOL    HW128601   1.841   2.037   4.865  0.4602 -0.3043 -0.3258
 5714SOL    HW228602   1.756   1.911   4.885 -1.2441 -0.1432  0.5805
 5715SOL     OW28603   0.067   2.496   3.784  0.1745 -0.1874  0.0606
 5715SOL    HW128604   0.032   2.577   3.746 -0.2664 -0.1545  0.5351
 5715SOL    HW228605   0.000   2.431   3.761  0.8991 -1.5065  1.7296
 5716SOL     OW28606   3.819   2.058   5.098  0.1420 -0.2346 -0.0177
 5716SOL    HW128607   3.764   2.135   5.091 -0.7627 -0.6097  2.9275
 5716SOL    HW228608   3.744   1.998   5.099 -1.5053  1.8628 -0.0952
 5717SOL     OW28609   2.744   4.476  14.985 -0.0634 -0.1010  0.1077
 5717SOL    HW128610   2.718   4.512  15.070  0.3034 -1.6096  0.8451
 5717SOL    HW228611   2.668   4.423  14.964 -2.2858  2.5255  1.4406
 5718SOL     OW28612   3.892   3.678   9.366  0.1151  0.0674  0.6923
 5718SOL    HW128613   3.807   3.646   9.397 -1.0878  3.4842  0.9372
 5718SOL    HW228614   3.912   3.742   9.435  0.0865 -0.4458  1.1779
 5719SOL     OW28615   1.982   3.383   2.532  0.2012  0.2947 -0.8149
 5719SOL    HW128616   1.902   3.392   2.584  0.0988 -2.7956 -0.4510
 5719SOL    HW228617   2.024   3.468   2.543 -2.5775  1.1361  3.1879
 5720SOL     OW28618   0.840   1.249   8.367 -0.3599 -0.2624 -0.0104
 5720SOL    HW128619   0.919   1.207   8.403 -0.1795  0.8726  0.8875
 5720SOL    HW228620   0.881   1.315   8.312  2.3556 -1.7936  0.1370
 5721SOL     OW28621   4.314   4.240   6.923  0.5725  0.5317  0.4426
 5721SOL    HW128622   4.314   4.144   6.920 -0.2422  0.5751 -1.1309
 5721SOL    HW228623   4.404   4.247   6.953  0.0513  0.8669  1.9562
 5722SOL     OW28624   4.197   1.498  15.849  0.6431  0.1604 -0.0229
 5722SOL    HW128625   4.273   1.533  15.895  0.3239  0.7668  0.0547
 5722SOL    HW228626   4.172   1.572  15.793 -0.5018  0.3730  0.7608
 5723SOL     OW28627   3.404   0.828  17.105  0.4948 -0.5812  0.1414
 5723SOL    HW128628   3.365   0.914  17.124 -1.1128 -1.2743 -0.0350
 5723SOL    HW228629   3.340   0.770  17.146 -3.2781  3.1843 -0.3914
 5724SOL     OW28630   0.156   4.617   1.988 -0.2182 -0.1725 -1.0662
 5724SOL    HW128631   0.123   4.652   2.071  2.6432  2.2487 -0.9471
 5724SOL    HW228632   0.247   4.598   2.013 -0.4648  2.2325  1.5900
 5725SOL     OW28633   1.405   2.043  15.408 -0.0050  0.1431  0.0046
 5725SOL    HW128634   1.466   2.089  15.350 -0.8969  2.9702  1.3429
 5725SOL    HW228635   1.354   2.112  15.448  0.8607  0.1376  1.1166
 5726SOL     OW28636   4.681   1.900   4.434  0.4096 -0.2632  0.2401
 5726SOL    HW128637   0.003   1.904   4.349 -0.9118 -1.6140 -0.5307
 5726SOL    HW228638   0.006   1.955   4.496  1.7429 -0.8523 -0.2755
 5727SOL     OW28639   0.510   2.731  12.325  0.0899  0.0568  0.2685
 5727SOL    HW128640   0.548   2.811  12.360  0.8433 -1.0520  2.0152
 5727SOL    HW228641   0.548   2.738  12.238  2.9690 -1.7221  1.3774
 5728SOL     OW28642   3.424   0.169   3.719  0.0935 -0.4342  0.0285
 5728SOL    HW128643   3.399   0.077   3.717  0.0262 -0.4066 -0.3337
 5728SOL    HW228644   3.494   0.169   3.784 -0.8359 -1.6873  1.0494
 5729SOL     OW28645   3.666   2.948   3.683  0.4130 -0.3299 -0.1253
 5729SOL    HW128646   3.583   2.955   3.634  0.4226  1.6198  0.1265
 5729SOL    HW228647   3.684   2.854   3.675 -2.6294 -0.7648 -1.8508
 5730SOL     OW28648   2.881   2.815   9.426 -0.3983  0.1697  0.1850
 5730SOL    HW128649   2.900   2.902   9.463  0.3726 -0.0380  0.2924
 5730SOL    HW228650   2.812   2.786   9.485  1.6224 -1.3854  1.7974
 5731SOL     OW28651   3.033   2.408  13.373 -0.4068 -0.5100  0.0715
 5731SOL    HW128652   3.099   2.472  13.349  2.0722 -3.5444 -1.1902
 5731SOL    HW228653   3.095   2.342  13.405 -0.7575 -1.8213 -1.9144
 5732SOL     OW28654   0.591   0.034   9.369 -0.6100 -0.4607  0.0783
 5732SOL    HW128655   0.592   4.693   9.298  1.2370 -0.9826  0.5905
 5732SOL    HW228656   0.497   0.051   9.382 -0.1594 -0.0843  2.9075
 5733SOL     OW28657   0.427   3.346   1.581 -0.5568  0.1756 -0.2520
 5733SOL    HW128658   0.349   3.386   1.543  0.2694  1.1562 -0.9436
 5733SOL    HW228659   0.432   3.403   1.657  0.9284 -1.9195  1.2375
 5734SOL     OW28660   3.016   3.488  13.593 -0.7339  0.2380 -0.2515
 5734SOL    HW128661   2.923   3.500  13.613 -0.3546  1.8243  0.5657
 5734SOL    HW228662   3.026   3.497  13.498 -1.7644 -0.3644 -0.4234
 5735SOL     OW28663   2.221   1.200  12.540 -0.0822  0.0160 -0.1707
 5735SOL    HW128664   2.302   1.232  12.499  0.4309 -0.8799  0.1401
 5735SOL    HW228665   2.195   1.276  12.591  1.1921 -1.0434  2.0575
 5736SOL     OW28666   1.301   1.656   4.844  0.3638  0.3497  0.3227
 5736SOL    HW128667   1.209   1.680   4.848 -0.1314 -0.9227 -3.3432
 5736SOL    HW228668   1.315   1.651   4.749  2.1780  1.1727  0.5439
 5737SOL     OW28669   4.332   3.832  10.390 -0.3936 -0.4920  0.0656
 5737SOL    HW128670   4.373   3.754  10.427 -0.0975  0.1556  1.0988
 5737SOL    HW228671   4.408   3.858  10.337  0.7656 -1.7188  1.1174
 5738SOL     OW28672   2.489   2.033   3.099  0.0005 -0.4769  0.0045
 5738SOL    HW128673   2.459   1.966   3.160 -1.8621 -0.2906 -0.7037
 5738SOL    HW228674   2.415   2.066   3.047 -0.3144 -0.1023  0.6923
 5739SOL     OW28675   2.992   0.144  16.440  0.3278  0.2806  0.3851
 5739SOL    HW128676   2.912   0.110  16.401 -1.3914  2.6762  1.8607
 5739SOL    HW228677   3.029   0.183  16.361 -1.7357 -0.4215 -0.9287
 5740SOL     OW28678   0.706   0.774   8.282 -0.3625 -0.3506  0.5232
 5740SOL    HW128679   0.673   0.760   8.193  2.2322 -1.4659 -0.2596
 5740SOL    HW228680   0.635   0.729   8.328 -1.3603 -0.8963 -1.5338
 5741SOL     OW28681   4.030   2.674   4.099  0.2128  0.0480 -0.3972
 5741SOL    HW128682   4.055   2.596   4.048 -0.5158 -0.2533 -0.2889
 5741SOL    HW228683   4.071   2.650   4.183  0.3770  1.0786 -0.1895
 5742SOL     OW28684   0.656   1.496   8.181  0.2560  0.5473  0.6798
 5742SOL    HW128685   0.696   1.531   8.102 -0.7504 -1.5214 -0.7502
 5742SOL    HW228686   0.646   1.574   8.235  0.7033 -0.0272  1.6066
 5743SOL     OW28687   0.379   1.821   4.628  0.0909 -0.9518 -0.2624
 5743SOL    HW128688   0.474   1.826   4.618 -0.0215  0.4945 -0.5823
 5743SOL    HW228689   0.373   1.822   4.723  0.5882 -1.4081 -0.2282
 5744SOL     OW28690   4.584   0.670  14.864  0.2302  0.2553 -0.1190
 5744SOL    HW128691   4.546   0.757  14.879 -0.7542 -0.8184  3.5272
 5744SOL    HW228692   4.677   0.692  14.863  0.3352 -0.2271 -1.1147
 5745SOL     OW28693   1.474   0.776  10.532 -0.1236 -0.1141  0.0426
 5745SOL    HW128694   1.399   0.834  10.541 -0.6940 -1.2793  2.7312
 5745SOL    HW228695   1.517   0.802  10.614  1.9087  0.3580 -1.1642
 5746SOL     OW28696   0.391   3.769   4.719 -0.1878  0.5918 -0.0452
 5746SOL    HW128697   0.324   3.831   4.748 -2.0761 -0.4872 -2.1407
 5746SOL    HW228698   0.334   3.715   4.665 -1.0293  2.0446 -0.6067
 5747SOL     OW28699   0.739   1.733  16.918 -0.4566 -0.0204 -0.0146
 5747SOL    HW128700   0.795   1.674  16.868 -0.3515  0.1693 -0.1176
 5747SOL    HW228701   0.804   1.771  16.977 -2.2385  1.2661  1.1118
 5748SOL     OW28702   1.261   0.799   5.876 -0.3608 -0.0715  0.1027
 5748SOL    HW128703   1.207   0.815   5.953  0.8825 -2.5093  1.4561
 5748SOL    HW228704   1.339   0.766   5.920 -0.0024  0.8569  0.1648
 5749SOL     OW28705   0.197   3.766  10.648 -0.2375 -0.3646 -0.2967
 5749SOL    HW128706   0.257   3.692  10.664 -2.0930 -1.5278  1.2719
 5749SOL    HW228707   0.192   3.762  10.552 -1.4763  0.2018 -0.2437
 5750SOL     OW28708   0.986   4.633   6.379  0.5786 -0.4258  0.1059
 5750SOL    HW128709   0.976   4.706   6.441 -0.1703 -0.0804 -0.4302
 5750SOL    HW228710   1.038   4.676   6.311  1.9192  1.2785  2.1874
 5751SOL     OW28711   3.828   3.835   7.356 -0.2033  0.1339  0.3727
 5751SOL    HW128712   3.776   3.888   7.295 -0.3757  0.3806  0.7302
 5751SOL    HW228713   3.874   3.909   7.395  1.6082 -1.2565  0.8408
 5752SOL     OW28714   3.535   2.873   0.558 -0.1981  0.0269 -0.4606
 5752SOL    HW128715   3.610   2.876   0.617  2.0257 -1.5936 -3.1345
 5752SOL    HW228716   3.487   2.946   0.596  1.3735  1.1059 -0.5195
 5753SOL     OW28717   2.640   1.713   3.977 -1.0381  0.0378  0.0086
 5753SOL    HW128718   2.631   1.689   4.069 -0.8743  0.2226  0.0732
 5753SOL    HW228719   2.585   1.652   3.928 -0.4356  0.1188 -0.7541
 5754SOL     OW28720   3.439   1.818   4.663 -0.3957 -0.1601  0.9978
 5754SOL    HW128721   3.509   1.783   4.609 -0.3033 -1.1476  1.7655
 5754SOL    HW228722   3.380   1.865   4.603  0.5736 -0.2297 -0.0051
 5755SOL     OW28723   4.646   3.127   7.496 -0.0832  0.0503 -0.6470
 5755SOL    HW128724   4.698   3.047   7.497  0.2343  0.2751  1.4100
 5755SOL    HW228725   4.637   3.161   7.585  0.3822 -1.6779  0.0550
 5756SOL     OW28726   2.045   3.451   5.243  0.1301  0.1746  0.3061
 5756SOL    HW128727   1.992   3.384   5.287 -0.1309  0.4625  0.4299
 5756SOL    HW228728   2.020   3.422   5.155  0.2149 -0.7695  0.5950
 5757SOL     OW28729   0.406   0.118  12.562  0.2538 -0.5069 -0.3742
 5757SOL    HW128730   0.464   0.094  12.634 -0.1948 -0.2928  0.0628
 5757SOL    HW228731   0.319   0.095  12.595 -0.0088  1.1272  0.1005
 5758SOL     OW28732   3.600   4.287  10.306  0.1439  0.3378 -0.8148
 5758SOL    HW128733   3.625   4.244  10.387 -0.6935 -0.1696 -0.8214
 5758SOL    HW228734   3.687   4.307  10.273 -0.0752  0.4969 -1.3013
 5759SOL     OW28735   4.247   3.775   9.538  0.3250  0.0931 -0.0699
 5759SOL    HW128736   4.258   3.754   9.631  0.0541 -0.1207 -0.0825
 5759SOL    HW228737   4.226   3.686   9.508 -1.8216 -0.1754  2.2081
 5760SOL     OW28738   1.507   2.564   4.434  0.2432  0.2933  0.5392
 5760SOL    HW128739   1.512   2.508   4.356 -3.0622 -0.2826  0.7490
 5760SOL    HW228740   1.579   2.625   4.416  0.6140 -0.2355  0.2183
 5761SOL     OW28741   3.585   0.994  10.916  0.0850  0.0990  0.1413
 5761SOL    HW128742   3.650   1.021  10.981  0.6308  1.7034 -1.0828
 5761SOL    HW228743   3.539   0.938  10.979  2.6984 -0.7797  1.2873
 5762SOL     OW28744   0.866   1.896  13.154  0.1466  0.7388  0.0907
 5762SOL    HW128745   0.785   1.859  13.121  1.7235 -1.3045 -1.4955
 5762SOL    HW228746   0.929   1.826  13.138 -2.6794 -1.9378  0.7990
 5763SOL     OW28747   1.866   4.587  15.291 -0.1474 -0.1407 -0.0141
 5763SOL    HW128748   1.894   4.678  15.295 -1.0233  0.1613 -0.7684
 5763SOL    HW228749   1.860   4.567  15.384 -1.0941 -0.0661 -0.0651
 5764SOL     OW28750   2.347   1.859  10.486  0.0116 -0.3932 -0.0539
 5764SOL    HW128751   2.403   1.782  10.473  1.6876  0.7337  0.6085
 5764SOL    HW228752   2.270   1.838  10.434 -0.2323  1.9987 -0.6356
 5765SOL     OW28753   1.665   3.943   9.318 -0.4861 -0.1451 -0.5067
 5765SOL    HW128754   1.582   3.895   9.312 -0.9777  0.7223 -0.5977
 5765SOL    HW228755   1.639   4.030   9.346 -0.9044 -0.6506  0.6581
 5766SOL     OW28756   3.567   4.293  13.986  0.3501 -0.0216 -0.1906
 5766SOL    HW128757   3.570   4.381  13.948  0.3099  0.3506  0.6590
 5766SOL    HW228758   3.609   4.248  13.913  0.8511 -1.0982  0.7581
 5767SOL     OW28759   1.621   0.036  10.854 -0.3985 -0.3590 -0.0227
 5767SOL    HW128760   1.590   4.675  10.890 -0.0924 -0.8940 -1.0158
 5767SOL    HW228761   1.531   0.068  10.844  0.0539  0.9950  0.2670
 5768SOL     OW28762   2.468   3.675   5.208  0.2545  0.0802  0.2245
 5768SOL    HW128763   2.424   3.695   5.126  1.6096  1.3417 -0.1838
 5768SOL    HW228764   2.429   3.733   5.273  0.6925  2.0313 -1.2815
 5769SOL     OW28765   3.589   0.758   7.085 -0.2973 -0.6059 -0.0822
 5769SOL    HW128766   3.525   0.793   7.146  0.2374 -0.1216  0.2040
 5769SOL    HW228767   3.600   0.830   7.023 -1.1048 -0.3278  0.0982
 5770SOL     OW28768   1.244   2.914  11.769 -0.3439  0.1649 -0.0060
 5770SOL    HW128769   1.297   2.835  11.771 -1.4400 -0.6059 -1.2639
 5770SOL    HW228770   1.227   2.933  11.861 -2.0373  0.9469 -0.4656
 5771SOL     OW28771   2.495   4.626  15.256 -0.1485 -0.1135 -0.1070
 5771SOL    HW128772   2.475   4.535  15.278 -2.5487  0.5764  0.5866
 5771SOL    HW228773   2.589   4.615  15.245  0.0561  0.4274  1.1350
 5772SOL     OW28774   2.787   2.441   3.636  0.4386 -0.5165 -0.2227
 5772SOL    HW128775   2.839   2.497   3.694  0.2263 -1.0113  0.4471
 5772SOL    HW228776   2.825   2.463   3.551  2.4299 -0.4543  0.6773
 5773SOL     OW28777   0.055   3.066   9.168 -0.2371 -0.1179 -0.1009
 5773SOL    HW128778   4.702   3.013   9.194  1.1422 -1.0920  1.9185
 5773SOL    HW228779   0.033   3.149   9.211  0.9035  0.0707  0.1134
 5774SOL     OW28780   4.263   1.245   1.154  0.2196  0.4212 -0.6399
 5774SOL    HW128781   4.207   1.216   1.083 -0.3619 -0.1747  0.0523
 5774SOL    HW228782   4.197   1.298   1.199  0.3333  0.5686 -0.6460
 5775SOL     OW28783   2.358   4.018   4.836 -0.4075  0.3240  0.4042
 5775SOL    HW128784   2.289   3.956   4.856 -0.9933  1.5970  2.3378
 5775SOL    HW228785   2.430   3.956   4.846 -0.7390  0.1545  1.6791
 5776SOL     OW28786   1.820   1.393  14.655  0.0905 -0.0700 -0.2192
 5776SOL    HW128787   1.732   1.374  14.690  0.9182 -3.0763  0.2117
 5776SOL    HW228788   1.836   1.320  14.595  0.7155  1.7380 -2.2239
 5777SOL     OW28789   0.039   1.261  14.723 -0.3350  0.4404 -0.0624
 5777SOL    HW128790   0.093   1.323  14.674  0.5510 -0.3832 -0.1423
 5777SOL    HW228791   4.712   1.213  14.656  2.8137 -1.4365 -1.0318
 5778SOL     OW28792   2.724   3.165   3.249 -0.3485 -0.2152 -0.0455
 5778SOL    HW128793   2.662   3.113   3.197  0.2387 -0.9996  0.0370
 5778SOL    HW228794   2.795   3.167   3.185  1.8041  0.0808  2.3521
 5779SOL     OW28795   3.457   0.849   4.221  0.3764 -0.0635 -0.4129
 5779SOL    HW128796   3.499   0.785   4.163 -0.9923  1.7750 -3.4388
 5779SOL    HW228797   3.453   0.803   4.305  0.0311 -0.4251 -0.6229
 5780SOL     OW28798   0.528   2.958  16.309 -0.5290 -0.0429  0.5500
 5780SOL    HW128799   0.487   2.980  16.393 -1.3645 -1.9806  0.6372
 5780SOL    HW228800   0.585   2.889  16.342  0.6807  0.1471 -1.1323
 5781SOL     OW28801   2.833   2.908  12.484  0.0651  0.0886  0.0474
 5781SOL    HW128802   2.919   2.948  12.478  0.6325 -1.1194  0.1720
 5781SOL    HW228803   2.794   2.994  12.465  0.0490 -0.1523 -1.0146
 5782SOL     OW28804   0.132   0.969   7.473 -0.0040  0.8040 -0.3408
 5782SOL    HW128805   0.223   0.986   7.497 -1.1809  3.0248  2.5985
 5782SOL    HW228806   0.148   0.907   7.402  0.1704 -0.0667  0.4613
 5783SOL     OW28807   1.896   4.641   1.758  0.3392 -0.6122 -0.3513
 5783SOL    HW128808   1.909   4.553   1.723  1.3139 -1.4274  2.0691
 5783SOL    HW228809   1.808   4.633   1.793  0.8976  0.5116  1.2982
 5784SOL     OW28810   3.903   2.568   9.595 -1.0812 -0.5026  0.1136
 5784SOL    HW128811   3.836   2.627   9.560  0.8248  2.2544  1.0123
 5784SOL    HW228812   3.981   2.618   9.569 -1.0306 -2.0833 -2.7569
 5785SOL     OW28813   4.471   3.942   9.104  0.2480  0.3333  0.4643
 5785SOL    HW128814   4.544   3.881   9.094  0.2936  0.5063 -0.2503
 5785SOL    HW228815   4.481   3.964   9.197  1.2125 -1.9895  0.9071
 5786SOL     OW28816   1.503   0.054   7.733 -0.0816 -0.9179 -0.0335
 5786SOL    HW128817   1.501   4.686   7.704  2.6341 -0.8921 -0.3515
 5786SOL    HW228818   1.427   0.049   7.790  1.0977  0.5648  1.6794
 5787SOL     OW28819   0.130   2.853  10.129 -0.0059 -0.2156  0.0903
 5787SOL    HW128820   0.165   2.768  10.154  0.6508  0.8806  2.8657
 5787SOL    HW228821   0.211   2.903  10.123 -1.0519  1.5392  0.6206
 5788SOL     OW28822   3.376   4.016   8.129  0.1268  0.0870 -0.0179
 5788SOL    HW128823   3.394   3.924   8.111 -2.2750 -0.5137  0.7537
 5788SOL    HW228824   3.465   4.051   8.116 -0.3520  1.8819  1.6489
 5789SOL     OW28825   2.786   2.339  12.203  0.1312  0.3713 -0.8888
 5789SOL    HW128826   2.748   2.368  12.286  1.0245  1.5308 -0.8815
 5789SOL    HW228827   2.855   2.281  12.237  1.5295  2.5318 -0.0523
 5790SOL     OW28828   2.530   3.856   0.301 -0.3364  0.0730 -0.9109
 5790SOL    HW128829   2.526   3.950   0.282 -2.0745 -0.2636 -2.1254
 5790SOL    HW228830   2.533   3.867   0.396  0.7621  4.7132 -1.4723
 5791SOL     OW28831   4.689   3.369   8.208 -0.0793  0.4913  0.1491
 5791SOL    HW128832   4.673   3.282   8.243 -0.6810  0.4929 -0.1336
 5791SOL    HW228833   0.058   3.382   8.235 -0.7162  1.2433  1.9511
 5792SOL     OW28834   0.919   3.833   1.294  0.2261  0.0467 -0.2117
 5792SOL    HW128835   0.943   3.924   1.275  0.0375 -0.0487 -0.9058
 5792SOL    HW228836   0.929   3.794   1.207 -0.5715 -2.4819  0.8393
 5793SOL     OW28837   0.400   4.096   8.488  0.7134  0.0816  0.1126
 5793SOL    HW128838   0.337   4.139   8.546 -0.4123 -2.0612  0.4729
 5793SOL    HW228839   0.475   4.132   8.534  1.3409 -0.7716 -0.2309
 5794SOL     OW28840   3.063   4.529   3.000 -0.3885 -0.2811  0.4330
 5794SOL    HW128841   3.001   4.528   2.927 -2.6087 -0.4914  2.3174
 5794SOL    HW228842   3.045   4.619   3.027  0.0901  0.1770 -0.7773
 5795SOL     OW28843   2.619   0.857   3.888  0.3854 -0.1061  0.0124
 5795SOL    HW128844   2.712   0.834   3.893  1.1584  2.7335 -1.5648
 5795SOL    HW228845   2.592   0.804   3.813 -1.1946 -0.7342  1.0302
 5796SOL     OW28846   2.038   1.632   6.067 -0.4557 -0.1733 -0.0816
 5796SOL    HW128847   2.005   1.586   6.145 -0.4038 -0.2613 -0.1117
 5796SOL    HW228848   2.081   1.564   6.015  0.0741  1.1224 -1.3233
 5797SOL     OW28849   2.553   0.042   1.336 -0.3873 -0.0576  0.3286
 5797SOL    HW128850   2.526   0.106   1.270  1.3421  0.1396 -0.1907
 5797SOL    HW228851   2.598   4.701   1.280  1.4339  2.5892 -1.2281
 5798SOL     OW28852   0.386   2.589   8.160  0.2479 -0.3439  0.1054
 5798SOL    HW128853   0.395   2.519   8.223 -1.1682  0.9902  1.7785
 5798SOL    HW228854   0.437   2.563   8.083 -2.6865  0.6023 -2.1762
 5799SOL     OW28855   2.362   0.594  14.142  0.7711  0.2174 -0.1608
 5799SOL    HW128856   2.283   0.563  14.098  0.4438 -1.3155  1.4896
 5799SOL    HW228857   2.321   0.648  14.210  1.5753 -0.2707  0.7161
 5800SOL     OW28858   2.775   1.775   2.618 -0.3275 -0.3126 -0.4885
 5800SOL    HW128859   2.870   1.764   2.610 -0.3805  0.3078 -2.0426
 5800SOL    HW228860   2.744   1.805   2.532  1.3140  1.5856 -0.4247
 5801SOL     OW28861   1.499   3.482   2.369  0.4615  0.1113  0.4523
 5801SOL    HW128862   1.422   3.451   2.322  1.5915 -3.7950  1.1628
 5801SOL    HW228863   1.558   3.494   2.294  1.1939 -2.1159  0.6599
 5802SOL     OW28864   2.320   4.438   8.242  0.1633  0.1761  0.7495
 5802SOL    HW128865   2.390   4.410   8.182 -0.1901  0.6700  0.1022
 5802SOL    HW228866   2.250   4.461   8.181  0.4723  4.7151  2.1268
 5803SOL     OW28867   1.109   2.490   9.614  0.5559  1.0409 -0.3736
 5803SOL    HW128868   1.130   2.559   9.677  1.0748  1.3969 -0.9362
 5803SOL    HW228869   1.198   2.474   9.582  0.0735 -1.1985 -0.6091
 5804SOL     OW28870   3.068   1.956   2.918 -0.4908 -0.0456  0.5897
 5804SOL    HW128871   3.045   2.029   2.974  2.1593  1.8612 -0.8087
 5804SOL    HW228872   3.139   1.996   2.868 -1.0373  1.6377  1.1492
 5805SOL     OW28873   2.502   0.358   9.558 -0.6364  0.2950 -0.1263
 5805SOL    HW128874   2.501   0.263   9.565  0.3660  0.2285 -0.8227
 5805SOL    HW228875   2.519   0.391   9.646  1.4588  3.1869 -1.5814
 5806SOL     OW28876   2.836   4.150  13.017  0.2205 -0.1297 -0.1654
 5806SOL    HW128877   2.805   4.238  13.039 -0.4105 -0.7655  1.5307
 5806SOL    HW228878   2.857   4.164  12.925  0.8214  1.7306  0.2535
 5807SOL     OW28879   4.646   1.613  10.498  0.1289  0.1832  0.1124
 5807SOL    HW128880   4.597   1.684  10.455 -0.2480 -1.8052 -2.7717
 5807SOL    HW228881   4.654   1.556  10.421  1.4971 -0.0625  0.4510
 5808SOL     OW28882   1.172   2.953   7.315 -0.5478 -0.0741  0.5004
 5808SOL    HW128883   1.202   2.977   7.228 -0.1250 -1.1590  0.3455
 5808SOL    HW228884   1.238   2.893   7.350  0.2110  0.5865  0.1751
 5809SOL     OW28885   1.124   3.319   4.946  0.0163  0.1394 -0.3359
 5809SOL    HW128886   1.179   3.376   4.999 -0.9317 -0.6301  1.4604
 5809SOL    HW228887   1.138   3.241   4.999 -1.8995 -0.7401 -1.0948
 5810SOL     OW28888   2.072   3.670  14.510  0.3437  0.0658  0.0705
 5810SOL    HW128889   1.980   3.695  14.515  0.3917  0.3179 -0.3609
 5810SOL    HW228890   2.062   3.576  14.494  1.5013  0.1769 -1.2873
 5811SOL     OW28891   2.022   1.409   5.031  0.2297 -0.1337 -0.6065
 5811SOL    HW128892   2.068   1.342   5.082 -1.7046 -0.2215  1.0074
 5811SOL    HW228893   2.081   1.405   4.956  0.6713 -0.1517 -0.2609
 5812SOL     OW28894   2.765   3.608   8.865 -0.6187 -0.3322 -0.2355
 5812SOL    HW128895   2.816   3.686   8.887 -0.8120 -0.4319  0.5771
 5812SOL    HW228896   2.777   3.584   8.773  0.8419 -1.5678  0.2667
 5813SOL     OW28897   1.382   0.179   1.227 -0.1590 -0.1037  0.0425
 5813SOL    HW128898   1.393   0.243   1.297 -1.0904 -0.9856  0.9999
 5813SOL    HW228899   1.351   0.236   1.157  3.7272  0.9463 -0.7860
 5814SOL     OW28900   2.943   2.071   4.264 -0.2997 -0.7232 -0.4156
 5814SOL    HW128901   2.871   2.016   4.231 -3.5559  3.4000 -0.1589
 5814SOL    HW228902   2.974   2.015   4.335  3.3975  0.0483 -1.4371
 5815SOL     OW28903   3.329   2.566  11.047 -0.9355  0.0200  0.6495
 5815SOL    HW128904   3.241   2.534  11.030 -0.8196 -0.8783  1.7418
 5815SOL    HW228905   3.334   2.616  10.966  0.6050 -1.4926 -0.1875
 5816SOL     OW28906   3.520   3.785  12.625 -0.1264  0.0552  0.1878
 5816SOL    HW128907   3.533   3.878  12.642 -0.1432  0.0440  0.2609
 5816SOL    HW228908   3.464   3.767  12.701 -0.9817  1.3846 -0.1256
 5817SOL     OW28909   0.718   3.122   6.314  0.2129 -0.1475  0.7719
 5817SOL    HW128910   0.748   3.095   6.401 -1.1803 -1.9490  0.6820
 5817SOL    HW228911   0.661   3.195   6.338  1.6497  1.0323  0.6189
 5818SOL     OW28912   0.744   1.625   6.400  0.4407 -0.6253  0.0877
 5818SOL    HW128913   0.789   1.647   6.481 -0.6501  1.8228  0.0099
 5818SOL    HW228914   0.821   1.596   6.352  0.6146 -2.1595  1.3013
 5819SOL     OW28915   0.187   0.875   6.267 -0.5850  0.0630  0.2076
 5819SOL    HW128916   0.123   0.912   6.328 -1.0387  1.6947 -1.2508
 5819SOL    HW228917   0.183   0.781   6.286 -1.8760 -0.1807 -1.2593
 5820SOL     OW28918   0.347   4.221   7.629 -0.8907  0.2517  0.1788
 5820SOL    HW128919   0.398   4.183   7.700 -0.3945 -0.4827 -0.5765
 5820SOL    HW228920   0.386   4.308   7.625 -2.5318  1.0593  1.5325
 5821SOL     OW28921   3.069   2.781   6.876  0.1911 -0.4381  0.0518
 5821SOL    HW128922   3.041   2.867   6.908  0.2794  0.6964 -2.9235
 5821SOL    HW228923   3.124   2.748   6.947  1.8222 -0.8039 -1.3792
 5822SOL     OW28924   0.065   1.965   5.916  0.5860  0.1242 -0.0949
 5822SOL    HW128925   0.052   1.876   5.883  1.0101 -0.6815  1.9385
 5822SOL    HW228926   4.711   2.009   5.879 -0.5971 -2.2173 -0.4451
 5823SOL     OW28927   0.610   2.577   1.328 -0.1409  0.3248  0.2763
 5823SOL    HW128928   0.546   2.641   1.360  1.2844  2.0157 -0.1888
 5823SOL    HW228929   0.629   2.516   1.399 -0.6551  0.4088  0.4847
 5824SOL     OW28930   1.797   4.308  11.730  0.1906 -0.5852 -0.0453
 5824SOL    HW128931   1.784   4.363  11.653  1.6431  2.4344  1.8353
 5824SOL    HW228932   1.850   4.362  11.788 -0.3023  2.1109 -2.1027
 5825SOL     OW28933   3.581   2.833   6.511  0.2491  0.2181  0.1105
 5825SOL    HW128934   3.671   2.816   6.482  0.2118 -1.6837  1.1145
 5825SOL    HW228935   3.586   2.927   6.529 -0.9727  0.2259  0.4152
 5826SOL     OW28936   0.831   1.078   5.092  0.1384  0.4241  0.8878
 5826SOL    HW128937   0.774   1.020   5.143  0.8972 -0.2529  0.9693
 5826SOL    HW228938   0.803   1.169   5.099  0.7283  0.7952 -1.6766
 5827SOL     OW28939   3.647   3.046   2.391 -0.2246 -0.1180  0.3764
 5827SOL    HW128940   3.697   2.989   2.333  0.3767 -0.9755  1.7500
 5827SOL    HW228941   3.564   3.049   2.343  0.9292 -0.1747 -1.6135
 5828SOL     OW28942   4.195   1.800   0.764  0.0162  0.7589 -0.5359
 5828SOL    HW128943   4.260   1.731   0.777 -0.4837  0.2277 -0.8247
 5828SOL    HW228944   4.149   1.780   0.846  1.4755 -1.5394 -0.2770
 5829SOL     OW28945   2.181   1.623  12.781  0.2030 -0.4830 -0.0054
 5829SOL    HW128946   2.101   1.598  12.826  0.2529 -2.6491 -1.0861
 5829SOL    HW228947   2.168   1.717  12.769 -1.5817 -0.7781 -0.2962
 5830SOL     OW28948   1.363   0.727   7.203 -0.0683 -0.0044  0.0840
 5830SOL    HW128949   1.456   0.749   7.209 -0.0880 -0.2758  1.3003
 5830SOL    HW228950   1.352   0.644   7.250 -0.2981 -0.5181 -0.8736
 5831SOL     OW28951   1.441   2.818   8.148  0.2355  0.2635 -0.1294
 5831SOL    HW128952   1.449   2.840   8.241  0.1656 -3.7606  0.8503
 5831SOL    HW228953   1.498   2.741   8.158  1.4861  0.9180 -2.0536
 5832SOL     OW28954   4.010   3.259   3.594 -0.0049  0.3125 -0.2599
 5832SOL    HW128955   4.062   3.308   3.530 -2.0754  2.3119 -0.4199
 5832SOL    HW228956   4.072   3.204   3.641 -1.1182 -1.0785 -0.4153
 5833SOL     OW28957   1.860   0.847  17.136  0.1316  0.2909 -0.1809
 5833SOL    HW128958   1.833   0.798  17.058  1.0085 -0.3038 -0.1093
 5833SOL    HW228959   1.940   0.795  17.146  0.2147  0.2519 -1.0621
 5834SOL     OW28960   4.519   0.172   2.645  0.3943 -0.4021 -0.2935
 5834SOL    HW128961   4.464   0.248   2.622  0.6250  0.2030  1.1569
 5834SOL    HW228962   4.586   0.185   2.578  1.2904 -1.4742  0.4077
 5835SOL     OW28963   3.646   1.667  16.156 -0.6756 -0.5145  0.4933
 5835SOL    HW128964   3.716   1.639  16.097  2.0212  1.7914  2.5872
 5835SOL    HW228965   3.697   1.731  16.206 -1.0314 -0.7853  1.2047
 5836SOL     OW28966   0.693   0.533  15.249 -0.3053 -0.5091  0.0997
 5836SOL    HW128967   0.701   0.570  15.337 -0.1291  1.6754 -0.8357
 5836SOL    HW228968   0.723   0.610  15.201 -1.1217 -0.4549 -0.3273
 5837SOL     OW28969   3.450   1.283   5.300  0.1257  0.4463 -0.6910
 5837SOL    HW128970   3.506   1.322   5.232  0.3595  1.7892  0.2775
 5837SOL    HW228971   3.369   1.334   5.286  0.3179  0.7064 -0.8590
 5838SOL     OW28972   4.448   1.542   5.571 -0.2081 -0.2426 -0.8363
 5838SOL    HW128973   4.384   1.594   5.522 -1.4644 -2.8158 -1.9357
 5838SOL    HW228974   4.482   1.607   5.631 -2.0468 -0.9351  0.9792
 5839SOL     OW28975   2.514   1.460   6.553  0.4701  0.3071  0.3470
 5839SOL    HW128976   2.477   1.509   6.480 -0.0728 -1.1391 -0.3404
 5839SOL    HW228977   2.558   1.524   6.610  1.4202 -0.9087  0.9800
 5840SOL     OW28978   4.593   0.531   5.826 -0.1902 -1.0320  0.1776
 5840SOL    HW128979   4.663   0.565   5.883  1.3097 -0.5057 -1.9853
 5840SOL    HW228980   4.632   0.448   5.799  0.6925 -1.1588  1.7952
 5841SOL     OW28981   1.968   1.159   3.888  0.6015  0.6642 -0.8988
 5841SOL    HW128982   1.924   1.086   3.931 -0.9091  0.9626 -1.9262
 5841SOL    HW228983   1.903   1.224   3.859 -0.9915 -1.0654 -1.1670
 5842SOL     OW28984   0.346   4.076   2.660 -0.6755  0.5874  0.1833
 5842SOL    HW128985   0.251   4.068   2.650 -0.5843  0.9449 -1.0513
 5842SOL    HW228986   0.374   4.124   2.582 -1.0985  0.2360 -0.1848
 5843SOL     OW28987   2.952   4.526  14.648  0.1578 -0.2588  0.1814
 5843SOL    HW128988   3.007   4.457  14.611  1.6184  0.2034  1.4884
 5843SOL    HW228989   2.893   4.561  14.581 -1.2250  0.8408  1.9897
 5844SOL     OW28990   4.150   1.422   0.622  0.4439 -0.1944 -0.1873
 5844SOL    HW128991   4.136   1.501   0.570  3.2139  0.5892  0.2859
 5844SOL    HW228992   4.065   1.379   0.606 -0.0540  0.5689  0.4135
 5845SOL     OW28993   2.041   4.381   2.913 -0.3716  0.0796  0.2067
 5845SOL    HW128994   2.124   4.390   2.865 -0.9372  1.4999 -0.4935
 5845SOL    HW228995   1.981   4.328   2.860  1.0760 -0.8159 -0.5672
 5846SOL     OW28996   1.165   0.866   0.350 -0.2845 -0.4767  0.3637
 5846SOL    HW128997   1.147   0.867   0.256  0.6279  0.3805  0.2077
 5846SOL    HW228998   1.078   0.840   0.382  0.9613 -0.5344  3.7067
 5847SOL     OW28999   2.619   1.379   4.477  0.1647  0.5617 -0.2551
 5847SOL    HW129000   2.582   1.451   4.425 -0.7258  1.0209  1.0176
 5847SOL    HW229001   2.622   1.413   4.566  0.5676  0.1435 -0.1102
 5848SOL     OW29002   4.655   1.622   8.960 -0.5968  0.1224 -0.6040
 5848SOL    HW129003   4.714   1.571   9.016 -1.7461 -0.2727  0.2277
 5848SOL    HW229004   4.620   1.545   8.916 -1.0697 -0.5710  0.9805
 5849SOL     OW29005   3.399   0.257  16.431 -0.7445  0.3663  0.0390
 5849SOL    HW129006   3.479   0.204  16.427 -0.4732  0.8931 -1.7012
 5849SOL    HW229007   3.414   0.315  16.506  0.3379 -0.6758  0.6185
 5850SOL     OW29008   2.772   3.645   4.716  0.6907 -0.0661 -0.4830
 5850SOL    HW129009   2.812   3.626   4.800 -0.6592 -1.1011 -0.0711
 5850SOL    HW229010   2.835   3.714   4.697 -0.0552  0.2122 -1.9287
 5851SOL     OW29011   3.806   3.062   9.092 -0.6551 -0.3615 -0.1856
 5851SOL    HW129012   3.770   2.998   9.153  0.2604 -0.4605  0.2646
 5851SOL    HW229013   3.831   3.006   9.019 -1.1025  0.7320 -1.1767
 5852SOL     OW29014   1.741   3.662   5.109  0.2076  0.2047 -0.2544
 5852SOL    HW129015   1.665   3.717   5.093  1.3375  1.3930 -1.5468
 5852SOL    HW229016   1.717   3.614   5.189  0.4960  0.6918  0.1176
 5853SOL     OW29017   4.055   1.985   7.391 -0.1309  0.0002  0.2492
 5853SOL    HW129018   4.010   1.935   7.459  1.2625  1.4145  2.1930
 5853SOL    HW229019   4.014   1.942   7.315 -0.7170  1.2381 -0.1245
 5854SOL     OW29020   1.527   2.422   5.946  0.5659  0.5986 -0.1111
 5854SOL    HW129021   1.566   2.499   5.905 -1.4383  1.1237 -1.0627
 5854SOL    HW229022   1.461   2.453   6.008 -0.5592  1.2808 -1.6367
 5855SOL     OW29023   1.715   0.588   2.063 -0.0521  0.0617 -0.2680
 5855SOL    HW129024   1.749   0.599   2.152  1.0097 -0.4762 -0.6026
 5855SOL    HW229025   1.788   0.571   2.003 -0.8863  0.7236 -1.4519
 5856SOL     OW29026   3.167   0.815   6.624  0.3801  0.6108 -0.1822
 5856SOL    HW129027   3.221   0.884   6.588 -2.2148  3.0495  0.5956
 5856SOL    HW229028   3.230   0.743   6.616  1.8279  1.8101  0.4732
 5857SOL     OW29029   2.931   0.807   3.579 -0.0112 -0.0445 -0.2902
 5857SOL    HW129030   2.929   0.895   3.541  1.4928 -0.2646 -0.8952
 5857SOL    HW229031   3.021   0.817   3.610 -0.7618  0.6139  1.6421
 5858SOL     OW29032   1.545   1.759   9.362 -0.0789 -0.0237 -0.0207
 5858SOL    HW129033   1.462   1.774   9.406 -1.0037  0.5145 -1.9306
 5858SOL    HW229034   1.533   1.672   9.324  0.7781  1.2273 -3.2065
 5859SOL     OW29035   4.711   0.274   6.952 -0.0126 -0.0486  0.5394
 5859SOL    HW129036   4.677   0.185   6.960 -0.3889  0.0027 -0.6452
 5859SOL    HW229037   4.640   0.325   6.915  1.1175  2.0630  1.3124
 5860SOL     OW29038   1.898   3.611   4.636 -0.0245  0.4733  0.5926
 5860SOL    HW129039   1.805   3.588   4.637  0.4548 -1.4971 -0.3704
 5860SOL    HW229040   1.911   3.612   4.731  1.0438  0.2645  0.4476
 5861SOL     OW29041   0.453   0.458   7.756  0.0335 -0.3277  0.3227
 5861SOL    HW129042   0.484   0.549   7.758 -1.5862  0.2202  0.1001
 5861SOL    HW229043   0.404   0.461   7.838  1.5874 -0.6716  1.2674
 5862SOL     OW29044   2.746   1.468  17.378 -0.0800 -0.3309  0.1336
 5862SOL    HW129045   2.717   1.544  17.328  0.0921  0.5481  1.3704
 5862SOL    HW229046   2.675   1.471  17.442  0.1901  0.5603  0.3900
 5863SOL     OW29047   4.251   1.226   8.439 -0.2240  0.4395 -0.2641
 5863SOL    HW129048   4.218   1.186   8.520 -0.5555  1.5161  0.1265
 5863SOL    HW229049   4.173   1.274   8.412 -0.3598  0.8886  0.9238
 5864SOL     OW29050   3.925   1.876   3.348 -0.1367  0.2249 -0.1514
 5864SOL    HW129051   4.008   1.860   3.393  0.1899  0.0574 -0.8095
 5864SOL    HW229052   3.953   1.954   3.300 -0.2950  1.5518  1.9014
 5865SOL     OW29053   4.578   2.033   7.268 -0.2438 -0.0092 -0.1984
 5865SOL    HW129054   4.585   2.003   7.177 -0.4390  0.5571 -0.4051
 5865SOL    HW229055   4.520   1.964   7.299 -0.2784  0.4403  0.7274
 5866SOL     OW29056   4.550   3.531  12.023 -0.6646 -0.0450 -0.2320
 5866SOL    HW129057   4.533   3.562  11.933  0.0727  0.4580 -0.1972
 5866SOL    HW229058   4.636   3.570  12.036 -0.5375 -0.2211 -0.5345
 5867SOL     OW29059   2.173   3.581  16.251 -0.0701 -0.7555 -0.8997
 5867SOL    HW129060   2.184   3.647  16.182 -1.7290 -0.9256 -1.3447
 5867SOL    HW229061   2.109   3.628  16.306  1.1092 -1.8775  1.4213
 5868SOL     OW29062   0.065   0.393   3.676 -0.2150  0.5316 -0.9140
 5868SOL    HW129063   0.117   0.473   3.678  0.0036  0.3742 -0.5032
 5868SOL    HW229064   4.712   0.422   3.728  0.6358 -1.9847  1.6806
 5869SOL     OW29065   2.332   1.025   2.719 -0.0829 -0.2143 -0.0156
 5869SOL    HW129066   2.251   1.075   2.731 -1.5598 -2.3652 -1.0535
 5869SOL    HW229067   2.287   0.942   2.703  0.1910 -0.1261 -1.2097
 5870SOL     OW29068   1.011   0.233   2.245  0.1751 -0.1992  0.2641
 5870SOL    HW129069   1.092   0.275   2.215 -0.0947 -1.0562 -1.6715
 5870SOL    HW229070   0.946   0.303   2.236  1.4982  0.7413 -1.8759
 5871SOL     OW29071   1.860   1.262   2.127  0.1305 -0.1220 -0.2568
 5871SOL    HW129072   1.881   1.327   2.060 -0.3475  1.2321  0.9019
 5871SOL    HW229073   1.921   1.189   2.118  1.3656  0.8980 -0.2167
 5872SOL     OW29074   4.359   2.569  15.280 -0.5111 -0.1302  0.5408
 5872SOL    HW129075   4.360   2.644  15.220 -0.7178  0.7064  1.5942
 5872SOL    HW229076   4.386   2.617  15.358  2.9146  0.6092 -1.1199
 5873SOL     OW29077   0.273   3.098  15.726 -0.2632 -0.1886  0.4425
 5873SOL    HW129078   0.288   3.007  15.750 -0.1018  0.0119  1.1067
 5873SOL    HW229079   0.260   3.087  15.632 -1.8371 -2.6639  0.9608
 5874SOL     OW29080   3.787   0.970   2.640  0.0035  0.1117 -0.2718
 5874SOL    HW129081   3.706   0.966   2.692  0.1970  2.2463  0.1685
 5874SOL    HW229082   3.846   1.028   2.688 -0.6168 -1.6126  2.5640
 5875SOL     OW29083   0.409   3.627   5.998  0.1689 -0.3468  0.0090
 5875SOL    HW129084   0.331   3.604   5.947 -0.1255 -1.1804  0.8151
 5875SOL    HW229085   0.421   3.721   5.982 -0.0697 -0.8594 -3.1276
 5876SOL     OW29086   0.231   0.367  11.852  0.3616  0.5407  0.4993
 5876SOL    HW129087   0.221   0.310  11.775 -0.1602  1.5141 -0.1628
 5876SOL    HW229088   0.148   0.344  11.895  1.5005 -1.0323  1.8434
 5877SOL     OW29089   3.501   4.292  14.502 -0.3910  0.0445  0.0240
 5877SOL    HW129090   3.531   4.216  14.452 -0.5102  0.6244 -0.9215
 5877SOL    HW229091   3.467   4.345  14.430 -3.0691  3.1354  3.5971
 5878SOL     OW29092   1.375   2.671   5.020 -0.7309 -0.0538  0.2349
 5878SOL    HW129093   1.332   2.589   4.997  0.3364  0.1442 -2.5659
 5878SOL    HW229094   1.362   2.726   4.942 -0.4576 -1.3828 -0.7589
 5879SOL     OW29095   1.827   3.880   7.101 -0.4200  0.4314  0.7609
 5879SOL    HW129096   1.827   3.805   7.160 -0.9290  0.2138  0.4814
 5879SOL    HW229097   1.871   3.836   7.028 -1.9477 -1.3651  0.9550
 5880SOL     OW29098   2.680   2.507   6.543 -0.1918  0.3689  0.1599
 5880SOL    HW129099   2.738   2.468   6.478 -1.5522 -0.1114 -0.7893
 5880SOL    HW229100   2.733   2.565   6.597 -2.1832 -0.7473  3.3330
 5881SOL     OW29101   4.416   2.132   8.159  0.2900  0.5531  0.5415
 5881SOL    HW129102   4.454   2.128   8.071 -0.2147  2.0617  0.2581
 5881SOL    HW229103   4.386   2.041   8.158  1.8731  0.0889 -2.0609
 5882SOL     OW29104   4.127   1.879   6.726 -0.2122  0.1436 -0.8258
 5882SOL    HW129105   4.037   1.876   6.760  0.6985  1.9655  1.7209
 5882SOL    HW229106   4.164   1.791   6.728  0.3423  0.3872 -0.3768
 5883SOL     OW29107   4.263   2.703  14.535  0.0118 -0.7446 -0.1478
 5883SOL    HW129108   4.321   2.777  14.514 -0.5208 -0.4089 -0.4253
 5883SOL    HW229109   4.238   2.664  14.451 -1.8020  0.2263 -0.0600
 5884SOL     OW29110   1.443   2.168   6.440 -0.4344 -0.4078  0.3195
 5884SOL    HW129111   1.374   2.190   6.378 -0.6174 -2.8566 -0.3599
 5884SOL    HW229112   1.526   2.161   6.392 -0.4226  0.0178  0.2758
 5885SOL     OW29113   4.453   4.195   5.412 -0.2343  0.0705 -0.0247
 5885SOL    HW129114   4.497   4.127   5.463 -1.0839 -0.7399 -0.3666
 5885SOL    HW229115   4.522   4.212   5.348  0.3368 -2.2078 -0.0226
 5886SOL     OW29116   0.778   2.004  15.229  0.1651  0.3851 -0.2663
 5886SOL    HW129117   0.720   1.949  15.177 -0.4196  1.4613 -0.7485
 5886SOL    HW229118   0.791   2.084  15.178 -1.2650  0.6776 -0.1659
 5887SOL     OW29119   2.769   0.840   4.614  0.2310 -0.0370  0.4366
 5887SOL    HW129120   2.728   0.923   4.639  0.1263  0.1094 -0.2100
 5887SOL    HW229121   2.701   0.806   4.555 -1.4649  1.0238  1.7867
 5888SOL     OW29122   4.229   4.310  12.950 -0.7444  0.1757 -0.0113
 5888SOL    HW129123   4.323   4.308  12.936 -1.0828 -1.2027 -2.1515
 5888SOL    HW229124   4.214   4.219  12.975  0.6771  0.4074  1.6864
 5889SOL     OW29125   2.766   2.100  14.922  0.2686  0.3058  0.3669
 5889SOL    HW129126   2.804   2.144  14.846 -3.8251 -0.3294 -2.0703
 5889SOL    HW229127   2.680   2.079  14.885 -0.1645  1.5494  0.6679
 5890SOL     OW29128   0.154   4.600   7.639  0.0052 -0.1423 -0.5139
 5890SOL    HW129129   0.162   4.693   7.659  1.1283 -0.3150 -0.1354
 5890SOL    HW229130   0.115   4.611   7.552  2.5063  2.7220 -1.2730
 5891SOL     OW29131   0.371   4.069  13.716 -0.1136 -0.1445 -0.4913
 5891SOL    HW129132   0.398   4.053  13.626 -2.0306 -1.4400 -0.8526
 5891SOL    HW229133   0.435   4.133  13.746 -3.4757  2.6975  0.5895
 5892SOL     OW29134   1.140   0.811   7.063 -0.2914 -0.3399  0.4885
 5892SOL    HW129135   1.226   0.789   7.099 -0.5922  0.4241  1.6544
 5892SOL    HW229136   1.121   0.731   7.012 -2.9430  0.1785  0.6615
 5893SOL     OW29137   0.292   4.572   6.740  0.0318 -0.4711 -0.1417
 5893SOL    HW129138   0.329   4.489   6.767  0.6255 -0.5785 -1.2992
 5893SOL    HW229139   0.347   4.645   6.767 -1.3021  0.2054  0.7541
 5894SOL     OW29140   1.183   2.551   2.452 -0.6658  0.1464 -0.1164
 5894SOL    HW129141   1.135   2.551   2.369 -1.7244  1.1426  0.5080
 5894SOL    HW229142   1.271   2.528   2.421 -1.0781 -0.9110 -0.5082
 5895SOL     OW29143   3.471   2.352   2.060 -0.2019  0.0946 -0.1487
 5895SOL    HW129144   3.516   2.267   2.055 -1.3980 -0.5854  0.8262
 5895SOL    HW229145   3.394   2.343   2.003 -0.0036  1.7213 -0.6612
 5896SOL     OW29146   3.442   3.857   1.693 -0.2897  0.1713 -0.0566
 5896SOL    HW129147   3.377   3.802   1.738  1.5073  1.0468  3.6466
 5896SOL    HW229148   3.398   3.875   1.610  3.5048 -0.3996 -2.1653
 5897SOL     OW29149   3.867   1.043   5.848  0.4105  0.1059  0.3284
 5897SOL    HW129150   3.865   0.996   5.931 -0.1274 -0.8654 -0.2380
 5897SOL    HW229151   3.903   0.973   5.794  0.4065  0.2785  0.1026
 5898SOL     OW29152   0.462   3.940   0.992 -0.2179 -0.4438  0.6234
 5898SOL    HW129153   0.426   3.858   1.026  0.5121 -1.6826 -1.5844
 5898SOL    HW229154   0.556   3.924   0.995 -0.3205 -1.1219  0.2248
 5899SOL     OW29155   2.638   1.613   5.645 -0.0013 -0.6159 -0.1845
 5899SOL    HW129156   2.581   1.624   5.569  0.6125 -0.6988 -0.6496
 5899SOL    HW229157   2.696   1.541   5.620 -0.7090 -1.6853  1.2331
 5900SOL     OW29158   0.448   1.688   0.031 -0.1176  0.4843  0.1608
 5900SOL    HW129159   0.493   1.610   0.062  1.2344  1.3121  0.2464
 5900SOL    HW229160   0.493   1.686  17.639  0.7681  2.1160  0.6029
 5901SOL     OW29161   1.194   2.616   1.811 -0.1207  0.7391  0.2064
 5901SOL    HW129162   1.178   2.578   1.897  0.4671 -1.6447 -0.7584
 5901SOL    HW229163   1.234   2.700   1.836 -2.6659  1.6573  1.2028
 5902SOL     OW29164   0.380   2.673   6.323  0.2225 -0.5712  0.1176
 5902SOL    HW129165   0.426   2.743   6.369  0.5444 -1.4514  1.1319
 5902SOL    HW229166   0.446   2.604   6.329  0.0144 -0.8415 -0.6475
 5903SOL     OW29167   1.723   4.197   5.806  0.0332 -0.1504 -0.0209
 5903SOL    HW129168   1.641   4.168   5.766  0.0706 -0.2371 -0.0345
 5903SOL    HW229169   1.690   4.250   5.878 -0.7422 -0.4040 -0.1948
 5904SOL     OW29170   4.014   2.947   1.484  0.8627 -0.0300 -0.1680
 5904SOL    HW129171   3.981   3.014   1.544 -1.0871 -0.8726 -0.3048
 5904SOL    HW229172   4.001   2.998   1.405 -2.0719 -1.0508 -0.3319
 5905SOL     OW29173   0.662   2.883   6.036 -0.0649  0.2839 -0.2145
 5905SOL    HW129174   0.655   2.978   6.030  0.6625  0.3992  0.6094
 5905SOL    HW229175   0.572   2.864   6.060  0.4062 -1.4504  0.1838
 5906SOL     OW29176   3.238   1.494   4.073  0.4006 -0.1844  0.2308
 5906SOL    HW129177   3.152   1.452   4.067 -0.4410  1.1882  2.7267
 5906SOL    HW229178   3.267   1.513   3.984 -0.7831 -0.2821 -0.1800
 5907SOL     OW29179   2.612   3.317   4.119  0.1112 -0.1614 -0.6769
 5907SOL    HW129180   2.649   3.230   4.133  2.3856  1.1340  1.1785
 5907SOL    HW229181   2.604   3.343   4.210  1.1558 -0.2087 -0.5708
 5908SOL     OW29182   4.374   4.658   7.670 -0.1244  0.4296 -0.6579
 5908SOL    HW129183   4.355   0.013   7.723  1.1685  1.8616 -2.2718
 5908SOL    HW229184   4.331   4.589   7.720 -0.9101 -0.2525 -2.2780
 5909SOL     OW29185   2.013   4.674   8.853 -0.1111  0.1717 -0.0858
 5909SOL    HW129186   1.955   4.704   8.923  0.1067 -1.4402  0.7592
 5909SOL    HW229187   1.949   4.686   8.782  0.8621  0.0782 -0.9799
 5910SOL     OW29188   4.059   0.035   6.654  0.1859  0.3473  1.0389
 5910SOL    HW129189   4.143   0.053   6.697  0.4834 -0.7624  0.9083
 5910SOL    HW229190   4.013   4.713   6.725 -1.8634  1.3553  0.3572
 5911SOL     OW29191   4.310   3.354   6.149  0.0154 -0.0572 -0.0198
 5911SOL    HW129192   4.394   3.328   6.109 -0.4380 -2.6468  0.6711
 5911SOL    HW229193   4.286   3.436   6.106  1.2357  0.5662  0.4851
 5912SOL     OW29194   0.262   3.923   5.094  0.8005  0.2789  0.2968
 5912SOL    HW129195   0.338   3.875   5.127  1.2610  0.3215 -0.6956
 5912SOL    HW229196   0.266   4.013   5.127 -1.1496 -0.2503  1.9884
 5913SOL     OW29197   2.841   0.661  13.617  0.1631  0.1403  0.2848
 5913SOL    HW129198   2.893   0.610  13.555 -0.8808 -2.8472  1.8449
 5913SOL    HW229199   2.766   0.603  13.630  0.1747 -0.3781 -1.9706
 5914SOL     OW29200   1.076   0.858   6.076 -0.4110  0.5556  0.4869
 5914SOL    HW129201   0.983   0.838   6.086 -0.4802  0.1817 -1.0383
 5914SOL    HW229202   1.107   0.857   6.167 -2.4245 -0.0468  1.1688
 5915SOL     OW29203   0.283   1.016   7.137 -0.1630  0.6150 -0.1429
 5915SOL    HW129204   0.323   0.967   7.065  1.0129 -0.0630  0.9590
 5915SOL    HW229205   0.236   0.947   7.185 -2.4389  0.8370 -2.0295
 5916SOL     OW29206   1.096   3.978   6.391 -0.2113 -0.0463  0.0103
 5916SOL    HW129207   1.109   3.895   6.344 -0.7187  1.7691 -3.2943
 5916SOL    HW229208   1.136   4.048   6.340 -1.6207  2.5013  2.3858
 5917SOL     OW29209   1.484   3.957   7.979 -0.0636  0.6939  0.1618
 5917SOL    HW129210   1.445   3.965   8.066 -1.5205  0.0989 -0.4496
 5917SOL    HW229211   1.558   4.018   7.981 -1.8704  2.8962 -0.8666
 5918SOL     OW29212   3.744   1.283   4.368 -0.1114  0.4370  0.7147
 5918SOL    HW129213   3.665   1.291   4.315 -1.0948  1.1449  2.2892
 5918SOL    HW229214   3.760   1.189   4.370 -2.0187  0.1350  1.6839
 5919SOL     OW29215   0.967   3.439   4.165  0.0320  0.1807 -0.0509
 5919SOL    HW129216   1.013   3.357   4.151  0.6851  0.7903 -1.4713
 5919SOL    HW229217   1.021   3.504   4.119  2.7162 -2.4821 -0.6209
 5920SOL     OW29218   0.135   1.849   4.233  0.0716  0.3526  0.3817
 5920SOL    HW129219   0.086   1.794   4.172  0.7380 -0.1051  0.2535
 5920SOL    HW229220   0.150   1.928   4.182 -0.2684 -0.5178 -1.0777
 5921SOL     OW29221   3.555   4.294  15.752 -0.0751  0.6403  0.3081
 5921SOL    HW129222   3.592   4.211  15.779  1.4495  1.1822 -0.1360
 5921SOL    HW229223   3.602   4.313  15.671  0.0940 -0.9280  0.0495
 5922SOL     OW29224   3.650   4.502  14.573  0.4500  0.0223 -0.2208
 5922SOL    HW129225   3.678   4.512  14.482  0.6309 -3.6304 -0.5760
 5922SOL    HW229226   3.602   4.420  14.562  0.6355  0.2148 -2.4809
 5923SOL     OW29227   0.041   1.483   8.379 -0.3669  0.1463  0.0309
 5923SOL    HW129228   0.057   1.389   8.386 -1.5192 -0.1336 -1.3573
 5923SOL    HW229229   0.129   1.521   8.382 -0.4425  0.2445  1.0307
 5924SOL     OW29230   3.094   0.134   4.225 -0.5457  0.4959  0.3615
 5924SOL    HW129231   3.075   0.168   4.313 -1.3041 -0.3766  0.5291
 5924SOL    HW229232   3.190   0.126   4.223 -0.4205  1.8415  0.8089
 5925SOL     OW29233   1.291   4.682   7.853  0.2363 -0.2279 -0.2617
 5925SOL    HW129234   1.239   4.607   7.825 -1.8542  0.5947  1.4310
 5925SOL    HW229235   1.330   4.645   7.933  0.1773 -0.7044 -0.4587
 5926SOL     OW29236   4.561   4.636  13.175  0.7780 -0.2622 -0.2364
 5926SOL    HW129237   4.653   4.614  13.193  0.9979 -0.1288 -1.1808
 5926SOL    HW229238   4.514   4.554  13.159  1.1219 -0.7772  1.3451
 5927SOL     OW29239   2.879   3.997  13.233 -0.1959  0.2307 -0.1542
 5927SOL    HW129240   2.923   4.023  13.314  1.4068 -0.4155 -0.7973
 5927SOL    HW229241   2.905   4.070  13.177 -1.3627  1.3298  0.7554
 5928SOL     OW29242   4.399   4.103  13.153 -0.1443 -0.0146  0.4859
 5928SOL    HW129243   4.437   4.030  13.104  0.7912  1.3706 -0.8336
 5928SOL    HW229244   4.378   4.062  13.237  0.2684 -0.6035  0.3032
 5929SOL     OW29245   2.828   2.471  11.804  0.1405 -0.3146  0.2549
 5929SOL    HW129246   2.787   2.415  11.738 -0.6699 -0.2493  0.6980
 5929SOL    HW229247   2.858   2.541  11.747 -0.7733 -0.4785 -0.4319
 5930SOL     OW29248   0.840   1.549   5.298 -0.6716 -0.1219 -0.5869
 5930SOL    HW129249   0.782   1.619   5.328  1.0103  0.4667  1.2674
 5930SOL    HW229250   0.906   1.562   5.366 -0.3398 -1.4993 -0.6581
 5931SOL     OW29251   3.944   4.171  13.174  0.1602  0.0086 -0.2928
 5931SOL    HW129252   3.849   4.168  13.166  0.2676 -1.4968 -1.0728
 5931SOL    HW229253   3.966   4.242  13.234  0.0463 -1.5816  1.6298
 5932SOL     OW29254   1.946   3.607  17.076  0.3324 -0.1765 -0.5085
 5932SOL    HW129255   1.975   3.617  17.166  1.1152  1.6319 -0.9700
 5932SOL    HW229256   1.856   3.636  17.090  1.6103  3.2818  0.4591
 5933SOL     OW29257   4.299   3.945  13.927 -0.6297  0.2845  0.5577
 5933SOL    HW129258   4.206   3.920  13.928 -0.1073 -1.6993  0.4777
 5933SOL    HW229259   4.323   3.953  14.019 -1.6155 -0.2878  0.8633
 5934SOL     OW29260   4.397   1.254   4.208  0.4828 -0.0101  0.4432
 5934SOL    HW129261   4.413   1.347   4.191  0.7336  0.0346  0.9599
 5934SOL    HW229262   4.481   1.213   4.189  0.7284  0.1594  1.1650
 5935SOL     OW29263   0.067   0.493   8.105  0.1770  0.3132  0.0229
 5935SOL    HW129264   0.048   0.587   8.101 -0.8236  0.1770  1.4620
 5935SOL    HW229265   4.717   0.466   8.049  1.5695  1.2315 -2.2306
 5936SOL     OW29266   4.142   3.259  17.025 -0.1437  0.1036 -0.0257
 5936SOL    HW129267   4.217   3.252  17.084 -0.0512  3.6885  0.2785
 5936SOL    HW229268   4.102   3.174  17.040  0.6538 -0.0794  1.0189
 5937SOL     OW29269   1.189   3.562  16.851 -0.4717 -0.2962  0.1400
 5937SOL    HW129270   1.120   3.567  16.785  0.0529  0.3630 -0.3517
 5937SOL    HW229271   1.129   3.570  16.925 -1.9674 -1.6507 -0.9434
 5938SOL     OW29272   2.274   1.682   5.288  0.3160 -0.2706 -0.4129
 5938SOL    HW129273   2.333   1.666   5.214  0.5303  1.0313 -0.5127
 5938SOL    HW229274   2.193   1.693   5.239 -0.9114  0.5976  1.7986
 5939SOL     OW29275   1.071   1.186  12.209 -0.1416 -0.4592 -0.6623
 5939SOL    HW129276   1.058   1.145  12.294 -0.4460  2.1097  0.5413
 5939SOL    HW229277   1.004   1.145  12.154  1.0652 -3.0671 -0.1762
 5940SOL     OW29278   3.289   1.587   3.516  0.2021  0.4751 -0.1455
 5940SOL    HW129279   3.209   1.562   3.471  1.4213  1.5434 -2.9586
 5940SOL    HW229280   3.355   1.576   3.447  1.6243  0.5681  1.1802
 5941SOL     OW29281   3.268   2.321   2.943  0.4211  0.0682 -0.1260
 5941SOL    HW129282   3.360   2.332   2.967  1.0901  0.3799 -2.8074
 5941SOL    HW229283   3.267   2.246   2.883 -1.3443  1.0663 -1.3078
 5942SOL     OW29284   2.140   1.726  10.304 -0.6646 -0.1287 -0.2206
 5942SOL    HW129285   2.071   1.668  10.336 -1.2788  0.6435 -0.1451
 5942SOL    HW229286   2.092   1.776  10.239 -1.6066 -1.0609 -0.2381
 5943SOL     OW29287   3.791   0.359   3.625 -0.0707 -0.3706 -0.1589
 5943SOL    HW129288   3.703   0.389   3.599 -0.7671 -1.3339  1.0908
 5943SOL    HW229289   3.793   0.407   3.707 -0.7713 -0.8364  0.1342
 5944SOL     OW29290   0.509   2.086   3.406  0.2177 -0.4862 -0.8316
 5944SOL    HW129291   0.464   2.155   3.454 -0.2146  0.4380 -2.5666
 5944SOL    HW229292   0.463   2.004   3.425  0.7742 -0.2535  1.5806
 5945SOL     OW29293   0.528   3.491   9.284  0.0819  0.4799 -0.4953
 5945SOL    HW129294   0.483   3.520   9.205 -3.1977 -1.9077  0.5225
 5945SOL    HW229295   0.493   3.402   9.289  1.2397  0.0091 -0.6818
 5946SOL     OW29296   3.457   0.538   2.312  0.4200  0.1403  0.3539
 5946SOL    HW129297   3.438   0.455   2.356  1.7204 -0.9160 -1.0923
 5946SOL    HW229298   3.372   0.581   2.323  0.8341  1.5003 -1.9517
 5947SOL     OW29299   0.911   2.030   1.062  0.0846 -0.0122  0.6182
 5947SOL    HW129300   0.933   1.937   1.073 -5.6765 -1.3773  0.7660
 5947SOL    HW229301   0.982   2.075   1.107 -0.1648  1.6004 -0.6073
 5948SOL     OW29302   3.606   3.457   4.797  1.1476 -0.3411 -0.1649
 5948SOL    HW129303   3.534   3.404   4.830 -1.8120  3.0760 -1.1353
 5948SOL    HW229304   3.662   3.385   4.768 -1.0214 -1.8353 -0.6219
 5949SOL     OW29305   3.949   3.040  10.521  0.1490  0.3778  0.3509
 5949SOL    HW129306   4.037   3.013  10.494 -0.3623  0.5962 -1.5508
 5949SOL    HW229307   3.895   2.969  10.486  1.1947  0.7476 -2.0285
 5950SOL     OW29308   4.439   2.476   9.339  0.0285 -0.4892  0.5479
 5950SOL    HW129309   4.455   2.398   9.285 -2.5271 -1.3363  1.0406
 5950SOL    HW229310   4.346   2.495   9.349 -0.2937 -0.7462 -1.9336
 5951SOL     OW29311   3.611   1.267   1.623  0.3182  0.5267  0.1783
 5951SOL    HW129312   3.605   1.272   1.528 -1.6718  2.4551  0.3939
 5951SOL    HW229313   3.551   1.339   1.644  0.4202  0.3289  1.1619
 5952SOL     OW29314   2.290   4.486   4.367 -0.2886 -0.3535 -0.0037
 5952SOL    HW129315   2.195   4.494   4.357 -0.6762 -2.5906  2.0326
 5952SOL    HW229316   2.316   4.509   4.277  0.5188 -3.3376 -0.5326
 5953SOL     OW29317   4.050   4.554   0.407  0.1112 -0.2652 -0.1739
 5953SOL    HW129318   4.045   4.535   0.500 -0.2496  0.1924 -0.1031
 5953SOL    HW229319   3.987   4.625   0.397  0.7669 -0.0716 -3.0073
 5954SOL     OW29320   0.467   0.973   9.374  0.2310  0.0074  0.6919
 5954SOL    HW129321   0.444   0.929   9.456  1.4425 -2.1374 -0.1074
 5954SOL    HW229322   0.479   0.895   9.319 -0.9502  1.8796 -2.1983
 5955SOL     OW29323   1.815   1.284   8.977  0.4011 -0.0712 -0.4111
 5955SOL    HW129324   1.854   1.357   8.930  2.1466  0.3072  1.6454
 5955SOL    HW229325   1.763   1.332   9.041  2.3040  0.4273  0.7504
 5956SOL     OW29326   3.673   2.008   8.207 -0.1651  0.0274 -0.1267
 5956SOL    HW129327   3.606   2.040   8.266  0.3512  1.0065 -0.0673
 5956SOL    HW229328   3.624   1.962   8.138  1.0472  1.1470 -1.7533
 5957SOL     OW29329   2.300   2.281   4.094 -0.1850 -0.3336 -0.1093
 5957SOL    HW129330   2.392   2.282   4.117  0.0637  1.6278 -1.1428
 5957SOL    HW229331   2.299   2.313   4.004 -3.7361  0.6784  0.2581
 5958SOL     OW29332   1.825   3.783  13.894  0.7934 -0.2009  0.0941
 5958SOL    HW129333   1.773   3.861  13.873 -1.0488 -2.0926 -2.3372
 5958SOL    HW229334   1.848   3.742  13.811 -1.3665 -1.5873  0.1837
 5959SOL     OW29335   1.704   3.766   8.998 -0.7275 -0.1821 -0.4682
 5959SOL    HW129336   1.716   3.806   8.912  1.8415 -1.3574 -0.6701
 5959SOL    HW229337   1.656   3.689   8.966  0.0815 -0.7590 -0.2962
 5960SOL     OW29338   3.189   3.145  10.013  0.2404  0.5660  0.4415
 5960SOL    HW129339   3.179   3.086   9.938  1.8934 -0.7672  1.2860
 5960SOL    HW229340   3.125   3.105  10.072 -0.7706  0.3515 -0.7918
 5961SOL     OW29341   1.422   0.315  16.418 -0.0650 -0.3077 -0.0850
 5961SOL    HW129342   1.463   0.230  16.403  0.6797  0.0683 -0.1253
 5961SOL    HW229343   1.400   0.304  16.510  0.3916  1.0116  0.1782
 5962SOL     OW29344   1.561   2.906  11.606  0.2387  0.2673  0.0985
 5962SOL    HW129345   1.615   2.856  11.544 -0.2897  0.7198 -0.7245
 5962SOL    HW229346   1.587   2.876  11.693 -1.7928 -3.1601 -0.4540
 5963SOL     OW29347   1.782   1.112  17.152 -0.4373 -0.5736 -0.1187
 5963SOL    HW129348   1.803   1.019  17.146  0.1462 -0.6146  2.4202
 5963SOL    HW229349   1.760   1.112  17.245  1.8213 -0.2830  0.4071
 5964SOL     OW29350   1.944   0.769   2.472  0.0455  0.1010  0.2544
 5964SOL    HW129351   2.003   0.838   2.442 -1.4692  0.8789 -0.9127
 5964SOL    HW229352   1.950   0.794   2.564  0.2933 -0.2815  0.3405
 5965SOL     OW29353   1.627   1.719  14.672 -0.0009  0.5108  0.3907
 5965SOL    HW129354   1.666   1.659  14.608 -0.5188 -0.7550  1.2568
 5965SOL    HW229355   1.604   1.793  14.616 -1.5323  0.9091  1.5471
 5966SOL     OW29356   1.287   4.007  13.548  0.1735 -0.1684  0.6748
 5966SOL    HW129357   1.360   4.064  13.571  0.4957  0.6422 -2.4723
 5966SOL    HW229358   1.253   4.058  13.475  2.4808  1.2409  0.5827
 5967SOL     OW29359   3.899   0.835   6.643  0.9980  0.1912  0.1387
 5967SOL    HW129360   3.858   0.921   6.652 -0.9732 -0.8226  0.7465
 5967SOL    HW229361   3.989   0.863   6.624  0.9152 -0.3456 -1.0887
 5968SOL     OW29362   3.087   2.540   0.395  0.0438  0.3149 -0.0486
 5968SOL    HW129363   3.181   2.558   0.398  0.1157  0.2129 -2.0185
 5968SOL    HW229364   3.059   2.623   0.357  2.3366  1.6112  1.0729
 5969SOL     OW29365   3.533   3.925   4.901 -0.0878  0.2422 -0.0128
 5969SOL    HW129366   3.556   3.976   4.978  1.7238  1.7223 -1.5538
 5969SOL    HW229367   3.563   3.981   4.829  1.7781  0.3399  0.8516
 5970SOL     OW29368   2.920   3.717   0.758 -0.1271 -0.1807  0.1423
 5970SOL    HW129369   2.865   3.641   0.778  0.3372 -0.4992  0.2133
 5970SOL    HW229370   2.853   3.781   0.735  0.1168 -0.0779 -0.2855
 5971SOL     OW29371   0.764   4.503  10.842 -0.5482 -0.3496  0.0005
 5971SOL    HW129372   0.848   4.541  10.869 -0.2078 -0.8934 -0.3057
 5971SOL    HW229373   0.791   4.476  10.755 -1.5352  2.7243 -1.2510
 5972SOL     OW29374   1.546   2.937   2.439 -0.3077  0.2269 -0.5678
 5972SOL    HW129375   1.514   2.954   2.528  3.8317  5.0525 -0.0164
 5972SOL    HW229376   1.602   2.864   2.465 -1.3413  0.5690  2.6581
 5973SOL     OW29377   2.887   4.031   7.462 -0.0206 -0.2884  0.6037
 5973SOL    HW129378   2.803   4.002   7.497 -0.4617 -0.1848 -0.3838
 5973SOL    HW229379   2.898   3.943   7.428  0.0515  0.5300 -1.5034
 5974SOL     OW29380   2.837   0.890   7.554 -0.4612 -0.6677  0.8322
 5974SOL    HW129381   2.851   0.984   7.540 -0.5653 -0.6729  0.6969
 5974SOL    HW229382   2.747   0.887   7.523 -0.7240  3.0152  1.2757
 5975SOL     OW29383   0.387   2.472   9.342  0.1363 -0.1978 -0.2902
 5975SOL    HW129384   0.453   2.455   9.408 -0.2347 -0.0339  0.1221
 5975SOL    HW229385   0.327   2.397   9.341  0.4745 -0.4909  1.2378
 5976SOL     OW29386   1.884   1.409   2.370  0.4717 -0.2848 -0.0120
 5976SOL    HW129387   1.848   1.366   2.293  1.6379  0.7229 -1.1215
 5976SOL    HW229388   1.965   1.446   2.336  0.3749 -0.8263 -0.8357
 5977SOL     OW29389   0.755   2.164   1.784  0.0467  0.6919 -0.5776
 5977SOL    HW129390   0.715   2.128   1.705 -0.3811  1.1178 -0.5558
 5977SOL    HW229391   0.684   2.156   1.847  0.3672 -0.6713 -0.3899
 5978SOL     OW29392   0.031   1.859   3.390  0.3154  0.1948 -0.0932
 5978SOL    HW129393   0.037   1.843   3.484  0.0602  0.0485 -0.1006
 5978SOL    HW229394   0.123   1.877   3.375  0.6553 -0.7368  0.9110
 5979SOL     OW29395   3.217   0.192   2.746  0.0452 -0.3991 -0.8826
 5979SOL    HW129396   3.287   0.136   2.779  1.1767  0.8495 -1.1826
 5979SOL    HW229397   3.166   0.119   2.713 -0.0182  0.0226 -1.7133
 5980SOL     OW29398   3.412   0.009  14.998 -0.6666 -0.2440  0.8736
 5980SOL    HW129399   3.438   4.661  14.940  2.2415  1.0807  0.5632
 5980SOL    HW229400   3.345   0.046  14.941 -1.5869  0.3413  2.3144
 5981SOL     OW29401   3.581   2.902   4.022 -0.1474  0.0304 -0.1370
 5981SOL    HW129402   3.625   2.823   4.051 -0.3888 -0.3924 -0.9082
 5981SOL    HW229403   3.528   2.869   3.949 -1.7575  1.0179  0.6009
 5982SOL     OW29404   2.790   0.162   0.162 -0.3186  0.1217 -0.3594
 5982SOL    HW129405   2.795   0.090   0.224 -1.5133 -0.0279 -0.4437
 5982SOL    HW229406   2.725   0.223   0.196  1.2366  1.6696 -0.1476
 5983SOL     OW29407   2.054   3.365   4.989  0.4209 -0.0752 -0.0992
 5983SOL    HW129408   2.082   3.276   4.967  2.8389  0.4604  0.7672
 5983SOL    HW229409   1.991   3.395   4.924  0.1834 -0.7006 -0.1537
 5984SOL     OW29410   2.435   3.706   8.627  0.2319 -0.2406  0.1972
 5984SOL    HW129411   2.407   3.639   8.689 -4.9867 -0.2925 -2.1672
 5984SOL    HW229412   2.408   3.789   8.666  0.6666  0.9248 -1.9813
 5985SOL     OW29413   0.508   2.250   5.433 -0.0753  0.4341  0.0668
 5985SOL    HW129414   0.538   2.247   5.524 -2.6010 -1.4495  0.8382
 5985SOL    HW229415   0.438   2.315   5.437  0.5879  1.1205  0.6331
 5986SOL     OW29416   2.525   4.684   3.917  0.6201  0.0405  0.6334
 5986SOL    HW129417   2.593   4.631   3.874  0.1135  0.5204 -0.7671
 5986SOL    HW229418   2.578   4.710   3.992  0.0064 -1.1295  1.4612
 5987SOL     OW29419   0.783   2.741   3.850  0.0130  0.3749  0.7324
 5987SOL    HW129420   0.769   2.774   3.761  1.5326  0.9887  0.7318
 5987SOL    HW229421   0.838   2.666   3.831 -0.9914 -0.3628  0.7405
 5988SOL     OW29422   4.462   1.925   7.644 -0.0668 -0.4106 -0.1114
 5988SOL    HW129423   4.403   1.956   7.575  1.5885  0.4699 -1.1412
 5988SOL    HW229424   4.549   1.912   7.605 -0.7038  2.0532 -2.3607
 5989SOL     OW29425   0.373   0.776  11.589 -0.3070  0.3608  0.0698
 5989SOL    HW129426   0.390   0.682  11.582  2.4228  0.6720  2.6728
 5989SOL    HW229427   0.337   0.773  11.677 -0.4543 -1.6867 -0.0757
 5990SOL     OW29428   4.464   1.261   5.686 -0.2464 -0.2849 -0.8065
 5990SOL    HW129429   4.559   1.257   5.698 -0.3614 -0.3531  0.0285
 5990SOL    HW229430   4.460   1.355   5.672  1.2599 -0.3619 -1.7287
 5991SOL     OW29431   1.154   4.475   7.800  0.2135 -0.2672  0.5078
 5991SOL    HW129432   1.078   4.496   7.856 -1.5008 -1.4826 -1.3721
 5991SOL    HW229433   1.195   4.403   7.849  1.3003 -0.7197 -1.0658
 5992SOL     OW29434   1.455   2.443   1.966  0.7636  0.7418  0.3181
 5992SOL    HW129435   1.439   2.538   1.963  1.2798  0.8567  1.1512
 5992SOL    HW229436   1.362   2.418   1.966  0.2586  2.6367  0.0002
 5993SOL     OW29437   4.495   1.267   5.331 -0.0253 -0.3162 -0.1967
 5993SOL    HW129438   4.562   1.211   5.292  0.2589 -1.1866  1.5501
 5993SOL    HW229439   4.507   1.352   5.288 -2.6588  1.1355  1.9052
 5994SOL     OW29440   3.426   4.460  13.080 -0.0770 -0.3621  0.0875
 5994SOL    HW129441   3.428   4.451  13.175  0.3473  3.9888  0.4858
 5994SOL    HW229442   3.334   4.454  13.055 -0.7885 -1.4012  2.9599
 5995SOL     OW29443   0.207   1.628   6.775  0.1604  0.1782 -0.3645
 5995SOL    HW129444   0.234   1.659   6.861  0.5274  0.0134 -0.4206
 5995SOL    HW229445   0.292   1.601   6.740  0.8153 -0.3711  1.6707
 5996SOL     OW29446   4.499   0.799   5.406 -0.6888  0.3294 -0.6939
 5996SOL    HW129447   4.433   0.845   5.457 -1.8032 -1.4398 -0.5240
 5996SOL    HW229448   4.572   0.861   5.407  0.2362 -0.8078  1.7057
 5997SOL     OW29449   0.912   0.807   0.458 -0.1256 -0.0843  0.1742
 5997SOL    HW129450   0.818   0.811   0.440  0.0573  0.0005 -0.7437
 5997SOL    HW229451   0.908   0.791   0.552 -0.8547  0.0248  0.1641
 5998SOL     OW29452   1.413   4.261   9.849 -0.3309  0.1927 -0.0987
 5998SOL    HW129453   1.364   4.186   9.814 -0.4643  1.2105 -2.0741
 5998SOL    HW229454   1.491   4.219   9.885 -0.1652  0.2897 -0.3449
 5999SOL     OW29455   0.842   1.248   7.591 -0.3481 -0.1356  0.2651
 5999SOL    HW129456   0.792   1.297   7.656  2.0753 -0.1551  2.1542
 5999SOL    HW229457   0.894   1.321   7.556  1.4597 -1.0028  1.1545
 6000SOL     OW29458   1.568   3.550  11.277  0.1857  0.0319 -0.2251
 6000SOL    HW129459   1.564   3.631  11.328  3.4208 -0.9474  1.5508
 6000SOL    HW229460   1.531   3.493  11.345 -0.2857 -0.7898 -1.1807
 6001SOL     OW29461   2.846   0.072   6.149 -0.4430  0.4024 -0.1158
 6001SOL    HW129462   2.870   0.109   6.234 -1.7715  1.0281 -0.0149
 6001SOL    HW229463   2.764   0.119   6.130 -2.6063 -2.5116  1.9462
 6002SOL     OW29464   4.695   1.906  15.105  0.5681 -0.6215 -0.2273
 6002SOL    HW129465   4.692   1.925  15.011  0.7725 -0.6489 -0.2396
 6002SOL    HW229466   4.704   1.995  15.137  3.1910 -1.2630  0.8460
 6003SOL     OW29467   1.194   1.965   4.689  0.2255  0.3138  0.7519
 6003SOL    HW129468   1.221   2.055   4.669  0.7935  0.2816  1.4012
 6003SOL    HW229469   1.258   1.938   4.754  2.2973  2.2341 -0.4492
 6004SOL     OW29470   4.583   3.909   6.574  0.2536  0.5990  0.4626
 6004SOL    HW129471   4.653   3.956   6.529  0.0080  1.8586  1.3838
 6004SOL    HW229472   4.588   3.952   6.660 -0.5129 -1.4755  1.5372
 6005SOL     OW29473   0.002   3.928   2.363  0.2949 -0.0152  0.4185
 6005SOL    HW129474   0.084   3.918   2.411  0.9223 -0.4889 -0.7396
 6005SOL    HW229475   0.026   3.989   2.294 -1.9731  1.1408  0.6430
 6006SOL     OW29476   2.729   4.164   2.028 -0.4556 -0.0048  0.6408
 6006SOL    HW129477   2.757   4.094   1.970 -0.7378  1.6435 -1.4819
 6006SOL    HW229478   2.780   4.134   2.103 -2.2476 -0.1712  1.7971
 6007SOL     OW29479   3.379   0.891   2.157 -0.0586  0.0514 -0.5962
 6007SOL    HW129480   3.304   0.923   2.206 -1.2659 -2.4222 -0.8511
 6007SOL    HW229481   3.396   0.803   2.190  0.0221 -0.4693 -2.0125
 6008SOL     OW29482   3.399   3.214  12.924  0.4952  1.0487  0.0917
 6008SOL    HW129483   3.308   3.235  12.947 -0.0572 -0.2657 -0.8762
 6008SOL    HW229484   3.439   3.283  12.976  0.1087  0.5950  1.0008
 6009SOL     OW29485   4.410   2.421   4.022 -0.3200 -0.1040  0.6554
 6009SOL    HW129486   4.332   2.383   4.063 -0.4136 -0.7891 -0.1562
 6009SOL    HW229487   4.385   2.426   3.930 -1.3217  1.8912  1.0268
 6010SOL     OW29488   2.001   4.148  15.587 -0.3513  0.0530  0.1092
 6010SOL    HW129489   1.929   4.086  15.573 -0.6472  0.6957 -1.1786
 6010SOL    HW229490   2.076   4.090  15.593 -0.6715 -0.4781 -0.9895
 6011SOL     OW29491   0.666   0.484   2.002 -0.2409  0.5235  1.2241
 6011SOL    HW129492   0.584   0.435   2.000  0.4334 -0.5689  0.5928
 6011SOL    HW229493   0.719   0.421   1.953  1.3229  1.7845  1.2467
 6012SOL     OW29494   2.719   4.403   5.011 -0.4176 -0.1105  0.1353
 6012SOL    HW129495   2.649   4.425   4.950  0.2675 -1.8981 -1.3037
 6012SOL    HW229496   2.663   4.336   5.052  0.0210  1.4453  3.2798
 6013SOL     OW29497   4.316   2.422   7.328  0.2417 -0.0399 -0.0064
 6013SOL    HW129498   4.353   2.508   7.309  0.5537  0.3205  2.2281
 6013SOL    HW229499   4.243   2.406   7.268  1.0825  1.1004 -1.3182
 6014SOL     OW29500   4.568   3.526   2.282 -0.3902 -0.1807  0.2141
 6014SOL    HW129501   4.521   3.502   2.362  0.1503 -0.7717  0.3547
 6014SOL    HW229502   4.618   3.446   2.262 -0.0502  0.5837 -1.9419
 6015SOL     OW29503   3.665   2.606   6.145  0.0392  0.1795 -0.2866
 6015SOL    HW129504   3.714   2.684   6.122  1.3398 -0.3681  0.5874
 6015SOL    HW229505   3.617   2.580   6.067 -1.0350  0.5583  0.2584
 6016SOL     OW29506   0.292   4.399   8.661 -0.2118 -0.3850 -0.0189
 6016SOL    HW129507   0.353   4.390   8.588  2.7244  2.7423  2.0257
 6016SOL    HW229508   0.201   4.393   8.632  0.7968 -0.2905 -3.2424
 6017SOL     OW29509   1.502   1.445  12.791 -0.0749  0.0623  0.8681
 6017SOL    HW129510   1.423   1.404  12.755  0.9297  0.4859 -1.7419
 6017SOL    HW229511   1.523   1.391  12.867  0.5066  0.4449  0.9800
 6018SOL     OW29512   3.928   0.100   7.701 -0.7376 -0.0736 -0.1679
 6018SOL    HW129513   3.947   0.146   7.619  0.0383  0.3033  0.2250
 6018SOL    HW229514   3.861   0.159   7.734  0.1343 -0.6093  2.5312
 6019SOL     OW29515   1.223   2.242   3.478  0.1197  0.2740 -0.1815
 6019SOL    HW129516   1.195   2.251   3.387 -0.9798  0.2349  0.1583
 6019SOL    HW229517   1.248   2.149   3.478 -3.9496 -0.7974 -3.5978
 6020SOL     OW29518   3.991   3.532  17.087  0.1988 -0.0902  0.3681
 6020SOL    HW129519   4.002   3.439  17.105 -1.3025 -0.5752 -1.2232
 6020SOL    HW229520   3.988   3.521  16.992  2.6660 -2.1213  0.5140
 6021SOL     OW29521   2.974   0.649   6.213  0.3390  0.1066  0.1454
 6021SOL    HW129522   3.060   0.683   6.188  0.2150 -0.1147 -0.5664
 6021SOL    HW229523   2.923   0.729   6.228 -0.1069  0.1553 -1.6136
 6022SOL     OW29524   1.357   4.202  16.118  0.1035  0.5748 -0.6628
 6022SOL    HW129525   1.377   4.162  16.033  0.4254  0.2291 -0.4275
 6022SOL    HW229526   1.332   4.291  16.097 -3.3869  0.2660  2.2282
 6023SOL     OW29527   3.309   3.490   7.790  0.0411  0.1610 -0.4265
 6023SOL    HW129528   3.404   3.484   7.781 -0.2900 -5.1013 -0.5484
 6023SOL    HW229529   3.290   3.490   7.884 -1.5591  0.9294 -0.7565
 6024SOL     OW29530   0.816   1.315   6.278 -0.0121 -0.1489  0.1398
 6024SOL    HW129531   0.838   1.390   6.334 -1.3508 -0.3310  0.9171
 6024SOL    HW229532   0.884   1.309   6.211  1.5890 -1.2690  1.8626
 6025SOL     OW29533   4.485   2.388   0.398  0.1054 -0.2444 -0.4101
 6025SOL    HW129534   4.458   2.416   0.485 -1.1685 -0.0706 -0.8588
 6025SOL    HW229535   4.558   2.327   0.406 -0.0548 -0.5559 -1.2520
 6026SOL     OW29536   2.326   3.853   3.902 -0.2297 -0.0607  0.0600
 6026SOL    HW129537   2.382   3.931   3.899 -1.6093  0.9054 -0.6798
 6026SOL    HW229538   2.377   3.790   3.852 -0.5790  0.2106 -0.6489
 6027SOL     OW29539   3.721   3.655  10.484  0.1603 -0.2098 -0.0767
 6027SOL    HW129540   3.627   3.673  10.481 -0.0705 -1.6705 -1.7264
 6027SOL    HW229541   3.719   3.569  10.441 -1.6753  0.2658 -0.9382
 6028SOL     OW29542   3.561   0.383   3.341 -0.0114 -0.3456  0.5141
 6028SOL    HW129543   3.484   0.419   3.296  0.5975  1.2610  0.7482
 6028SOL    HW229544   3.547   0.410   3.432  3.5448  0.2256  0.8714
 6029SOL     OW29545   1.978   0.536  14.988 -0.5040  0.0045  0.3851
 6029SOL    HW129546   2.012   0.488  15.064  0.6105  1.3705  0.7342
 6029SOL    HW229547   1.978   0.464  14.925 -0.1311 -0.3240  0.7564
 6030SOL     OW29548   2.451   1.487   9.726 -0.4599  0.5318  0.1335
 6030SOL    HW129549   2.398   1.413   9.697 -1.2433  1.3978 -0.6298
 6030SOL    HW229550   2.382   1.545   9.760 -0.0222  1.1529 -0.0424
 6031SOL     OW29551   0.513   0.512   5.882  0.1121  0.1665 -0.2052
 6031SOL    HW129552   0.457   0.467   5.945 -1.9956  0.8915 -1.5813
 6031SOL    HW229553   0.515   0.602   5.917  0.6320 -0.4928  1.4826
 6032SOL     OW29554   3.997   2.959   9.720 -0.0278 -0.4916 -0.3601
 6032SOL    HW129555   4.086   2.968   9.752 -1.0549 -2.8618  3.1524
 6032SOL    HW229556   3.940   2.988   9.792  0.0010 -3.1593  0.7511
 6033SOL     OW29557   2.212   1.886   6.705 -0.3525  0.0535 -0.2089
 6033SOL    HW129558   2.236   1.891   6.798  1.4665  1.9712 -0.7878
 6033SOL    HW229559   2.222   1.793   6.683  1.4021  0.4889 -1.2706
 6034SOL     OW29560   0.326   2.452   1.590  0.6036  0.2549  0.8656
 6034SOL    HW129561   0.235   2.475   1.611  0.2635  0.4992 -0.8945
 6034SOL    HW229562   0.369   2.465   1.674  1.6321 -0.3641  0.4339
 6035SOL     OW29563   0.373   3.070  12.863  0.7508 -0.2920  0.1213
 6035SOL    HW129564   0.420   3.090  12.781 -0.1492  0.9240 -0.1009
 6035SOL    HW229565   0.324   2.990  12.845  1.5018 -0.6113 -0.5127
 6036SOL     OW29566   0.202   1.352   6.053  0.7020  0.4342  0.7198
 6036SOL    HW129567   0.202   1.257   6.063 -1.2371  0.2944 -0.4027
 6036SOL    HW229568   0.277   1.365   5.995  0.4017  0.4040  0.3175
 6037SOL     OW29569   0.408   1.762   9.278 -0.2837  0.5377 -0.1260
 6037SOL    HW129570   0.431   1.854   9.296 -0.1720  0.3549  0.6695
 6037SOL    HW229571   0.484   1.718   9.316 -0.6701 -2.7796 -3.2104
 6038SOL     OW29572   3.320   1.387  13.853  0.0643 -0.2452  0.3300
 6038SOL    HW129573   3.311   1.426  13.940 -0.9521 -0.3512  0.2678
 6038SOL    HW229574   3.308   1.295  13.873  1.9842 -0.8514 -1.2426
 6039SOL     OW29575   0.985   1.169   2.988  0.1113  0.1393 -0.4194
 6039SOL    HW129576   1.031   1.212   3.059 -0.5367 -0.4059  0.3320
 6039SOL    HW229577   1.055   1.117   2.949 -0.4635 -2.0331  1.4905
 6040SOL     OW29578   2.306   4.059   9.493  0.3188 -0.6424  0.2082
 6040SOL    HW129579   2.322   4.041   9.586 -1.1303 -0.9366  0.3984
 6040SOL    HW229580   2.292   4.153   9.498 -3.7592 -1.1861 -0.8704
 6041SOL     OW29581   0.585   2.470  10.462 -0.0128 -0.0690  0.5056
 6041SOL    HW129582   0.659   2.488  10.404 -1.4760  0.5546 -1.1557
 6041SOL    HW229583   0.524   2.445  10.393 -1.9078 -0.1731  2.2136
 6042SOL     OW29584   0.764   2.754   6.498 -0.0213  0.1797  0.2018
 6042SOL    HW129585   0.831   2.761   6.430 -0.6492  2.5602 -0.1753
 6042SOL    HW229586   0.806   2.803   6.569  0.6363 -1.6614  1.0866
 6043SOL     OW29587   0.371   4.708  13.306  0.0868  0.0101 -0.3418
 6043SOL    HW129588   0.414   4.628  13.336  1.5505 -0.5390 -3.9010
 6043SOL    HW229589   0.441   0.035  13.264 -1.4124  2.8016  0.4758
 6044SOL     OW29590   1.815   4.442   9.926 -0.1496  0.1212 -0.0741
 6044SOL    HW129591   1.801   4.377   9.995 -1.2871  0.8731  0.3865
 6044SOL    HW229592   1.870   4.505   9.973  1.2032  0.5192 -2.2100
 6045SOL     OW29593   2.475   0.418  14.914  0.1820  0.2763  0.3780
 6045SOL    HW129594   2.545   0.480  14.894 -0.0440  0.3798 -0.1011
 6045SOL    HW229595   2.516   0.333  14.926  3.7543  1.9409  0.1560
 6046SOL     OW29596   3.440   1.846   6.662  0.0615  1.0595  0.1867
 6046SOL    HW129597   3.486   1.904   6.601  0.7317  1.3349  0.9445
 6046SOL    HW229598   3.369   1.814   6.608  0.5522  0.2681  0.0080
 6047SOL     OW29599   4.642   1.598   5.009  0.1253  0.4069  0.3433
 6047SOL    HW129600   4.683   1.638   4.932 -1.2426  0.8097 -0.1618
 6047SOL    HW229601   4.640   1.665   5.077  1.9489  0.3312  0.4710
 6048SOL     OW29602   2.896   4.635  10.220 -0.1531  0.3201 -0.1877
 6048SOL    HW129603   2.935   4.693  10.155  0.0173  0.6608  0.2195
 6048SOL    HW229604   2.822   4.687  10.252 -0.5300 -0.3201 -0.0167
 6049SOL     OW29605   2.699   0.621  17.409 -0.4306 -0.4711 -0.2554
 6049SOL    HW129606   2.702   0.576  17.493 -1.9231 -1.4098 -0.6988
 6049SOL    HW229607   2.703   0.714  17.429  0.3814 -0.2073 -1.6107
 6050SOL     OW29608   0.686   0.753   6.426 -0.1516  0.0155  0.2246
 6050SOL    HW129609   0.710   0.845   6.416  1.1757 -0.6615 -3.1020
 6050SOL    HW229610   0.622   0.744   6.496  0.5405 -0.6209  0.7808
 6051SOL     OW29611   3.804   2.880   0.661  0.0024  0.4802  0.3525
 6051SOL    HW129612   3.802   2.872   0.757 -2.1861 -1.6497  0.1352
 6051SOL    HW229613   3.859   2.958   0.653 -1.0992  0.8060 -3.8169
 6052SOL     OW29614   2.245   1.180  15.494 -0.0610  0.1872 -0.4585
 6052SOL    HW129615   2.250   1.086  15.479 -1.4959 -0.2540  1.8670
 6052SOL    HW229616   2.275   1.188  15.585 -0.9601  1.9818 -0.3158
 6053SOL     OW29617   2.006   0.463   0.211  0.1534 -0.1975  0.2614
 6053SOL    HW129618   1.958   0.449   0.293 -0.7106  0.8091 -0.0704
 6053SOL    HW229619   2.061   0.386   0.204 -1.0407 -0.7112 -3.8342
 6054SOL     OW29620   1.172   0.149   4.879 -0.1876  0.2351 -0.1719
 6054SOL    HW129621   1.201   0.233   4.843  1.2523 -0.0297  0.3759
 6054SOL    HW229622   1.112   0.122   4.809 -0.3895  2.1095 -0.7295
 6055SOL     OW29623   2.545   0.211  11.477 -0.1742  0.5559 -0.5035
 6055SOL    HW129624   2.620   0.155  11.459  0.8681  2.1331 -1.0869
 6055SOL    HW229625   2.484   0.169  11.417 -0.5108 -1.1971  1.0807
 6056SOL     OW29626   3.630   1.767  11.433 -0.1192 -0.0182  0.3910
 6056SOL    HW129627   3.630   1.718  11.350 -1.0018  0.8672 -0.1440
 6056SOL    HW229628   3.707   1.723  11.468 -1.5365 -1.0884  2.0972
 6057SOL     OW29629   3.546   0.849   7.394  0.4486  0.2472  0.5030
 6057SOL    HW129630   3.565   0.762   7.430 -0.8507 -0.8033 -1.3411
 6057SOL    HW229631   3.459   0.832   7.358 -0.0670  1.7840  1.0264
 6058SOL     OW29632   0.478   1.223   0.025 -0.0574  0.5952 -0.6502
 6058SOL    HW129633   0.459   1.243   0.116  2.5889 -0.8597  0.2011
 6058SOL    HW229634   0.560   1.272   0.021  0.8778 -1.0755 -1.8419
 6059SOL     OW29635   3.857   4.271   5.985  0.8363 -0.3778 -0.2828
 6059SOL    HW129636   3.946   4.305   5.985  0.8857 -0.5104 -0.0492
 6059SOL    HW229637   3.859   4.213   6.061  0.9081 -1.0727 -0.8156
 6060SOL     OW29638   0.709   0.712   3.541 -0.3326 -0.7983  0.1812
 6060SOL    HW129639   0.783   0.672   3.585  1.3559  2.4559  0.3402
 6060SOL    HW229640   0.730   0.702   3.448 -1.4338 -0.3978 -0.1216
 6061SOL     OW29641   3.693   3.626   4.229 -0.3950  0.1738  0.3119
 6061SOL    HW129642   3.689   3.707   4.178 -0.4339  0.1763  0.3194
 6061SOL    HW229643   3.737   3.659   4.307  0.6652 -1.3859  0.3792
 6062SOL     OW29644   1.966   1.241  11.701 -0.5610 -0.1022 -0.8366
 6062SOL    HW129645   2.048   1.230  11.750  0.2090  0.7567 -1.9406
 6062SOL    HW229646   1.978   1.179  11.629 -3.9730 -0.0786 -1.4002
 6063SOL     OW29647   4.262   0.341   8.165  0.2402 -0.7416  0.1969
 6063SOL    HW129648   4.264   0.327   8.259 -1.0261  0.8797  0.4483
 6063SOL    HW229649   4.346   0.301   8.142  0.0592  0.7731 -3.1234
 6064SOL     OW29650   4.136   1.098   5.323  0.1134  0.2580  0.0180
 6064SOL    HW129651   4.050   1.066   5.351  0.0732  0.6332  0.3233
 6064SOL    HW229652   4.118   1.162   5.255  0.1461  0.7948  0.5123
 6065SOL     OW29653   2.346   0.061   6.078  0.1389  0.1056 -0.0546
 6065SOL    HW129654   2.344   0.019   6.165 -2.7663 -2.5970 -1.4106
 6065SOL    HW229655   2.438   0.087   6.075  0.0797  0.2384 -0.6614
 6066SOL     OW29656   2.508   4.119   8.371  0.4056 -0.1324  0.5438
 6066SOL    HW129657   2.472   4.031   8.356  2.3721 -0.4698 -2.2444
 6066SOL    HW229658   2.603   4.107   8.365  0.3920 -0.3409  0.7436
 6067SOL     OW29659   1.038   2.438  14.762 -0.6235  0.3344  0.2012
 6067SOL    HW129660   1.004   2.385  14.835 -0.1679 -1.4150 -0.8364
 6067SOL    HW229661   1.128   2.407  14.750 -1.2979 -1.1976 -1.0681
 6068SOL     OW29662   0.498   3.315   2.861  0.3230 -0.0328  0.0364
 6068SOL    HW129663   0.422   3.361   2.826  0.8461  1.0182  0.2601
 6068SOL    HW229664   0.499   3.329   2.955  2.2124  2.4590 -0.3496
 6069SOL     OW29665   2.105   2.106  17.596  0.0243 -0.3105 -0.1834
 6069SOL    HW129666   2.039   2.041  17.622  0.2120  0.0612  1.2415
 6069SOL    HW229667   2.160   2.104  17.675  0.6080 -2.9374 -0.6333
 6070SOL     OW29668   1.532   2.442   3.196  0.4085  0.7358  0.3228
 6070SOL    HW129669   1.574   2.357   3.184  2.3770  1.6649  0.5738
 6070SOL    HW229670   1.609   2.499   3.188 -0.5908  1.9010 -1.0517
 6071SOL     OW29671   2.758   0.640   5.972  0.4387 -0.3823 -0.1202
 6071SOL    HW129672   2.769   0.698   6.047 -1.0057  1.8456 -1.6154
 6071SOL    HW229673   2.688   0.588   6.011  0.2026 -0.6577 -0.9060
 6072SOL     OW29674   2.140   3.595  17.598 -0.0933  0.6065  0.0255
 6072SOL    HW129675   2.105   3.617  17.685  2.1242  0.8389  0.8756
 6072SOL    HW229676   2.144   3.499  17.598  0.3198  0.6274 -0.7079
 6073SOL     OW29677   1.173   0.821   3.911  0.3563  0.5234  0.0654
 6073SOL    HW129678   1.135   0.825   3.823 -1.7034  0.9389  0.9472
 6073SOL    HW229679   1.143   0.732   3.928 -0.7216  0.5695 -1.5372
 6074SOL     OW29680   2.281   1.382   2.262 -0.0925  0.4644 -0.3842
 6074SOL    HW129681   2.205   1.434   2.235 -1.5073 -0.4644  1.7655
 6074SOL    HW229682   2.357   1.439   2.261  0.2179  0.0416 -0.6897
 6075SOL     OW29683   2.065   3.387   9.923 -0.2746  0.3442  0.0175
 6075SOL    HW129684   1.989   3.444   9.932  0.0364  0.8896 -0.8092
 6075SOL    HW229685   2.032   3.317   9.866  3.0343 -0.6647 -0.7293
 6076SOL     OW29686   1.290   2.899  10.853  0.2608 -0.0661  0.0826
 6076SOL    HW129687   1.283   2.901  10.757  0.5650 -1.3734  0.0266
 6076SOL    HW229688   1.370   2.949  10.862  0.5450 -0.5337  0.1538
 6077SOL     OW29689   3.984   0.474   0.989  0.2230 -0.3865  0.5815
 6077SOL    HW129690   3.945   0.515   1.067 -1.8232  0.7013 -1.0043
 6077SOL    HW229691   3.915   0.491   0.925  0.1483 -1.0673  0.4839
 6078SOL     OW29692   1.127   4.671  15.362  0.1264  0.1183  0.3304
 6078SOL    HW129693   1.052   4.689  15.306  0.7338 -2.7545 -1.4222
 6078SOL    HW229694   1.198   4.701  15.306 -0.4647 -0.2671 -0.6145
 6079SOL     OW29695   0.119   0.541   1.698 -0.4161  0.1340  0.0308
 6079SOL    HW129696   0.175   0.464   1.705 -0.0589  0.5325  1.5938
 6079SOL    HW229697   0.102   0.565   1.790 -1.5740 -3.7383  0.8340
 6080SOL     OW29698   3.942   0.112   2.457 -0.6345 -0.7406  0.2286
 6080SOL    HW129699   3.995   0.168   2.513  0.5487 -0.9198 -0.7235
 6080SOL    HW229700   3.944   0.033   2.512  0.9343 -0.5536  0.4446
 6081SOL     OW29701   4.191   3.809   2.642  0.0895  0.0090 -0.0715
 6081SOL    HW129702   4.143   3.740   2.596 -2.3239  0.7099  1.4057
 6081SOL    HW229703   4.120   3.873   2.644  0.0971 -0.0585  2.4095
 6082SOL     OW29704   0.214   2.999   4.678  0.4008  0.0053 -0.2562
 6082SOL    HW129705   0.185   3.079   4.721 -0.0936 -1.2111  1.6676
 6082SOL    HW229706   0.310   3.006   4.682  0.2735  1.0461  0.8924
 6083SOL     OW29707   3.071   1.409   9.079  0.4070 -0.6328 -0.2801
 6083SOL    HW129708   2.977   1.395   9.087 -0.1109  1.9817 -1.6249
 6083SOL    HW229709   3.100   1.324   9.111 -2.0299 -1.6848 -0.8936
 6084SOL     OW29710   1.518   4.569   4.332 -0.1745 -0.1166  0.2508
 6084SOL    HW129711   1.430   4.574   4.367 -0.3596  4.0355 -0.7931
 6084SOL    HW229712   1.537   4.663   4.329  1.3260 -0.4642 -1.3707
 6085SOL     OW29713   3.605   0.576   7.458  0.2784  0.4597 -0.0351
 6085SOL    HW129714   3.687   0.576   7.507 -0.0855  1.1482  0.5759
 6085SOL    HW229715   3.560   0.514   7.517  1.0853  0.3746  0.4918
 6086SOL     OW29716   1.148   4.250   2.433 -0.5978 -0.4167 -0.1105
 6086SOL    HW129717   1.132   4.156   2.422 -1.7938 -0.2757  0.4586
 6086SOL    HW229718   1.182   4.262   2.521 -0.5968 -0.9873 -0.0360
 6087SOL     OW29719   4.555   3.359   1.201 -0.4269 -0.9434 -0.4000
 6087SOL    HW129720   4.473   3.327   1.238 -0.4938  0.3868  0.6149
 6087SOL    HW229721   4.524   3.436   1.152  1.5320  0.1886  0.1618
 6088SOL     OW29722   3.822   4.220   2.836  0.1347  0.2201  0.5578
 6088SOL    HW129723   3.794   4.231   2.745  0.0229 -2.5181  0.2516
 6088SOL    HW229724   3.816   4.125   2.848  1.2026 -0.0998 -1.3682
 6089SOL     OW29725   1.892   0.968   8.187  0.2218 -0.6811  0.1482
 6089SOL    HW129726   1.835   1.040   8.161 -0.7344 -1.4598  0.0677
 6089SOL    HW229727   1.832   0.896   8.165 -1.1055 -0.0786  1.8057
 6090SOL     OW29728   1.006   1.109   7.812  0.2291  0.0345  0.8146
 6090SOL    HW129729   0.946   1.149   7.749 -0.4931  0.0975  1.5513
 6090SOL    HW229730   0.945   1.075   7.877 -1.0698  0.0251 -0.4186
 6091SOL     OW29731   3.765   3.239   2.555  0.5905  0.4054 -0.1360
 6091SOL    HW129732   3.717   3.285   2.486 -0.6661 -2.5558 -1.2476
 6091SOL    HW229733   3.764   3.148   2.524  0.2335  0.2122  0.4294
 6092SOL     OW29734   2.359   0.177   4.586  0.3423  0.1761  0.2344
 6092SOL    HW129735   2.398   0.249   4.635  0.9196  2.1366 -3.0684
 6092SOL    HW229736   2.264   0.176   4.599  0.6871  0.9044  2.8226
 6093SOL     OW29737   2.167   4.469   7.440  0.5505  0.1483  0.2443
 6093SOL    HW129738   2.079   4.434   7.423 -0.0440  1.8110 -0.1555
 6093SOL    HW229739   2.191   4.487   7.349 -1.8411  0.3323 -0.3542
 6094SOL     OW29740   0.099   2.218   2.898  0.0797 -0.0418  0.3665
 6094SOL    HW129741   0.114   2.295   2.842 -0.6632 -0.3370 -0.2432
 6094SOL    HW229742   0.062   2.156   2.835 -1.1491  0.2832  0.7734
 6095SOL     OW29743   4.511   4.722   6.434  0.1271 -0.1074 -0.2177
 6095SOL    HW129744   4.424   4.682   6.430 -0.0205  0.3358 -1.5888
 6095SOL    HW229745   4.497   0.083   6.478 -2.4662 -0.4915 -0.3320
 6096SOL     OW29746   1.032   0.103   3.235 -0.3016 -0.0457 -0.1573
 6096SOL    HW129747   1.000   0.017   3.262  0.1975  0.0737  0.8399
 6096SOL    HW229748   1.004   0.103   3.144  0.0634 -1.6268 -0.2539
 6097SOL     OW29749   3.652   1.065   2.137 -0.6698  0.5587  0.2836
 6097SOL    HW129750   3.634   1.052   2.230  3.5681 -0.9582  0.9081
 6097SOL    HW229751   3.742   1.035   2.127 -1.8684 -2.3107 -1.9527
 6098SOL     OW29752   1.593   3.003  10.411  0.0815 -0.0868  0.3678
 6098SOL    HW129753   1.556   3.071  10.354  0.4166 -0.0245  0.2182
 6098SOL    HW229754   1.689   3.006  10.417 -0.0423  3.8742  0.5693
 6099SOL     OW29755   3.787   0.546   6.273  0.2047 -0.6315 -0.3763
 6099SOL    HW129756   3.757   0.566   6.362  0.7839 -0.1645 -0.2811
 6099SOL    HW229757   3.795   0.451   6.277 -1.1054 -0.6169  2.8586
 6100SOL     OW29758   2.694   1.511   2.545 -0.4194 -0.1107 -0.1625
 6100SOL    HW129759   2.773   1.500   2.492  0.9464  2.0166  1.4030
 6100SOL    HW229760   2.705   1.597   2.586  1.3354 -1.4769  2.2352
 6101SOL     OW29761   3.653   4.035   6.585  0.2844 -0.1448 -0.3823
 6101SOL    HW129762   3.589   4.066   6.521 -1.8962  1.6081  2.5952
 6101SOL    HW229763   3.680   4.124   6.605  0.4239 -0.7655  2.2502
 6102SOL     OW29764   4.095   3.575   5.573 -0.1954  0.3795  0.2070
 6102SOL    HW129765   4.102   3.480   5.573 -0.6756  0.3353  1.6393
 6102SOL    HW229766   4.006   3.594   5.605 -0.5176 -1.1890  0.2084
 6103SOL     OW29767   3.478   3.177   8.756 -0.0400 -0.3905  0.5074
 6103SOL    HW129768   3.561   3.143   8.721  0.5508  1.4876  0.0791
 6103SOL    HW229769   3.473   3.142   8.845  1.1156 -0.2994  0.6092
 6104SOL     OW29770   0.055   0.984   1.132 -0.3663  0.0207  0.0728
 6104SOL    HW129771   0.095   0.899   1.113  0.0297 -0.0433  1.2274
 6104SOL    HW229772   0.006   0.970   1.212  0.5064  0.4541  0.6831
 6105SOL     OW29773   1.201   0.485  16.362  0.1216 -0.4218 -0.1734
 6105SOL    HW129774   1.270   0.538  16.324 -0.4617 -0.1893 -0.8978
 6105SOL    HW229775   1.256   0.418  16.403  1.7163 -0.7329 -2.8035
 6106SOL     OW29776   3.209   1.101  16.268 -0.2643  0.0158  0.1082
 6106SOL    HW129777   3.138   1.076  16.209  0.1908  2.2668 -1.3551
 6106SOL    HW229778   3.199   1.196  16.265  0.6608  0.1417  0.8309
 6107SOL     OW29779   2.075   3.229   6.442 -0.3592 -0.2778 -0.0528
 6107SOL    HW129780   2.112   3.293   6.381  0.5040 -0.6259  0.1096
 6107SOL    HW229781   1.986   3.219   6.408  0.7358 -0.7886 -2.8510
 6108SOL     OW29782   3.337   3.341   7.133 -0.5193 -0.1205  0.0818
 6108SOL    HW129783   3.284   3.418   7.112  0.8255  0.9250  0.5336
 6108SOL    HW229784   3.378   3.376   7.212  1.0361 -1.7164 -0.0191
 6109SOL     OW29785   1.437   1.515   3.685  0.2285  0.1121  0.8945
 6109SOL    HW129786   1.532   1.516   3.690  0.1359  0.2603  2.7373
 6109SOL    HW229787   1.424   1.420   3.685  1.4342 -0.0575  0.4978
 6110SOL     OW29788   0.740   2.528   0.692 -0.4869  0.1210  0.3577
 6110SOL    HW129789   0.769   2.602   0.746  0.6698  2.1471 -3.0125
 6110SOL    HW229790   0.702   2.575   0.618  0.8569 -0.9722 -1.0088
 6111SOL     OW29791   4.481   4.715   1.875  0.2744  0.1478 -0.0261
 6111SOL    HW129792   4.432   0.029   1.949  0.6684  0.5806  0.0203
 6111SOL    HW229793   4.433   0.035   1.804  2.0071  1.9990 -0.0745
 6112SOL     OW29794   0.845   1.813   7.054  0.5299  0.6767  0.0253
 6112SOL    HW129795   0.799   1.749   7.108  0.3847  1.3458  0.6934
 6112SOL    HW229796   0.923   1.760   7.041 -0.0432 -0.2653  0.4603
 6113SOL     OW29797   4.204   3.040   5.690 -0.0211 -0.1841 -0.2607
 6113SOL    HW129798   4.223   2.962   5.637 -2.6407 -1.0118  0.0237
 6113SOL    HW229799   4.127   3.004   5.733 -0.0949  1.9011  1.3375
 6114SOL     OW29800   0.470   0.216   8.614  0.1034 -0.1155 -1.0127
 6114SOL    HW129801   0.475   0.153   8.686  3.3624  0.1096 -1.0425
 6114SOL    HW229802   0.558   0.199   8.579  0.8881  0.4111  0.6861
 6115SOL     OW29803   3.517   2.019   5.601  0.2978 -0.4635 -0.3915
 6115SOL    HW129804   3.492   1.980   5.518  1.9836 -0.1481 -1.0362
 6115SOL    HW229805   3.494   1.944   5.657  0.1325 -0.6585 -0.7245
 6116SOL     OW29806   0.032   1.978   3.128  0.3216  0.1270 -0.8279
 6116SOL    HW129807   0.009   1.930   3.207 -0.6746  0.1721 -1.0888
 6116SOL    HW229808   0.027   1.906   3.065 -0.4066 -0.0342 -0.5833
 6117SOL     OW29809   1.105   4.271   6.731  0.0721  0.2549  0.2919
 6117SOL    HW129810   1.049   4.249   6.806  0.8637 -0.4516  0.6710
 6117SOL    HW229811   1.066   4.359   6.734 -0.0070  0.1653  2.1665
 6118SOL     OW29812   2.020   1.525  10.008 -0.2120  0.8882 -0.5115
 6118SOL    HW129813   2.062   1.568   9.934 -0.4161  0.0890 -1.0916
 6118SOL    HW229814   1.928   1.541   9.986 -0.7918 -2.7107 -0.6916
 6119SOL     OW29815   1.053   3.020  14.606 -0.7422  0.4475 -0.2691
 6119SOL    HW129816   1.091   2.932  14.607  0.1068  0.8369  1.6032
 6119SOL    HW229817   1.018   3.015  14.517  1.0760  0.7207 -0.9871
 6120SOL     OW29818   0.063   3.969   2.991  0.3936  0.0011  0.1832
 6120SOL    HW129819   0.040   4.033   3.058  0.6148  0.5037 -0.2253
 6120SOL    HW229820   0.141   4.007   2.952 -2.4670  1.9032 -3.5901
 6121SOL     OW29821   0.220   1.895   5.624  0.3648  0.5924 -0.5128
 6121SOL    HW129822   0.243   1.978   5.666 -0.5837 -0.0672  1.3217
 6121SOL    HW229823   0.156   1.865   5.689  0.1255  0.3847 -0.8474
 6122SOL     OW29824   1.902   0.067   3.363  0.5860 -0.0407  0.1911
 6122SOL    HW129825   1.977   0.102   3.315  0.7175  0.4365  0.7450
 6122SOL    HW229826   1.928   4.701   3.390 -1.6440 -0.9077 -0.4833
 6123SOL     OW29827   0.255   1.413   0.471 -0.1944  0.0258  0.3383
 6123SOL    HW129828   0.187   1.474   0.445 -1.4617 -1.2698  0.6521
 6123SOL    HW229829   0.279   1.473   0.542  1.2743  3.1084 -2.7690
 6124SOL     OW29830   2.252   1.196   7.553  0.1939  0.1397  0.2838
 6124SOL    HW129831   2.215   1.144   7.481  1.1691  1.8401 -1.4525
 6124SOL    HW229832   2.271   1.275   7.502 -0.4496  1.0258  1.4300
 6125SOL     OW29833   1.704   1.282  13.775  0.0373 -0.3986  0.0287
 6125SOL    HW129834   1.772   1.218  13.796  0.9848  1.1216  1.5580
 6125SOL    HW229835   1.676   1.251  13.689  0.8939 -2.6639  0.5777
 6126SOL     OW29836   2.453   0.918  14.809 -0.0711  0.1237 -0.0067
 6126SOL    HW129837   2.510   0.948  14.880 -1.7415 -2.1557  2.3219
 6126SOL    HW229838   2.518   0.879  14.751 -0.5686 -2.6509  1.3059
 6127SOL     OW29839   3.220   4.438   1.948  0.0507  0.0061  0.4376
 6127SOL    HW129840   3.232   4.532   1.963 -0.5727  0.2327 -0.4505
 6127SOL    HW229841   3.128   4.426   1.972 -1.2396  2.0157 -3.4685
 6128SOL     OW29842   0.840   1.637   3.766  0.6672 -0.2417 -0.0170
 6128SOL    HW129843   0.835   1.577   3.691 -1.7472  0.8703 -0.7575
 6128SOL    HW229844   0.894   1.709   3.735 -0.3086  0.4732 -0.0551
 6129SOL     OW29845   1.122   0.033   6.165  0.1730  0.2289 -0.0063
 6129SOL    HW129846   1.098   0.119   6.130  0.4729 -0.5291 -2.1037
 6129SOL    HW229847   1.210   0.053   6.198 -1.2724  0.9180  3.4182
 6130SOL     OW29848   4.121   2.044   8.404 -0.0606  0.1034 -0.2960
 6130SOL    HW129849   4.174   1.978   8.448  0.8864  1.2000  0.2370
 6130SOL    HW229850   4.030   2.020   8.424  0.0872 -0.2744 -0.0853
 6131SOL     OW29851   0.835   0.138   3.996  0.5536 -0.2757  0.1799
 6131SOL    HW129852   0.785   0.198   3.939  0.8020  1.3382  1.6538
 6131SOL    HW229853   0.922   0.142   3.958 -0.2670 -0.5846 -1.7343
 6132SOL     OW29854   3.871   1.774  10.973  0.0185  0.3301  0.4041
 6132SOL    HW129855   3.788   1.727  10.979  1.2128 -1.8823 -0.4330
 6132SOL    HW229856   3.849   1.830  11.048  2.5337  0.5838  0.9453
 6133SOL     OW29857   1.706   0.578   3.956  0.1095 -0.5473 -0.4448
 6133SOL    HW129858   1.726   0.517   4.027 -1.8926 -2.1225 -1.2546
 6133SOL    HW229859   1.795   0.593   3.924 -0.0908  2.7758  0.4919
 6134SOL     OW29860   2.423   2.105   6.251  0.1017  0.2078  0.1923
 6134SOL    HW129861   2.513   2.099   6.220  0.1301  1.0787  0.1020
 6134SOL    HW229862   2.419   2.200   6.267 -1.2422  0.5482 -2.1585
 6135SOL     OW29863   1.470   3.927   4.644  0.3623 -0.3268 -0.2270
 6135SOL    HW129864   1.441   3.876   4.568  1.2520 -0.5801 -0.4039
 6135SOL    HW229865   1.553   3.881   4.661  0.7707 -0.2029 -1.8999
 6136SOL     OW29866   0.722   2.058   5.578 -0.3851  0.0289 -0.0974
 6136SOL    HW129867   0.655   2.005   5.621 -0.5489  2.7805  3.0983
 6136SOL    HW229868   0.794   1.995   5.570 -1.2379 -0.9813  0.1747
 6137SOL     OW29869   4.330   0.604   3.283 -0.2303 -0.1296  0.3857
 6137SOL    HW129870   4.303   0.694   3.266 -0.7231  0.1298  2.5510
 6137SOL    HW229871   4.283   0.557   3.214  0.6544  0.3597 -0.5509
 6138SOL     OW29872   3.542   2.127  17.405 -1.0082  0.3673  0.2426
 6138SOL    HW129873   3.586   2.210  17.387 -1.2019  0.9085  2.1816
 6138SOL    HW229874   3.525   2.097  17.316  0.9847  0.1362 -0.0373
 6139SOL     OW29875   0.613   4.683   5.725  0.2329  0.4192 -0.1529
 6139SOL    HW129876   0.570   4.681   5.811  1.7398 -0.8707  0.5851
 6139SOL    HW229877   0.704   4.666   5.750 -0.0707 -0.3084  0.4746
 6140SOL     OW29878   0.171   1.285   3.318 -0.7165  0.1106 -0.2642
 6140SOL    HW129879   0.266   1.294   3.327 -0.9195  3.2333 -1.2560
 6140SOL    HW229880   0.165   1.190   3.320  0.4007  0.0628  1.3815
 6141SOL     OW29881   1.962   1.870  10.154 -0.4511  0.0179 -0.1961
 6141SOL    HW129882   2.005   1.878  10.069  2.4658 -4.8545  0.7802
 6141SOL    HW229883   1.878   1.839  10.121 -0.9480  1.6830 -0.4397
 6142SOL     OW29884   1.216   0.852   5.459 -0.3563 -0.4805 -0.4158
 6142SOL    HW129885   1.170   0.926   5.500  1.7533 -0.5167  2.0304
 6142SOL    HW229886   1.196   0.777   5.514  1.0545 -0.1863  0.4942
 6143SOL     OW29887   0.444   3.600  14.865  0.4112  0.1995  0.0013
 6143SOL    HW129888   0.458   3.658  14.940  2.0093  0.9271 -0.8816
 6143SOL    HW229889   0.490   3.649  14.797 -0.6834  1.2974  0.0620
 6144SOL     OW29890   0.577   2.691  17.682  0.2918 -0.2128  0.3246
 6144SOL    HW129891   0.624   2.772  17.663 -1.3510  0.7398  0.2693
 6144SOL    HW229892   0.566   2.715   0.081 -1.1673  2.7792 -0.6226
 6145SOL     OW29893   3.455   2.939   4.842 -0.3720 -0.2809 -0.4449
 6145SOL    HW129894   3.369   2.972   4.867 -0.3948 -0.3460 -0.4355
 6145SOL    HW229895   3.451   2.843   4.848 -0.6965 -0.1922  0.6435
 6146SOL     OW29896   3.491   2.865  10.050 -0.2570 -0.1219 -0.2460
 6146SOL    HW129897   3.400   2.885  10.073 -1.0646 -3.4691 -0.4450
 6146SOL    HW229898   3.542   2.885  10.129 -1.3450 -0.5179  0.5642
 6147SOL     OW29899   1.611   4.095   2.066 -0.0076 -0.4406  0.5111
 6147SOL    HW129900   1.527   4.138   2.083  2.3261  3.5379  2.0752
 6147SOL    HW229901   1.672   4.166   2.087 -0.2090 -0.1571  0.1365
 6148SOL     OW29902   1.877   3.611   7.779  0.0155 -0.2114  0.5272
 6148SOL    HW129903   1.855   3.565   7.698  0.9647  1.5557 -0.7512
 6148SOL    HW229904   1.960   3.646   7.747 -1.1467 -1.1805 -3.6671
 6149SOL     OW29905   2.858   1.101   0.708 -0.0688 -0.6741  0.5910
 6149SOL    HW129906   2.802   1.037   0.751  0.2789  0.1299  2.2575
 6149SOL    HW229907   2.915   1.036   0.668  1.5183  0.5967  0.7797
 6150SOL     OW29908   4.608   0.941   7.095 -0.3112  0.3582  0.0822
 6150SOL    HW129909   4.512   0.934   7.100 -0.3223  0.1230 -0.5244
 6150SOL    HW229910   4.609   1.036   7.085  0.2756  0.2915 -0.4389
 6151SOL     OW29911   3.402   0.723   4.468 -0.0558  0.9890  0.5077
 6151SOL    HW129912   3.387   0.635   4.501  1.8175  0.5479  0.1472
 6151SOL    HW229913   3.330   0.773   4.508 -0.3400  0.2140  0.9705
 6152SOL     OW29914   0.549   1.584   6.982  0.4338  0.2339 -0.1083
 6152SOL    HW129915   0.477   1.646   6.989  0.6111  0.1419  2.6242
 6152SOL    HW229916   0.602   1.628   6.915  1.7117 -1.9352 -0.5244
 6153SOL     OW29917   3.058   2.667   3.929  0.0433 -0.0225  0.0232
 6153SOL    HW129918   3.047   2.630   3.842  1.2451 -0.0411 -0.1238
 6153SOL    HW229919   2.979   2.722   3.929 -0.4767 -0.7729  0.3540
 6154SOL     OW29920   2.476   0.195  15.193 -0.6158  0.2387  0.4330
 6154SOL    HW129921   2.528   0.197  15.113 -0.8456 -0.2549  0.2733
 6154SOL    HW229922   2.475   0.100  15.202 -0.9466  0.1036 -1.0557
 6155SOL     OW29923   0.987   0.036   2.449 -0.3860  0.4949  0.2899
 6155SOL    HW129924   0.924   4.701   2.405 -0.3403  0.7923 -0.1587
 6155SOL    HW229925   1.002   0.102   2.382  1.8439  0.1552  0.4674
 6156SOL     OW29926   0.572   3.320  16.259  0.2637  0.3162 -0.5722
 6156SOL    HW129927   0.538   3.400  16.220  0.7123  2.0110  2.5389
 6156SOL    HW229928   0.623   3.354  16.333 -1.4565  2.9547 -0.5937
 6157SOL     OW29929   2.952   2.180  16.803 -0.1161  0.5957  0.4073
 6157SOL    HW129930   2.893   2.242  16.846  0.7404  1.8223 -0.1913
 6157SOL    HW229931   3.021   2.158  16.865 -1.0360  0.5430  1.4147
 6158SOL     OW29932   1.526   3.805  13.631  0.3819 -0.1434 -0.7681
 6158SOL    HW129933   1.512   3.715  13.660 -0.2299  0.0688 -0.4032
 6158SOL    HW229934   1.468   3.807  13.554 -0.2514  2.5160 -0.2030
 6159SOL     OW29935   1.807   1.925   4.578 -0.1083  0.5004  0.6716
 6159SOL    HW129936   1.792   1.940   4.671  0.3700 -0.0242  0.8331
 6159SOL    HW229937   1.804   2.017   4.554  3.4377  0.7202  1.0774
 6160SOL     OW29938   0.811   0.198   5.874  0.5034 -0.3283 -0.4806
 6160SOL    HW129939   0.723   0.205   5.912  0.9362  3.0971 -0.0374
 6160SOL    HW229940   0.819   0.104   5.858 -1.1001  0.0764 -3.8210
 6161SOL     OW29941   4.261   0.935  11.109 -0.1304 -0.5551 -0.1581
 6161SOL    HW129942   4.273   1.030  11.104 -0.6570 -0.4513  0.6301
 6161SOL    HW229943   4.230   0.931  11.199  0.0195 -1.9863 -0.1659
 6162SOL     OW29944   0.475   1.997  17.399  0.2344  0.1215 -0.3075
 6162SOL    HW129945   0.549   1.961  17.448  1.2232  0.0693 -1.8638
 6162SOL    HW229946   0.513   2.019  17.314  1.7660  0.2037  0.3907
 6163SOL     OW29947   3.271   3.085   5.948  0.1443 -0.3261 -0.6402
 6163SOL    HW129948   3.329   3.057   6.019 -1.3587 -0.8481  0.3707
 6163SOL    HW229949   3.323   3.153   5.905  2.6641 -1.2575  0.8784
 6164SOL     OW29950   4.150   2.376   2.791 -0.1758  0.2225 -0.0605
 6164SOL    HW129951   4.229   2.378   2.845 -1.3273 -0.3068  1.6439
 6164SOL    HW229952   4.171   2.426   2.712 -2.2551  0.4844 -0.4439
 6165SOL     OW29953   1.922   0.279  11.538  0.2752  0.5420 -0.1477
 6165SOL    HW129954   1.989   0.216  11.567 -1.2268 -0.1061  1.8539
 6165SOL    HW229955   1.981   0.352  11.521  0.1828  0.2763 -1.6361
 6166SOL     OW29956   0.739   4.256  10.316  0.6857 -0.4349  0.2493
 6166SOL    HW129957   0.778   4.304  10.244 -2.4940 -0.0627 -1.2410
 6166SOL    HW229958   0.657   4.298  10.342  1.0560  0.9850 -0.9377
 6167SOL     OW29959   1.782   4.043  10.342  0.0555 -0.2147  0.6489
 6167SOL    HW129960   1.870   4.026  10.377  0.8350  2.1794 -0.1317
 6167SOL    HW229961   1.734   3.962  10.360 -1.1685  0.6686  1.4200
 6168SOL     OW29962   1.921   3.101   8.863 -0.4041 -0.2724 -0.1307
 6168SOL    HW129963   1.998   3.054   8.832 -0.2914 -0.4903  0.4724
 6168SOL    HW229964   1.897   3.166   8.797 -0.6882  0.6083  0.8466
 6169SOL     OW29965   1.127   3.024  15.508 -0.0871  0.2589  0.3597
 6169SOL    HW129966   1.204   2.970  15.526 -1.4746 -1.2325  1.7337
 6169SOL    HW229967   1.151   3.042  15.417 -0.5681 -1.7700 -0.1694
 6170SOL     OW29968   1.955   1.225  13.858  0.2733 -0.3420  1.0393
 6170SOL    HW129969   2.027   1.168  13.887  1.0708  0.5978  0.9197
 6170SOL    HW229970   1.959   1.295  13.923 -0.4606 -1.7979  2.6375
 6171SOL     OW29971   4.671   1.851   7.523 -0.0892  0.0108  0.0148
 6171SOL    HW129972   0.015   1.905   7.482  2.0292 -0.6691  2.5881
 6171SOL    HW229973   4.720   1.771   7.541  0.7188  0.5893  0.3852
 6172SOL     OW29974   2.309   4.439   2.214  0.1443 -0.3599  0.3012
 6172SOL    HW129975   2.278   4.410   2.128  3.1979 -1.1409 -0.5244
 6172SOL    HW229976   2.401   4.435   2.190  0.7036  0.2212  2.3951
 6173SOL     OW29977   2.110   3.669  15.692  0.4529 -0.5714  0.1573
 6173SOL    HW129978   2.178   3.603  15.707 -1.0311 -2.4339 -1.3064
 6173SOL    HW229979   2.035   3.628  15.735 -0.7695  0.1033 -1.3112
 6174SOL     OW29980   0.517   3.891   5.954 -0.1530  0.1191 -1.5095
 6174SOL    HW129981   0.609   3.865   5.958 -1.1902 -2.9091  2.2248
 6174SOL    HW229982   0.514   3.933   6.040  0.2182  1.1398 -1.9928
 6175SOL     OW29983   2.357   1.440   1.385 -0.0392 -0.1472 -0.3193
 6175SOL    HW129984   2.339   1.533   1.400  2.0583 -0.2213  2.7264
 6175SOL    HW229985   2.430   1.446   1.447 -0.0617  0.2700 -0.3319
 6176SOL     OW29986   3.310   2.325  10.071 -0.3301  0.3332 -0.5248
 6176SOL    HW129987   3.318   2.241  10.117 -1.7574 -0.5656 -1.9221
 6176SOL    HW229988   3.223   2.304  10.037  0.2288  0.0259 -1.7588
 6177SOL     OW29989   3.079   3.744   3.052  0.0425  0.2128 -0.5446
 6177SOL    HW129990   3.060   3.790   3.134  2.5548  2.2189 -1.0852
 6177SOL    HW229991   3.052   3.803   2.982 -3.0879  0.2296  0.6665
 6178SOL     OW29992   3.503   0.396   7.629  0.4046 -0.7153 -1.0756
 6178SOL    HW129993   3.449   0.317   7.632  1.5219 -1.4042  0.5270
 6178SOL    HW229994   3.514   0.406   7.723 -0.7497 -1.3877 -0.8642
 6179SOL     OW29995   3.225   1.022   5.286 -0.1604  0.1596 -0.0643
 6179SOL    HW129996   3.305   0.991   5.243 -0.4077 -0.6751  0.0747
 6179SOL    HW229997   3.169   1.036   5.211 -1.3418  2.8212  1.3087
 6180SOL     OW29998   2.985   1.023  16.135 -0.0131 -0.3268 -0.0788
 6180SOL    HW129999   2.913   0.965  16.109  1.0013 -1.3122 -0.7644
 6180SOL    HW230000   2.939   1.105  16.150 -0.4408 -0.3983 -0.9597
 6181SOL     OW30001   0.385   2.425  10.290  0.5342  0.4056  0.2750
 6181SOL    HW130002   0.369   2.457  10.202 -1.0301 -1.1990 -0.0237
 6181SOL    HW230003   0.347   2.337  10.290  0.6946  0.3387 -0.3787
 6182SOL     OW30004   2.870   1.652   6.407 -0.2653  0.0542  0.6019
 6182SOL    HW130005   2.941   1.672   6.345 -2.7897  1.2024 -1.9580
 6182SOL    HW230006   2.788   1.646   6.357 -0.1167 -0.4048  0.4162
 6183SOL     OW30007   0.951   0.527   4.653 -0.1654 -0.3841 -0.0109
 6183SOL    HW130008   0.857   0.508   4.647 -0.4342  1.2708 -1.0728
 6183SOL    HW230009   0.978   0.492   4.569  0.6065  1.1774 -0.4038
 6184SOL     OW30010   1.751   2.015  15.334 -0.4893  0.0951  0.0710
 6184SOL    HW130011   1.726   2.068  15.257 -3.6430  0.0774  1.0883
 6184SOL    HW230012   1.752   1.929  15.293 -0.1305 -0.0624  0.4214
 6185SOL     OW30013   1.337   1.049   7.138  0.1937  0.7193  0.3968
 6185SOL    HW130014   1.280   0.972   7.134  0.2063  0.6967  0.6506
 6185SOL    HW230015   1.284   1.105   7.195 -0.1412 -1.3719  2.1364
 6186SOL     OW30016   0.387   4.061   6.606 -0.7892  0.1072 -0.1681
 6186SOL    HW130017   0.474   4.023   6.612 -1.3903 -1.5896 -2.0095
 6186SOL    HW230018   0.346   3.984   6.566 -3.2657  0.4095  1.7680
 6187SOL     OW30019   3.559   1.866   6.083  0.3940  0.1735  0.2611
 6187SOL    HW130020   3.556   1.771   6.088  0.3346  0.2597  2.1810
 6187SOL    HW230021   3.487   1.889   6.143 -0.1521  1.1204 -0.7605
 6188SOL     OW30022   4.106   4.265   4.799  0.0631 -0.9918 -0.6147
 6188SOL    HW130023   4.092   4.346   4.847 -1.0044 -0.2834 -2.1191
 6188SOL    HW230024   4.057   4.284   4.719  2.0671 -2.9463 -2.3062
 6189SOL     OW30025   3.682   1.784   4.857 -0.3148 -0.1315  0.6037
 6189SOL    HW130026   3.748   1.788   4.788 -1.1195  0.2935 -0.1379
 6189SOL    HW230027   3.610   1.756   4.801 -0.2027  1.9223 -0.5407
 6190SOL     OW30028   0.128   2.063   6.474 -0.2057  0.1546  0.1560
 6190SOL    HW130029   0.107   1.971   6.488 -0.6022  0.1731 -0.3087
 6190SOL    HW230030   0.059   2.096   6.416 -0.7935 -0.1377  0.6862
 6191SOL     OW30031   0.722   3.289   3.269 -0.0815 -0.4080 -0.0951
 6191SOL    HW130032   0.794   3.236   3.302 -0.2004 -1.0779 -0.8970
 6191SOL    HW230033   0.664   3.299   3.344  0.5583 -1.7008  0.5788
 6192SOL     OW30034   1.807   2.940  11.994 -0.2738  0.2414 -0.4742
 6192SOL    HW130035   1.828   2.933  11.901 -0.0509  1.6312 -0.5239
 6192SOL    HW230036   1.893   2.953  12.034 -0.5080  0.5414 -0.0658
 6193SOL     OW30037   1.125   3.864  15.955  0.1078  0.3415 -0.4029
 6193SOL    HW130038   1.212   3.902  15.938  0.3080  0.1908  0.2651
 6193SOL    HW230039   1.069   3.941  15.962  2.0749  1.7954 -0.6610
 6194SOL     OW30040   2.468   1.981   4.019 -0.2169  0.1009  0.4383
 6194SOL    HW130041   2.388   1.936   4.047  0.2882 -0.2410  1.3046
 6194SOL    HW230042   2.462   1.973   3.923  2.2894  0.2670  0.2581
 6195SOL     OW30043   2.267   1.659   9.841  0.3070 -0.3321 -0.0306
 6195SOL    HW130044   2.201   1.728   9.839  1.3918  0.6443 -2.1401
 6195SOL    HW230045   2.297   1.671   9.931 -0.7331  3.5298 -0.1942
 6196SOL     OW30046   2.235   1.105  16.071  0.4408  0.7335  0.0116
 6196SOL    HW130047   2.328   1.128  16.065  0.5383  1.0868  2.8203
 6196SOL    HW230048   2.252   1.011  16.065 -1.3751  0.4434 -0.5697
 6197SOL     OW30049   3.173   2.476   5.004  0.2533 -0.5877 -0.0643
 6197SOL    HW130050   3.182   2.457   5.097 -0.1349 -0.7219 -0.0541
 6197SOL    HW230051   3.249   2.533   4.997 -0.3262  0.2872  0.8394
 6198SOL     OW30052   2.753   4.068  15.869  0.0108  0.3269 -0.2422
 6198SOL    HW130053   2.832   4.076  15.816  0.3483 -1.7003 -0.0316
 6198SOL    HW230054   2.793   4.042  15.951  1.7846 -0.2876 -1.3021
 6199SOL     OW30055   3.171   2.610   5.962  0.5568 -0.3095 -0.9140
 6199SOL    HW130056   3.210   2.693   5.990 -0.0202 -0.8634  1.5155
 6199SOL    HW230057   3.105   2.593   6.029  1.1328  1.9917  0.2481
 6200SOL     OW30058   1.493   2.903   8.721 -0.2650 -0.0475  0.0855
 6200SOL    HW130059   1.562   2.957   8.682 -0.9690  0.0128 -1.0652
 6200SOL    HW230060   1.538   2.819   8.710 -0.6794 -0.1623 -0.7181
 6201SOL     OW30061   1.092   2.876  16.253 -0.8776  0.0841 -0.1836
 6201SOL    HW130062   1.044   2.802  16.289 -0.1231  0.3195  1.2818
 6201SOL    HW230063   1.017   2.937  16.254 -1.0288 -0.1098  0.1993
 6202SOL     OW30064   2.156   3.869   0.611 -0.3512 -0.1548 -0.6945
 6202SOL    HW130065   2.153   3.908   0.698  1.8608 -0.2487 -0.5851
 6202SOL    HW230066   2.192   3.783   0.631  0.0920  0.6167  1.7658
 6203SOL     OW30067   4.131   3.762   7.617  0.3365  0.5715 -0.3444
 6203SOL    HW130068   4.178   3.679   7.607  1.5016  0.8617  2.7203
 6203SOL    HW230069   4.044   3.738   7.651  1.0383 -1.0589  0.3267
 6204SOL     OW30070   4.562   3.703   7.403 -0.0838 -0.9830 -0.1445
 6204SOL    HW130071   4.578   3.671   7.492  0.1070  0.0646  0.1897
 6204SOL    HW230072   4.557   3.797   7.420 -0.7755 -0.8628 -0.9553
 6205SOL     OW30073   0.294   3.205   8.903  0.7751 -0.0082 -0.5032
 6205SOL    HW130074   0.200   3.221   8.893  0.5460  0.4211  2.5592
 6205SOL    HW230075   0.321   3.247   8.984 -0.4361 -2.2698  1.0601
 6206SOL     OW30076   0.174   3.602   0.801 -0.5841 -0.5321 -0.4293
 6206SOL    HW130077   0.238   3.650   0.749  2.3633 -2.1056  1.7857
 6206SOL    HW230078   0.195   3.512   0.773  0.3878 -0.3717 -0.2213
 6207SOL     OW30079   3.787   0.908   1.838  0.0803  0.2360  0.3389
 6207SOL    HW130080   3.810   0.977   1.776 -0.9419 -1.7132 -2.2033
 6207SOL    HW230081   3.821   0.947   1.919 -2.1005 -1.1149  1.8948
 6208SOL     OW30082   0.746   0.782  10.610  0.8206 -0.3127  0.3305
 6208SOL    HW130083   0.687   0.783  10.535  1.3071 -0.6600 -0.0590
 6208SOL    HW230084   0.681   0.802  10.678  1.0217  0.6436  0.2434
 6209SOL     OW30085   1.843   0.176   4.109  0.3543  0.1492 -0.4071
 6209SOL    HW130086   1.759   0.163   4.064  0.3914  1.1097 -0.7532
 6209SOL    HW230087   1.846   0.095   4.159 -2.5209  0.2245 -0.0813
 6210SOL     OW30088   0.549   2.524   4.786  0.4980 -0.0244 -0.0262
 6210SOL    HW130089   0.540   2.598   4.847 -1.1140 -0.6586  0.4995
 6210SOL    HW230090   0.471   2.540   4.734  0.2118  0.2033  0.4682
 6211SOL     OW30091   2.228   2.020   4.494 -0.4793  0.0228 -0.7710
 6211SOL    HW130092   2.155   2.072   4.461  0.1567  1.7249  0.4674
 6211SOL    HW230093   2.255   2.067   4.574  1.2855 -2.1701 -0.0767
 6212SOL     OW30094   0.619   0.666   6.160  0.3490 -0.6712  0.6192
 6212SOL    HW130095   0.635   0.707   6.245 -0.0185 -0.8344  0.7668
 6212SOL    HW230096   0.686   0.715   6.113  0.4231 -0.8485  0.5384
 6213SOL     OW30097   0.141   2.504  14.548 -0.3109  0.3982 -0.1707
 6213SOL    HW130098   0.088   2.452  14.609  1.4054 -0.5368  0.5107
 6213SOL    HW230099   0.116   2.589  14.583  0.1096  0.4119  0.0901
 6214SOL     OW30100   1.633   3.122   0.711  0.1271 -0.5034 -0.2310
 6214SOL    HW130101   1.541   3.144   0.703  0.3008  1.3861  3.0858
 6214SOL    HW230102   1.668   3.211   0.722  1.0620 -0.9235  0.2243
 6215SOL     OW30103   3.682   3.136   6.138  0.8465 -0.2513  0.3010
 6215SOL    HW130104   3.664   3.229   6.153 -0.7266 -0.3341 -1.0619
 6215SOL    HW230105   3.740   3.121   6.213 -0.1059 -1.0125  0.8834
 6216SOL     OW30106   1.208   0.271   7.335  0.4249  0.4057  0.3275
 6216SOL    HW130107   1.196   0.307   7.422 -0.3365 -0.6273  0.6490
 6216SOL    HW230108   1.285   0.217   7.353 -1.4112 -2.4428 -0.3176
 6217SOL     OW30109   3.815   4.683  12.764 -0.4954 -0.4323  0.1942
 6217SOL    HW130110   3.755   4.704  12.835 -0.5370 -0.2806  0.1129
 6217SOL    HW230111   3.898   4.691  12.812  0.1019 -2.6761 -0.4753
 6218SOL     OW30112   3.224   2.444   8.419  0.4126  0.5120 -0.4739
 6218SOL    HW130113   3.177   2.527   8.414  1.0217  0.8942  0.1878
 6218SOL    HW230114   3.157   2.376   8.425  1.0176  0.0328  0.8639
 6219SOL     OW30115   1.849   0.411   4.546  0.4503  0.0506 -0.2112
 6219SOL    HW130116   1.769   0.434   4.499  0.0191  0.1601  0.5829
 6219SOL    HW230117   1.829   0.317   4.537 -0.0668 -0.0243  1.7317
 6220SOL     OW30118   1.434   1.492   0.748  0.4312 -0.6469 -0.6284
 6220SOL    HW130119   1.408   1.584   0.742  0.6443 -0.3441  3.0448
 6220SOL    HW230120   1.491   1.490   0.825  2.8102  0.3182 -2.3651
 6221SOL     OW30121   3.880   3.804  10.170 -0.6083  0.3853  0.6539
 6221SOL    HW130122   3.872   3.720  10.126  0.6373  0.7194 -0.2114
 6221SOL    HW230123   3.862   3.872  10.105 -1.8916 -0.2900  0.3084
 6222SOL     OW30124   2.237   4.044   3.655  0.2556 -0.2131  0.4940
 6222SOL    HW130125   2.224   3.952   3.679 -2.3644  0.6844  2.5063
 6222SOL    HW230126   2.250   4.041   3.560 -0.9688 -1.9434  0.3652
 6223SOL     OW30127   3.535   0.860   7.797  0.3420 -0.2419  0.0468
 6223SOL    HW130128   3.530   0.851   7.701  1.6866  0.4200 -0.0852
 6223SOL    HW230129   3.555   0.951   7.819 -0.6888 -0.6292  2.5870
 6224SOL     OW30130   4.506   3.555   9.250 -1.1931  0.0714 -0.2607
 6224SOL    HW130131   4.535   3.571   9.160 -1.0510  0.1313 -0.2032
 6224SOL    HW230132   4.443   3.484   9.240  0.5931 -1.7660  1.4343
 6225SOL     OW30133   3.328   1.147  13.969  0.5442  0.6069  0.9541
 6225SOL    HW130134   3.246   1.114  14.005 -0.0005 -2.0732 -2.6571
 6225SOL    HW230135   3.382   1.070  13.991  0.8085 -0.0778 -2.0811
 6226SOL     OW30136   4.184   1.688   4.665 -0.1462  0.1119  1.2451
 6226SOL    HW130137   4.194   1.628   4.739 -0.6532 -1.0203  0.3919
 6226SOL    HW230138   4.269   1.728   4.647 -0.2247 -0.1977  0.1554
 6227SOL     OW30139   1.104   1.730   2.241  0.4971  0.2628 -0.5304
 6227SOL    HW130140   1.184   1.736   2.190  1.2464  2.5912  0.9300
 6227SOL    HW230141   1.077   1.822   2.240  2.5254  0.8695  1.1012
 6228SOL     OW30142   0.753   1.268   0.173 -0.2620 -0.6731 -0.0131
 6228SOL    HW130143   0.821   1.255   0.239  1.4101 -0.1886 -1.6218
 6228SOL    HW230144   0.745   1.179   0.139  2.0630 -0.6989 -0.5442
 6229SOL     OW30145   3.288   3.935   7.827  0.9750  0.4360 -0.1139
 6229SOL    HW130146   3.362   3.991   7.802  0.2995  0.8730 -1.1502
 6229SOL    HW230147   3.255   3.915   7.740  1.4552 -3.2047  0.5555
 6230SOL     OW30148   3.426   3.877   0.621  0.0045  0.1874 -0.0746
 6230SOL    HW130149   3.490   3.828   0.568  0.9406 -0.0925  1.3316
 6230SOL    HW230150   3.477   3.953   0.648  0.5471 -1.3281  3.1525
 6231SOL     OW30151   1.900   4.210  14.915  0.5421 -0.2878  0.2737
 6231SOL    HW130152   1.920   4.288  14.967  2.7000 -1.6752  1.4814
 6231SOL    HW230153   1.807   4.203  14.937  0.7037  1.2637  1.4341
 6232SOL     OW30154   3.010   0.843   5.923  0.2467 -0.1133  0.3765
 6232SOL    HW130155   3.014   0.854   5.828 -3.7225 -1.0703  0.0759
 6232SOL    HW230156   2.936   0.900   5.944  0.6822  0.6115 -0.0910
 6233SOL     OW30157   1.277   1.752   5.300  0.0698 -0.3530  0.4789
 6233SOL    HW130158   1.334   1.756   5.223 -1.1344  3.0693 -0.2806
 6233SOL    HW230159   1.197   1.762   5.249 -1.3978  1.4030  3.1143
 6234SOL     OW30160   1.735   0.948   1.194  0.3717 -0.2924  0.1488
 6234SOL    HW130161   1.718   0.951   1.100  1.0657 -1.2861 -0.0098
 6234SOL    HW230162   1.816   0.897   1.185 -1.8315 -3.4232 -2.1160
 6235SOL     OW30163   3.896   2.475  17.661  0.9972  0.6335 -0.2408
 6235SOL    HW130164   3.813   2.449  17.621  0.0401  0.1932  2.0589
 6235SOL    HW230165   3.898   2.434   0.054 -0.4228 -0.0815 -0.5447
 6236SOL     OW30166   3.720   4.122  16.827  0.1925  0.1677  0.1042
 6236SOL    HW130167   3.774   4.046  16.804  1.2273  1.3818 -1.5116
 6236SOL    HW230168   3.631   4.086  16.823  0.7413 -1.1430 -0.2106
 6237SOL     OW30169   2.001   1.610  15.036  0.0485 -0.1686 -0.2599
 6237SOL    HW130170   1.965   1.692  15.002 -0.7233 -0.3972  0.0003
 6237SOL    HW230171   1.954   1.601  15.119  1.9087 -4.7798  0.2969
 6238SOL     OW30172   2.770   4.582   8.807 -0.0411  0.0459 -0.5707
 6238SOL    HW130173   2.832   4.588   8.734 -0.5787 -0.8053 -1.0848
 6238SOL    HW230174   2.695   4.540   8.765  0.8747 -2.8320  0.6976
 6239SOL     OW30175   2.676   0.952   2.167  0.1292  0.4706 -0.6429
 6239SOL    HW130176   2.629   0.954   2.250  0.0777  1.5658 -0.7053
 6239SOL    HW230177   2.711   1.041   2.164  0.5055  0.2690 -2.1826
 6240SOL     OW30178   0.248   2.051   3.766  0.1490 -0.1429  0.2786
 6240SOL    HW130179   0.177   1.996   3.799 -0.7488  0.3054 -0.9072
 6240SOL    HW230180   0.229   2.138   3.802 -2.3021 -0.9258  0.8797
 6241SOL     OW30181   1.440   2.262  12.004  0.3187 -0.2326  0.2317
 6241SOL    HW130182   1.401   2.179  11.976  1.4073 -0.1856 -1.4768
 6241SOL    HW230183   1.392   2.272  12.086  1.5096 -2.4130  1.2029
 6242SOL     OW30184   1.358   0.095  17.102 -0.4919 -0.1288  0.7088
 6242SOL    HW130185   1.270   0.070  17.073  0.3020 -0.7308 -1.1647
 6242SOL    HW230186   1.370   0.175  17.050  2.3306 -1.7520 -1.1430
 6243SOL     OW30187   4.577   4.468   7.952  0.8254 -0.4126  0.3986
 6243SOL    HW130188   4.597   4.401   7.887 -2.4890 -0.0026 -1.0448
 6243SOL    HW230189   4.598   4.407   8.022  0.8012  0.3711  1.0928
 6244SOL     OW30190   1.421   3.035   4.278 -0.1857  0.0539  0.1718
 6244SOL    HW130191   1.509   3.070   4.292  0.3760 -1.3664  0.1327
 6244SOL    HW230192   1.410   2.987   4.359  1.4312  0.7392  0.7914
 6245SOL     OW30193   2.971   2.720   9.060 -0.2911  0.2607  0.3260
 6245SOL    HW130194   3.027   2.742   8.986  1.5612  0.6958  1.8839
 6245SOL    HW230195   2.917   2.798   9.073 -0.6163 -0.0738  1.0093
 6246SOL     OW30196   4.354   0.518   7.931  0.6144  0.3563  0.2378
 6246SOL    HW130197   4.265   0.487   7.947  0.7625  0.4918  1.3747
 6246SOL    HW230198   4.356   0.607   7.967  0.5838  0.1097  0.8432
 6247SOL     OW30199   3.232   4.005   6.944 -0.6303  0.3077  0.0270
 6247SOL    HW130200   3.142   4.001   6.977 -0.4132 -1.4772  0.3883
 6247SOL    HW230201   3.270   4.046   7.022  1.0817 -0.8840 -0.1854
 6248SOL     OW30202   3.237   3.166   6.572 -0.4468  0.0386 -1.0495
 6248SOL    HW130203   3.250   3.081   6.613  1.3125 -0.0716 -1.8236
 6248SOL    HW230204   3.325   3.200   6.590 -0.3585 -0.4867 -0.5184
 6249SOL     OW30205   0.209   0.833   5.931 -0.7177  0.6136  0.2407
 6249SOL    HW130206   0.140   0.811   5.868 -0.2894  0.5317 -0.1986
 6249SOL    HW230207   0.167   0.796   6.009 -0.3502 -1.1491 -0.4037
 6250SOL     OW30208   1.209   1.996   9.295  0.4607 -0.5459  0.4229
 6250SOL    HW130209   1.212   1.939   9.372  1.5032  1.6638  2.0078
 6250SOL    HW230210   1.148   2.058   9.335  0.8132 -0.1261  0.3069
 6251SOL     OW30211   4.686   3.868   4.824  0.0876 -0.4387  0.0455
 6251SOL    HW130212   4.664   3.929   4.754 -2.0125 -0.6151  0.5698
 6251SOL    HW230213   4.612   3.810   4.811 -0.7788  0.7077 -0.1327
 6252SOL     OW30214   2.448   2.791   5.137  0.2440  0.9037  0.3247
 6252SOL    HW130215   2.496   2.820   5.215 -2.3996  0.3032  2.1687
 6252SOL    HW230216   2.502   2.716   5.114  0.0861  0.6573  0.7681
 6253SOL     OW30217   4.656   0.259   2.434 -0.3708 -0.3389 -0.1445
 6253SOL    HW130218   4.567   0.260   2.399 -1.1941  2.5246  1.9750
 6253SOL    HW230219   4.709   0.298   2.364 -0.1216 -3.9591 -1.9593
 6254SOL     OW30220   0.246   0.117   7.068  0.5065 -0.0148 -0.3744
 6254SOL    HW130221   0.312   0.081   7.127 -2.3613 -2.8927  1.0624
 6254SOL    HW230222   0.199   0.036   7.051 -0.2244  0.1854  0.7042
 6255SOL     OW30223   3.060   2.431   7.696 -0.0964  0.0287 -0.2884
 6255SOL    HW130224   3.043   2.484   7.618  3.5375  0.5540 -0.7087
 6255SOL    HW230225   3.085   2.495   7.762  0.5893  0.0896 -0.6148
 6256SOL     OW30226   4.616   3.856   8.723 -0.1127  0.6537 -0.1121
 6256SOL    HW130227   4.624   3.935   8.670  0.8598 -0.2406 -1.3028
 6256SOL    HW230228   4.538   3.876   8.774 -0.0926  0.9710 -0.2024
 6257SOL     OW30229   3.450   3.886  16.579 -0.5953 -0.0768  0.2595
 6257SOL    HW130230   3.469   3.922  16.666 -0.1827 -1.0986  0.5913
 6257SOL    HW230231   3.471   3.960  16.521  3.2755 -0.7939  0.7416
 6258SOL     OW30232   1.984   0.789  13.258 -0.5136 -0.4536  0.5270
 6258SOL    HW130233   2.015   0.869  13.216 -0.3921 -2.4769 -3.2307
 6258SOL    HW230234   2.002   0.725  13.189 -1.3502 -0.5384  0.3984
 6259SOL     OW30235   0.199   0.500   0.387 -0.8876  0.2233  0.0684
 6259SOL    HW130236   0.270   0.554   0.422 -0.4961  0.7387 -1.4887
 6259SOL    HW230237   0.119   0.546   0.411 -0.1208  0.6449  1.7665
 6260SOL     OW30238   2.651   3.736   3.175  0.0250 -0.0085  0.3550
 6260SOL    HW130239   2.697   3.796   3.117 -1.7829 -0.2986 -1.4190
 6260SOL    HW230240   2.731   3.690   3.203  0.2081 -0.0121 -0.1800
 6261SOL     OW30241   2.895   1.142   6.731 -0.0507 -0.0431  0.0180
 6261SOL    HW130242   2.819   1.117   6.679 -1.7763  1.0114  2.0314
 6261SOL    HW230243   2.892   1.054   6.770  1.3489  0.6240  1.6585
 6262SOL     OW30244   2.551   4.338  12.306 -0.8182  0.0442 -0.0597
 6262SOL    HW130245   2.461   4.305  12.304 -1.6152  2.1948  1.0529
 6262SOL    HW230246   2.552   4.398  12.231 -0.3035  0.5344  0.3372
 6263SOL     OW30247   1.453   4.124   2.290  0.1167  0.2231 -0.2922
 6263SOL    HW130248   1.511   4.195   2.318  2.5297 -1.4057 -1.1369
 6263SOL    HW230249   1.368   4.167   2.300  0.4937  0.7184  0.7545
 6264SOL     OW30250   0.765   2.976  15.851  0.1980  0.2864  0.3133
 6264SOL    HW130251   0.823   2.942  15.783 -2.9872  0.6739 -2.5707
 6264SOL    HW230252   0.735   2.892  15.886  0.0300  0.6286  1.0078
 6265SOL     OW30253   4.044   3.426   4.263 -0.2665  0.0440 -0.3718
 6265SOL    HW130254   4.083   3.383   4.187 -0.2616  0.0850 -0.3928
 6265SOL    HW230255   3.977   3.477   4.218 -0.4592  0.8827  0.8651
 6266SOL     OW30256   4.086   1.220   7.814  0.4550 -0.3684 -0.2118
 6266SOL    HW130257   4.007   1.168   7.802  0.4407 -0.1474 -1.0817
 6266SOL    HW230258   4.148   1.182   7.752  0.2931 -0.9809  0.0068
 6267SOL     OW30259   1.947   4.578   8.249  0.1064 -0.3632 -0.0148
 6267SOL    HW130260   2.016   4.639   8.274  0.8891 -0.9676 -0.7358
 6267SOL    HW230261   1.905   4.550   8.330 -1.9243 -0.4374 -1.0786
 6268SOL     OW30262   4.399   2.783   3.718  0.0638 -0.1071 -0.3054
 6268SOL    HW130263   4.396   2.819   3.806 -1.6749 -1.5442  0.2263
 6268SOL    HW230264   4.404   2.861   3.663 -0.5984 -1.6315 -2.5437
 6269SOL     OW30265   4.613   1.107  14.513  0.3195 -0.2425 -0.1313
 6269SOL    HW130266   4.647   1.113  14.424 -0.3148 -1.3833 -0.4521
 6269SOL    HW230267   4.522   1.097  14.485  0.3696 -0.5335 -0.1933
 6270SOL     OW30268   3.121   2.902   6.079  0.0002 -0.1196  0.1801
 6270SOL    HW130269   3.162   2.959   6.014  0.9772  0.3001  1.1611
 6270SOL    HW230270   3.128   2.951   6.161 -2.4902 -1.2746  1.0928
 6271SOL     OW30271   3.418   1.911  11.315 -0.1810  0.8093 -0.7011
 6271SOL    HW130272   3.403   1.829  11.267  0.2343  0.8135 -0.8368
 6271SOL    HW230273   3.489   1.878  11.371  0.3766 -0.2314 -2.0239
 6272SOL     OW30274   3.485   0.482  17.178  0.1707 -0.0448 -0.1258
 6272SOL    HW130275   3.516   0.551  17.237 -0.6133  2.9958 -3.2869
 6272SOL    HW230276   3.541   0.489  17.101 -0.2929 -0.4438 -0.4982
 6273SOL     OW30277   2.550   3.172  14.064 -0.0659  0.5021  0.2916
 6273SOL    HW130278   2.473   3.119  14.084  0.2832 -0.5238 -1.0588
 6273SOL    HW230279   2.605   3.159  14.142  1.5459  1.3853 -0.6957
 6274SOL     OW30280   2.280   1.085   3.063 -0.1581  0.1502 -0.0776
 6274SOL    HW130281   2.295   0.991   3.074 -1.1113 -0.1241 -1.1348
 6274SOL    HW230282   2.190   1.095   3.092 -0.8732  0.7607 -2.4710
 6275SOL     OW30283   2.939   3.243   6.262  0.1734 -0.2894 -0.6196
 6275SOL    HW130284   2.963   3.332   6.236 -0.5819  0.2789  0.6249
 6275SOL    HW230285   3.025   3.205   6.246 -0.9468 -2.3237 -1.8149
 6276SOL     OW30286   0.379   1.022   7.573 -0.4246  0.1627 -0.0425
 6276SOL    HW130287   0.444   0.968   7.526  0.5557  1.1596  0.1780
 6276SOL    HW230288   0.435   1.079   7.624 -1.3082 -0.7756  1.9676
 6277SOL     OW30289   3.260   1.070   0.236  0.0835  0.0937  0.0652
 6277SOL    HW130290   3.327   1.117   0.186  1.0199  0.9296  2.0711
 6277SOL    HW230291   3.288   0.979   0.241 -1.7252 -0.4680 -0.0682
 6278SOL     OW30292   1.901   3.573   9.049  0.3081 -0.4531 -0.1759
 6278SOL    HW130293   1.842   3.646   9.064  0.8816 -0.2629  1.1219
 6278SOL    HW230294   1.979   3.600   9.097 -1.2024 -0.0664  2.0403
 6279SOL     OW30295   3.673   4.556  12.408 -0.5630 -0.0331  0.2727
 6279SOL    HW130296   3.742   4.504  12.368 -1.8456 -1.2843 -0.3124
 6279SOL    HW230297   3.602   4.507  12.366 -1.9038  1.5193  0.7243
 6280SOL     OW30298   1.108   1.756  17.497  0.8340  0.1706  0.0387
 6280SOL    HW130299   1.194   1.796  17.507  1.1542 -0.8845  1.4295
 6280SOL    HW230300   1.106   1.753  17.401 -3.5591  4.3648 -0.0075
 6281SOL     OW30301   2.259   4.080   2.104  0.3914  0.1342  0.3716
 6281SOL    HW130302   2.237   4.009   2.165 -2.7038 -0.6301 -1.6281
 6281SOL    HW230303   2.174   4.122   2.107  1.0024  1.3065  1.3536
 6282SOL     OW30304   4.493   0.186  15.239 -0.3429  0.3142 -0.4227
 6282SOL    HW130305   4.512   0.130  15.163  1.9519  1.0925 -0.4056
 6282SOL    HW230306   4.471   0.267  15.193  2.0946  0.0850 -1.9636
 6283SOL     OW30307   0.788   1.134   7.169 -0.5018  0.0771 -1.0781
 6283SOL    HW130308   0.862   1.128   7.109 -1.8317 -0.0979 -2.6923
 6283SOL    HW230309   0.730   1.064   7.140 -0.7185 -0.1171 -0.1706
 6284SOL     OW30310   4.691   1.851   2.574  0.0366  0.1425 -0.2535
 6284SOL    HW130311   0.032   1.802   2.521 -0.0841 -0.1063 -0.1712
 6284SOL    HW230312   4.652   1.774   2.616 -0.7431 -0.2206 -1.6486
 6285SOL     OW30313   0.125   3.638  11.821  0.5938 -0.3379  0.0915
 6285SOL    HW130314   0.163   3.652  11.734  0.7404  1.9621  0.5213
 6285SOL    HW230315   0.049   3.695  11.810  2.8109  2.6015 -0.1420
 6286SOL     OW30316   3.791   1.496  14.811 -0.0264 -0.3575  0.0246
 6286SOL    HW130317   3.737   1.426  14.848 -0.6863  0.1014 -0.0722
 6286SOL    HW230318   3.876   1.468  14.846  0.5678  1.0968 -0.2629
 6287SOL     OW30319   3.227   1.966   4.170 -0.5773 -0.3214 -0.2902
 6287SOL    HW130320   3.178   1.938   4.092 -3.7986 -0.7687  1.8540
 6287SOL    HW230321   3.168   2.040   4.185 -0.1746 -0.6734  2.9012
 6288SOL     OW30322   1.595   1.014  16.920 -0.3575 -0.1913  1.0150
 6288SOL    HW130323   1.618   1.058  17.002  0.8806  1.8779 -0.4484
 6288SOL    HW230324   1.552   1.079  16.864 -0.6612  1.1331  2.7877
 6289SOL     OW30325   2.978   0.268   9.830 -0.0724  0.2983 -0.4974
 6289SOL    HW130326   3.010   0.233   9.746 -1.9348 -2.2424 -0.1531
 6289SOL    HW230327   2.888   0.295   9.811 -0.3365  0.9130  1.6072
 6290SOL     OW30328   3.616   1.690   7.848  0.1888  0.3118 -0.6952
 6290SOL    HW130329   3.601   1.596   7.858 -0.2598  0.5787  1.2272
 6290SOL    HW230330   3.686   1.688   7.783  2.4153 -2.1739  1.7244
 6291SOL     OW30331   1.038   1.709   4.796 -0.4230  0.0239  0.1890
 6291SOL    HW130332   0.983   1.668   4.729  0.7267 -0.9389 -0.1536
 6291SOL    HW230333   1.060   1.793   4.756  0.7986 -0.7111 -0.6426
 6292SOL     OW30334   1.780   3.315   9.810 -0.2194 -0.1314 -0.2683
 6292SOL    HW130335   1.748   3.405   9.820  1.2838  0.3735  0.0004
 6292SOL    HW230336   1.728   3.287   9.735 -2.9365  0.5174  1.3295
 6293SOL     OW30337   3.123   1.765   5.789 -0.4471 -0.6620 -0.4479
 6293SOL    HW130338   3.105   1.672   5.798 -2.4415 -0.0032  2.1001
 6293SOL    HW230339   3.085   1.786   5.704  0.6179  1.0157 -0.5342
 6294SOL     OW30340   3.366   3.850  12.826 -0.1819 -0.3011  0.1945
 6294SOL    HW130341   3.323   3.781  12.877  0.6466 -1.6308 -0.9241
 6294SOL    HW230342   3.298   3.870  12.762  0.6270  0.1702 -0.5171
 6295SOL     OW30343   3.693   4.537   6.589 -0.3217 -0.2184  0.5492
 6295SOL    HW130344   3.651   4.610   6.635 -1.1786 -0.6988  0.5381
 6295SOL    HW230345   3.613   4.495   6.556 -0.1083  0.3000 -0.6300
 6296SOL     OW30346   1.132   3.340   3.647 -0.1983 -0.0521  0.1410
 6296SOL    HW130347   1.105   3.382   3.729  3.9193  1.0928  0.9109
 6296SOL    HW230348   1.053   3.301   3.608 -1.1672  1.6464  0.4146
 6297SOL     OW30349   3.113   1.889   5.351  0.2019  0.5737 -0.2651
 6297SOL    HW130350   3.153   1.902   5.265 -0.3459 -1.1177 -0.7723
 6297SOL    HW230351   3.146   1.802   5.374  1.3944  0.7703 -1.2438
 6298SOL     OW30352   0.582   2.495  11.899 -0.0388  0.0485 -0.2174
 6298SOL    HW130353   0.644   2.424  11.884 -0.6334 -0.6055  0.4517
 6298SOL    HW230354   0.571   2.521  11.808  1.1594 -0.3087 -0.4611
 6299SOL     OW30355   4.673   4.163  13.298  0.1694 -0.0662  0.4096
 6299SOL    HW130356   4.593   4.210  13.276  1.4206  1.5177 -0.8257
 6299SOL    HW230357   4.640   4.113  13.372 -2.9337  1.3696 -0.0178
 6300SOL     OW30358   1.461   0.551   8.683  0.2795 -0.0975  0.4459
 6300SOL    HW130359   1.430   0.616   8.746  0.2806  0.0690  0.2731
 6300SOL    HW230360   1.475   0.615   8.614 -0.8310  0.3997  0.6928
 6301SOL     OW30361   2.136   3.368   8.932  0.0182 -0.3198  0.2553
 6301SOL    HW130362   2.076   3.430   8.972  1.2356  1.4751 -0.6977
 6301SOL    HW230363   2.078   3.307   8.886  1.9114 -1.2073 -0.9660
 6302SOL     OW30364   3.955   4.714   4.431  0.2974 -0.0062  0.1811
 6302SOL    HW130365   3.966   0.035   4.515 -0.1794 -0.9935  0.7557
 6302SOL    HW230366   4.031   0.012   4.376 -0.3360  0.5299 -0.4917
 6303SOL     OW30367   3.010   3.359  11.797  0.2184 -0.2479  0.3144
 6303SOL    HW130368   3.055   3.336  11.878  0.5768 -2.5557 -0.5474
 6303SOL    HW230369   3.082   3.350  11.735 -0.2887 -2.1577  0.0264
 6304SOL     OW30370   4.422   2.384   7.018  0.3077  0.1357  0.3088
 6304SOL    HW130371   4.347   2.326   7.032  1.0444 -0.3198  2.3317
 6304SOL    HW230372   4.488   2.328   7.059 -0.1244  0.2961  1.2231
 6305SOL     OW30373   2.308   3.932   8.707  0.5740 -0.6068  0.5919
 6305SOL    HW130374   2.256   3.895   8.779  0.8290 -0.4041  0.8791
 6305SOL    HW230375   2.263   4.011   8.679  1.0090 -0.7657 -0.5455
 6306SOL     OW30376   3.433   2.081   1.695  0.5054 -0.2237  0.6076
 6306SOL    HW130377   3.523   2.095   1.723 -0.1658  2.4362  1.4258
 6306SOL    HW230378   3.441   2.070   1.600 -0.2480 -1.8195  0.7229
 6307SOL     OW30379   1.884   3.272   5.356 -0.3064 -1.0146 -0.5951
 6307SOL    HW130380   1.801   3.251   5.314  0.0236 -1.4209 -1.0583
 6307SOL    HW230381   1.845   3.314   5.432 -0.2320 -2.3874  0.2067
 6308SOL     OW30382   1.883   4.282   6.917 -0.2370 -0.1901 -0.5787
 6308SOL    HW130383   1.911   4.319   6.833  1.6961  0.3742  0.3025
 6308SOL    HW230384   1.825   4.353   6.946 -0.6497 -0.9793  0.5318
 6309SOL     OW30385   1.599   1.234   2.145 -0.0132  0.3718 -0.2872
 6309SOL    HW130386   1.695   1.239   2.146  0.0325 -0.8814  0.9301
 6309SOL    HW230387   1.567   1.278   2.066  0.8234 -3.0313 -2.4941
 6310SOL     OW30388   3.439   3.430   0.577 -0.2837 -0.0710  0.1116
 6310SOL    HW130389   3.375   3.467   0.638  0.2324  0.6969  0.1889
 6310SOL    HW230390   3.518   3.435   0.631 -0.3359  1.1337  0.0696
 6311SOL     OW30391   4.500   1.156   1.279 -0.0282  0.1037  0.6057
 6311SOL    HW130392   4.410   1.166   1.249  0.1736 -2.5971 -0.8758
 6311SOL    HW230393   4.559   1.167   1.203 -0.9092  4.1768  0.4813
 6312SOL     OW30394   4.377   2.925   7.055  0.4986 -0.5103  0.0498
 6312SOL    HW130395   4.429   2.968   7.122  0.0963 -1.1184  0.7637
 6312SOL    HW230396   4.318   2.879   7.115 -0.7630 -0.8963 -1.4945
 6313SOL     OW30397   2.709   2.977  16.147 -0.0207  0.3815 -0.2105
 6313SOL    HW130398   2.647   3.002  16.215 -1.2946 -0.5698 -1.0325
 6313SOL    HW230399   2.787   2.985  16.202  0.7758  0.7771 -1.3657
 6314SOL     OW30400   1.510   4.240   1.256  0.2315  0.3313 -0.2511
 6314SOL    HW130401   1.522   4.335   1.245  1.6957  0.2676  0.8604
 6314SOL    HW230402   1.575   4.218   1.322 -1.5410 -0.6480  1.1674
 6315SOL     OW30403   2.558   4.115   6.446 -0.1170 -0.1602 -0.0595
 6315SOL    HW130404   2.465   4.109   6.468 -0.5284  0.4886 -1.6059
 6315SOL    HW230405   2.559   4.204   6.412  1.5402  0.2084  0.9831
 6316SOL     OW30406   1.439   4.602   6.896  0.3767  0.8808  0.0651
 6316SOL    HW130407   1.471   4.691   6.878 -0.1432  1.5976  2.6701
 6316SOL    HW230408   1.508   4.553   6.941 -1.3960  0.8191  2.7113
 6317SOL     OW30409   2.949   0.536  10.635 -0.1699  0.2655  0.0428
 6317SOL    HW130410   2.948   0.592  10.557 -0.5517  0.0369 -0.1136
 6317SOL    HW230411   3.022   0.573  10.685  0.5764 -2.6747  1.1214
 6318SOL     OW30412   0.389   4.255   6.267 -0.2683  0.4960 -0.0950
 6318SOL    HW130413   0.451   4.187   6.241 -0.2083  0.8396 -0.8510
 6318SOL    HW230414   0.321   4.249   6.200  0.8419 -0.6164 -1.1128
 6319SOL     OW30415   3.658   0.798  17.205  0.0298 -0.6912  0.4406
 6319SOL    HW130416   3.577   0.825  17.161  1.9252 -0.2914 -2.8604
 6319SOL    HW230417   3.631   0.802  17.296 -3.1525  0.6928 -0.5459
 6320SOL     OW30418   3.548   1.723  17.399  0.4748  0.0434  0.0550
 6320SOL    HW130419   3.628   1.770  17.424  1.2567 -0.5528 -1.2703
 6320SOL    HW230420   3.581   1.662  17.332  0.3573  0.1128 -0.0639
 6321SOL     OW30421   2.988   1.979   7.041 -0.2827  0.2145  0.2227
 6321SOL    HW130422   2.958   2.059   7.083  0.8589  0.9621 -0.3858
 6321SOL    HW230423   2.964   1.916   7.109 -1.1372 -1.1282 -1.3093
 6322SOL     OW30424   0.155   4.085   7.486 -0.1269  0.0917 -0.5523
 6322SOL    HW130425   0.196   3.998   7.487 -0.5264 -0.1088 -1.4854
 6322SOL    HW230426   0.215   4.139   7.538 -0.2544  0.2384 -0.5595
 6323SOL     OW30427   2.016   4.610   7.741  0.0030  0.3706  0.7452
 6323SOL    HW130428   1.945   4.591   7.679 -0.1811  1.5901  0.5806
 6323SOL    HW230429   1.960   4.635   7.814 -1.8059 -0.7833 -0.2268
 6324SOL     OW30430   2.818   0.355   5.000  0.1179  0.3005 -0.3751
 6324SOL    HW130431   2.878   0.403   5.056  0.0657  0.8646 -0.7957
 6324SOL    HW230432   2.735   0.338   5.044  0.0490 -0.0236 -0.6266
 6325SOL     OW30433   1.969   0.442  14.717  0.4768  0.5789  0.0115
 6325SOL    HW130434   2.059   0.425  14.743  0.1587 -0.7238  0.2743
 6325SOL    HW230435   1.974   0.403  14.630  1.5791  0.4366  0.1388
 6326SOL     OW30436   2.575   1.930   0.297  0.5051  0.3070  0.0388
 6326SOL    HW130437   2.585   1.890   0.210  1.5027  0.0934  0.2501
 6326SOL    HW230438   2.567   1.855   0.357 -1.1987  0.9258  0.5905
 6327SOL     OW30439   1.794   2.232   4.599  0.1760 -0.1020  0.2690
 6327SOL    HW130440   1.792   2.307   4.658 -0.8178  0.4354 -0.4463
 6327SOL    HW230441   1.788   2.277   4.515  1.7259 -0.8240 -0.2284
 6328SOL     OW30442   3.821   2.406   9.088 -0.3287 -0.2016  0.3836
 6328SOL    HW130443   3.886   2.476   9.090  1.4651 -1.8049 -0.2636
 6328SOL    HW230444   3.760   2.461   9.137  0.1949 -1.0192  1.9659
 6329SOL     OW30445   1.988   3.046   9.167  0.2792  0.5233  0.1918
 6329SOL    HW130446   1.995   2.952   9.150  2.6222  0.8853 -0.9445
 6329SOL    HW230447   1.968   3.087   9.083  0.4138  2.3803  1.0587
 6330SOL     OW30448   0.622   3.306   6.644  0.0954  0.2038 -0.1259
 6330SOL    HW130449   0.581   3.276   6.725 -0.5697  1.0956 -0.1257
 6330SOL    HW230450   0.661   3.222   6.619  0.2620  0.4399 -0.6668
 6331SOL     OW30451   0.277   1.525   9.213  0.3172 -0.2263 -0.2307
 6331SOL    HW130452   0.285   1.496   9.304 -0.1221 -1.1544 -0.4977
 6331SOL    HW230453   0.324   1.609   9.220 -2.2088  1.1628  0.0617
 6332SOL     OW30454   1.916   2.018   4.250  0.3394  1.1414  0.3067
 6332SOL    HW130455   1.987   2.062   4.296  1.5533 -0.0718 -0.4182
 6332SOL    HW230456   1.875   2.081   4.189 -1.4220  0.3861  0.7092
 6333SOL     OW30457   3.432   1.076   3.207  0.2375  0.6439 -0.0154
 6333SOL    HW130458   3.446   1.164   3.242 -0.5503  0.2135  1.3998
 6333SOL    HW230459   3.372   1.087   3.134 -0.9108 -2.8807  0.3986
 6334SOL     OW30460   3.507   4.687  12.643  0.4310 -0.6157 -0.2163
 6334SOL    HW130461   3.547   0.048  12.617 -2.8319  0.2943 -2.3768
 6334SOL    HW230462   3.526   4.640  12.562 -0.4103  0.0977 -0.8312
 6335SOL     OW30463   1.435   1.226   4.044  0.1171 -0.3400 -0.0862
 6335SOL    HW130464   1.421   1.138   4.079 -2.0540  1.0014  2.3477
 6335SOL    HW230465   1.421   1.200   3.952 -1.1350 -2.7213  0.7714
 6336SOL     OW30466   2.760   3.074   8.566  0.0895 -0.1498 -0.0643
 6336SOL    HW130467   2.754   3.162   8.603  0.8070  0.4544 -1.3877
 6336SOL    HW230468   2.720   3.086   8.480  0.9314 -1.2103 -0.6106
 6337SOL     OW30469   3.737   1.077   0.975 -0.4260  0.2382 -0.0628
 6337SOL    HW130470   3.747   1.119   0.890 -2.8436 -2.2748 -1.5817
 6337SOL    HW230471   3.644   1.055   0.976  0.5883 -4.1702 -3.0968
 6338SOL     OW30472   2.008   0.137   1.612  0.1178 -0.3313  0.9103
 6338SOL    HW130473   1.997   0.210   1.673 -0.4754 -1.7744  2.5152
 6338SOL    HW230474   1.968   0.070   1.668 -1.8228 -0.1465 -0.2326
 6339SOL     OW30475   2.972   4.323  14.867 -0.0518  0.4013  0.2489
 6339SOL    HW130476   2.960   4.379  14.791  0.3782 -0.8757 -0.7563
 6339SOL    HW230477   2.914   4.370  14.928 -1.9899 -2.2025  0.3804
 6340SOL     OW30478   2.707   1.853   2.377  0.6048  0.1691 -0.1511
 6340SOL    HW130479   2.638   1.919   2.371  0.6176  0.3651  1.9191
 6340SOL    HW230480   2.695   1.793   2.303 -2.3717 -2.0205  2.1016
 6341SOL     OW30481   3.996   3.314   8.319 -0.8122 -0.0219 -0.2282
 6341SOL    HW130482   3.989   3.391   8.262  0.9090  0.8301  0.7086
 6341SOL    HW230483   3.969   3.245   8.260 -1.4884  1.5227 -1.7222
 6342SOL     OW30484   4.206   1.684   7.183 -0.2714  0.1719  0.3732
 6342SOL    HW130485   4.199   1.625   7.258 -0.1543 -1.2760 -0.7575
 6342SOL    HW230486   4.205   1.617   7.114 -0.0324  0.6913 -0.1294
 6343SOL     OW30487   3.648   2.211   0.151 -0.7439 -0.2318 -0.2658
 6343SOL    HW130488   3.693   2.246   0.228  0.5459  2.1330 -2.0865
 6343SOL    HW230489   3.562   2.254   0.157 -0.2302  0.8254 -0.3952
 6344SOL     OW30490   4.328   0.207  14.219 -0.4739  0.0550 -0.7946
 6344SOL    HW130491   4.253   0.181  14.166  0.3521 -2.7469 -0.5698
 6344SOL    HW230492   4.386   0.133  14.202  1.6665  1.4088  0.6531
 6345SOL     OW30493   3.116   2.235   2.543  0.7301  0.5582 -0.0616
 6345SOL    HW130494   3.209   2.237   2.565  1.3778  1.1289 -2.8130
 6345SOL    HW230495   3.108   2.315   2.490 -0.0364  2.7645  3.3994
 6346SOL     OW30496   4.553   0.219   4.883 -0.2081  0.0268 -0.1622
 6346SOL    HW130497   4.644   0.241   4.862 -0.7528  2.4149  0.0405
 6346SOL    HW230498   4.562   0.123   4.886  0.7397  0.1896  2.9646
 6347SOL     OW30499   3.494   3.329   3.749 -0.0053 -0.3375  0.2219
 6347SOL    HW130500   3.582   3.310   3.715  0.5561 -0.3299  1.6988
 6347SOL    HW230501   3.475   3.246   3.791  1.1932 -0.1373  1.1585
 6348SOL     OW30502   2.222   1.810  17.243 -0.1867 -0.3488  0.1097
 6348SOL    HW130503   2.171   1.809  17.324  1.7679  1.9220  1.3619
 6348SOL    HW230504   2.154   1.815  17.176 -0.2666 -2.2111  0.0550
 6349SOL     OW30505   4.481   2.265   2.248  0.1247 -0.2026 -0.0783
 6349SOL    HW130506   4.569   2.296   2.225  0.5827 -0.2897  1.5459
 6349SOL    HW230507   4.498   2.215   2.327 -0.5371  1.0368  0.8462
 6350SOL     OW30508   0.973   1.077   9.381 -0.4983 -0.0688  0.5852
 6350SOL    HW130509   0.964   1.066   9.476  1.7454 -0.5775  0.7344
 6350SOL    HW230510   0.883   1.099   9.357  0.7542  2.5640 -1.7321
 6351SOL     OW30511   4.050   3.990   6.055 -0.0149  0.0101 -0.3299
 6351SOL    HW130512   4.142   4.009   6.072 -0.3376  1.3189 -0.0527
 6351SOL    HW230513   4.056   4.003   5.961 -0.5490 -1.5874 -0.5913
 6352SOL     OW30514   1.050   3.853  12.222  0.0895 -0.4088  0.1944
 6352SOL    HW130515   1.101   3.833  12.300  1.6159  1.1835 -0.4100
 6352SOL    HW230516   0.964   3.845  12.263  0.4270 -2.0625  0.5827
 6353SOL     OW30517   1.293   3.054   3.877  0.6640 -0.5786 -0.3234
 6353SOL    HW130518   1.368   2.995   3.869 -1.9707 -4.1666  1.1797
 6353SOL    HW230519   1.222   3.000   3.843 -1.0132  0.6339  1.2391
 6354SOL     OW30520   3.144   0.617  17.599 -0.3123 -0.4701 -0.4543
 6354SOL    HW130521   3.214   0.613  17.534  0.9748  0.2119  0.8779
 6354SOL    HW230522   3.165   0.543  17.655 -0.4339  1.6758  2.4275
 6355SOL     OW30523   4.370   1.058  14.418 -0.2917 -0.0306  0.1053
 6355SOL    HW130524   4.309   1.072  14.346  3.3314  0.1332 -2.9426
 6355SOL    HW230525   4.305   1.053  14.488  0.2223 -2.7268  0.3898
 6356SOL     OW30526   4.513   2.294   9.157  0.4943  0.3599  0.2236
 6356SOL    HW130527   4.512   2.230   9.086 -0.1129  1.6105 -0.8830
 6356SOL    HW230528   4.483   2.372   9.111  1.2756 -0.0225 -0.9292
 6357SOL     OW30529   4.132   1.954   4.273  0.1596  0.0068  0.2213
 6357SOL    HW130530   4.107   2.041   4.241  1.5233 -0.8021 -2.9807
 6357SOL    HW230531   4.220   1.973   4.308 -0.4256  1.4994  0.9160
 6358SOL     OW30532   2.611   0.454  11.252  0.1807 -0.2387 -0.2024
 6358SOL    HW130533   2.685   0.454  11.313  1.7444 -2.6542 -2.1202
 6358SOL    HW230534   2.631   0.370  11.211  0.1994  0.1972 -1.1041
 6359SOL     OW30535   2.895   2.600  13.080 -0.1046 -0.1542 -0.5405
 6359SOL    HW130536   2.891   2.642  12.993  1.9593  0.5870 -0.2728
 6359SOL    HW230537   2.969   2.541  13.067  1.1594  1.0351  1.2018
 6360SOL     OW30538   4.477   1.307  14.092  0.0325 -0.6537  0.3318
 6360SOL    HW130539   4.508   1.232  14.041  1.0105 -0.3919  0.5529
 6360SOL    HW230540   4.529   1.287  14.170  1.2440 -2.7535 -1.0171
 6361SOL     OW30541   2.909   3.079   7.204 -0.3811  0.1527 -0.1869
 6361SOL    HW130542   2.974   3.044   7.265 -0.9417  0.9789  0.8904
 6361SOL    HW230543   2.827   3.053   7.247  0.0354  3.0021  2.3118
 6362SOL     OW30544   2.451   2.903   0.284  0.0231 -0.1273 -0.7630
 6362SOL    HW130545   2.361   2.873   0.294  0.3365 -0.4090  1.2077
 6362SOL    HW230546   2.475   2.926   0.374 -3.1908  0.2527 -0.0178
 6363SOL     OW30547   1.669   1.578   7.679 -1.0049 -0.0930 -0.1428
 6363SOL    HW130548   1.604   1.522   7.722  1.6786 -1.8881  1.5646
 6363SOL    HW230549   1.722   1.504   7.648 -1.5119 -0.4452 -0.1682
 6364SOL     OW30550   1.500   3.716   4.893  0.2164  0.2091 -0.0408
 6364SOL    HW130551   1.521   3.766   4.971  2.3596 -2.2444  0.9290
 6364SOL    HW230552   1.447   3.785   4.853  1.3061  0.5342 -0.9247
 6365SOL     OW30553   1.487   3.977   8.998 -0.3227  0.2148  0.1961
 6365SOL    HW130554   1.398   3.959   9.029  0.2790  0.4722  2.0695
 6365SOL    HW230555   1.522   3.889   9.011  0.8251  0.9965  2.3385
 6366SOL     OW30556   4.710   1.601   2.703 -0.4565  0.3340  0.0443
 6366SOL    HW130557   0.071   1.554   2.715 -0.1412  1.3247  1.6544
 6366SOL    HW230558   4.656   1.585   2.780 -1.2729  1.4193 -0.3061
 6367SOL     OW30559   0.836   3.584   7.002  0.3538 -0.0906 -0.1377
 6367SOL    HW130560   0.816   3.495   7.030 -1.6526  0.9815  1.7914
 6367SOL    HW230561   0.824   3.620   7.090  0.4629  2.6504 -1.2437
 6368SOL     OW30562   0.548   3.414   3.099 -0.4660 -0.4679 -0.2738
 6368SOL    HW130563   0.491   3.411   3.176  0.1226  0.1761  0.1958
 6368SOL    HW230564   0.627   3.373   3.136  0.1294  0.5706 -0.3925
 6369SOL     OW30565   4.144   2.174   4.775 -0.4360  0.1531 -0.0035
 6369SOL    HW130566   4.108   2.105   4.831  3.8953 -2.3861 -0.3374
 6369SOL    HW230567   4.125   2.255   4.821 -1.1396  0.5670 -1.0372
 6370SOL     OW30568   0.740   2.137   7.976 -0.8298 -0.1157 -0.3381
 6370SOL    HW130569   0.788   2.220   7.973 -1.5227  0.2783 -0.5217
 6370SOL    HW230570   0.664   2.179   8.015 -1.4927 -1.6315 -0.0063
 6371SOL     OW30571   1.913   4.434   6.662 -0.1283  0.2410 -0.1133
 6371SOL    HW130572   1.954   4.441   6.575 -0.8525  0.8016 -0.4125
 6371SOL    HW230573   1.828   4.476   6.647 -0.4513 -0.2444  0.3962
 6372SOL     OW30574   1.690   0.645   2.982  0.7845  0.5671  0.6560
 6372SOL    HW130575   1.765   0.594   2.952 -0.0730  0.6053 -1.5662
 6372SOL    HW230576   1.662   0.690   2.903 -2.1641 -1.1976  0.6811
 6373SOL     OW30577   2.915   3.157  15.574 -0.5681 -0.1756 -0.7372
 6373SOL    HW130578   2.983   3.163  15.507  0.4197  1.1848  0.3866
 6373SOL    HW230579   2.884   3.247  15.572  0.4474  0.1963  0.0494
 6374SOL     OW30580   2.580   1.736  11.245  0.5539 -0.4623  0.5170
 6374SOL    HW130581   2.579   1.748  11.150 -1.1490 -1.2626  0.4303
 6374SOL    HW230582   2.615   1.647  11.253  0.8715 -0.3377  0.5055
 6375SOL     OW30583   4.561   3.293   3.172 -0.4290  0.5321  0.1152
 6375SOL    HW130584   4.546   3.242   3.092 -1.2411 -1.3292  1.4617
 6375SOL    HW230585   4.469   3.303   3.196 -0.8070  1.6406 -1.7539
 6376SOL     OW30586   0.323   2.519  10.050 -0.3171 -0.3790 -0.0669
 6376SOL    HW130587   0.359   2.566   9.975 -1.2560 -1.7353 -1.3679
 6376SOL    HW230588   0.235   2.492  10.024  0.0525 -0.9777 -0.6813
 6377SOL     OW30589   1.180   3.085   0.706  0.1091  0.0718  0.0944
 6377SOL    HW130590   1.269   3.115   0.686 -1.0198  2.3191 -1.5782
 6377SOL    HW230591   1.174   3.012   0.645 -1.8413 -0.7115  1.2341
 6378SOL     OW30592   1.645   1.398  13.446  0.5338 -0.5666  0.0706
 6378SOL    HW130593   1.653   1.311  13.487  1.9983 -0.4170  0.0855
 6378SOL    HW230594   1.549   1.406  13.443  0.8229  2.3352 -1.4159
 6379SOL     OW30595   2.989   2.101   5.984  0.7828  0.1209 -0.7074
 6379SOL    HW130596   2.925   2.169   5.962  0.2113 -0.9424 -2.2740
 6379SOL    HW230597   2.931   2.025   5.986 -0.4151  1.0571  0.1407
 6380SOL     OW30598   1.558   1.497   2.427 -0.7428 -1.0894  0.1430
 6380SOL    HW130599   1.559   1.517   2.334  0.8820  1.1645  0.6262
 6380SOL    HW230600   1.482   1.547   2.457  0.6977  0.7752  0.7110
 6381SOL     OW30601   4.544   3.280   6.846 -0.0089  0.0413 -0.6575
 6381SOL    HW130602   4.473   3.220   6.867 -1.2287  0.5845 -3.2031
 6381SOL    HW230603   4.491   3.342   6.796 -0.6417 -0.0047 -0.0397
 6382SOL     OW30604   2.739   0.093   3.214  0.2244 -0.3614  0.2950
 6382SOL    HW130605   2.727   4.720   3.208  0.1797 -0.3413  0.0595
 6382SOL    HW230606   2.822   0.107   3.168  1.0601  1.1148  2.2560
 6383SOL     OW30607   2.088   2.634   3.930 -0.0771 -0.7648  0.1784
 6383SOL    HW130608   2.011   2.669   3.975 -2.1999 -1.0961 -3.2085
 6383SOL    HW230609   2.149   2.614   4.001  1.1325 -0.0998 -0.6684
 6384SOL     OW30610   1.395   4.615   3.667 -0.0810 -0.1232  0.5905
 6384SOL    HW130611   1.399   4.541   3.607 -0.7347 -0.6304  1.1780
 6384SOL    HW230612   1.407   4.690   3.608  1.1918 -0.1505  0.7951
 6385SOL     OW30613   0.528   0.277   2.809 -0.1298 -0.3510 -0.0172
 6385SOL    HW130614   0.453   0.276   2.868 -0.2700  0.5904 -0.1806
 6385SOL    HW230615   0.492   0.236   2.730 -0.7854  2.0164 -0.9452
 6386SOL     OW30616   0.617   3.735   8.254  0.5257 -0.0803 -0.1224
 6386SOL    HW130617   0.533   3.705   8.218  0.3386 -1.0953  1.1435
 6386SOL    HW230618   0.644   3.787   8.179 -1.8648  0.4515 -0.6198
 6387SOL     OW30619   0.088   2.731  12.580 -0.3838 -0.0612 -0.2536
 6387SOL    HW130620   0.153   2.702  12.517 -0.0556 -1.2491  0.6337
 6387SOL    HW230621   0.014   2.749  12.522 -3.2664 -2.0876  2.7911
 6388SOL     OW30622   1.387   0.881  12.346  0.3562  0.4216  0.3061
 6388SOL    HW130623   1.334   0.912  12.272  1.5278 -0.6308 -0.9761
 6388SOL    HW230624   1.444   0.816  12.304 -0.4124  1.8929 -3.0489
 6389SOL     OW30625   3.335   2.737  10.848 -0.3846 -0.0219  0.3961
 6389SOL    HW130626   3.353   2.817  10.898 -1.2478 -0.1038  0.8352
 6389SOL    HW230627   3.420   2.734  10.803 -1.1642 -0.4698 -1.0696
 6390SOL     OW30628   0.168   0.759   1.560 -0.1557  0.6091 -0.1677
 6390SOL    HW130629   0.150   0.728   1.471  0.2323  0.7065 -0.2792
 6390SOL    HW230630   0.143   0.686   1.617 -0.4337  0.2685 -0.7254
 6391SOL     OW30631   0.434   0.493  11.576 -0.0060 -0.1611 -0.8581
 6391SOL    HW130632   0.379   0.425  11.536 -0.0609 -0.3257 -0.5104
 6391SOL    HW230633   0.518   0.451  11.557  0.0433 -1.4376  2.1160
 6392SOL     OW30634   2.812   2.309   8.190 -0.6876 -0.0072  0.1578
 6392SOL    HW130635   2.848   2.360   8.263  0.8100  0.6034 -1.0305
 6392SOL    HW230636   2.750   2.252   8.235 -0.4305 -0.1838  0.2875
 6393SOL     OW30637   2.622   1.685  13.201  0.3738  0.1559  0.1325
 6393SOL    HW130638   2.535   1.670  13.239  0.2766 -0.5329 -0.3764
 6393SOL    HW230639   2.606   1.663  13.109 -1.2969  3.1459 -0.3081
 6394SOL     OW30640   3.403   2.716  12.473  0.3714 -0.1884 -0.9075
 6394SOL    HW130641   3.456   2.717  12.553  0.0982  0.1493 -0.7290
 6394SOL    HW230642   3.456   2.764  12.409  2.0022 -1.7007 -0.6797
 6395SOL     OW30643   2.746   3.070  12.129  0.5581  0.4902  0.2399
 6395SOL    HW130644   2.803   3.008  12.085  0.9125 -0.4519  2.0004
 6395SOL    HW230645   2.662   3.053  12.086  0.2648  2.0593  0.1774
 6396SOL     OW30646   3.817   4.034   4.868  0.2554 -0.2104 -0.0465
 6396SOL    HW130647   3.896   4.019   4.816  0.2848 -1.3272  0.3105
 6396SOL    HW230648   3.848   4.030   4.959  1.4991  0.7260 -0.4193
 6397SOL     OW30649   1.225   0.701  14.163  0.1667 -0.0668 -0.4809
 6397SOL    HW130650   1.169   0.660  14.097 -0.2218  0.3856 -0.4344
 6397SOL    HW230651   1.284   0.756  14.111 -0.3997  0.3481 -0.6853
 6398SOL     OW30652   3.970   1.627   2.381 -0.5376  0.4534 -0.3216
 6398SOL    HW130653   4.010   1.665   2.459  1.0095  2.2734 -1.9975
 6398SOL    HW230654   3.877   1.635   2.404 -0.8513 -2.8471 -0.3510
 6399SOL     OW30655   0.025   3.452   7.128 -0.0324  0.5643  0.7761
 6399SOL    HW130656   0.090   3.515   7.155  0.3307  0.5570 -0.0631
 6399SOL    HW230657   4.674   3.455   7.189 -0.6017 -0.9868  0.1752
 6400SOL     OW30658   0.408   0.372   5.029 -0.1155 -0.0387  0.3340
 6400SOL    HW130659   0.430   0.459   4.993  0.8933 -0.7461 -0.7814
 6400SOL    HW230660   0.394   0.315   4.954 -0.2056  0.4056  0.0093
 6401SOL     OW30661   3.926   0.859   8.284 -0.3211  0.2268  0.3930
 6401SOL    HW130662   3.887   0.806   8.354  1.7385  1.8842  2.8244
 6401SOL    HW230663   4.012   0.820   8.268 -0.5467 -0.8193  1.7343
 6402SOL     OW30664   0.963   3.763   2.446  0.2683 -0.3331 -0.4127
 6402SOL    HW130665   0.889   3.716   2.408 -0.8509 -0.7199  2.2305
 6402SOL    HW230666   1.000   3.690   2.496  1.3196  0.1122 -0.5478
 6403SOL     OW30667   4.720   2.737  13.093 -0.1707 -0.1832 -0.6509
 6403SOL    HW130668   0.001   2.775  13.181  2.5200 -3.0913  0.4750
 6403SOL    HW230669   4.644   2.784  13.057 -0.4697 -2.6226 -3.1841
 6404SOL     OW30670   3.954   2.471   5.782  0.2921  0.0041  0.4924
 6404SOL    HW130671   4.017   2.420   5.730  0.5977 -0.1338  0.9946
 6404SOL    HW230672   3.873   2.442   5.740  1.5529 -1.6796 -0.8209
 6405SOL     OW30673   0.421   3.477   6.581  0.3138 -0.4178  0.4849
 6405SOL    HW130674   0.499   3.426   6.604  0.9994 -0.0010 -0.9051
 6405SOL    HW230675   0.440   3.569   6.599 -0.0302 -0.6623  2.0726
 6406SOL     OW30676   4.311   3.213   0.784 -0.2495 -0.1871  0.1109
 6406SOL    HW130677   4.391   3.221   0.837 -0.5551 -0.2189  0.5783
 6406SOL    HW230678   4.355   3.243   0.705  0.3151 -1.7132 -0.1490
 6407SOL     OW30679   1.220   0.355   5.412  0.1877  0.0246  0.4188
 6407SOL    HW130680   1.284   0.326   5.346  1.5837 -0.1005  1.8218
 6407SOL    HW230681   1.185   0.425   5.357 -2.6361 -0.3182  1.7963
 6408SOL     OW30682   2.122   2.158   1.790  0.0775 -0.7400  0.2998
 6408SOL    HW130683   2.157   2.073   1.764 -0.8992 -0.7185 -1.0754
 6408SOL    HW230684   2.044   2.125   1.836  0.3718  0.2429  1.5171
 6409SOL     OW30685   2.465   2.341   5.586 -0.0680 -0.3359 -0.3140
 6409SOL    HW130686   2.532   2.380   5.529 -2.5036  2.5149 -1.1976
 6409SOL    HW230687   2.517   2.291   5.649 -0.2691  0.4430  0.4602
 6410SOL     OW30688   0.248   3.571   3.946  0.3144  0.0537  0.3083
 6410SOL    HW130689   0.244   3.658   3.987 -0.3644  0.3203 -0.3317
 6410SOL    HW230690   0.237   3.600   3.856 -0.1682  2.0190  0.9757
 6411SOL     OW30691   3.347   4.441   7.832  0.1166 -0.3578 -0.4132
 6411SOL    HW130692   3.338   4.464   7.740 -1.6855 -0.2159 -0.1924
 6411SOL    HW230693   3.422   4.384   7.812  0.2639 -0.5615  0.7282
 6412SOL     OW30694   2.223   2.087   9.701 -0.1541 -0.5345 -0.2712
 6412SOL    HW130695   2.276   2.008   9.699  2.4231  1.1936  0.3660
 6412SOL    HW230696   2.274   2.154   9.656 -0.0242 -0.5821 -0.1945
 6413SOL     OW30697   4.086   3.792   1.404 -0.1407 -0.5414 -0.2373
 6413SOL    HW130698   4.179   3.781   1.422 -0.0934 -0.0185 -0.1746
 6413SOL    HW230699   4.079   3.886   1.419  0.2322 -0.8034  1.6729
 6414SOL     OW30700   0.990   0.211   5.482  0.2766  0.5368 -0.4489
 6414SOL    HW130701   0.945   0.271   5.542 -3.0140  0.6879 -3.0456
 6414SOL    HW230702   1.064   0.265   5.454  0.0900  0.6091 -0.8012
 6415SOL     OW30703   3.122   4.317   6.750 -0.2405 -0.1039 -0.3153
 6415SOL    HW130704   3.151   4.399   6.711 -0.6850 -0.4149 -1.3182
 6415SOL    HW230705   3.191   4.316   6.816  1.1733 -0.3035 -1.7660
 6416SOL     OW30706   1.059   2.714  15.477 -0.2432  0.0245  0.1286
 6416SOL    HW130707   1.076   2.774  15.405  1.0232 -3.2145 -2.2818
 6416SOL    HW230708   1.058   2.631  15.429  0.3316 -0.7441  1.4208
 6417SOL     OW30709   4.273   3.207   9.533  0.3444  0.2056 -0.5048
 6417SOL    HW130710   4.191   3.235   9.491  0.5708 -1.3014 -1.9519
 6417SOL    HW230711   4.264   3.228   9.626  1.9723 -0.1651 -0.2682
 6418SOL     OW30712   3.745   3.231   3.683 -0.3818 -0.1335  0.6441
 6418SOL    HW130713   3.754   3.141   3.655 -0.4003  0.9879 -2.9200
 6418SOL    HW230714   3.835   3.251   3.709 -1.2888  1.8005  2.2919
 6419SOL     OW30715   1.870   1.428   5.672 -0.1495 -0.3953  0.3452
 6419SOL    HW130716   1.834   1.512   5.701  0.9437  0.1173  0.2092
 6419SOL    HW230717   1.870   1.386   5.758 -1.3837 -0.9135  0.0880
 6420SOL     OW30718   4.391   3.516   9.927 -0.6779  0.2519 -0.2394
 6420SOL    HW130719   4.458   3.462   9.886  1.5896  2.1872  0.9414
 6420SOL    HW230720   4.411   3.521  10.020 -0.6250  1.0018 -0.2886
 6421SOL     OW30721   4.491   2.541   9.000 -1.0189  0.8473  0.8357
 6421SOL    HW130722   4.483   2.630   8.968 -1.5414 -0.1097 -1.6637
 6421SOL    HW230723   4.397   2.523   9.011 -0.3325 -3.1549  0.1303
 6422SOL     OW30724   2.112   1.620  13.850  0.2390  0.2409  0.8293
 6422SOL    HW130725   2.167   1.683  13.896  1.2963 -1.0807  1.3851
 6422SOL    HW230726   2.155   1.536  13.866  1.5997  1.2372  2.4132
 6423SOL     OW30727   3.310   1.750   4.398  0.2592 -0.6012 -0.4372
 6423SOL    HW130728   3.262   1.669   4.384  1.1243 -1.1524 -0.2032
 6423SOL    HW230729   3.266   1.823   4.353 -0.0130 -1.6844 -1.9357
 6424SOL     OW30730   4.624   2.582  12.711  0.3719 -0.1794  0.5980
 6424SOL    HW130731   4.681   2.649  12.673 -0.6591  0.4902  0.2495
 6424SOL    HW230732   4.681   2.541  12.776  0.8872  0.3343  0.4752
 6425SOL     OW30733   0.860   3.136   8.217  0.8497 -0.1497 -0.7084
 6425SOL    HW130734   0.784   3.153   8.162  0.3941  0.4539  0.1115
 6425SOL    HW230735   0.854   3.206   8.282  2.1966 -2.2806  1.7419
 6426SOL     OW30736   4.358   4.582   3.933 -0.4276  0.7614 -0.6986
 6426SOL    HW130737   4.433   4.525   3.917 -1.5419 -1.2518  1.2771
 6426SOL    HW230738   4.379   4.665   3.891  0.6862  1.4554  1.2151
 6427SOL     OW30739   2.543   1.411   5.850  0.4309  0.2121  0.1928
 6427SOL    HW130740   2.616   1.441   5.797  0.1307 -1.0431 -0.9233
 6427SOL    HW230741   2.571   1.321   5.868 -0.0547  0.3755  1.8346
 6428SOL     OW30742   1.572   2.965   3.987 -0.1269 -0.0637  0.1406
 6428SOL    HW130743   1.567   2.913   3.907 -0.5974 -0.4798  0.4361
 6428SOL    HW230744   1.508   2.907   4.030 -0.3847  1.4478  1.7802
 6429SOL     OW30745   3.344   4.144   7.480 -0.7364 -0.2931  0.1106
 6429SOL    HW130746   3.306   4.100   7.405 -0.8822  0.6393 -0.3683
 6429SOL    HW230747   3.266   4.138   7.534 -0.9828  1.2037 -0.0843
 6430SOL     OW30748   1.876   1.418   0.025 -0.4025  0.4649 -0.2009
 6430SOL    HW130749   1.898   1.401   0.117  0.7584  2.2091 -0.1579
 6430SOL    HW230750   1.791   1.377   0.012 -0.2651  0.9073 -2.6211
 6431SOL     OW30751   3.043   3.500   6.163  0.4991 -0.3816 -0.0613
 6431SOL    HW130752   2.977   3.567   6.148  2.1324  1.0490 -0.8645
 6431SOL    HW230753   3.060   3.524   6.254  0.8905 -0.1308 -0.1981
 6432SOL     OW30754   3.531   2.566   0.981 -0.0571 -0.6577  0.2710
 6432SOL    HW130755   3.560   2.506   1.050  0.2680 -2.8264 -1.7399
 6432SOL    HW230756   3.443   2.590   1.012  0.9897  2.2584  1.0098
 6433SOL     OW30757   3.587   3.318  10.976  0.6619  0.1461  0.7487
 6433SOL    HW130758   3.658   3.369  10.937  1.0633  1.7599  3.5403
 6433SOL    HW230759   3.569   3.366  11.057 -0.3354  1.1305 -0.0685
 6434SOL     OW30760   4.584   3.121  14.346 -0.2432  0.3382 -0.2441
 6434SOL    HW130761   4.642   3.066  14.295  1.5343 -0.1172  2.2979
 6434SOL    HW230762   4.507   3.124  14.289  0.0755  0.4721 -0.6730
 6435SOL     OW30763   3.444   1.131   1.801 -0.1829 -0.3996 -0.7122
 6435SOL    HW130764   3.515   1.180   1.760  0.9492 -1.2052  0.2756
 6435SOL    HW230765   3.391   1.103   1.727  0.7547  0.5653 -1.7364
 6436SOL     OW30766   1.152   0.050   8.384 -0.8193 -0.0098  0.5276
 6436SOL    HW130767   1.241   0.030   8.354 -0.8108 -1.2237  1.3246
 6436SOL    HW230768   1.133   4.681   8.406  1.5476 -0.6558 -0.0847
 6437SOL     OW30769   1.782   0.683   7.869  0.0517 -0.0184  0.0943
 6437SOL    HW130770   1.872   0.685   7.900 -0.7059  0.1470  2.2617
 6437SOL    HW230771   1.768   0.775   7.844  0.2413  0.1470  0.5982
 6438SOL     OW30772   1.210   0.060   2.796 -0.1819  0.2208  0.0821
 6438SOL    HW130773   1.134   0.002   2.806  0.9491 -1.6294 -1.9004
 6438SOL    HW230774   1.178   0.137   2.842  0.8930  1.3656 -1.0846
 6439SOL     OW30775   4.509   2.040   6.527 -0.4113  0.2435 -0.3109
 6439SOL    HW130776   4.568   2.056   6.454 -2.8960 -2.3223 -2.8477
 6439SOL    HW230777   4.469   2.126   6.543 -1.6915 -0.7737  1.9710
 6440SOL     OW30778   2.357   1.689   1.514  0.1429  0.0941  0.0054
 6440SOL    HW130779   2.362   1.776   1.474  2.6097 -0.2713 -0.5001
 6440SOL    HW230780   2.276   1.698   1.563  0.5053 -2.0417  0.9552
 6441SOL     OW30781   0.413   3.588   1.367 -0.0255 -0.3255  0.0504
 6441SOL    HW130782   0.338   3.534   1.390 -0.0706  0.1632  1.0397
 6441SOL    HW230783   0.488   3.532   1.388 -1.0791 -2.2036 -1.1378
 6442SOL     OW30784   1.038   3.172  14.882  0.1622  0.1758  0.5939
 6442SOL    HW130785   0.947   3.186  14.856 -0.4278 -1.6082  1.7212
 6442SOL    HW230786   1.058   3.120  14.804  0.5729 -1.0938  1.5416
 6443SOL     OW30787   1.422   1.589  14.790 -0.0869  0.2057 -0.0850
 6443SOL    HW130788   1.492   1.618  14.732 -1.1273  0.8357 -1.0323
 6443SOL    HW230789   1.348   1.646  14.766  0.4037  0.8229 -0.1313
 6444SOL     OW30790   1.860   2.319   7.001  0.2498  0.1718 -0.2009
 6444SOL    HW130791   1.813   2.338   6.920 -1.2510 -3.4240 -0.1724
 6444SOL    HW230792   1.946   2.291   6.968  1.0131  2.3156 -0.0484
 6445SOL     OW30793   4.275   3.618   8.993 -0.0915  0.4256  0.7021
 6445SOL    HW130794   4.277   3.525   8.972 -0.4586  0.6015 -0.0721
 6445SOL    HW230795   4.236   3.623   9.081  0.0742  0.5300  0.7716
 6446SOL     OW30796   1.131   4.348  11.453  0.1782  0.3010  0.1525
 6446SOL    HW130797   1.147   4.440  11.475  0.1219  0.2543  0.3826
 6446SOL    HW230798   1.164   4.305  11.531  0.7521 -1.3561 -1.0118
 6447SOL     OW30799   4.472   1.272   9.173  0.3512  0.0421  0.6057
 6447SOL    HW130800   4.563   1.269   9.143  1.0866  0.3846  2.8063
 6447SOL    HW230801   4.433   1.355   9.145  1.1059 -0.0984 -0.8589
 6448SOL     OW30802   4.398   4.648   8.045  0.1744  0.4951 -0.0391
 6448SOL    HW130803   4.424   4.593   7.972  2.4347 -0.8473  1.7907
 6448SOL    HW230804   4.398   4.581   8.114  1.3491  0.7693  0.2205
 6449SOL     OW30805   2.605   4.149   6.029  0.3785 -0.1750 -0.2916
 6449SOL    HW130806   2.648   4.097   5.961  0.9083 -1.3950  0.9676
 6449SOL    HW230807   2.671   4.168   6.096  0.8946  0.3640 -0.9439
 6450SOL     OW30808   2.512   1.236   6.118  0.3029 -0.1063 -0.2434
 6450SOL    HW130809   2.528   1.329   6.102 -1.1408 -0.3794 -3.3224
 6450SOL    HW230810   2.558   1.209   6.198  0.8151  1.8387  0.1251
 6451SOL     OW30811   3.165   3.243   8.587 -0.1120 -0.5384  0.2070
 6451SOL    HW130812   3.214   3.318   8.623 -3.1063  1.9701 -0.9468
 6451SOL    HW230813   3.119   3.211   8.665 -0.5294  0.3352  0.3194
 6452SOL     OW30814   4.468   0.317  15.946  0.3067 -0.8948 -0.5707
 6452SOL    HW130815   4.386   0.361  15.923  0.4840  0.8483  2.1469
 6452SOL    HW230816   4.526   0.380  15.904 -0.7802  0.2069 -0.4356
 6453SOL     OW30817   4.235   2.684   2.625 -1.0912  0.1697  0.3397
 6453SOL    HW130818   4.317   2.686   2.673  0.1933 -3.2425 -1.7001
 6453SOL    HW230819   4.247   2.619   2.555 -1.4795  1.4316 -0.8841
 6454SOL     OW30820   1.891   3.575   4.203 -0.1368 -0.2652  0.2784
 6454SOL    HW130821   1.945   3.556   4.127  1.5525  3.9704  0.4189
 6454SOL    HW230822   1.817   3.608   4.152 -0.8591  0.1004  1.5463
 6455SOL     OW30823   2.930   3.474   9.185 -0.8131 -0.1012 -0.9251
 6455SOL    HW130824   2.885   3.495   9.267 -0.6300 -2.2436 -0.2898
 6455SOL    HW230825   2.860   3.493   9.122 -1.9941 -1.2940  0.0354
 6456SOL     OW30826   1.658   3.955   6.438 -0.0376 -0.1063  0.3066
 6456SOL    HW130827   1.743   3.940   6.398  0.2671  1.1478  0.4534
 6456SOL    HW230828   1.665   3.896   6.513 -0.8491 -1.2658 -0.5535
 6457SOL     OW30829   3.316   0.806  12.751  0.0380  0.7355  0.5881
 6457SOL    HW130830   3.233   0.763  12.773 -0.5742  2.1464  1.0431
 6457SOL    HW230831   3.362   0.783  12.832  0.0999 -1.9994 -0.2413
 6458SOL     OW30832   1.871   2.737   6.038  0.3496  0.0205  0.1108
 6458SOL    HW130833   1.778   2.717   6.049 -0.1697  1.6747 -1.2337
 6458SOL    HW230834   1.913   2.650   6.040 -0.9604 -0.6062  0.4657
 6459SOL     OW30835   1.302   3.364  13.267 -0.0320 -0.2020 -0.1399
 6459SOL    HW130836   1.373   3.385  13.328 -0.8885  0.2222  0.7043
 6459SOL    HW230837   1.347   3.366  13.183  1.7137  1.2045  0.8317
 6460SOL     OW30838   4.388   0.907   4.435 -0.2041  0.3552  0.2112
 6460SOL    HW130839   4.342   0.929   4.353  1.1048  2.1210 -0.0382
 6460SOL    HW230840   4.393   0.993   4.477 -0.7180  0.0960  0.8034
 6461SOL     OW30841   2.286   2.574  11.238  0.0717  0.7134  0.0625
 6461SOL    HW130842   2.241   2.533  11.164 -1.0208  0.4403  0.8829
 6461SOL    HW230843   2.312   2.661  11.208 -0.3748  0.8826  0.1667
 6462SOL     OW30844   3.908   2.485   6.496 -0.5345  0.4543  0.2159
 6462SOL    HW130845   3.815   2.503   6.485  0.0127  1.0449 -3.3809
 6462SOL    HW230846   3.940   2.536   6.422  1.7900 -0.9242  0.2614
 6463SOL     OW30847   2.093   3.945   7.182  0.6188  0.6221 -0.7146
 6463SOL    HW130848   2.159   3.875   7.186  1.6590  1.7558  2.7471
 6463SOL    HW230849   2.021   3.893   7.146 -0.1832  0.5846  0.9510
 6464SOL     OW30850   0.420   4.464   7.099  0.2771 -1.0871  0.6571
 6464SOL    HW130851   0.473   4.540   7.075 -1.5910  0.3227  0.9868
 6464SOL    HW230852   0.450   4.453   7.190  1.3318  0.7367  0.5394
 6465SOL     OW30853   3.198   0.226   5.379  0.0329 -0.6219 -0.1350
 6465SOL    HW130854   3.168   0.315   5.399  1.6980  0.4952 -2.5674
 6465SOL    HW230855   3.139   0.186   5.443 -1.7323  0.2661 -1.1943
 6466SOL     OW30856   2.978   0.238  13.227  0.6971  0.5248 -0.0821
 6466SOL    HW130857   2.920   0.162  13.219 -0.7296  1.5187  0.8867
 6466SOL    HW230858   2.924   0.286  13.290 -1.8448 -0.7858 -1.2632
 6467SOL     OW30859   3.074   0.427   2.423  0.7693 -0.1672  0.2341
 6467SOL    HW130860   3.037   0.414   2.511 -1.8235 -0.7541 -0.9592
 6467SOL    HW230861   3.003   0.469   2.376 -0.1681 -2.3157 -0.2687
 6468SOL     OW30862   2.675   4.259   3.614  0.0396 -0.6044  0.5032
 6468SOL    HW130863   2.668   4.171   3.651  2.4430 -0.5724  1.0072
 6468SOL    HW230864   2.678   4.311   3.694  0.1240  1.2647 -0.7299
 6469SOL     OW30865   4.173   1.875   5.831  0.0873 -0.5273 -0.2298
 6469SOL    HW130866   4.114   1.880   5.906  1.2380  1.9812  0.5362
 6469SOL    HW230867   4.171   1.780   5.822 -0.8994 -0.6384  1.2119
 6470SOL     OW30868   1.963   0.903   3.461 -0.0924  0.0978 -0.1910
 6470SOL    HW130869   2.027   0.907   3.390  0.0063  0.7187 -0.0701
 6470SOL    HW230870   2.028   0.887   3.529 -1.5667  0.1341  1.2135
 6471SOL     OW30871   1.203   1.385   0.692 -0.3331 -0.5749 -0.4573
 6471SOL    HW130872   1.283   1.428   0.721 -0.4310  0.8920 -2.3916
 6471SOL    HW230873   1.218   1.296   0.722 -1.4190 -1.0070 -1.1718
 6472SOL     OW30874   3.075   3.648  11.855  0.0737  0.7589 -0.8209
 6472SOL    HW130875   3.026   3.566  11.843  1.3495  0.1116 -1.6416
 6472SOL    HW230876   3.147   3.617  11.909 -1.7390 -1.4453  0.3685
 6473SOL     OW30877   0.622   2.171  15.641  0.2133 -0.4068 -0.3575
 6473SOL    HW130878   0.667   2.145  15.721  0.5980  2.1191  0.2391
 6473SOL    HW230879   0.640   2.089  15.595  1.3017 -0.1491 -0.3772
 6474SOL     OW30880   1.918   2.958   2.061  0.2231  0.5014  0.0866
 6474SOL    HW130881   1.916   3.040   2.013 -2.8607 -0.6079 -1.7188
 6474SOL    HW230882   1.887   2.894   1.997 -0.8181  1.5633 -0.4713
 6475SOL     OW30883   2.955   1.185  10.588  0.1360 -0.7731 -0.1958
 6475SOL    HW130884   3.023   1.162  10.524  0.2888  0.5862 -0.5164
 6475SOL    HW230885   2.880   1.202  10.532  0.1705  2.6415  0.8354
 6476SOL     OW30886   4.101   0.001   2.230  0.2761  0.2053  0.3027
 6476SOL    HW130887   4.110   4.633   2.257  0.7594 -1.2376 -4.6877
 6476SOL    HW230888   4.052   0.045   2.299 -0.9807 -1.4928  0.4732
 6477SOL     OW30889   0.569   3.958   1.513 -0.1401 -0.5535 -0.7167
 6477SOL    HW130890   0.590   3.997   1.429  1.1339  0.2161 -0.0346
 6477SOL    HW230891   0.534   4.037   1.553  0.4137  0.1747 -1.6807
 6478SOL     OW30892   1.303   4.140   4.547 -0.0048  0.2418  0.1675
 6478SOL    HW130893   1.313   4.054   4.590 -2.0187  0.4921  1.1287
 6478SOL    HW230894   1.333   4.194   4.620  1.1449  1.8378 -1.5055
 6479SOL     OW30895   2.659   3.136   4.547 -0.2680 -0.0798  0.1723
 6479SOL    HW130896   2.579   3.085   4.542  0.4875 -0.9898 -2.5252
 6479SOL    HW230897   2.633   3.202   4.482  1.7277 -0.8190 -1.4039
 6480SOL     OW30898   4.234   4.196   8.850  0.0602 -0.6061 -0.1158
 6480SOL    HW130899   4.158   4.223   8.800  0.7746  0.6690 -0.4998
 6480SOL    HW230900   4.200   4.126   8.907  1.9773 -0.7527  0.8448
 6481SOL     OW30901   3.949   0.269   6.668  0.1248  0.3654  0.0274
 6481SOL    HW130902   3.894   0.247   6.743 -1.0941 -0.8613 -1.2210
 6481SOL    HW230903   3.995   0.187   6.651 -1.0730  0.1804 -2.4217
 6482SOL     OW30904   1.726   2.671   7.684 -0.1176 -0.1173 -0.8180
 6482SOL    HW130905   1.805   2.689   7.632 -0.0667 -2.3485 -1.5558
 6482SOL    HW230906   1.756   2.587   7.719 -0.3969  0.5108  0.8981
 6483SOL     OW30907   0.436   3.759   4.399  0.1255  0.5862 -0.3926
 6483SOL    HW130908   0.343   3.779   4.405  0.0513 -0.1112  0.8686
 6483SOL    HW230909   0.463   3.850   4.385  1.2239  0.0839 -1.5583
 6484SOL     OW30910   1.064   0.632   9.855  0.2833 -0.4545  0.2668
 6484SOL    HW130911   1.020   0.620   9.771 -0.7033 -0.4460  0.7827
 6484SOL    HW230912   1.134   0.695   9.838  0.8158 -1.4849 -1.2708
 6485SOL     OW30913   4.173   1.921  10.984  0.3576  0.3736  0.3973
 6485SOL    HW130914   4.248   1.889  10.935 -0.6374 -1.5664  0.1440
 6485SOL    HW230915   4.138   1.838  11.015  1.1451  0.0216  0.3362
 6486SOL     OW30916   1.204   3.860   6.749  0.5892 -0.3680  1.1480
 6486SOL    HW130917   1.221   3.941   6.702 -0.2910 -0.1629  1.1934
 6486SOL    HW230918   1.218   3.803   6.673 -0.1179  2.1770 -0.8842
 6487SOL     OW30919   1.090   2.425   6.936  0.5139 -0.6965  0.3477
 6487SOL    HW130920   1.166   2.410   6.879 -0.5278 -1.8780 -0.7238
 6487SOL    HW230921   1.021   2.414   6.871 -1.1205  0.0975  1.9386
 6488SOL     OW30922   4.490   1.886   6.753 -0.0117 -0.0253  0.2428
 6488SOL    HW130923   4.411   1.869   6.702 -0.4972  0.4921  0.8226
 6488SOL    HW230924   4.525   1.953   6.693 -0.0149 -1.2834 -1.1703
 6489SOL     OW30925   1.004   0.790  13.985 -0.0665  0.2060 -0.0343
 6489SOL    HW130926   0.966   0.702  13.993 -0.0203 -0.0092 -2.3888
 6489SOL    HW230927   0.919   0.831  13.972  0.6841  1.8379  0.2123
 6490SOL     OW30928   1.509   3.093   5.856  0.0217 -0.0750 -0.3913
 6490SOL    HW130929   1.525   3.186   5.841 -0.2395  0.1903  1.0033
 6490SOL    HW230930   1.414   3.098   5.863 -0.0282  1.1664 -1.9684
 6491SOL     OW30931   0.966   0.404   2.891 -0.4537 -0.0014  0.5229
 6491SOL    HW130932   0.877   0.399   2.857 -0.0649 -0.6186 -0.4136
 6491SOL    HW230933   1.018   0.349   2.832 -2.0896  0.4285 -1.2931
 6492SOL     OW30934   3.646   3.584   1.537 -0.3562  0.1164  0.4443
 6492SOL    HW130935   3.645   3.638   1.616 -0.3443 -1.1436  1.3049
 6492SOL    HW230936   3.708   3.633   1.483  0.7664 -1.1742  0.5552
 6493SOL     OW30937   3.518   0.099  11.219  0.3895  0.2965 -0.2880
 6493SOL    HW130938   3.611   0.084  11.203  0.0512  0.3746 -2.3315
 6493SOL    HW230939   3.490   0.044  11.147 -2.0970  1.9765 -0.6281
 6494SOL     OW30940   4.615   0.299  17.352  0.4430 -0.1810 -0.0685
 6494SOL    HW130941   4.638   0.390  17.374  0.0448 -0.5138  1.7161
 6494SOL    HW230942   4.523   0.291  17.378  1.2615 -1.8113  2.3095
 6495SOL     OW30943   3.203   1.193   4.815 -0.4076  0.4571 -0.3430
 6495SOL    HW130944   3.245   1.156   4.738  0.6624  0.5496  0.2032
 6495SOL    HW230945   3.114   1.157   4.816  0.1985 -1.0497 -0.7734
 6496SOL     OW30946   2.919   1.820  12.606 -0.2951  0.0986  0.0332
 6496SOL    HW130947   2.841   1.841  12.555 -0.4368 -2.6841 -0.9021
 6496SOL    HW230948   2.876   1.812  12.690 -0.4835 -0.8982 -0.1507
 6497SOL     OW30949   4.033   2.497   8.249  0.0138  0.4957  0.2432
 6497SOL    HW130950   4.100   2.431   8.234  0.5229  0.9834  0.3443
 6497SOL    HW230951   3.970   2.484   8.178  0.1834  0.4450  0.0992
 6498SOL     OW30952   2.022   2.793   5.129 -0.0796  0.5078  0.1614
 6498SOL    HW130953   1.946   2.739   5.149 -0.1210  0.4858 -0.0515
 6498SOL    HW230954   2.027   2.854   5.202 -1.1163  0.9162 -0.1106
 6499SOL     OW30955   2.381   3.099   5.598 -0.0175  0.1943  0.6840
 6499SOL    HW130956   2.314   3.160   5.567  2.5579  2.7636  0.2415
 6499SOL    HW230957   2.343   3.057   5.675 -2.2726  1.7454  0.3986
 6500SOL     OW30958   3.185   2.376  11.588 -0.4187  0.0890  0.4487
 6500SOL    HW130959   3.261   2.403  11.536 -1.0862  2.2125  0.5693
 6500SOL    HW230960   3.228   2.355  11.671  0.4641  2.8915  0.7045
 6501SOL     OW30961   0.230   4.230   9.050 -0.0051 -0.1300  0.2706
 6501SOL    HW130962   0.235   4.312   9.001 -1.4153 -0.5600 -0.6074
 6501SOL    HW230963   0.153   4.192   9.008  0.4080 -1.4190  0.6832
 6502SOL     OW30964   4.276   3.408   3.863  0.0663 -0.2176  0.6788
 6502SOL    HW130965   4.336   3.449   3.801 -1.6222  1.3068  0.0711
 6502SOL    HW230966   4.306   3.318   3.874 -1.9959 -0.5771  3.3902
 6503SOL     OW30967   1.326   1.708   0.138  0.5614  0.0900 -0.1090
 6503SOL    HW130968   1.261   1.657   0.090  0.1721  1.0983 -0.6477
 6503SOL    HW230969   1.405   1.655   0.129 -1.2557 -2.7952  1.1872
 6504SOL     OW30970   3.793   1.043   5.034  0.5657 -0.4102 -0.5359
 6504SOL    HW130971   3.838   1.070   4.954  0.4657  0.4984 -0.2863
 6504SOL    HW230972   3.709   1.018   4.996  0.3657  0.9193 -0.9395
 6505SOL     OW30973   0.864   4.612   5.900 -0.1600 -0.1954  0.5339
 6505SOL    HW130974   0.817   4.577   5.976 -0.4115  0.8843  0.8810
 6505SOL    HW230975   0.953   4.605   5.936 -1.0141  1.6988  2.9996
 6506SOL     OW30976   3.905   1.687   0.317 -0.4182 -0.1873 -0.3512
 6506SOL    HW130977   3.957   1.766   0.325 -1.4395  0.4928 -0.4289
 6506SOL    HW230978   3.874   1.692   0.227 -0.9895 -0.1603 -0.1571
 6507SOL     OW30979   0.339   0.983  10.109 -0.2304 -0.7224 -0.4633
 6507SOL    HW130980   0.412   1.045  10.112 -1.5863  0.8878 -0.4097
 6507SOL    HW230981   0.383   0.902  10.133  0.0704  0.3701  2.6694
 6508SOL     OW30982   1.723   1.107  17.408 -0.3362 -0.2715 -0.1269
 6508SOL    HW130983   1.652   1.150  17.455 -0.5121 -0.6576 -0.0349
 6508SOL    HW230984   1.781   1.065  17.473 -0.0390  0.6636  0.2099
 6509SOL     OW30985   3.889   3.793   8.514  0.8350 -0.3765  0.0232
 6509SOL    HW130986   3.852   3.707   8.532 -1.3791  0.5528  0.0321
 6509SOL    HW230987   3.869   3.833   8.599 -2.0743  0.8297 -1.2230
 6510SOL     OW30988   1.790   3.878   8.753 -0.2576 -0.6504  0.1025
 6510SOL    HW130989   1.793   3.967   8.716  1.2138 -0.6157  0.3087
 6510SOL    HW230990   1.782   3.829   8.671 -1.5539 -0.5492  0.1666
 6511SOL     OW30991   3.339   0.429   2.708  0.1515  0.3777 -0.1783
 6511SOL    HW130992   3.349   0.399   2.618  1.4097  4.8118 -1.5185
 6511SOL    HW230993   3.282   0.357   2.734 -0.9266  1.4736  0.4934
 6512SOL     OW30994   1.362   3.389  16.654 -0.1586  0.0824 -0.1343
 6512SOL    HW130995   1.372   3.346  16.739 -0.4087  2.8707  1.2979
 6512SOL    HW230996   1.277   3.434  16.658 -0.6567 -0.8124 -0.6458
 6513SOL     OW30997   3.311   3.392  15.910 -0.1786  0.1701  0.0615
 6513SOL    HW130998   3.377   3.332  15.944 -1.5810 -0.9305  0.7967
 6513SOL    HW230999   3.235   3.360  15.957 -0.3409 -0.9697 -0.9717
 6514SOL     OW31000   1.457   0.995   8.738  0.0619 -0.4295 -0.1602
 6514SOL    HW131001   1.534   1.041   8.704 -0.9378  1.2724 -0.0991
 6514SOL    HW231002   1.448   1.023   8.829 -1.2150  1.4386 -0.8623
 6515SOL     OW31003   3.715   1.310  12.261  0.0448  0.1844  0.3336
 6515SOL    HW131004   3.682   1.333  12.348  0.1657  2.0173 -0.0939
 6515SOL    HW231005   3.655   1.237  12.244 -0.2513  0.2832  0.9482
 6516SOL     OW31006   0.498   2.189   1.163  0.9601  0.6384  0.7640
 6516SOL    HW131007   0.501   2.191   1.258  0.0969  2.3556  0.7633
 6516SOL    HW231008   0.542   2.274   1.160  1.8479  0.1886  0.7760
 6517SOL     OW31009   3.841   2.050   7.943  0.2063 -0.1334  0.3334
 6517SOL    HW131010   3.901   1.976   7.953  0.8163  0.3384  0.1387
 6517SOL    HW231011   3.820   2.058   8.036  0.2315 -1.1845  0.4297
 6518SOL     OW31012   0.786   0.833   2.750  0.1156  0.3079  0.1256
 6518SOL    HW131013   0.801   0.818   2.844 -0.8085  0.5423  0.3068
 6518SOL    HW231014   0.850   0.903   2.740 -0.6394  1.2713  2.0918
 6519SOL     OW31015   4.383   0.119   2.367 -0.7418 -0.2690 -0.0505
 6519SOL    HW131016   4.436   0.079   2.298  0.4791  0.3265  0.5439
 6519SOL    HW231017   4.367   0.043   2.422  2.2219  0.0745  1.3019
 6520SOL     OW31018   3.556   0.365  15.990  0.3924 -0.2208  0.1512
 6520SOL    HW131019   3.607   0.422  16.047  1.6170 -1.7916  0.6120
 6520SOL    HW231020   3.554   0.419  15.911  2.9340  1.9309  1.5891
 6521SOL     OW31021   4.014   1.682   3.789 -0.1653 -0.4573 -0.4749
 6521SOL    HW131022   4.076   1.652   3.854 -1.2737 -1.0103  0.3298
 6521SOL    HW231023   3.942   1.706   3.847  1.0242  2.1277 -0.0431
 6522SOL     OW31024   1.896   3.407   7.618  0.1560 -0.2343 -0.3570
 6522SOL    HW131025   1.947   3.330   7.642  0.1035  0.2257  1.2350
 6522SOL    HW231026   1.813   3.388   7.661  0.1913 -0.4159 -0.3677
 6523SOL     OW31027   3.451   2.661   8.130  0.2595 -0.3748 -0.2228
 6523SOL    HW131028   3.493   2.575   8.136 -0.1926 -0.5451  0.6565
 6523SOL    HW231029   3.520   2.724   8.148 -0.6608  0.5914 -0.0825
 6524SOL     OW31030   0.945   0.976  17.565  0.2992  0.0637 -0.5768
 6524SOL    HW131031   0.965   1.060  17.608  0.7143  1.2685 -3.1465
 6524SOL    HW231032   0.850   0.970  17.555  0.4646 -3.1987  0.0189
 6525SOL     OW31033   3.747   4.349   3.438  0.1491 -0.9161  0.3441
 6525SOL    HW131034   3.842   4.342   3.446  0.0105  0.2569  2.9847
 6525SOL    HW231035   3.721   4.273   3.490  3.1896 -0.7024  2.1912
 6526SOL     OW31036   0.397   3.175  17.304  0.0414 -0.0873 -0.2748
 6526SOL    HW131037   0.466   3.127  17.351  1.0844  1.2515 -0.4698
 6526SOL    HW231038   0.443   3.173  17.221  1.7207 -1.1080  0.6599
 6527SOL     OW31039   3.089   3.067   8.249 -0.7551  0.2169  0.0065
 6527SOL    HW131040   3.160   3.015   8.212  1.1313  0.9973  2.5310
 6527SOL    HW231041   3.149   3.138   8.272 -0.4792 -0.1966  0.5703
 6528SOL     OW31042   0.396   4.702   3.121 -0.3239 -0.3438  0.4864
 6528SOL    HW131043   0.349   4.674   3.200 -0.3106 -1.7364  0.0001
 6528SOL    HW231044   0.434   0.065   3.143 -1.0608 -0.1677  1.1023
 6529SOL     OW31045   4.045   0.365   5.486  0.1788 -0.2804  0.6768
 6529SOL    HW131046   3.972   0.419   5.515  0.1239  0.9834 -1.8481
 6529SOL    HW231047   4.098   0.437   5.453  0.9664 -1.1418  0.0546
 6530SOL     OW31048   2.141   3.883   9.398 -0.1115  0.2739 -0.2029
 6530SOL    HW131049   2.069   3.919   9.345 -2.2021 -2.5389  0.7324
 6530SOL    HW231050   2.211   3.948   9.398 -0.0573  0.2139 -0.4114
 6531SOL     OW31051   1.373   0.027  10.222 -0.6269  0.0328  0.4359
 6531SOL    HW131052   1.334   4.700  10.150 -0.4880 -0.8921  0.9931
 6531SOL    HW231053   1.298   0.078  10.252 -0.5657  0.1811  0.3342
 6532SOL     OW31054   0.667   1.443   2.845  0.1877 -0.0534  0.0057
 6532SOL    HW131055   0.646   1.505   2.776 -0.4575  2.4462  2.4324
 6532SOL    HW231056   0.743   1.397   2.810 -0.3660  1.4430 -3.1671
 6533SOL     OW31057   3.219   0.274   4.480 -0.1900 -0.1815 -0.4723
 6533SOL    HW131058   3.153   0.340   4.455 -1.8091 -1.8402 -0.5865
 6533SOL    HW231059   3.264   0.333   4.541  0.2182  1.3308 -2.2232
 6534SOL     OW31060   1.747   0.977   4.422  0.5399  0.2579  0.3318
 6534SOL    HW131061   1.768   0.902   4.479  0.7713 -0.8058 -1.1542
 6534SOL    HW231062   1.719   1.036   4.492 -1.0208 -0.9853  0.7441
 6535SOL     OW31063   4.547   2.118   5.058 -0.1059  0.1184 -0.6030
 6535SOL    HW131064   4.638   2.145   5.071  0.5449 -1.2664 -2.2311
 6535SOL    HW231065   4.492   2.188   5.092  0.4536  1.6578 -2.8914
 6536SOL     OW31066   2.538   3.548  14.724  0.0955  0.3160 -0.7098
 6536SOL    HW131067   2.566   3.492  14.796 -1.0698  0.5839 -0.0464
 6536SOL    HW231068   2.617   3.600  14.713 -0.1627  0.7952 -0.3122
 6537SOL     OW31069   1.317   4.046   7.165  0.0525 -0.2591 -0.3348
 6537SOL    HW131070   1.387   3.984   7.146  0.6124 -0.2877  1.9036
 6537SOL    HW231071   1.364   4.129   7.157 -3.0002  1.6189  1.0151
 6538SOL     OW31072   0.108   1.367   7.989  0.1554 -0.1922  0.2840
 6538SOL    HW131073   0.033   1.328   8.033 -0.1660 -1.3473 -1.2855
 6538SOL    HW231074   0.121   1.449   8.035 -1.1071 -0.0170  0.3283
 6539SOL     OW31075   1.913   3.624   4.909 -0.3953  0.0929 -0.0768
 6539SOL    HW131076   1.851   3.640   4.979 -0.5323  1.0470 -0.4171
 6539SOL    HW231077   1.999   3.627   4.951  0.3984  0.2979 -1.7037
 6540SOL     OW31078   3.163   0.345   8.401  0.8515  0.6677  0.1903
 6540SOL    HW131079   3.134   0.280   8.465  2.5249  1.5025  1.7937
 6540SOL    HW231080   3.173   0.419   8.461  0.3289  1.6530 -0.9477
 6541SOL     OW31081   0.812   2.541   4.186 -0.5587  0.1363 -0.2397
 6541SOL    HW131082   0.854   2.625   4.203 -2.1701  0.6962  0.9701
 6541SOL    HW231083   0.719   2.561   4.183 -0.5634 -0.2730 -3.0204
 6542SOL     OW31084   0.398   0.050  16.625 -0.1954 -0.1270  0.0861
 6542SOL    HW131085   0.382   0.093  16.541  0.8955 -1.4803 -0.8190
 6542SOL    HW231086   0.444   4.691  16.605 -0.0013 -0.2566  1.0508
 6543SOL     OW31087   0.637   4.558   5.053  0.1769  0.2215  0.1158
 6543SOL    HW131088   0.618   4.651   5.065  0.5533  0.5946 -2.2127
 6543SOL    HW231089   0.657   4.551   4.960 -1.6951 -1.3485 -0.1596
 6544SOL     OW31090   2.337   4.609   4.112 -0.2355  0.2264 -0.5995
 6544SOL    HW131091   2.319   4.699   4.083 -0.8362  0.2405 -0.1957
 6544SOL    HW231092   2.425   4.600   4.076  1.1609 -2.8821  3.6231
 6545SOL     OW31093   4.379   4.235  14.279 -0.3479 -0.2145  0.1677
 6545SOL    HW131094   4.392   4.259  14.188  1.5233 -1.9063  0.0149
 6545SOL    HW231095   4.467   4.212  14.307 -0.7056 -0.5596  1.0231
 6546SOL     OW31096   4.470   0.542  11.499 -0.5398  0.1223 -0.4353
 6546SOL    HW131097   4.403   0.584  11.445  2.6312  2.9214 -2.1653
 6546SOL    HW231098   4.544   0.538  11.439 -0.6469  1.5427 -0.6555
 6547SOL     OW31099   3.804   2.645   8.851 -0.0478  0.0671  0.4106
 6547SOL    HW131100   3.761   2.611   8.929 -0.5232 -0.0549  0.0970
 6547SOL    HW231101   3.836   2.568   8.804  1.9375  0.8171  0.5369
 6548SOL     OW31102   1.164   4.102   3.239  0.0257  0.3839  0.3420
 6548SOL    HW131103   1.159   4.059   3.154 -4.9206  1.0774  0.2646
 6548SOL    HW231104   1.114   4.035   3.286 -1.4083 -0.1953 -2.0193
 6549SOL     OW31105   4.130   4.022   5.795 -0.5295 -0.1251 -0.0504
 6549SOL    HW131106   4.050   4.040   5.746 -0.8518  1.0261  0.8893
 6549SOL    HW231107   4.187   4.015   5.719  0.5293 -1.4193  0.8575
 6550SOL     OW31108   2.923   2.093   3.308  0.5868 -0.2558 -0.3331
 6550SOL    HW131109   2.848   2.148   3.284  1.4653  0.5286 -1.3051
 6550SOL    HW231110   2.903   2.022   3.248  0.8881 -1.4909  1.0482
 6551SOL     OW31111   3.998   1.189   7.364  0.0333  0.4389 -0.6786
 6551SOL    HW131112   3.958   1.276   7.370 -2.8447 -1.0425  1.4897
 6551SOL    HW231113   4.043   1.208   7.282 -3.0889  3.0062 -1.7658
 6552SOL     OW31114   1.182   0.157   5.150 -0.2648  0.3223  0.6175
 6552SOL    HW131115   1.171   0.129   5.059  0.2184 -0.2501  0.7343
 6552SOL    HW231116   1.118   0.227   5.140 -1.6873 -1.0906 -0.1814
 6553SOL     OW31117   1.407   0.793  14.428  0.7065 -0.1246 -0.0478
 6553SOL    HW131118   1.349   0.868  14.419 -1.7846 -2.2448 -1.9089
 6553SOL    HW231119   1.333   0.732  14.419 -0.2968  0.8880  1.2212
 6554SOL     OW31120   1.617   2.594   3.594  0.0664 -0.6119  0.1438
 6554SOL    HW131121   1.547   2.538   3.558 -0.5407 -0.2015  0.6996
 6554SOL    HW231122   1.690   2.550   3.550  1.3941  0.9250  0.8592
 6555SOL     OW31123   4.195   0.139   5.518 -0.3499 -0.0703 -0.3476
 6555SOL    HW131124   4.161   0.228   5.510 -2.5415 -0.6902  1.9810
 6555SOL    HW231125   4.264   0.137   5.452 -0.8471  0.6257 -0.8842
 6556SOL     OW31126   4.460   0.523   5.401 -0.2326 -0.1893 -0.3826
 6556SOL    HW131127   4.524   0.507   5.332 -1.2794  2.8277 -2.0310
 6556SOL    HW231128   4.484   0.609   5.435 -1.0069 -0.9797  2.1895
 6557SOL     OW31129   4.120   2.175  11.024  0.3857  0.3948  0.0703
 6557SOL    HW131130   4.200   2.196  11.072  1.3303 -0.1067 -1.2628
 6557SOL    HW231131   4.137   2.083  11.006 -0.2030  0.2328  0.3739
 6558SOL     OW31132   1.643   4.057  14.197 -0.2077  0.3603 -0.1448
 6558SOL    HW131133   1.594   4.046  14.116  3.5334 -3.6794 -1.8389
 6558SOL    HW231134   1.730   4.071  14.160 -0.1776 -1.5603 -0.8291
 6559SOL     OW31135   2.211   2.362  14.236  0.0687  0.1585 -0.3036
 6559SOL    HW131136   2.118   2.388  14.232  0.5079  1.4707 -1.8536
 6559SOL    HW231137   2.244   2.390  14.322  1.2720 -0.8508 -0.4364
 6560SOL     OW31138   2.603   3.016   3.004  0.1437  0.1296 -0.3890
 6560SOL    HW131139   2.521   2.971   2.984 -0.5009  1.0080  0.2590
 6560SOL    HW231140   2.668   2.966   2.955 -0.5780  1.4680 -2.7408
 6561SOL     OW31141   2.170   0.024   7.469  0.2085  0.1104  0.3082
 6561SOL    HW131142   2.160   4.652   7.474 -1.6030  0.2309 -1.2676
 6561SOL    HW231143   2.092   0.062   7.428  0.9831  0.8380 -0.5141
 6562SOL     OW31144   2.703   4.453   6.910  0.2784  0.1365 -0.1401
 6562SOL    HW131145   2.775   4.508   6.943 -1.7394  2.7184 -0.0278
 6562SOL    HW231146   2.744   4.392   6.850 -2.0701 -0.1667 -1.4259
 6563SOL     OW31147   3.861   1.128   1.671 -0.5907 -0.2061 -1.1350
 6563SOL    HW131148   3.789   1.190   1.681 -1.7956 -1.7593 -0.2002
 6563SOL    HW231149   3.906   1.159   1.592  2.0050 -0.6628  0.1975
 6564SOL     OW31150   4.520   0.432   6.799  0.2527  0.4785 -0.0700
 6564SOL    HW131151   4.427   0.411   6.809  0.4981 -0.5561 -0.0030
 6564SOL    HW231152   4.524   0.517   6.843 -1.8484  0.5407  0.0156
 6565SOL     OW31153   4.595   2.113   2.527 -0.4735 -0.3854 -0.2881
 6565SOL    HW131154   4.533   2.108   2.599  0.8104 -1.6438  0.7470
 6565SOL    HW231155   4.622   2.021   2.524  2.3617  0.4295 -0.0455
 6566SOL     OW31156   2.775   3.110  16.585 -0.2436 -0.3407  0.0272
 6566SOL    HW131157   2.822   3.062  16.653  0.2526  1.4065  0.8937
 6566SOL    HW231158   2.748   3.179  16.645  0.1404 -0.9643  0.9159
 6567SOL     OW31159   4.554   0.055   2.143 -0.4866 -0.4205  0.0876
 6567SOL    HW131160   4.558   4.683   2.135  0.5574 -0.5804  2.3458
 6567SOL    HW231161   4.649   0.062   2.156  0.0813  0.9126 -4.6918
 6568SOL     OW31162   1.086   3.733  12.472  0.2705 -0.2680 -0.0561
 6568SOL    HW131163   1.123   3.659  12.423  0.4993 -1.3149  1.6831
 6568SOL    HW231164   1.011   3.695  12.517 -0.8754 -0.3068 -2.0044
 6569SOL     OW31165   1.261   2.925  12.031 -0.2688 -0.3005  0.3462
 6569SOL    HW131166   1.212   2.986  12.086 -1.2034  1.1123 -2.0608
 6569SOL    HW231167   1.338   2.924  12.087  1.3296  1.3485 -1.8544
 6570SOL     OW31168   2.632   1.327   7.268  0.5547  0.3234  0.2420
 6570SOL    HW131169   2.696   1.326   7.197 -1.8622  0.0686 -1.9296
 6570SOL    HW231170   2.683   1.298   7.344 -0.6151  0.8322  1.2000
 6571SOL     OW31171   0.800   1.143  15.115  0.3489 -0.4030  0.7136
 6571SOL    HW131172   0.733   1.210  15.127  1.7221  1.1939 -0.5701
 6571SOL    HW231173   0.765   1.089  15.045  2.7909 -1.0622 -0.0134
 6572SOL     OW31174   2.459   0.937  16.344  0.5480  0.3234 -0.1938
 6572SOL    HW131175   2.475   1.001  16.413 -0.0085  0.0682  0.1716
 6572SOL    HW231176   2.468   0.991  16.265  0.4731  0.4800 -0.0957
 6573SOL     OW31177   4.689   0.135   7.594  0.2422  0.0830 -0.8198
 6573SOL    HW131178   4.657   0.092   7.674  1.3950  2.2297  0.7711
 6573SOL    HW231179   4.696   0.057   7.539 -1.3698 -0.6946  0.0690
 6574SOL     OW31180   2.698   3.556  10.127 -0.3252  0.6023 -0.3137
 6574SOL    HW131181   2.689   3.554  10.222  2.1168  0.9808 -0.0745
 6574SOL    HW231182   2.676   3.646  10.104 -0.8083  0.4423 -0.4859
 6575SOL     OW31183   0.413   3.056  16.583  0.2054  0.3641 -0.3602
 6575SOL    HW131184   0.488   3.094  16.627 -0.5547  0.0788  1.1639
 6575SOL    HW231185   0.341   3.066  16.645 -0.3803 -1.2792 -0.7493
 6576SOL     OW31186   0.567   4.246   5.709  0.6182 -0.1955 -0.0229
 6576SOL    HW131187   0.623   4.218   5.782 -0.8683 -0.5403  0.9724
 6576SOL    HW231188   0.502   4.292   5.761 -1.0128 -0.8707 -1.4651
 6577SOL     OW31189   0.050   4.162  11.190 -0.1820  0.7666  0.4063
 6577SOL    HW131190   0.084   4.194  11.107  0.6666  0.7423  0.7415
 6577SOL    HW231191   0.040   4.246  11.237 -0.4231 -0.5469  2.7192
 6578SOL     OW31192   4.316   0.116   4.686  0.0794 -0.1850 -0.3170
 6578SOL    HW131193   4.338   0.209   4.680 -0.6271  0.0760  0.9845
 6578SOL    HW231194   4.276   0.105   4.773  2.3206  0.9837  0.8676
 6579SOL     OW31195   2.303   4.180   3.013  0.6092 -0.3735  0.9065
 6579SOL    HW131196   2.257   4.098   2.994 -0.4363  0.7117 -1.3332
 6579SOL    HW231197   2.237   4.238   3.050 -1.6192 -0.9370 -2.1696
 6580SOL     OW31198   2.271   0.668   4.296 -0.3120  0.4123 -0.0906
 6580SOL    HW131199   2.207   0.598   4.287  0.1103 -0.1840  1.5470
 6580SOL    HW231200   2.310   0.669   4.209  1.0769  0.2000  0.5252
 6581SOL     OW31201   1.568   2.786   4.690 -0.0405  0.5198  0.6087
 6581SOL    HW131202   1.651   2.815   4.728 -0.2777  1.2041  0.6048
 6581SOL    HW231203   1.571   2.692   4.707  4.4363  0.4823 -0.4367
 6582SOL     OW31204   3.693   2.264   6.444  0.2148  0.1256 -0.7200
 6582SOL    HW131205   3.785   2.289   6.455  0.4256 -0.8370 -0.2976
 6582SOL    HW231206   3.652   2.349   6.430  0.1221 -0.1325 -2.0248
 6583SOL     OW31207   4.144   2.165   2.501  0.1097 -0.1442 -0.4952
 6583SOL    HW131208   4.200   2.088   2.494 -2.3404 -1.8326 -1.3269
 6583SOL    HW231209   4.159   2.209   2.417  1.1792 -0.7318 -0.6087
 6584SOL     OW31210   2.593   1.046   0.225  0.2241 -1.1550 -0.4643
 6584SOL    HW131211   2.618   1.080   0.310 -2.8181  0.2519 -0.1245
 6584SOL    HW231212   2.682   1.027   0.195  1.1958  0.8994  1.1569
 6585SOL     OW31213   1.309   2.113   3.816 -0.3889 -0.0058  0.4410
 6585SOL    HW131214   1.292   2.085   3.726 -2.4938 -3.0683  1.7866
 6585SOL    HW231215   1.403   2.129   3.809 -0.6425  0.6619 -1.4829
 6586SOL     OW31216   2.924   4.517   4.650  0.3402  0.1594 -0.5253
 6586SOL    HW131217   2.989   4.531   4.580 -1.1228 -1.7714 -2.2569
 6586SOL    HW231218   2.972   4.549   4.726  1.3452 -0.2537 -0.9846
 6587SOL     OW31219   1.657   2.132   6.217  0.0933  0.0505  0.7028
 6587SOL    HW131220   1.615   2.046   6.219  1.6395 -0.7288  0.1583
 6587SOL    HW231221   1.747   2.103   6.199  0.3435  2.0150 -1.2333
 6588SOL     OW31222   2.716   3.158  17.604 -0.2282 -0.0975 -0.1819
 6588SOL    HW131223   2.693   3.250  17.591  1.4430  0.0655 -1.8895
 6588SOL    HW231224   2.632   3.121  17.633 -0.5013  0.6440 -0.0230
 6589SOL     OW31225   4.397   0.573   5.026 -0.0999  0.3718 -0.4979
 6589SOL    HW131226   4.462   0.618   5.080  0.7288 -0.1456 -1.0709
 6589SOL    HW231227   4.353   0.649   4.986 -1.0700 -0.1422 -0.4211
 6590SOL     OW31228   1.730   4.650  13.530 -0.0290  0.4145 -0.5192
 6590SOL    HW131229   1.777   0.010  13.516 -1.1724  1.1545  0.0834
 6590SOL    HW231230   1.644   4.692  13.526 -0.3515 -0.2155 -0.2365
 6591SOL     OW31231   0.039   0.633   6.140 -0.1346 -0.1945  0.0499
 6591SOL    HW131232   4.696   0.697   6.166  1.8437  1.2865  1.4369
 6591SOL    HW231233   0.071   0.612   6.227 -2.1530 -1.6711  0.4251
 6592SOL     OW31234   3.011   0.562   5.270  0.0879  0.0751 -0.2717
 6592SOL    HW131235   2.962   0.578   5.350 -1.7421 -1.9395 -0.9926
 6592SOL    HW231236   3.014   0.653   5.240 -1.3387  1.0859  2.6856
 6593SOL     OW31237   4.424   4.610   5.986  0.1855 -0.6373 -0.1150
 6593SOL    HW131238   4.335   4.624   5.955  0.0767 -0.1694  0.3919
 6593SOL    HW231239   4.474   4.651   5.915  0.1430  1.0153  0.7980
 6594SOL     OW31240   2.053   3.991  14.852 -0.1821 -0.2453  0.0018
 6594SOL    HW131241   1.989   3.935  14.808 -1.1928 -1.5668  3.1451
 6594SOL    HW231242   2.009   4.074  14.866  2.2070  0.4555  3.2986
 6595SOL     OW31243   2.887   1.614   3.103 -0.0969  0.3215  0.7585
 6595SOL    HW131244   2.792   1.606   3.114 -0.4138  1.7161 -0.9684
 6595SOL    HW231245   2.905   1.523   3.125 -0.9297  0.2920  1.3480
 6596SOL     OW31246   1.215   3.611   2.486 -0.2245  0.6063 -0.0249
 6596SOL    HW131247   1.153   3.550   2.445 -0.0795 -0.3424  1.1588
 6596SOL    HW231248   1.253   3.670   2.422  1.1857 -2.1712 -1.7489
 6597SOL     OW31249   3.603   4.015   2.191  0.2206 -0.3876 -0.2464
 6597SOL    HW131250   3.508   4.023   2.192  0.3311  0.9060 -0.9327
 6597SOL    HW231251   3.612   3.961   2.270  3.6813  0.6772  0.0961
 6598SOL     OW31252   1.413   3.949   0.363  0.4667  0.2919  0.1648
 6598SOL    HW131253   1.338   4.004   0.338 -0.6964 -0.2371  2.4506
 6598SOL    HW231254   1.487   4.007   0.346 -1.6872  2.5231 -1.7084
 6599SOL     OW31255   1.844   2.521   5.458 -0.1070  0.6860 -0.2065
 6599SOL    HW131256   1.869   2.493   5.546 -1.2536  1.1170  0.2576
 6599SOL    HW231257   1.872   2.613   5.458 -0.7594  0.8757  2.5366
 6600SOL     OW31258   3.952   2.828   5.232 -0.2987  0.1201 -0.5168
 6600SOL    HW131259   3.952   2.924   5.226 -0.4718  0.2176  0.9260
 6600SOL    HW231260   3.990   2.799   5.150  1.2190  0.4830  0.0663
 6601SOL     OW31261   2.512   0.652   3.454  0.2647 -0.0009 -0.5095
 6601SOL    HW131262   2.568   0.595   3.400  2.4363 -0.6481  2.4300
 6601SOL    HW231263   2.432   0.642   3.403  0.3794 -0.5488 -0.5909
 6602SOL     OW31264   0.262   1.118   8.024  0.0041 -0.1412 -0.4290
 6602SOL    HW131265   0.308   1.188   8.071  1.5036 -1.7995  0.5665
 6602SOL    HW231266   0.194   1.168   7.978  1.0481  0.0101 -1.8046
 6603SOL     OW31267   3.357   0.485  16.630 -0.5971  0.0859  0.2895
 6603SOL    HW131268   3.270   0.495  16.592 -0.9307 -1.0931  0.7249
 6603SOL    HW231269   3.335   0.497  16.722  0.7975  0.2144  0.5971
 6604SOL     OW31270   1.202   4.682   5.347 -0.3309 -0.4241 -0.1426
 6604SOL    HW131271   1.281   4.632   5.324  1.1392  1.0689  1.5845
 6604SOL    HW231272   1.213   0.038   5.294 -0.1039  0.3457  1.0368
 6605SOL     OW31273   4.516   0.816   1.105 -0.3866 -0.1175  0.0536
 6605SOL    HW131274   4.555   0.903   1.112  2.5036 -1.3494 -0.7584
 6605SOL    HW231275   4.594   0.769   1.076 -0.2868  0.1469 -0.1110
 6606SOL     OW31276   0.691   3.863  16.384 -0.7474  0.1673  0.2999
 6606SOL    HW131277   0.653   3.887  16.300  1.4426  1.3439 -0.3661
 6606SOL    HW231278   0.632   3.908  16.444 -2.1563  0.2029 -1.1129
 6607SOL     OW31279   3.134   2.692   2.639  0.0670  0.3983  0.4042
 6607SOL    HW131280   3.047   2.660   2.662 -0.5858  1.1991 -0.9087
 6607SOL    HW231281   3.098   2.734   2.561  4.3646 -0.7957 -2.2097
 6608SOL     OW31282   3.953   1.456   4.696  0.7871  0.0362  0.2618
 6608SOL    HW131283   3.956   1.398   4.772  0.5571  0.6460  0.7360
 6608SOL    HW231284   3.957   1.542   4.739 -1.4469  1.0359 -1.4760
 6609SOL     OW31285   3.822   0.457   8.889  0.5042 -0.0758  0.8508
 6609SOL    HW131286   3.899   0.458   8.832  0.9909  0.8599  1.5254
 6609SOL    HW231287   3.749   0.466   8.828  1.4182  1.9310  0.0428
 6610SOL     OW31288   1.999   1.418   0.936  0.0113  0.6356 -0.0830
 6610SOL    HW131289   1.930   1.476   0.905  0.2242 -0.7554 -3.2178
 6610SOL    HW231290   2.006   1.360   0.860  1.6639  0.7059  0.0227
 6611SOL     OW31291   4.319   2.848  15.065  0.3190 -0.8474  0.2420
 6611SOL    HW131292   4.359   2.934  15.058 -2.0966  0.2455 -0.0326
 6611SOL    HW231293   4.313   2.837  14.970 -0.3873 -0.8858  0.2906
 6612SOL     OW31294   4.345   3.652  12.658 -0.4435  0.5421 -0.5354
 6612SOL    HW131295   4.296   3.583  12.703  0.5340  0.7663  0.8852
 6612SOL    HW231296   4.362   3.710  12.733 -0.9732 -1.0573  0.8353
 6613SOL     OW31297   2.620   0.469   3.276 -0.2374  0.1104  0.4418
 6613SOL    HW131298   2.607   0.379   3.305 -1.0946  0.4820  1.2127
 6613SOL    HW231299   2.680   0.462   3.202  0.3952  3.0181  0.6715
 6614SOL     OW31300   0.798   1.008  13.246  0.6837  0.0223  0.0617
 6614SOL    HW131301   0.797   1.030  13.339 -1.1328 -0.6809  0.1955
 6614SOL    HW231302   0.890   0.984  13.235  0.1819 -1.6292 -0.5906
 6615SOL     OW31303   2.108   4.081   5.531 -0.3454 -0.0495  0.2910
 6615SOL    HW131304   2.130   4.041   5.615  1.0920 -1.5552 -0.7985
 6615SOL    HW231305   2.076   4.016   5.469 -1.2607  0.8564 -0.1902
 6616SOL     OW31306   2.860   1.104   5.704 -0.1365 -0.9270 -0.0641
 6616SOL    HW131307   2.825   1.016   5.717 -0.9274 -0.6591 -0.3501
 6616SOL    HW231308   2.929   1.114   5.768  0.4314 -1.9841 -0.5098
 6617SOL     OW31309   1.488   3.259   8.068 -0.5172  0.2509  0.5711
 6617SOL    HW131310   1.489   3.178   8.017  1.3016  0.9799 -0.5358
 6617SOL    HW231311   1.574   3.246   8.108 -0.3502  0.5844  0.3089
 6618SOL     OW31312   0.582   1.636   3.431  0.4042 -0.0620  0.2063
 6618SOL    HW131313   0.667   1.618   3.470 -1.1810 -0.4898  3.4112
 6618SOL    HW231314   0.589   1.731   3.417  1.3661  0.0897  1.8141
 6619SOL     OW31315   0.422   1.436   5.928  0.2148 -0.0486 -1.0302
 6619SOL    HW131316   0.506   1.434   5.883  1.0546  0.2835  0.5063
 6619SOL    HW231317   0.361   1.473   5.865 -1.8228  0.7712  1.4037
 6620SOL     OW31318   0.482   2.425   6.314  0.0069 -0.1455  0.3361
 6620SOL    HW131319   0.401   2.384   6.343 -1.2633  0.8818 -1.8199
 6620SOL    HW231320   0.523   2.359   6.258  0.5244 -0.0343  0.5756
 6621SOL     OW31321   2.350   2.509  10.422 -0.7814 -0.0680  0.1509
 6621SOL    HW131322   2.388   2.447  10.360  0.2594 -0.9404  1.6722
 6621SOL    HW231323   2.433   2.552  10.442  0.4267 -1.4207 -2.0194
 6622SOL     OW31324   3.084   2.669   8.415 -0.0417  0.2349  0.1829
 6622SOL    HW131325   3.171   2.709   8.423  1.1832 -2.5322  0.6274
 6622SOL    HW231326   3.045   2.752   8.443  0.9306  0.9678 -0.6115
 6623SOL     OW31327   3.961   1.704   9.494 -0.0079 -0.9589 -0.5097
 6623SOL    HW131328   4.017   1.752   9.555 -1.5277 -0.2036  0.3005
 6623SOL    HW231329   4.000   1.729   9.410  1.4843  0.6434  0.6409
 6624SOL     OW31330   0.626   0.122   5.489  0.2459 -0.7976  0.6996
 6624SOL    HW131331   0.655   0.070   5.564  0.8067  1.4013  1.9942
 6624SOL    HW231332   0.614   0.056   5.420 -2.0446 -0.9317  1.2222
 6625SOL     OW31333   4.419   3.012  13.168  0.9517 -0.1911  0.3677
 6625SOL    HW131334   4.507   3.017  13.132  1.0647  2.4369  1.0404
 6625SOL    HW231335   4.439   3.081  13.230  1.1543  1.2057 -1.2637
 6626SOL     OW31336   2.567   2.225   4.966 -0.2161  0.1580  0.3290
 6626SOL    HW131337   2.535   2.308   5.001 -0.0834 -0.0132  0.8533
 6626SOL    HW231338   2.497   2.168   4.999  0.2491 -0.9192 -0.5709
 6627SOL     OW31339   2.074   2.988   3.797  0.4441 -0.3623 -0.6466
 6627SOL    HW131340   2.085   3.000   3.891  1.0997  0.7506 -0.8654
 6627SOL    HW231341   1.984   2.957   3.794 -0.2117  1.3773  1.6533
 6628SOL     OW31342   1.174   4.045   5.919 -0.1597  0.2621 -0.0109
 6628SOL    HW131343   1.267   4.065   5.928  0.0975 -0.5171 -1.0280
 6628SOL    HW231344   1.154   4.079   5.832 -0.3709 -0.3272 -0.1916
 6629SOL     OW31345   1.848   1.080  12.404  0.0053  0.3432 -0.1336
 6629SOL    HW131346   1.918   1.038  12.453  3.0779  1.4832 -3.5396
 6629SOL    HW231347   1.849   1.016  12.334  1.2090  0.2156 -0.0042
 6630SOL     OW31348   1.741   0.811  17.422 -0.2201 -0.1701 -0.0629
 6630SOL    HW131349   1.744   0.756  17.343  0.4100 -0.5197  0.2085
 6630SOL    HW231350   1.738   0.902  17.391 -2.1269 -0.2233 -0.0092
 6631SOL     OW31351   3.230   4.374   2.840 -0.1710  0.2314 -0.0904
 6631SOL    HW131352   3.171   4.420   2.900  0.7787 -1.1972  1.9250
 6631SOL    HW231353   3.180   4.371   2.758  1.4153 -3.6527 -0.8915
 6632SOL     OW31354   1.338   2.004   2.295  0.0128 -0.6932 -0.3639
 6632SOL    HW131355   1.301   2.057   2.365 -0.0027 -0.4930 -0.5250
 6632SOL    HW231356   1.357   2.070   2.229  3.1699 -0.6474  0.5767
 6633SOL     OW31357   4.237   2.600   5.726 -0.1300  0.0357 -0.0980
 6633SOL    HW131358   4.265   2.533   5.789 -2.0098 -0.3643  0.3142
 6633SOL    HW231359   4.148   2.614   5.757 -0.1633  0.3970 -0.3498
 6634SOL     OW31360   0.822   2.686   9.114 -0.3230 -0.5121 -0.0762
 6634SOL    HW131361   0.808   2.617   9.178 -3.0291  1.4033  1.3840
 6634SOL    HW231362   0.915   2.693   9.135 -0.1688  0.0368 -0.9515
 6635SOL     OW31363   1.650   2.603   1.715  0.0912  0.0378  0.3171
 6635SOL    HW131364   1.696   2.579   1.795  0.1396  0.3415  0.3796
 6635SOL    HW231365   1.612   2.686   1.742  0.1538  0.1912 -0.0656
 6636SOL     OW31366   2.143   2.120   6.563 -0.0272 -0.5035  0.4419
 6636SOL    HW131367   2.179   2.041   6.603  0.1528  0.2877  1.8379
 6636SOL    HW231368   2.198   2.139   6.487  0.9419 -0.3119  1.1899
 6637SOL     OW31369   3.237   4.284   5.460  0.7092  1.1007  0.3145
 6637SOL    HW131370   3.166   4.336   5.498 -0.1364  0.5959 -0.5784
 6637SOL    HW231371   3.300   4.352   5.435  3.6702 -0.9993  2.0384
 6638SOL     OW31372   3.095   0.379   6.625  0.3212 -0.0125 -0.3725
 6638SOL    HW131373   3.112   0.292   6.591 -1.8532 -0.0531 -1.3524
 6638SOL    HW231374   3.149   0.428   6.563 -0.3367  1.7087  0.4191
 6639SOL     OW31375   1.201   0.958   2.575  1.0871 -0.4495 -0.4637
 6639SOL    HW131376   1.242   0.910   2.504  0.6121 -0.8133 -0.4890
 6639SOL    HW231377   1.220   1.047   2.544 -0.4476 -0.3138 -0.9963
 6640SOL     OW31378   2.277   1.990   5.552  0.7292  0.0382  1.0509
 6640SOL    HW131379   2.258   2.081   5.530  0.6262 -0.3363 -0.3986
 6640SOL    HW231380   2.192   1.950   5.532  2.5567 -2.3029 -2.1259
 6641SOL     OW31381   3.820   0.377   9.138 -0.3329  0.2584 -0.5718
 6641SOL    HW131382   3.827   0.459   9.186 -1.3944  1.0486 -1.7751
 6641SOL    HW231383   3.830   0.405   9.047  0.9577  0.0324 -0.5034
 6642SOL     OW31384   3.158   4.229   1.533  0.4469 -0.1802 -0.4712
 6642SOL    HW131385   3.148   4.305   1.475  1.2653  0.3111  0.0274
 6642SOL    HW231386   3.176   4.160   1.469  1.4695  0.1946 -0.5911
 6643SOL     OW31387   1.905   2.984  17.509  0.5842 -0.1066 -0.0444
 6643SOL    HW131388   1.843   2.912  17.496 -2.4402  2.6268 -0.5549
 6643SOL    HW231389   1.912   2.983  17.604  0.5160 -0.2738 -0.0401
 6644SOL     OW31390   3.482   1.104   4.965 -0.0320  0.3380 -0.0315
 6644SOL    HW131391   3.466   1.198   4.965  2.6553  0.7863  2.0716
 6644SOL    HW231392   3.423   1.072   4.896  2.3970 -1.6510 -1.1894
 6645SOL     OW31393   3.378   0.825   9.110  0.0444  0.1268 -0.3938
 6645SOL    HW131394   3.373   0.774   9.191  0.2006  1.5654  0.5070
 6645SOL    HW231395   3.465   0.796   9.082  1.5282  2.3100  1.9498
 6646SOL     OW31396   3.306   4.077   5.851 -0.2138 -0.1202 -0.0343
 6646SOL    HW131397   3.361   4.018   5.800  1.2365  2.4901 -1.4929
 6646SOL    HW231398   3.333   4.053   5.939 -1.7506  1.4748  0.8738
 6647SOL     OW31399   1.663   4.320   3.590  0.1290  0.4490 -0.1050
 6647SOL    HW131400   1.578   4.353   3.561 -0.4568 -0.1629  0.9050
 6647SOL    HW231401   1.710   4.326   3.507  2.2011  0.8881  1.1010
 6648SOL     OW31402   2.302   2.450   3.521  0.4067  0.3503 -0.4714
 6648SOL    HW131403   2.279   2.377   3.578  2.1377 -0.0511 -0.2698
 6648SOL    HW231404   2.393   2.423   3.505  0.1415 -1.0637  0.4186
 6649SOL     OW31405   2.126   1.280   6.174  0.2550  0.6761  0.2444
 6649SOL    HW131406   2.199   1.316   6.124 -0.6613  1.8059 -0.2899
 6649SOL    HW231407   2.112   1.194   6.134 -0.2825  1.1079 -0.4939
 6650SOL     OW31408   4.234   3.745  10.809  0.1356  0.3184 -0.5727
 6650SOL    HW131409   4.308   3.751  10.748  0.5873  1.4843  0.0801
 6650SOL    HW231410   4.238   3.837  10.836 -1.2933  0.2829 -0.2597
 6651SOL     OW31411   0.962   0.066   3.567 -0.2886 -0.1511 -0.0297
 6651SOL    HW131412   1.038   0.122   3.552  0.4823 -1.7103 -1.9122
 6651SOL    HW231413   0.997   4.700   3.564 -0.0961 -0.0652 -0.4791
 6652SOL     OW31414   3.412   3.097   9.005  0.2530  0.4647  0.4949
 6652SOL    HW131415   3.450   3.137   9.083  0.6733  2.0015 -0.4879
 6652SOL    HW231416   3.399   3.007   9.037  2.0659 -0.5587 -1.6185
 6653SOL     OW31417   0.304   4.311   6.505  0.8592  0.7055 -0.2895
 6653SOL    HW131418   0.338   4.278   6.422  1.0287 -0.6132  0.3098
 6653SOL    HW231419   0.322   4.235   6.560 -2.4088 -0.3820 -0.7435
 6654SOL     OW31420   3.257   2.918   6.663 -0.0197 -0.0409  0.6231
 6654SOL    HW131421   3.175   2.890   6.703 -1.0422  0.8002 -0.8609
 6654SOL    HW231422   3.325   2.870   6.709  0.7667 -1.3076 -1.8703
 6655SOL     OW31423   2.411   2.058   7.420  0.4038  0.3506  0.1130
 6655SOL    HW131424   2.415   2.022   7.509  1.4977  0.8166  0.2542
 6655SOL    HW231425   2.322   2.092   7.407  0.7717  1.6265  0.8798
 6656SOL     OW31426   0.621   4.352   8.309  0.2511 -0.0501  0.4703
 6656SOL    HW131427   0.674   4.319   8.381 -1.3530 -2.2612  0.6600
 6656SOL    HW231428   0.663   4.437   8.299 -2.2724  1.0624 -0.6912
 6657SOL     OW31429   0.618   0.647   3.086 -0.0356  0.5757  0.3053
 6657SOL    HW131430   0.569   0.629   3.006 -1.9504  0.1306  1.5723
 6657SOL    HW231431   0.708   0.661   3.055  0.8059 -0.1377  2.4079
 6658SOL     OW31432   0.367   2.804  13.092 -0.4674 -0.2068  0.3097
 6658SOL    HW131433   0.317   2.742  13.039 -1.7978  1.6879 -0.6993
 6658SOL    HW231434   0.319   2.803  13.175 -1.7515  1.1586 -0.4071
 6659SOL     OW31435   1.350   1.928   4.419  0.4290 -0.0559 -0.5309
 6659SOL    HW131436   1.296   2.005   4.436  1.8061  0.9347 -0.5612
 6659SOL    HW231437   1.285   1.858   4.418  1.0535 -0.6215 -2.6739
 6660SOL     OW31438   3.402   0.667   5.765  0.1673 -0.1601  0.3591
 6660SOL    HW131439   3.480   0.716   5.736 -0.3318  1.9053  2.4869
 6660SOL    HW231440   3.442   0.604   5.825 -1.4457 -0.4490  1.1151
 6661SOL     OW31441   4.298   2.449   5.926 -0.1253  0.2211 -0.4704
 6661SOL    HW131442   4.333   2.378   5.979 -0.5211 -0.9794 -1.8231
 6661SOL    HW231443   4.308   2.517   5.994  0.6893 -1.1552  0.7843
 6662SOL     OW31444   3.299   1.776   3.721 -0.0358 -0.0027  0.8458
 6662SOL    HW131445   3.217   1.824   3.729  0.3653  0.5180  1.8492
 6662SOL    HW231446   3.281   1.714   3.650 -1.9732  0.2569  1.1147
 6663SOL     OW31447   4.705   2.353  10.329 -0.1644 -0.9148 -0.1839
 6663SOL    HW131448   4.673   2.396  10.249 -0.5451  1.3582  1.1696
 6663SOL    HW231449   4.625   2.307  10.354  0.3263 -0.8378  1.5777
 6664SOL     OW31450   1.081   3.931   4.415 -0.3772 -0.7051 -0.0403
 6664SOL    HW131451   1.095   3.989   4.340  1.8784 -0.9428  0.2029
 6664SOL    HW231452   1.000   3.884   4.395 -0.0082 -0.2139 -2.6988
 6665SOL     OW31453   3.754   2.811   0.910 -0.4612 -0.0965 -0.4054
 6665SOL    HW131454   3.693   2.776   0.974  1.7580  0.9887  2.3253
 6665SOL    HW231455   3.835   2.833   0.957 -0.7037  0.4943 -0.2722
 6666SOL     OW31456   0.878   2.548  10.479 -0.4702 -0.4951 -0.4594
 6666SOL    HW131457   0.834   2.584  10.556  0.4835 -0.0498 -0.1201
 6666SOL    HW231458   0.917   2.621  10.431  1.4940 -1.4527 -0.3396
 6667SOL     OW31459   1.991   3.525  14.841 -0.2763 -0.4665 -0.1777
 6667SOL    HW131460   2.040   3.475  14.775 -2.1559  1.0562 -2.7370
 6667SOL    HW231461   2.002   3.459  14.909  0.7316  1.2779  1.3433
 6668SOL     OW31462   1.269   1.686   5.860  0.0739 -0.6504  0.7419
 6668SOL    HW131463   1.326   1.763   5.853  0.7315 -1.0078  2.1913
 6668SOL    HW231464   1.328   1.616   5.834 -1.9982 -1.7701 -0.9408
 6669SOL     OW31465   0.287   1.355   6.597 -0.2385 -0.1162 -0.6430
 6669SOL    HW131466   0.326   1.355   6.510 -0.9808 -0.4567 -0.9684
 6669SOL    HW231467   0.361   1.406   6.631  0.2486 -1.1723 -0.0868
 6670SOL     OW31468   0.323   1.848   0.935  0.1104 -0.3753  0.1529
 6670SOL    HW131469   0.399   1.891   0.897  0.0452  2.5986  3.2949
 6670SOL    HW231470   0.296   1.920   0.993  0.3908  0.3211 -0.5818
 6671SOL     OW31471   1.080   3.352   7.265  0.9225  0.2698 -0.0908
 6671SOL    HW131472   1.128   3.414   7.211 -0.3203  1.0986 -0.2484
 6671SOL    HW231473   1.041   3.423   7.316  2.2823 -1.3074  3.1647
 6672SOL     OW31474   0.962   0.795   5.175  0.2753 -0.7197 -0.5101
 6672SOL    HW131475   0.879   0.782   5.130  1.2940 -0.9742 -2.2949
 6672SOL    HW231476   0.942   0.800   5.268 -0.5509 -1.1822 -0.6644
 6673SOL     OW31477   1.069   3.825   3.651 -0.1593 -0.0004  0.4262
 6673SOL    HW131478   1.040   3.789   3.735 -0.4330 -1.5727 -0.3392
 6673SOL    HW231479   1.155   3.786   3.635  0.6763  1.6749  0.8145
 6674SOL     OW31480   1.047   0.929   2.203  0.0216 -0.2423  0.1433
 6674SOL    HW131481   1.128   0.979   2.215  0.6357 -0.3273 -3.6287
 6674SOL    HW231482   0.993   0.974   2.268 -0.3724  1.2780 -1.2323
 6675SOL     OW31483   4.045   4.502   8.237 -0.4166  0.4100  0.2086
 6675SOL    HW131484   3.986   4.459   8.298  0.5363  0.5318  1.2061
 6675SOL    HW231485   4.011   4.592   8.241 -1.7408 -0.1594  1.3764
 6676SOL     OW31486   1.204   3.692   1.011  0.0597  0.3566  0.0733
 6676SOL    HW131487   1.299   3.702   1.023  0.1777  0.9537 -1.2860
 6676SOL    HW231488   1.172   3.781   1.028 -2.2587 -0.4633 -0.1107
 6677SOL     OW31489   4.495   3.768   7.027  0.5943 -0.3767 -0.4995
 6677SOL    HW131490   4.431   3.812   7.084  1.3351  0.4453 -0.3176
 6677SOL    HW231491   4.575   3.799   7.068  1.5532 -0.3986 -2.3460
 6678SOL     OW31492   3.817   0.396   4.371  0.1258 -0.0483 -0.3027
 6678SOL    HW131493   3.908   0.371   4.385  0.5416  1.1767 -0.8238
 6678SOL    HW231494   3.821   0.461   4.301 -0.3861  1.7448  1.3339
 6679SOL     OW31495   4.580   0.205   8.033 -0.1694 -0.3709 -0.5028
 6679SOL    HW131496   4.600   0.177   8.122  0.3453 -1.3106 -0.9125
 6679SOL    HW231497   4.594   0.126   7.982 -0.8844 -1.4094  0.9044
 6680SOL     OW31498   3.097   0.418   3.832  0.3328 -0.0850  0.3303
 6680SOL    HW131499   3.102   0.322   3.836  0.8352 -0.0295  1.0891
 6680SOL    HW231500   3.011   0.428   3.872 -0.0196 -1.6685 -0.0169
 6681SOL     OW31501   4.696   1.626   3.278  0.0598 -0.6200 -0.1251
 6681SOL    HW131502   4.620   1.614   3.336  0.3974  0.3304  0.5174
 6681SOL    HW231503   0.005   1.711   3.310 -1.2417 -0.7110  1.4043
 6682SOL     OW31504   1.233   4.495   3.095 -0.4338  0.2993  0.3740
 6682SOL    HW131505   1.261   4.541   3.016  0.8596 -2.2233 -0.6335
 6682SOL    HW231506   1.315   4.498   3.145 -1.3599  1.8135  1.8023
 6683SOL     OW31507   1.501   1.415   7.128 -0.3161 -0.2587  0.3098
 6683SOL    HW131508   1.505   1.356   7.203  3.0334 -0.2416  0.1591
 6683SOL    HW231509   1.526   1.356   7.057  0.8217 -1.0462  1.3753
 6684SOL     OW31510   4.365   0.646   4.536 -0.2438  0.6084  0.0939
 6684SOL    HW131511   4.357   0.723   4.481  1.6345  0.9403  0.2746
 6684SOL    HW231512   4.303   0.666   4.606 -0.2654  1.8306 -0.2822
 6685SOL     OW31513   0.892   1.609   3.316 -0.1713 -0.1352  0.0637
 6685SOL    HW131514   0.951   1.607   3.391 -0.3333  0.7605  0.2159
 6685SOL    HW231515   0.926   1.540   3.260 -0.1782 -0.7281  0.7956
 6686SOL     OW31516   3.039   4.257   2.305  0.1483 -0.3283  0.0138
 6686SOL    HW131517   3.007   4.343   2.334 -0.6238 -0.4141 -0.5628
 6686SOL    HW231518   2.958   4.212   2.282  0.8845 -1.4881 -0.2721
 6687SOL     OW31519   0.941   4.551   5.289 -0.3444  0.0905 -0.2251
 6687SOL    HW131520   0.903   4.639   5.282 -3.1160 -1.1194 -0.4876
 6687SOL    HW231521   0.868   4.503   5.328 -1.0496  1.4513  0.1265
 6688SOL     OW31522   2.928   0.877  11.332 -0.2471  0.2654 -0.3473
 6688SOL    HW131523   2.848   0.906  11.376  0.4054 -0.3064  1.2171
 6688SOL    HW231524   2.951   0.969  11.319  0.3218  0.2259  0.3202
 6689SOL     OW31525   0.981   0.701  17.473  0.2486  0.0350  0.2698
 6689SOL    HW131526   0.983   0.789  17.512 -2.6059 -0.6520  1.9628
 6689SOL    HW231527   0.950   0.716  17.383 -0.4508 -2.8922  0.0103
 6690SOL     OW31528   4.518   3.693   4.644  0.3207 -0.5788 -0.9422
 6690SOL    HW131529   4.441   3.640   4.665  0.4807 -0.0139  1.0665
 6690SOL    HW231530   4.467   3.763   4.604  1.3824 -0.0011 -1.3051
 6691SOL     OW31531   4.242   1.694   3.064 -0.6630  0.7483 -0.0513
 6691SOL    HW131532   4.310   1.748   3.023  0.2478 -1.1209 -0.9858
 6691SOL    HW231533   4.277   1.699   3.153 -0.8895  2.5721 -0.0663
 6692SOL     OW31534   2.356   0.244  10.932 -0.1211  0.1509  0.1167
 6692SOL    HW131535   2.364   0.160  10.977 -0.4550  0.4572  0.7454
 6692SOL    HW231536   2.283   0.222  10.873 -1.4073  0.4425  1.5930
 6693SOL     OW31537   3.297   2.078  15.067 -0.5519 -0.0186  0.3639
 6693SOL    HW131538   3.277   1.987  15.087 -0.4648  0.1684  1.2948
 6693SOL    HW231539   3.392   2.069  15.067 -0.6591 -1.1888 -0.6345
 6694SOL     OW31540   3.320   4.549   7.254  0.6699 -0.1611 -0.8396
 6694SOL    HW131541   3.316   4.512   7.166 -2.2158 -1.3141 -0.2144
 6694SOL    HW231542   3.353   4.638   7.243 -1.2181  0.8513  1.6389
 6695SOL     OW31543   0.505   3.598   8.976  0.0589  0.0568 -0.1327
 6695SOL    HW131544   0.503   3.553   8.891 -1.0011  0.3713 -0.2787
 6695SOL    HW231545   0.573   3.662   8.957 -3.0070  3.1237 -0.7970
 6696SOL     OW31546   2.247   3.798   5.720 -0.2903  0.4774  0.3741
 6696SOL    HW131547   2.308   3.787   5.794 -0.3100  1.0214  0.4689
 6696SOL    HW231548   2.167   3.754   5.750  0.9464 -0.2298  2.7169
 6697SOL     OW31549   2.142   0.147  10.806  0.4723 -0.1843  0.0131
 6697SOL    HW131550   2.123   0.080  10.872  0.4487  0.2643  0.4579
 6697SOL    HW231551   2.076   0.129  10.739  1.4565 -1.7708 -0.5603
 6698SOL     OW31552   1.989   0.837   9.711 -0.5781 -0.2258  0.5961
 6698SOL    HW131553   1.961   0.893   9.639  1.4991  0.6428  0.4724
 6698SOL    HW231554   1.916   0.775   9.715  0.5024 -1.4646  1.3103
 6699SOL     OW31555   0.159   3.773  15.749 -0.1064 -0.4628 -0.0014
 6699SOL    HW131556   0.123   3.689  15.719  0.4934 -0.6802 -0.1187
 6699SOL    HW231557   0.075   3.820  15.753  0.3158  0.4871 -2.3242
 6700SOL     OW31558   3.623   0.806   3.585  0.3989 -0.2113 -0.0147
 6700SOL    HW131559   3.660   0.884   3.627  0.4193 -0.0746 -0.2833
 6700SOL    HW231560   3.544   0.840   3.544 -0.1210  0.3337  1.4519
 6701SOL     OW31561   4.403   3.092  15.706  0.4256 -0.0377 -0.4363
 6701SOL    HW131562   4.356   3.157  15.758 -1.3987 -0.9298 -0.9988
 6701SOL    HW231563   4.495   3.116  15.718  0.4711 -1.5147  2.3815
 6702SOL     OW31564   1.674   2.873  15.443 -0.0061  0.3549  0.2904
 6702SOL    HW131565   1.748   2.837  15.492 -0.5309 -0.8508  0.2052
 6702SOL    HW231566   1.711   2.942  15.389 -0.4381  1.0194  0.8439
 6703SOL     OW31567   4.218   2.403   9.046  0.7329 -0.2375  0.1455
 6703SOL    HW131568   4.191   2.343   9.115  1.0607  0.1058  0.5711
 6703SOL    HW231569   4.184   2.357   8.969 -0.0165  0.3073  0.1492
 6704SOL     OW31570   0.860   0.456   7.683  0.2091 -0.3531  0.3914
 6704SOL    HW131571   0.929   0.520   7.703 -2.7288  3.0273 -0.4723
 6704SOL    HW231572   0.830   0.486   7.598  2.1180  3.1740  0.9670
 6705SOL     OW31573   1.646   2.230  14.172  0.5569  0.7595 -0.2548
 6705SOL    HW131574   1.572   2.249  14.114 -0.1368 -1.1269  0.0269
 6705SOL    HW231575   1.632   2.299  14.238 -0.2239  0.8380 -0.5002
 6706SOL     OW31576   2.861   3.970   2.725  0.4735 -0.5697  0.2458
 6706SOL    HW131577   2.868   3.881   2.690  0.7836 -0.3523 -0.2521
 6706SOL    HW231578   2.947   3.971   2.767  0.5343 -0.9559  0.1370
 6707SOL     OW31579   4.281   1.985   8.692  0.4039  0.2084  0.3376
 6707SOL    HW131580   4.257   1.900   8.657  0.0889  0.7796 -0.8412
 6707SOL    HW231581   4.196   2.029   8.702 -0.6259 -1.4510 -1.2410
 6708SOL     OW31582   1.248   2.760   6.752 -0.3836 -0.1472  0.5984
 6708SOL    HW131583   1.277   2.780   6.840 -1.3241 -0.4010  0.9692
 6708SOL    HW231584   1.228   2.843   6.707  0.3771  0.0494  0.6322
 6709SOL     OW31585   0.910   1.579   0.222 -0.2208 -0.4295  0.3808
 6709SOL    HW131586   0.956   1.663   0.222 -1.1389  0.0662 -2.6344
 6709SOL    HW231587   0.837   1.612   0.274  0.4550  2.9148 -0.7941
 6710SOL     OW31588   4.461   0.627  16.009 -0.1816 -0.8510 -0.3412
 6710SOL    HW131589   4.395   0.597  15.946 -0.0814 -1.3641 -0.2001
 6710SOL    HW231590   4.422   0.594  16.090  1.0382 -0.4798  0.3787
 6711SOL     OW31591   1.642   4.413   4.522 -0.5959  0.4025 -0.1007
 6711SOL    HW131592   1.618   4.491   4.471  0.6950  0.7694 -0.1393
 6711SOL    HW231593   1.638   4.440   4.614 -0.0616  0.4138 -0.0811
 6712SOL     OW31594   1.567   2.096  14.838  0.2345  0.1195  0.6229
 6712SOL    HW131595   1.530   2.023  14.888  2.7062 -1.8128 -0.3363
 6712SOL    HW231596   1.627   2.057  14.775 -1.2980  3.3746 -2.8452
 6713SOL     OW31597   1.092   4.387   6.332 -0.1228 -0.0215 -0.1156
 6713SOL    HW131598   1.075   4.463   6.387 -1.1530 -0.2265 -0.1628
 6713SOL    HW231599   1.017   4.404   6.275  1.1355  2.6650 -0.9782
 6714SOL     OW31600   1.653   0.357  11.627  0.2491  0.4778 -0.3766
 6714SOL    HW131601   1.738   0.386  11.595  0.6118 -0.1068  0.0448
 6714SOL    HW231602   1.626   0.277  11.581 -0.8378  0.4773  0.2560
 6715SOL     OW31603   2.276   3.402   8.146  0.0398 -0.2919 -0.0177
 6715SOL    HW131604   2.273   3.490   8.108  2.3071  0.0113  0.5157
 6715SOL    HW231605   2.221   3.402   8.225 -1.4530  0.2178 -1.0466
 6716SOL     OW31606   2.709   1.371   1.906  0.1345 -0.3427 -0.2766
 6716SOL    HW131607   2.613   1.367   1.902  0.0953  0.8043 -0.4581
 6716SOL    HW231608   2.739   1.372   1.815 -2.2627  0.0289 -1.0558
 6717SOL     OW31609   0.054   3.023  12.919  0.1739  0.2250  0.3678
 6717SOL    HW131610   0.126   2.970  12.884 -0.4823 -0.2109 -0.3190
 6717SOL    HW231611   0.064   3.099  12.862  1.4925 -0.5158 -0.3941
 6718SOL     OW31612   4.717   3.385   3.369  0.3275  0.8476  0.6487
 6718SOL    HW131613   0.053   3.313   3.391 -0.6651 -0.1903 -0.1247
 6718SOL    HW231614   4.667   3.350   3.295  0.8045  1.2469  0.1356
 6719SOL     OW31615   1.531   0.063  12.914 -0.4300 -0.4660 -0.3760
 6719SOL    HW131616   1.461   0.001  12.896 -2.2300  1.8029 -1.1952
 6719SOL    HW231617   1.512   0.081  13.006 -0.3057  0.3853 -0.5141
 6720SOL     OW31618   4.603   0.475   8.358 -0.0586 -0.1366  0.6559
 6720SOL    HW131619   4.677   0.514   8.313  0.0563 -1.1500 -0.0510
 6720SOL    HW231620   4.577   0.395   8.310 -1.6246 -0.6898  2.3981
 6721SOL     OW31621   3.592   2.017  10.399 -0.4428 -0.1794 -0.5013
 6721SOL    HW131622   3.559   1.982  10.481  0.7195 -0.9733 -0.3805
 6721SOL    HW231623   3.686   2.032  10.409 -0.5862 -0.8781  1.7619
 6722SOL     OW31624   3.722   2.092   0.577 -0.3204 -0.6449  0.2400
 6722SOL    HW131625   3.654   2.136   0.628  1.1115  0.6182  1.0811
 6722SOL    HW231626   3.666   2.069   0.503 -2.2422  2.3259  0.7853
 6723SOL     OW31627   0.839   0.597  13.032 -0.0696 -0.1182  0.3657
 6723SOL    HW131628   0.933   0.615  13.032  0.4855 -3.1479 -0.1208
 6723SOL    HW231629   0.838   0.505  13.007 -2.5992 -0.3249  1.2594
 6724SOL     OW31630   3.828   2.965   2.778  0.3519 -0.8692  0.1907
 6724SOL    HW131631   3.883   2.909   2.723  2.1926  3.1740 -2.1365
 6724SOL    HW231632   3.744   2.926   2.754 -0.6433  0.6259  1.2498
 6725SOL     OW31633   2.374   2.426   7.909 -0.2091  0.1964 -0.0939
 6725SOL    HW131634   2.344   2.424   8.000 -2.2305  0.2673 -0.7692
 6725SOL    HW231635   2.293   2.398   7.866  0.0128 -1.1137  0.3450
 6726SOL     OW31636   2.895   0.783   5.434 -0.5657 -0.1068  0.1116
 6726SOL    HW131637   2.932   0.814   5.352 -1.0528 -0.2655 -0.1636
 6726SOL    HW231638   2.811   0.828   5.432 -0.6785 -0.3250 -0.1105
 6727SOL     OW31639   4.414   3.106   4.778 -0.1905  0.0327 -0.5988
 6727SOL    HW131640   4.411   3.200   4.793 -0.8580  0.2546 -2.0428
 6727SOL    HW231641   4.444   3.096   4.687  1.9391 -2.0681  0.3310
 6728SOL     OW31642   2.619   0.179  14.922  0.0320  0.4365  0.6076
 6728SOL    HW131643   2.714   0.179  14.916  0.0170 -0.8946  0.5125
 6728SOL    HW231644   2.605   0.090  14.890  1.7870 -0.7276  3.1067
 6729SOL     OW31645   2.912   2.004   6.487  0.2435  0.9185 -0.1755
 6729SOL    HW131646   2.840   1.942   6.480  1.2489 -0.4626  1.9743
 6729SOL    HW231647   2.916   2.001   6.582  2.0089  2.5492 -0.1978
 6730SOL     OW31648   2.067   0.512   6.996 -0.0952 -0.0795 -0.1944
 6730SOL    HW131649   2.091   0.526   7.088  0.6556  0.5571 -0.4895
 6730SOL    HW231650   2.084   0.418   6.987 -3.2766 -0.6442 -0.2837
 6731SOL     OW31651   3.182   4.283   4.627  0.3781 -0.2695  0.0410
 6731SOL    HW131652   3.274   4.308   4.620  0.1620  0.9127  1.2161
 6731SOL    HW231653   3.175   4.265   4.721 -2.4381 -0.3955 -0.1913
 6732SOL     OW31654   4.222   3.600   4.391  0.2035 -0.8276 -0.0852
 6732SOL    HW131655   4.246   3.527   4.447  1.3689 -0.8030 -0.5447
 6732SOL    HW231656   4.188   3.558   4.312 -0.6731  2.3371 -1.4290
 6733SOL     OW31657   1.032   1.226   0.014 -0.0489 -0.8692 -0.3722
 6733SOL    HW131658   1.005   1.313  17.679 -0.2391 -1.0047 -0.6056
 6733SOL    HW231659   1.036   1.239   0.109 -0.7953 -0.9226 -0.3368
 6734SOL     OW31660   1.769   4.699   3.129  0.0508 -0.7400  0.0109
 6734SOL    HW131661   1.814   0.015   3.204 -1.8808  2.7738 -0.6275
 6734SOL    HW231662   1.691   0.032   3.124  2.0149  1.9768 -0.1348
 6735SOL     OW31663   1.576   4.664   5.893  0.5604 -0.0867  0.2683
 6735SOL    HW131664   1.579   0.028   5.933 -2.0940  0.3582 -0.5114
 6735SOL    HW231665   1.565   4.678   5.799  2.5273 -1.9606 -0.2469
 6736SOL     OW31666   0.673   2.306   8.890 -0.0636 -0.4194 -0.3559
 6736SOL    HW131667   0.703   2.283   8.802  1.5047 -0.8231  0.2874
 6736SOL    HW231668   0.688   2.400   8.896 -0.0694 -0.3557 -1.3435
 6737SOL     OW31669   4.117   0.950   8.612 -0.1901 -0.3045 -0.4248
 6737SOL    HW131670   4.206   0.967   8.581  0.4038  0.4896  1.7854
 6737SOL    HW231671   4.083   0.869   8.573  1.0737 -1.0454  0.0224
 6738SOL     OW31672   3.352   2.019  17.600 -0.3831  0.1733 -0.2603
 6738SOL    HW131673   3.408   2.061  17.535  0.4879 -0.7425 -0.0951
 6738SOL    HW231674   3.312   1.955  17.541  0.6899  0.3070 -1.1155
 6739SOL     OW31675   2.268   0.911  15.391 -0.1229 -0.2255  0.2028
 6739SOL    HW131676   2.336   0.856  15.430 -0.6999  1.7263  4.0555
 6739SOL    HW231677   2.302   0.926  15.303 -2.3391  1.3103 -0.3997
 6740SOL     OW31678   2.121   2.450  11.811 -0.0530 -0.8777 -0.0292
 6740SOL    HW131679   2.209   2.426  11.840 -0.9194 -4.8281 -0.6411
 6740SOL    HW231680   2.102   2.382  11.746 -0.9356 -1.7064  1.0941
 6741SOL     OW31681   1.873   1.536   9.494 -0.1527 -0.1176  0.2478
 6741SOL    HW131682   1.860   1.585   9.413  2.5459  1.0697  0.5392
 6741SOL    HW231683   1.789   1.499   9.522 -1.1279  1.8588 -0.0977
 6742SOL     OW31684   1.136   0.083   3.926  0.1799 -0.1427  0.3240
 6742SOL    HW131685   1.143   4.710   3.917 -0.3313 -0.2186  0.7255
 6742SOL    HW231686   1.190   0.108   3.851 -0.4639  1.0419  0.2530
 6743SOL     OW31687   0.305   0.517   2.687  0.2087 -0.1748  0.3173
 6743SOL    HW131688   0.247   0.453   2.648  0.2933  0.8722 -1.4945
 6743SOL    HW231689   0.285   0.597   2.638  1.8499  0.1321  0.1429
 6744SOL     OW31690   3.912   2.938   9.978 -0.0020  0.2627 -0.3822
 6744SOL    HW131691   3.968   2.896  10.043 -2.1216 -2.3995 -0.2839
 6744SOL    HW231692   3.882   3.011  10.032  0.1427 -0.9731  1.3672
 6745SOL     OW31693   4.307   4.366   3.507  0.3598  0.0875 -0.3814
 6745SOL    HW131694   4.298   4.456   3.476 -0.4679 -1.0290 -3.3208
 6745SOL    HW231695   4.391   4.340   3.471 -0.4876 -2.2661 -0.6684
 6746SOL     OW31696   3.819   1.261   3.810  0.0546  0.7908 -0.4831
 6746SOL    HW131697   3.774   1.331   3.858 -1.9776  0.6050 -2.0875
 6746SOL    HW231698   3.868   1.217   3.879 -1.1854  0.2096  0.0260
 6747SOL     OW31699   2.290   0.219   4.323 -0.3510 -0.3162  0.3741
 6747SOL    HW131700   2.368   0.258   4.284 -1.6785  2.3278  0.3716
 6747SOL    HW231701   2.318   0.185   4.408 -1.6963 -1.3278  0.4053
 6748SOL     OW31702   2.041   2.320   1.373  0.5426  0.4234  0.3712
 6748SOL    HW131703   2.007   2.408   1.391  2.1800  0.7872  1.6233
 6748SOL    HW231704   2.067   2.307   1.464 -0.4118  0.5438  0.6621
 6749SOL     OW31705   2.133   1.794   5.824 -0.4340 -0.3567 -0.6502
 6749SOL    HW131706   2.084   1.874   5.845  0.1732 -0.0851 -0.2834
 6749SOL    HW231707   2.122   1.757   5.912  0.0207  2.0584  0.4131
 6750SOL     OW31708   1.841   2.605   2.214 -0.7493  0.1844  0.0426
 6750SOL    HW131709   1.812   2.529   2.266 -1.6312  0.9189  0.6413
 6750SOL    HW231710   1.823   2.675   2.277  1.7010 -0.2306  1.1912
 6751SOL     OW31711   2.470   2.483   4.313  0.1267  0.1342  0.2736
 6751SOL    HW131712   2.496   2.415   4.250  2.4202  0.7094  0.6136
 6751SOL    HW231713   2.554   2.493   4.357 -1.1402  1.3712  2.3398
 6752SOL     OW31714   2.549   3.386  17.566  0.7548  0.0365 -0.6998
 6752SOL    HW131715   2.491   3.462  17.561  0.3533 -0.2625 -0.5224
 6752SOL    HW231716   2.519   3.340  17.488 -0.2271  0.8579 -0.7916
 6753SOL     OW31717   0.347   4.000   7.884 -0.4893 -0.4717 -0.3189
 6753SOL    HW131718   0.345   3.916   7.931  0.2705  0.7642  1.8960
 6753SOL    HW231719   0.252   4.011   7.880 -0.7462 -1.8476  1.6591
 6754SOL     OW31720   3.562   3.668   6.425  0.5821  0.1330  0.3531
 6754SOL    HW131721   3.587   3.720   6.501  3.0758  0.1887 -0.5034
 6754SOL    HW231722   3.646   3.626   6.406  0.5137 -0.8010  2.1587
 6755SOL     OW31723   4.490   4.505   5.642 -0.2517  0.2417 -0.4090
 6755SOL    HW131724   4.511   4.554   5.562 -0.7273 -0.1797 -0.7924
 6755SOL    HW231725   4.436   4.569   5.688 -0.4326  0.5207 -1.0016
 6756SOL     OW31726   0.289   1.703   7.028  0.0634 -0.0022 -0.3296
 6756SOL    HW131727   0.196   1.694   7.049 -0.3353 -1.2751 -2.6657
 6756SOL    HW231728   0.310   1.769   7.095  0.6009 -3.0776  2.5068
 6757SOL     OW31729   3.402   1.338   8.753 -0.0871 -0.2584 -0.3945
 6757SOL    HW131730   3.433   1.285   8.680 -0.3565  0.2768 -0.8947
 6757SOL    HW231731   3.449   1.303   8.829  2.2561 -0.8877 -2.1619
 6758SOL     OW31732   1.639   4.443   1.130 -0.6741  0.5182  0.1175
 6758SOL    HW131733   1.581   4.519   1.124 -2.3627 -0.8695 -1.0840
 6758SOL    HW231734   1.715   4.486   1.169  0.1929  1.5775 -2.6866
 6759SOL     OW31735   4.592   2.631   7.605 -0.0250  0.0683  0.4373
 6759SOL    HW131736   4.605   2.625   7.510 -2.3484  2.9189 -0.0592
 6759SOL    HW231737   4.614   2.540   7.624 -5.0190 -1.6016 -1.5609
 6760SOL     OW31738   3.576   0.249  14.139 -0.0745 -0.6316  0.1837
 6760SOL    HW131739   3.653   0.261  14.194  1.3787  1.9208 -2.4069
 6760SOL    HW231740   3.538   0.335  14.156  0.1350 -0.1285 -1.8826
 6761SOL     OW31741   2.694   1.188  10.808  0.2292  0.3891 -0.0668
 6761SOL    HW131742   2.672   1.178  10.901 -0.8827 -0.3866 -0.4130
 6761SOL    HW231743   2.677   1.097  10.783 -1.3907  0.7541 -0.3246
 6762SOL     OW31744   2.922   3.445   9.498 -0.4667 -0.2068 -0.5643
 6762SOL    HW131745   2.893   3.469   9.586  0.0379  0.5343 -0.5959
 6762SOL    HW231746   2.836   3.435   9.458 -1.7360  1.3217  1.7337
 6763SOL     OW31747   4.617   4.391   7.011 -0.2478  0.2526 -0.1813
 6763SOL    HW131748   4.710   4.369   7.018 -0.3825  0.6529  2.7913
 6763SOL    HW231749   4.587   4.348   7.092  2.1313 -1.8999 -0.4532
 6764SOL     OW31750   2.589   2.850   4.640 -0.1366 -0.2350  0.5943
 6764SOL    HW131751   2.672   2.866   4.684 -0.1373 -2.4456  1.3830
 6764SOL    HW231752   2.619   2.769   4.598  0.5344 -0.4399  1.4645
 6765SOL     OW31753   0.193   3.607  12.106  0.0395 -0.4093 -0.6245
 6765SOL    HW131754   0.266   3.546  12.099  1.3164  1.0543  0.0521
 6765SOL    HW231755   0.181   3.622  12.012 -2.9580 -3.6051 -0.7504
 6766SOL     OW31756   1.205   3.853  10.891  0.0950  0.9403 -0.2170
 6766SOL    HW131757   1.222   3.791  10.820 -1.3017 -1.0770  1.2345
 6766SOL    HW231758   1.223   3.932  10.839 -1.6899  1.1649 -0.4810
 6767SOL     OW31759   1.334   2.180   2.562  0.0069  0.4970  0.0463
 6767SOL    HW131760   1.355   2.255   2.506  3.0948  0.2728  0.9048
 6767SOL    HW231761   1.242   2.171   2.539 -0.7271  0.5163  2.9180
 6768SOL     OW31762   1.549   4.312   6.695  0.0145 -0.3370  0.0734
 6768SOL    HW131763   1.465   4.306   6.742 -0.5042  0.3436 -0.7600
 6768SOL    HW231764   1.592   4.394   6.720  0.4071 -0.6705  0.4705
 6769SOL     OW31765   0.939   2.119   7.525  0.3033  0.2917 -0.3610
 6769SOL    HW131766   0.987   2.175   7.586  0.4268  0.0353 -0.2176
 6769SOL    HW231767   0.866   2.176   7.504  0.1075 -0.1653 -0.9171
 6770SOL     OW31768   3.186   1.110   7.917  0.1068 -0.0734  0.1805
 6770SOL    HW131769   3.131   1.032   7.926 -1.3883  0.8202 -1.2652
 6770SOL    HW231770   3.233   1.097   7.834 -3.5718 -2.0441 -1.5800
 6771SOL     OW31771   1.688   2.383  17.609 -0.6648 -0.1670  0.0394
 6771SOL    HW131772   1.620   2.322  17.636 -1.1489 -0.0056 -0.8069
 6771SOL    HW231773   1.684   2.376  17.513 -1.3790  1.4298 -0.0403
 6772SOL     OW31774   0.677   1.310   0.942 -0.9480 -0.0923 -0.4995
 6772SOL    HW131775   0.652   1.354   0.861 -0.1593  1.0901 -0.0938
 6772SOL    HW231776   0.679   1.384   1.001  2.0012  0.4827 -1.3097
 6773SOL     OW31777   0.150   2.023   2.663  0.7430 -0.6756 -0.6191
 6773SOL    HW131778   0.187   1.942   2.699  2.1745 -0.5926 -1.8804
 6773SOL    HW231779   0.069   1.983   2.631  0.0810  0.4568 -0.3198
 6774SOL     OW31780   3.186   3.081   0.839  0.0190  0.9028 -0.3166
 6774SOL    HW131781   3.092   3.073   0.848  0.2445 -0.4160  0.9329
 6774SOL    HW231782   3.208   3.156   0.894 -2.3400  1.4009 -0.0609
 6775SOL     OW31783   2.286   1.927   1.433 -0.3867 -0.4167 -0.2713
 6775SOL    HW131784   2.277   1.955   1.524 -0.9025  0.8208 -0.7093
 6775SOL    HW231785   2.212   1.974   1.394 -1.3310 -0.7959  1.0565
 6776SOL     OW31786   1.806   1.056   6.492 -0.2157 -0.1818  0.0742
 6776SOL    HW131787   1.880   1.037   6.550 -0.2044 -2.3374 -0.6514
 6776SOL    HW231788   1.782   1.147   6.510  0.2817  0.4641 -2.4282
 6777SOL     OW31789   0.086   3.925  15.493  0.5698 -0.3372 -0.2214
 6777SOL    HW131790   0.016   3.991  15.494 -0.8582 -1.8720  0.6552
 6777SOL    HW231791   0.151   3.993  15.476  0.3476 -0.0742 -0.0158
 6778SOL     OW31792   3.595   1.630   3.022 -0.5003 -0.0227 -0.6559
 6778SOL    HW131793   3.558   1.706   3.067  2.1337 -0.5256  2.4403
 6778SOL    HW231794   3.521   1.598   2.971 -1.6261 -0.2099  1.0938
 6779SOL     OW31795   2.986   2.213   3.026 -0.4513 -0.0339  0.2874
 6779SOL    HW131796   3.027   2.266   3.095 -0.6773 -1.5088  1.5455
 6779SOL    HW231797   2.893   2.215   3.048 -1.0581  0.6243 -2.4156
 6780SOL     OW31798   2.083   2.526  11.417  0.2997  0.1669 -0.0452
 6780SOL    HW131799   2.031   2.603  11.392 -0.8656 -0.3844  0.6621
 6780SOL    HW231800   2.170   2.543  11.381  0.1932  0.9730  0.0730
 6781SOL     OW31801   3.359   2.951   7.099 -0.0174 -0.5922 -0.3212
 6781SOL    HW131802   3.337   3.008   7.025 -0.9775  2.3280  2.1904
 6781SOL    HW231803   3.439   2.999   7.123 -1.1605 -0.1189  2.4835
 6782SOL     OW31804   3.153   0.473  11.857 -0.1901  0.2270  0.6136
 6782SOL    HW131805   3.119   0.495  11.771 -0.0760 -1.4308  0.1442
 6782SOL    HW231806   3.247   0.470  11.842 -0.1235  2.1901  0.5923
 6783SOL     OW31807   0.986   0.298   6.080 -0.4494  0.0073  0.1108
 6783SOL    HW131808   0.948   0.384   6.096 -2.1642 -0.3915 -1.8293
 6783SOL    HW231809   0.927   0.276   6.008  0.8137  1.5379 -1.3869
 6784SOL     OW31810   1.820   1.384   1.385  0.4892 -0.4182 -0.3969
 6784SOL    HW131811   1.785   1.409   1.300  1.3209 -0.5599 -0.7889
 6784SOL    HW231812   1.882   1.456   1.391 -0.0665 -0.2751  3.3719
 6785SOL     OW31813   1.157   1.683   1.617 -0.1870 -0.1219 -0.3791
 6785SOL    HW131814   1.127   1.728   1.538  2.3784 -0.2193 -1.4107
 6785SOL    HW231815   1.240   1.727   1.632 -0.4886 -0.7035  2.8528
 6786SOL     OW31816   4.141   3.539   9.484  0.7758  0.5524 -0.5239
 6786SOL    HW131817   4.152   3.475   9.414 -1.3763  1.4472 -1.6685
 6786SOL    HW231818   4.065   3.511   9.536  0.7938  1.2051 -0.1468
 6787SOL     OW31819   2.309   2.493  10.776 -0.5954  0.0838 -0.6430
 6787SOL    HW131820   2.362   2.416  10.758  0.1793  0.2315  0.9823
 6787SOL    HW231821   2.314   2.530  10.688  0.8634  0.0180 -0.5834
 6788SOL     OW31822   0.098   0.344   2.620 -0.2466 -0.0583  0.0863
 6788SOL    HW131823   0.152   0.266   2.614 -0.4014 -0.2077  0.6383
 6788SOL    HW231824   0.038   0.337   2.546  0.8575  1.1499 -0.9284
 6789SOL     OW31825   3.083   2.656  12.353  0.6039 -0.0033  0.8230
 6789SOL    HW131826   3.141   2.623  12.421  2.1125 -0.5172 -0.7055
 6789SOL    HW231827   3.147   2.665  12.282 -0.5303 -0.9889 -0.3368
 6790SOL     OW31828   1.553   4.288   5.361 -0.7150  0.7779  0.2372
 6790SOL    HW131829   1.623   4.353   5.349 -0.3433  0.4979  0.8816
 6790SOL    HW231830   1.600   4.207   5.379 -1.8707  0.3625  1.4516
 6791SOL     OW31831   2.923   1.517   0.344  0.1184  0.2382 -0.1718
 6791SOL    HW131832   2.986   1.575   0.387  0.5530 -0.2029 -0.2162
 6791SOL    HW231833   2.846   1.574   0.342 -0.0257  0.0743  0.8052
 6792SOL     OW31834   1.346   0.477   8.125  0.2076  0.3580  1.0625
 6792SOL    HW131835   1.423   0.514   8.081  0.8118 -0.6261  1.2911
 6792SOL    HW231836   1.294   0.555   8.143  1.3428  1.6349 -1.2092
 6793SOL     OW31837   0.936   3.003   4.178 -0.4891  0.4128 -0.6574
 6793SOL    HW131838   0.865   2.997   4.241 -0.1667 -0.6297 -0.3944
 6793SOL    HW231839   0.899   3.063   4.113 -1.8728 -2.0178 -2.0951
 6794SOL     OW31840   1.017   4.235   8.637 -0.4108 -0.0248  0.7754
 6794SOL    HW131841   1.093   4.293   8.641 -0.4950  0.1084  0.4525
 6794SOL    HW231842   1.064   4.154   8.657 -1.1012  0.0507  2.7131
 6795SOL     OW31843   1.909   2.108   6.098  0.5801  0.5176  0.1054
 6795SOL    HW131844   1.890   2.016   6.079  0.2248  0.0512  2.7746
 6795SOL    HW231845   2.003   2.114   6.079  1.0146 -2.1505  1.4001
 6796SOL     OW31846   1.771   0.155   4.460  0.4129 -0.2422 -0.6247
 6796SOL    HW131847   1.685   0.163   4.418  0.9287 -1.7147 -2.0052
 6796SOL    HW231848   1.830   0.123   4.392 -1.0863 -2.1792 -1.0216
 6797SOL     OW31849   3.895   0.077   1.597  0.9260 -0.1488  0.8905
 6797SOL    HW131850   3.979   0.033   1.581  2.7110  2.5726  2.8298
 6797SOL    HW231851   3.843   0.014   1.547 -2.7670  1.9307  2.1594
 6798SOL     OW31852   3.728   1.715   8.324 -0.6054  0.2249 -0.4988
 6798SOL    HW131853   3.644   1.683   8.355 -0.9473  0.1853 -1.4762
 6798SOL    HW231854   3.697   1.763   8.247 -1.1373  2.5217  1.1348
 6799SOL     OW31855   0.127   1.257   7.386  0.1592 -0.2342  0.0751
 6799SOL    HW131856   0.154   1.170   7.415  0.1046 -0.2883 -0.0371
 6799SOL    HW231857   0.157   1.261   7.295 -0.7486  2.5520 -0.1151
 6800SOL     OW31858   2.750   3.894   2.976  0.1661  0.1035  0.1210
 6800SOL    HW131859   2.792   3.944   2.906  0.5070 -2.1451 -1.2663
 6800SOL    HW231860   2.666   3.941   2.975  0.4661  0.6875  2.5681
 6801SOL     OW31861   3.569   3.911   6.231 -0.6695  0.2588  0.0322
 6801SOL    HW131862   3.580   3.848   6.302  2.4140 -0.5895 -1.2100
 6801SOL    HW231863   3.629   3.881   6.162 -1.5627  0.7741 -0.9805
 6802SOL     OW31864   0.608   4.675  12.708 -0.0424  0.1613  0.1306
 6802SOL    HW131865   0.654   4.620  12.645  1.5715  1.0697  0.5184
 6802SOL    HW231866   0.658   0.033  12.716 -1.3955  1.2304 -2.3974
 6803SOL     OW31867   1.993   1.941  14.557  0.1488  0.2591 -0.1874
 6803SOL    HW131868   1.911   1.908  14.520 -0.6370 -0.0914  1.8715
 6803SOL    HW231869   2.047   1.864  14.575  0.1338  0.8284  2.2944
 6804SOL     OW31870   4.117   0.989   7.027 -0.0505  0.9145 -0.0982
 6804SOL    HW131871   4.081   1.063   7.076  0.9754  0.9761  0.5694
 6804SOL    HW231872   4.026   0.965   7.011  0.0610  0.6248 -0.3093
 6805SOL     OW31873   1.837   3.950   5.886  0.6643 -0.0587  0.5758
 6805SOL    HW131874   1.889   3.997   5.952  0.4845  1.0390 -0.0890
 6805SOL    HW231875   1.817   4.026   5.832  0.0402  0.4353  1.4993
 6806SOL     OW31876   2.339   0.151  10.541  0.2540 -0.1646  0.4095
 6806SOL    HW131877   2.382   0.192  10.466 -1.1653  2.2322  0.8977
 6806SOL    HW231878   2.415   0.139  10.598  0.9773  0.3308 -0.4572
 6807SOL     OW31879   0.728   4.155  14.500 -0.0661  0.1728  0.3158
 6807SOL    HW131880   0.714   4.073  14.454 -1.0312 -0.9168  2.5703
 6807SOL    HW231881   0.662   4.212  14.461  2.0996  2.0151 -0.6958
 6808SOL     OW31882   0.944   0.602   1.320 -0.5369 -0.3507  0.2801
 6808SOL    HW131883   1.019   0.577   1.265  0.3653  0.0435  1.3281
 6808SOL    HW231884   0.987   0.668   1.373 -1.7983  0.8435 -0.1899
 6809SOL     OW31885   0.097   1.966   9.735  0.1384  0.3106 -0.6214
 6809SOL    HW131886   0.167   2.017   9.694 -0.0326  2.8783  2.2767
 6809SOL    HW231887   0.122   1.875   9.718 -0.5185 -0.2367  1.2972
 6810SOL     OW31888   4.234   3.618  11.069 -0.5301 -0.2870 -0.1427
 6810SOL    HW131889   4.303   3.662  11.119 -2.0873  1.2684  0.6456
 6810SOL    HW231890   4.222   3.669  10.990 -1.5751  0.2516  0.3630
 6811SOL     OW31891   4.480   3.549  10.206 -0.5995 -0.2195 -0.6132
 6811SOL    HW131892   4.453   3.555  10.298  0.8887  0.5409 -0.2307
 6811SOL    HW231893   4.574   3.552  10.224 -0.9453  1.4906  0.9676
 6812SOL     OW31894   1.243   4.120   5.451  0.2886 -0.2616  0.3254
 6812SOL    HW131895   1.233   4.202   5.403 -0.7669 -0.1262  0.7640
 6812SOL    HW231896   1.206   4.133   5.538  0.1610  1.4877  0.0003
 6813SOL     OW31897   3.794   1.345   0.172 -0.2422  0.0624  0.0267
 6813SOL    HW131898   3.767   1.431   0.204 -0.4596  0.1289 -0.3282
 6813SOL    HW231899   3.885   1.354   0.197  0.0170 -0.4115 -0.7364
 6814SOL     OW31900   3.794   1.486  14.524 -0.3118  0.4885  0.1927
 6814SOL    HW131901   3.703   1.508  14.506 -0.7495 -0.3448  1.3802
 6814SOL    HW231902   3.805   1.487  14.619 -0.9957 -1.2729  0.3057
 6815SOL     OW31903   2.232   2.073   3.372  0.5739  0.1357  0.1924
 6815SOL    HW131904   2.284   2.153   3.364  1.5134 -0.5225 -0.3818
 6815SOL    HW231905   2.150   2.103   3.411  0.5708 -0.3109  0.5340
 6816SOL     OW31906   0.953   0.259   1.260  0.0624 -0.3876  0.4996
 6816SOL    HW131907   0.977   0.169   1.239 -1.1122 -0.3248 -1.0910
 6816SOL    HW231908   0.965   0.254   1.355  1.0698 -2.0692  0.2834
 6817SOL     OW31909   2.977   4.625   6.405  0.0077 -0.3011 -0.2365
 6817SOL    HW131910   2.901   4.623   6.347 -0.3907  0.2977  0.2594
 6817SOL    HW231911   3.005   4.534   6.416 -1.8572 -0.9763 -1.0575
 6818SOL     OW31912   1.109   2.745   5.145 -0.1334  0.2474 -0.1639
 6818SOL    HW131913   1.088   2.696   5.225  0.2533 -1.3358 -1.0240
 6818SOL    HW231914   1.104   2.677   5.079 -0.0637 -0.7241  0.8249
 6819SOL     OW31915   3.537   2.795   5.952 -0.0392  0.4779 -0.2979
 6819SOL    HW131916   3.533   2.836   6.039  1.2234 -0.4615  0.2014
 6819SOL    HW231917   3.580   2.872   5.912 -0.0205  0.0581 -1.0854
 6820SOL     OW31918   3.198   1.434   7.261 -0.5510  0.6476 -0.1053
 6820SOL    HW131919   3.221   1.353   7.216 -0.3720  1.0834 -0.7990
 6820SOL    HW231920   3.271   1.440   7.322  0.3521  0.9736 -1.2039
 6821SOL     OW31921   3.584   2.370   1.181 -0.1669  0.9459 -0.0353
 6821SOL    HW131922   3.496   2.369   1.218 -0.1011 -1.8069  0.0746
 6821SOL    HW231923   3.610   2.278   1.168 -1.4384  0.6517 -0.4989
 6822SOL     OW31924   3.479   3.265  13.558 -0.1044 -0.1375 -0.2283
 6822SOL    HW131925   3.426   3.344  13.556 -0.8548 -0.7167 -2.4838
 6822SOL    HW231926   3.480   3.238  13.467  1.1166  0.4949 -0.3998
 6823SOL     OW31927   0.049   4.528  11.563 -0.0838  0.1865  0.4643
 6823SOL    HW131928   0.047   4.531  11.659 -0.3308 -0.2500  0.4737
 6823SOL    HW231929   0.137   4.563  11.552 -0.8131  1.7049 -0.6329
 6824SOL     OW31930   1.667   2.085   2.445 -0.4621 -0.0036 -0.3479
 6824SOL    HW131931   1.740   2.035   2.481  0.1934  0.2299 -1.3566
 6824SOL    HW231932   1.701   2.111   2.360 -0.3070 -0.7721 -0.5205
 6825SOL     OW31933   2.275   1.406   2.671 -0.5285 -0.8064 -0.2001
 6825SOL    HW131934   2.244   1.423   2.760 -0.4069  0.8929 -0.4868
 6825SOL    HW231935   2.221   1.467   2.621  1.7807  1.0302 -0.4165
 6826SOL     OW31936   2.890   2.879  13.463  0.4336 -0.6541 -0.2053
 6826SOL    HW131937   2.968   2.825  13.450 -0.5697 -1.4495 -2.9044
 6826SOL    HW231938   2.920   2.970  13.460  1.3063 -0.9640 -0.8166
 6827SOL     OW31939   2.220   2.622   7.732  0.0825 -0.8048 -0.5283
 6827SOL    HW131940   2.178   2.610   7.817 -1.2069  1.5266 -0.8430
 6827SOL    HW231941   2.251   2.713   7.733  0.3870 -0.9193  1.4925
 6828SOL     OW31942   4.441   0.293   6.459 -0.5105 -0.1789  0.0757
 6828SOL    HW131943   4.408   0.338   6.381  1.8738  1.1229 -0.1797
 6828SOL    HW231944   4.384   0.317   6.532 -0.1355  0.7432  0.0687
 6829SOL     OW31945   0.644   3.251   3.696  0.2232 -0.4696  0.0441
 6829SOL    HW131946   0.622   3.228   3.786 -2.2620 -0.7784 -0.6461
 6829SOL    HW231947   0.560   3.261   3.652  0.7034 -0.7547 -0.9493
 6830SOL     OW31948   0.596   2.754   0.262 -0.0297 -0.2114  0.2414
 6830SOL    HW131949   0.584   2.830   0.318 -1.7498 -1.1405  1.1354
 6830SOL    HW231950   0.571   2.686   0.324 -1.8213  0.9613  0.8052
 6831SOL     OW31951   1.868   0.488   0.461  0.1975 -0.1395 -0.1760
 6831SOL    HW131952   1.809   0.551   0.419  0.6863  0.2958 -0.2095
 6831SOL    HW231953   1.859   0.521   0.550 -0.3789 -3.7977  1.1234
 6832SOL     OW31954   1.056   1.760  16.247 -0.2068  0.0036 -0.3468
 6832SOL    HW131955   0.989   1.769  16.314 -0.4803  0.4031 -0.6641
 6832SOL    HW231956   1.126   1.727  16.302 -1.2398  0.5038  1.2735
 6833SOL     OW31957   1.605   0.363   2.601 -0.0691  0.6782 -0.0587
 6833SOL    HW131958   1.559   0.358   2.517 -0.0569 -0.6862  0.0143
 6833SOL    HW231959   1.576   0.450   2.627  1.1004  0.8446  0.6828
 6834SOL     OW31960   2.406   0.596  13.629 -1.2672  0.1172  0.1044
 6834SOL    HW131961   2.339   0.547  13.677  0.7678 -0.0552  2.7871
 6834SOL    HW231962   2.440   0.652  13.699  0.3823 -2.4662  1.3349
 6835SOL     OW31963   4.002   4.037  12.041  0.2468 -0.3968  0.3159
 6835SOL    HW131964   4.065   3.997  12.101  0.4392  0.3577  0.6189
 6835SOL    HW231965   3.932   4.059  12.103 -0.1522 -0.1776 -0.2155
 6836SOL     OW31966   2.291   1.917   2.539  0.2063  0.2703 -0.3248
 6836SOL    HW131967   2.374   1.958   2.515 -0.4654  1.1802 -1.0767
 6836SOL    HW231968   2.255   1.895   2.453 -1.2474  0.3687  0.2516
 6837SOL     OW31969   0.339   4.036   9.415 -0.2405 -0.4510  0.5422
 6837SOL    HW131970   0.371   3.965   9.471 -0.1654 -0.4228  0.5357
 6837SOL    HW231971   0.384   4.003   9.337 -1.5256 -0.7421 -0.0653
 6838SOL     OW31972   0.719   3.086   8.854 -0.3525 -0.4217  0.3920
 6838SOL    HW131973   0.700   3.114   8.764 -0.8842 -1.1662  0.2660
 6838SOL    HW231974   0.640   3.039   8.881 -0.9826  0.4065 -0.0132
 6839SOL     OW31975   4.096   3.972   4.711  0.1667 -0.3878 -0.8840
 6839SOL    HW131976   4.125   3.946   4.798 -4.4788  0.4061  0.8946
 6839SOL    HW231977   4.132   4.060   4.704  0.3193 -0.3997 -0.1784
 6840SOL     OW31978   1.215   4.570   2.008  0.0170  0.1706 -0.1179
 6840SOL    HW131979   1.213   4.556   2.103 -0.9771  0.3770 -0.1097
 6840SOL    HW231980   1.159   4.496   1.984 -2.8061  1.6517  1.9188
 6841SOL     OW31981   1.394   0.033   8.285  0.4410 -0.1695  0.8829
 6841SOL    HW131982   1.472   4.713   8.320  1.2972  0.5298 -0.1721
 6841SOL    HW231983   1.429   0.118   8.257  0.3520 -0.9215 -1.4919
 6842SOL     OW31984   2.432   0.897   5.805 -0.0634  0.4706 -0.5109
 6842SOL    HW131985   2.398   0.923   5.891 -0.3687  1.2045 -0.8580
 6842SOL    HW231986   2.439   0.982   5.761 -0.0372  1.1053  0.7106
 6843SOL     OW31987   4.042   1.798  16.922 -0.8271  0.3087 -0.2666
 6843SOL    HW131988   3.994   1.744  16.986 -0.4362  0.0306 -0.2119
 6843SOL    HW231989   4.058   1.872  16.981 -0.2637  1.0762 -1.3800
 6844SOL     OW31990   4.073   0.734   3.238 -0.2712  0.1035  0.4335
 6844SOL    HW131991   4.027   0.756   3.319  0.5871 -1.0847  1.2495
 6844SOL    HW231992   4.029   0.656   3.205 -4.7485  2.5837  0.5677
 6845SOL     OW31993   0.915   0.367   5.695 -0.2297  0.1788  0.4407
 6845SOL    HW131994   0.874   0.310   5.760 -2.1207  0.5989 -0.3727
 6845SOL    HW231995   0.978   0.410   5.753 -1.8848  2.5773  0.4482
 6846SOL     OW31996   1.244   0.592   1.552  0.1265  0.2998  0.3195
 6846SOL    HW131997   1.199   0.676   1.542 -0.5364 -0.5340 -3.7793
 6846SOL    HW231998   1.268   0.607   1.643  0.2775  0.4876  0.2469
 6847SOL     OW31999   0.980   1.357   2.387 -0.5382 -0.1998 -0.1344
 6847SOL    HW132000   1.041   1.364   2.313 -1.5054  0.5435 -0.8700
 6847SOL    HW232001   0.951   1.449   2.388  0.4285  0.0852  1.1303
 6848SOL     OW32002   1.962   3.723  16.345  0.3794  0.5953 -0.3361
 6848SOL    HW132003   1.898   3.709  16.415 -0.3311  0.3058 -1.0474
 6848SOL    HW232004   1.992   3.812  16.364 -0.6091  0.3508  2.4915
 6849SOL     OW32005   3.467   3.105  12.376  0.3604  0.3539  0.1313
 6849SOL    HW132006   3.508   3.029  12.335 -0.8713 -0.2496  0.0250
 6849SOL    HW232007   3.378   3.078  12.395  0.2073 -0.7654 -2.2334
 6850SOL     OW32008   2.069   1.581   2.238 -0.5709  0.2664 -0.0867
 6850SOL    HW132009   2.137   1.647   2.254 -1.4453  1.0714  0.2759
 6850SOL    HW232010   2.009   1.636   2.188 -0.6003  0.9495  0.6827
 6851SOL     OW32011   0.865   1.291   2.739  0.9900 -0.3330  0.1077
 6851SOL    HW132012   0.932   1.300   2.806 -0.0324  0.6847  0.9901
 6851SOL    HW232013   0.899   1.209   2.703 -0.0778  0.2413 -2.2588
 6852SOL     OW32014   1.655   0.826   8.355 -0.2649  0.3108 -0.0275
 6852SOL    HW132015   1.716   0.754   8.372 -1.2056 -0.1351  1.5223
 6852SOL    HW232016   1.633   0.813   8.263  0.4983  0.2447 -0.2023
 6853SOL     OW32017   3.673   2.102  11.836  0.4094  0.7966 -0.0407
 6853SOL    HW132018   3.625   2.030  11.795 -0.9687  1.2723  0.7499
 6853SOL    HW232019   3.698   2.146  11.755  1.3084 -0.5299 -0.4813
 6854SOL     OW32020   4.560   3.475   1.903  0.0597 -0.7187  0.1448
 6854SOL    HW132021   4.514   3.437   1.978 -0.2217  2.1578  1.4368
 6854SOL    HW232022   4.504   3.443   1.833  1.8493 -0.2265 -1.5074
 6855SOL     OW32023   3.759   3.098   3.966  0.5181 -0.1934 -0.0212
 6855SOL    HW132024   3.733   3.086   3.875 -0.2659 -3.5799  0.6337
 6855SOL    HW232025   3.707   3.028   4.008  0.0235 -0.1211 -0.5154
 6856SOL     OW32026   2.784   0.075   7.927  0.0108 -0.0636 -0.9086
 6856SOL    HW132027   2.835   0.034   7.997  1.9197  3.2759 -0.3839
 6856SOL    HW232028   2.721   0.009   7.898 -1.1880  0.4900  0.4370
 6857SOL     OW32029   1.381   0.238   7.990  0.3158 -0.8288  0.1687
 6857SOL    HW132030   1.358   0.318   8.036  1.0117  0.4384 -1.6700
 6857SOL    HW232031   1.466   0.210   8.024  0.4831 -0.8181 -0.2385
 6858SOL     OW32032   1.241   2.649   3.078 -0.6488  0.5585  0.7409
 6858SOL    HW132033   1.202   2.576   3.030 -3.2292  0.9826  2.2034
 6858SOL    HW232034   1.298   2.678   3.007 -0.5964  0.2125  0.6426
 6859SOL     OW32035   0.484   2.240   5.710 -0.6287  0.2530 -0.5918
 6859SOL    HW132036   0.448   2.157   5.740 -1.1543  0.7836  0.2537
 6859SOL    HW232037   0.414   2.290   5.753 -0.5342 -0.3164  0.2159
 6860SOL     OW32038   4.684   2.737   7.343 -0.8181 -0.4069 -0.5201
 6860SOL    HW132039   0.026   2.712   7.276 -1.6467  0.3528 -1.6104
 6860SOL    HW232040   0.001   2.825   7.341  1.4156 -1.4521 -2.9761
 6861SOL     OW32041   1.559   1.878   6.233  0.4670  0.4253 -0.1093
 6861SOL    HW132042   1.627   1.813   6.254  0.1980  0.0218 -0.4951
 6861SOL    HW232043   1.492   1.825   6.191 -0.8753  2.0485 -0.0278
 6862SOL     OW32044   1.917   4.374   1.705 -0.0873 -0.0878 -0.2206
 6862SOL    HW132045   1.918   4.291   1.657  1.1756  1.4763 -2.8862
 6862SOL    HW232046   1.830   4.370   1.745 -1.0499 -1.5452 -2.4413
 6863SOL     OW32047   3.637   4.515   4.661 -0.0881 -0.2767 -0.6752
 6863SOL    HW132048   3.560   4.470   4.628 -0.5142  0.5949 -0.8837
 6863SOL    HW232049   3.625   4.595   4.609 -2.5617  0.7393  1.4820
 6864SOL     OW32050   2.358   4.000   6.027  0.2706  0.2806  0.4485
 6864SOL    HW132051   2.439   4.052   6.026  1.7685 -2.0688 -0.1908
 6864SOL    HW232052   2.293   4.070   6.021  2.4590  2.3381  0.5896
 6865SOL     OW32053   2.109   4.257   7.605  0.0836 -0.2827 -0.4620
 6865SOL    HW132054   2.159   4.313   7.546  0.1963 -0.0358 -0.1334
 6865SOL    HW232055   2.091   4.190   7.539  1.5529  0.8538 -2.0339
 6866SOL     OW32056   2.467   0.745  11.418 -0.2404 -0.0261 -0.9007
 6866SOL    HW132057   2.503   0.748  11.329 -0.6008 -1.1877 -1.0881
 6866SOL    HW232058   2.402   0.676  11.408  0.0631 -0.0657 -2.5693
 6867SOL     OW32059   1.418   1.938   4.832 -0.0830  0.0584 -0.1115
 6867SOL    HW132060   1.469   2.019   4.840  1.2172 -0.7382 -0.3879
 6867SOL    HW232061   1.440   1.894   4.914 -0.4826 -0.2899 -0.1896
 6868SOL     OW32062   0.261   3.797   1.719  0.2603  0.1883 -0.3915
 6868SOL    HW132063   0.315   3.760   1.789 -0.2614  0.4026  0.1199
 6868SOL    HW232064   0.197   3.727   1.719  1.5594 -1.0038  0.1291
 6869SOL     OW32065   0.205   4.508   7.301  0.5880 -0.3508  0.0979
 6869SOL    HW132066   0.243   4.433   7.347  1.1138  0.6806  1.3487
 6869SOL    HW232067   0.279   4.564   7.280  0.3529 -0.2589 -0.4921
 6870SOL     OW32068   0.895   4.299   1.520  0.2278 -0.4080  0.9660
 6870SOL    HW132069   0.878   4.315   1.613 -1.2906 -2.5171  1.0243
 6870SOL    HW232070   0.874   4.381   1.474  0.1916 -1.3155 -0.6245
 6871SOL     OW32071   1.709   2.125   2.144 -0.1401  0.3413 -0.5434
 6871SOL    HW132072   1.671   2.041   2.167  0.3998  0.6252  1.3708
 6871SOL    HW232073   1.671   2.145   2.058 -1.1854  3.2982  0.5920
 6872SOL     OW32074   3.714   3.158   1.154 -0.0337 -0.4027  0.6960
 6872SOL    HW132075   3.721   3.253   1.169 -1.9942 -1.0791  5.7685
 6872SOL    HW232076   3.642   3.135   1.213  1.3934  0.4165  2.7758
 6873SOL     OW32077   0.383   0.579   4.808  0.4911  0.0982 -0.3139
 6873SOL    HW132078   0.379   0.529   4.726 -0.3934  0.8046 -0.7080
 6873SOL    HW232079   0.300   0.627   4.807 -0.3935 -1.4293  0.3727
 6874SOL     OW32080   4.538   1.171  15.776 -0.0193  0.2430  0.3456
 6874SOL    HW132081   4.500   1.112  15.711 -0.1873  0.4912  0.2194
 6874SOL    HW232082   4.457   1.202  15.816  0.7042 -0.2780  2.2181
 6875SOL     OW32083   1.643   1.280   6.492 -0.2032 -0.1480  0.1724
 6875SOL    HW132084   1.633   1.353   6.431  0.3955  0.5233  0.8872
 6875SOL    HW232085   1.682   1.328   6.564  0.1192  0.4883 -0.4290
 6876SOL     OW32086   0.217   4.352  13.304  0.1236  0.5241 -0.2469
 6876SOL    HW132087   0.198   4.444  13.288  0.8986  0.9515  1.2629
 6876SOL    HW232088   0.133   4.311  13.328 -0.0113  0.8958 -0.0875
 6877SOL     OW32089   1.415   2.737  12.296 -0.1625 -0.1188 -0.3441
 6877SOL    HW132090   1.486   2.782  12.248  1.4475 -0.3909  1.7778
 6877SOL    HW232091   1.396   2.806  12.360  2.2862 -0.1550  0.4570
 6878SOL     OW32092   3.335   0.302   2.427  0.4889  0.1264 -0.5086
 6878SOL    HW132093   3.244   0.331   2.416 -0.1936 -1.9483 -0.4783
 6878SOL    HW232094   3.327   0.210   2.401  0.4313 -0.2579  0.8367
 6879SOL     OW32095   1.066   2.969   9.319  0.1336  0.3613  0.8041
 6879SOL    HW132096   0.997   2.928   9.267  2.0848 -0.0352 -1.4694
 6879SOL    HW232097   1.141   2.964   9.261  0.8616  0.3031  1.7487
 6880SOL     OW32098   0.294   2.587   3.448 -0.2315  0.0946 -0.6537
 6880SOL    HW132099   0.329   2.632   3.525 -1.4546 -0.6582  0.3318
 6880SOL    HW232100   0.199   2.586   3.461 -0.5227  1.8018 -2.6278
 6881SOL     OW32101   3.825   2.633   7.848  0.3698  0.3532 -0.5441
 6881SOL    HW132102   3.869   2.654   7.765 -1.7352  0.3857 -1.6395
 6881SOL    HW232103   3.893   2.579   7.888 -0.2737  1.0144  1.4679
 6882SOL     OW32104   3.973   1.728  16.220 -0.0566 -0.2266  0.2096
 6882SOL    HW132105   4.043   1.766  16.167 -0.6650  0.8762  0.1869
 6882SOL    HW232106   3.997   1.638  16.200 -0.6254 -0.7991  2.0949
 6883SOL     OW32107   4.226   1.555  12.423 -0.4535  0.0524  0.3992
 6883SOL    HW132108   4.187   1.497  12.358  0.5438  1.2345 -1.2401
 6883SOL    HW232109   4.320   1.554  12.407  0.1386  1.4642  3.7527
 6884SOL     OW32110   1.664   2.666   8.712  0.2507 -0.4017 -0.0478
 6884SOL    HW132111   1.659   2.628   8.800  2.2239 -1.3097 -0.3396
 6884SOL    HW232112   1.741   2.625   8.674 -0.3453 -0.4283 -1.2223
 6885SOL     OW32113   0.078   1.424   3.092  0.4330 -0.7376  0.2993
 6885SOL    HW132114   0.123   1.365   3.152 -0.4831 -0.7581  0.9528
 6885SOL    HW232115   0.054   1.490   3.157 -1.5683 -0.5438 -0.6351
 6886SOL     OW32116   2.726   0.589  10.834  0.3397  0.0415  0.4567
 6886SOL    HW132117   2.796   0.603  10.770  0.0486  1.0564  0.3561
 6886SOL    HW232118   2.677   0.514  10.800  0.2081  0.1579  0.3851
 6887SOL     OW32119   3.958   1.145   4.003  0.3982  0.9377 -0.3351
 6887SOL    HW132120   4.000   1.063   3.976 -1.9437 -0.3807 -0.0425
 6887SOL    HW232121   4.038   1.189   4.030  0.6430 -0.9540  2.0770
 6888SOL     OW32122   0.834   2.669   1.150  0.2464  0.0912 -0.5951
 6888SOL    HW132123   0.769   2.721   1.198  0.4112 -0.2653  0.0117
 6888SOL    HW232124   0.861   2.612   1.221  1.2343  0.0197 -1.0277
 6889SOL     OW32125   3.665   1.155   4.621  0.2249 -0.4578  0.0270
 6889SOL    HW132126   3.700   1.097   4.553 -0.1236 -0.2585 -0.3316
 6889SOL    HW232127   3.649   1.242   4.583  0.3609 -0.6421 -0.4566
 6890SOL     OW32128   4.103   0.760   3.594  0.3164 -0.4751 -0.6313
 6890SOL    HW132129   4.098   0.670   3.626  1.5167  0.4983  2.2740
 6890SOL    HW232130   4.015   0.780   3.562  0.3385 -0.4774 -0.6931
 6891SOL     OW32131   0.125   1.252   0.666 -0.0498 -0.5437 -0.1325
 6891SOL    HW132132   0.169   1.300   0.595  1.3483 -1.4913  0.0945
 6891SOL    HW232133   0.089   1.178   0.619  3.1221 -0.4180 -2.6976
 6892SOL     OW32134   2.232   3.984   7.676 -0.2018  0.1723  0.6308
 6892SOL    HW132135   2.189   4.033   7.605  1.3236 -1.0356 -1.1294
 6892SOL    HW232136   2.206   4.042   7.748  0.1825  0.2360  0.7168
 6893SOL     OW32137   2.155   1.638  13.486 -0.0611 -0.3518  0.0434
 6893SOL    HW132138   2.137   1.730  13.465  0.3298 -0.1196  0.7285
 6893SOL    HW232139   2.245   1.626  13.459 -0.6534 -2.9762 -0.7379
 6894SOL     OW32140   0.080   3.788  15.073 -0.2052  0.0020 -0.0772
 6894SOL    HW132141   0.132   3.778  14.994  0.8731 -1.8657  0.8548
 6894SOL    HW232142   4.712   3.784  15.041  0.0336 -0.2510 -0.7171
 6895SOL     OW32143   2.488   3.993   5.310 -0.1336  0.1052  0.9605
 6895SOL    HW132144   2.424   4.046   5.263 -1.0858 -0.4373  1.6505
 6895SOL    HW232145   2.555   3.983   5.242 -1.8431 -2.2472 -0.4005
 6896SOL     OW32146   4.510   0.192   3.170  0.0746  0.5126 -0.2516
 6896SOL    HW132147   4.523   0.100   3.190  1.7264  0.3961 -1.9424
 6896SOL    HW232148   4.417   0.199   3.148 -0.2655  0.7574  1.2177
 6897SOL     OW32149   1.353   1.149   0.164  0.2615  0.2466  0.3817
 6897SOL    HW132150   1.409   1.123   0.091 -3.7906 -0.5274 -2.3901
 6897SOL    HW232151   1.359   1.245   0.157  0.9110  0.3392  1.9645
 6898SOL     OW32152   3.369   2.457   7.314  0.0966 -0.2091  0.0248
 6898SOL    HW132153   3.280   2.458   7.348  0.0405  1.3053 -0.1954
 6898SOL    HW232154   3.368   2.524   7.246 -0.0750 -2.3716 -2.1070
 6899SOL     OW32155   0.226   0.397   0.123  0.0210  0.9050 -0.6706
 6899SOL    HW132156   0.136   0.428   0.133 -0.4676 -1.2074  1.5372
 6899SOL    HW232157   0.268   0.433   0.202  1.7938 -2.1258 -0.2029
 6900SOL     OW32158   2.105   1.106   0.867 -0.0220  0.3183 -0.5017
 6900SOL    HW132159   2.201   1.110   0.873  0.0053  0.4466 -1.0250
 6900SOL    HW232160   2.070   1.168   0.803  0.7391  1.3463  0.0731
 6901SOL     OW32161   0.840   0.733   4.142  0.1791  0.4711 -0.2992
 6901SOL    HW132162   0.771   0.679   4.180  0.5241 -0.2873 -0.7465
 6901SOL    HW232163   0.891   0.670   4.091  2.4608  1.8664  0.2351
 6902SOL     OW32164   3.880   1.606   5.469 -0.0106 -0.1629  0.1459
 6902SOL    HW132165   3.822   1.675   5.436  0.3571  0.3535  0.5745
 6902SOL    HW232166   3.957   1.656   5.497 -1.3546  0.6276  2.4244
 6903SOL     OW32167   4.118   3.198  12.837 -0.2386  0.0605  0.4066
 6903SOL    HW132168   4.032   3.172  12.804  0.4890 -0.0185 -1.4182
 6903SOL    HW232169   4.140   3.136  12.907  0.6932 -1.1898 -0.9864
 6904SOL     OW32170   4.228   3.020   0.623 -0.5693 -0.0074  0.0223
 6904SOL    HW132171   4.295   2.958   0.593  0.8683  0.8187  1.5612
 6904SOL    HW232172   4.275   3.071   0.689  1.1497 -0.2402 -1.0311
 6905SOL     OW32173   0.573   0.709  12.009 -0.0043  0.1107 -0.0162
 6905SOL    HW132174   0.515   0.667  11.946  2.7806 -2.7088 -0.7382
 6905SOL    HW232175   0.661   0.670  12.004 -0.7229 -1.6173  0.8774
 6906SOL     OW32176   4.478   3.797  10.742  0.1997 -0.1799 -0.0310
 6906SOL    HW132177   4.536   3.832  10.811  0.6601  0.3446 -0.6871
 6906SOL    HW232178   4.515   3.850  10.672  2.8090 -2.4393 -0.4018
 6907SOL     OW32179   1.821   0.089   8.403 -0.1244  0.1988 -0.1292
 6907SOL    HW132180   1.868   0.159   8.357  1.2205 -1.0826 -0.7019
 6907SOL    HW232181   1.842   0.102   8.495 -1.1635  0.3591  0.0851
 6908SOL     OW32182   0.332   1.832   6.390 -0.1081  0.2758 -0.0841
 6908SOL    HW132183   0.350   1.749   6.346  0.3343  0.2814  0.0911
 6908SOL    HW232184   0.309   1.890   6.317 -2.9390 -1.5570 -0.6664
 6909SOL     OW32185   1.021   0.230   2.606  0.2785  0.1373 -0.4558
 6909SOL    HW132186   1.004   0.156   2.548 -0.6230  1.0671 -1.3779
 6909SOL    HW232187   0.936   0.244   2.648 -0.6189  0.3686 -2.3224
 6910SOL     OW32188   0.587   4.315   7.777 -0.0663  0.3034 -0.4921
 6910SOL    HW132189   0.619   4.405   7.777 -0.0119  0.3007 -3.7151
 6910SOL    HW232190   0.646   4.255   7.822  0.1088 -1.0273 -2.4869
 6911SOL     OW32191   3.985   2.214   3.296 -0.5791 -0.6840  0.2278
 6911SOL    HW132192   3.982   2.294   3.243 -1.7857  0.8593  2.5927
 6911SOL    HW232193   4.021   2.149   3.235  0.2125 -0.2710  0.2661
 6912SOL     OW32194   2.593   2.268   2.521  0.0699 -0.1259 -0.2919
 6912SOL    HW132195   2.500   2.269   2.500  0.0792 -0.9297 -0.3951
 6912SOL    HW232196   2.601   2.187   2.571  1.6779  0.4182  0.3395
 6913SOL     OW32197   1.244   0.518  10.027  0.1831  0.1675  0.1214
 6913SOL    HW132198   1.193   0.490  10.103  2.5335 -0.1936  1.5671
 6913SOL    HW232199   1.181   0.552   9.964 -0.1876  0.1886  0.4972
 6914SOL     OW32200   3.814   1.348   2.273  0.2554  0.0592 -0.3233
 6914SOL    HW132201   3.743   1.332   2.335  0.9489  0.1475  0.5055
 6914SOL    HW232202   3.788   1.434   2.242 -0.9984  0.3507  1.5353
 6915SOL     OW32203   2.537   4.695   4.724 -0.2268 -0.4084 -0.3975
 6915SOL    HW132204   2.518   0.040   4.789  2.6285  1.1023 -1.1503
 6915SOL    HW232205   2.498   4.716   4.639 -2.2781 -0.5510  0.4969
 6916SOL     OW32206   0.083   3.060   2.037  0.3969 -0.4597 -0.1399
 6916SOL    HW132207   0.087   2.997   1.965 -0.5044 -0.4180 -0.2275
 6916SOL    HW232208   0.137   3.005   2.095  1.0205 -0.0780 -0.3637
 6917SOL     OW32209   2.738   2.508   3.242 -0.4266  0.3949  0.3286
 6917SOL    HW132210   2.809   2.506   3.306  1.1171 -1.2404 -1.4443
 6917SOL    HW232211   2.753   2.593   3.201  0.4685  0.3536  0.5885
 6918SOL     OW32212   1.715   1.271   9.310 -0.3089  0.4002 -0.4830
 6918SOL    HW132213   1.701   1.338   9.242 -0.1107  0.2936 -0.6310
 6918SOL    HW232214   1.686   1.312   9.391  0.2214 -1.5629  0.6806
 6919SOL     OW32215   1.450   2.977  15.505 -0.2510 -0.1114  0.3267
 6919SOL    HW132216   1.428   2.917  15.576 -2.3336  0.7466  0.4044
 6919SOL    HW232217   1.534   2.939  15.479  0.1587  0.7931  0.3575
 6920SOL     OW32218   0.448   1.938   5.146  0.1681  0.1936 -0.2551
 6920SOL    HW132219   0.533   1.958   5.186 -0.5499  3.0911 -0.2187
 6920SOL    HW232220   0.397   1.915   5.224 -3.2918  1.0208 -2.2863
 6921SOL     OW32221   1.082   1.838   0.827 -0.5275 -0.0664  0.5231
 6921SOL    HW132222   1.057   1.820   0.918  0.5539 -0.5258  0.7333
 6921SOL    HW232223   1.002   1.876   0.792 -0.2948  2.2640  2.4575
 6922SOL     OW32224   4.345   1.032   8.952 -0.3934  0.2398 -0.3384
 6922SOL    HW132225   4.417   1.096   8.956 -0.4400  0.1720  1.3544
 6922SOL    HW232226   4.271   1.087   8.926 -2.1880 -2.4467 -0.8033
 6923SOL     OW32227   4.692   0.021   5.864  0.1976 -0.2808  0.7567
 6923SOL    HW132228   4.713   4.658   5.826  1.9521  0.3123  0.3926
 6923SOL    HW232229   0.030   0.031   5.937 -0.8158  1.5209  1.3501
 6924SOL     OW32230   2.133   4.537  12.228  0.0332  0.1647  0.5858
 6924SOL    HW132231   2.083   4.480  12.286 -0.4736  2.3244  2.3023
 6924SOL    HW232232   2.076   4.583  12.167  0.8692  1.8925  1.1050
 6925SOL     OW32233   1.554   1.292  14.699 -0.2171 -0.0942  0.7114
 6925SOL    HW132234   1.540   1.240  14.620  0.0299  0.1833  0.4851
 6925SOL    HW232235   1.561   1.221  14.762  0.1993 -0.9070 -0.2455
 6926SOL     OW32236   1.334   2.885   1.603 -0.6458  0.0160 -0.1260
 6926SOL    HW132237   1.340   2.791   1.587 -0.8011 -0.0585  0.2486
 6926SOL    HW232238   1.424   2.907   1.578 -0.0832  0.3718  2.1682
 6927SOL     OW32239   0.895   3.652   5.667  0.0404 -0.2514 -0.1859
 6927SOL    HW132240   0.809   3.612   5.673 -0.2675  0.4979  0.4651
 6927SOL    HW232241   0.871   3.737   5.630  1.4238  0.9047  1.5785
 6928SOL     OW32242   2.670   3.076  13.431 -0.1952  0.4950  0.7941
 6928SOL    HW132243   2.711   3.003  13.477 -0.1178  0.8303  1.2660
 6928SOL    HW232244   2.666   3.051  13.339  2.6277  1.6743  0.3464
 6929SOL     OW32245   1.464   0.356  10.008  0.0981  0.1662  0.5382
 6929SOL    HW132246   1.377   0.395  10.011 -0.9489 -2.1360  0.4284
 6929SOL    HW232247   1.516   0.414  10.063 -1.7344  0.6516  1.7763
 6930SOL     OW32248   0.736   2.582   8.860 -0.0060 -0.4995 -0.4284
 6930SOL    HW132249   0.775   2.628   8.934  0.5663  0.6938 -1.4808
 6930SOL    HW232250   0.663   2.637   8.833 -1.8416 -2.7063 -0.0178
 6931SOL     OW32251   2.402   2.255   9.571 -0.5202 -0.4133  0.7851
 6931SOL    HW132252   2.469   2.250   9.503 -0.8872 -0.5426  0.4344
 6931SOL    HW232253   2.331   2.297   9.523  0.9157  1.7178  0.5517
 6932SOL     OW32254   3.026   1.188   1.711  0.1777  0.1218 -0.3150
 6932SOL    HW132255   2.956   1.176   1.646  0.3293 -0.8675 -0.2979
 6932SOL    HW232256   3.097   1.140   1.669  0.5382 -2.4226  3.2295
 6933SOL     OW32257   3.384   2.621   5.086  0.2693 -0.6982  0.5693
 6933SOL    HW132258   3.427   2.583   5.162  1.0677 -1.5060 -0.2898
 6933SOL    HW232259   3.372   2.712   5.115  0.2399 -0.8355  0.9768
 6934SOL     OW32260   3.850   1.071   7.842 -0.1874 -0.0492 -0.0558
 6934SOL    HW132261   3.796   1.068   7.921  0.0447 -0.0227  0.1039
 6934SOL    HW232262   3.869   0.978   7.834 -1.4805 -0.1123 -2.2449
 6935SOL     OW32263   2.290   3.565   7.276 -0.0334  0.0280 -0.2327
 6935SOL    HW132264   2.212   3.510   7.287 -0.3632  0.1142 -2.0306
 6935SOL    HW232265   2.280   3.597   7.186  1.3619  2.4577  0.4682
 6936SOL     OW32266   2.908   0.026   5.097  0.1003  0.0552 -0.2187
 6936SOL    HW132267   2.816   0.053   5.104  0.0463  0.0095 -0.7496
 6936SOL    HW232268   2.905   4.662   5.138  2.0770  1.0583  2.0306
 6937SOL     OW32269   0.258   2.075   1.070 -0.1447  0.3063  0.2888
 6937SOL    HW132270   0.234   2.150   1.017 -2.4740 -0.6222  0.0434
 6937SOL    HW232271   0.340   2.109   1.105  0.2112 -1.2154  0.9524
 6938SOL     OW32272   2.781   3.329  14.986  0.0082  0.4312 -0.1355
 6938SOL    HW132273   2.687   3.347  14.980 -0.2738 -0.7404  0.7858
 6938SOL    HW232274   2.777   3.239  14.955  2.2547  1.0749 -2.2402
 6939SOL     OW32275   2.711   2.430  12.434  0.1471 -0.5235  0.1141
 6939SOL    HW132276   2.754   2.513  12.453  1.6287 -1.3179  0.1803
 6939SOL    HW232277   2.748   2.398  12.516 -1.3303 -2.1106  0.1665
 6940SOL     OW32278   3.631   0.905  16.296  0.0967  0.1483 -0.4377
 6940SOL    HW132279   3.569   0.922  16.367  2.1091  1.6052  0.9852
 6940SOL    HW232280   3.574   0.854  16.237 -1.3866 -0.2945  1.3803
 6941SOL     OW32281   0.883   0.891  12.749 -0.0986 -0.2390 -0.0403
 6941SOL    HW132282   0.812   0.827  12.749 -1.5798  1.4033  0.7453
 6941SOL    HW232283   0.954   0.837  12.714  1.8744  2.5565 -0.3620
 6942SOL     OW32284   1.270   0.822   7.629 -0.1844  0.1103 -0.0619
 6942SOL    HW132285   1.362   0.797   7.638  0.5019  3.5927  2.4556
 6942SOL    HW232286   1.286   0.906   7.586 -0.0876  0.3820  0.5122
 6943SOL     OW32287   0.696   1.085   6.495 -0.4904  0.4798 -0.3977
 6943SOL    HW132288   0.730   1.172   6.518  2.1317 -0.6540  0.1103
 6943SOL    HW232289   0.607   1.105   6.468 -0.3380  1.1183 -0.4147
 6944SOL     OW32290   4.093   3.287   4.027  0.5077  0.4128 -0.3504
 6944SOL    HW132291   4.115   3.321   3.940 -1.8791  0.5412 -0.9206
 6944SOL    HW232292   4.165   3.235   4.063 -1.8787  0.1752  4.0605
 6945SOL     OW32293   4.531   3.296   5.734 -0.2943 -0.3626 -0.2413
 6945SOL    HW132294   4.601   3.355   5.707  0.5379 -0.6083  1.3570
 6945SOL    HW232295   4.521   3.239   5.657 -0.3646 -2.1573  1.0882
 6946SOL     OW32296   3.994   3.610   7.358 -0.4203 -0.2679  0.4462
 6946SOL    HW132297   3.951   3.691   7.386 -0.2689 -0.2045  0.4957
 6946SOL    HW232298   3.973   3.608   7.265 -0.5554  1.7556  0.4303
 6947SOL     OW32299   3.059   1.488   7.489  0.2577 -0.3988  0.2060
 6947SOL    HW132300   3.104   1.459   7.409  2.0023  1.0448  0.6606
 6947SOL    HW232301   3.119   1.548   7.532  0.7867  0.3099 -1.4964
 6948SOL     OW32302   1.709   1.599   8.729 -0.3444  0.5040 -0.5740
 6948SOL    HW132303   1.657   1.592   8.810 -3.0137  0.4236 -2.2996
 6948SOL    HW232304   1.731   1.693   8.730 -1.7866  0.8330  0.3084
 6949SOL     OW32305   1.032   1.631   4.150  0.8372  0.3929  0.1046
 6949SOL    HW132306   0.966   1.579   4.105 -0.0602  2.1263 -0.5304
 6949SOL    HW232307   1.111   1.577   4.144  0.6987  0.0894  0.9014
 6950SOL     OW32308   2.882   0.506   2.266 -0.0783  0.3763  0.4019
 6950SOL    HW132309   2.827   0.572   2.224 -1.8787 -0.6403  1.1559
 6950SOL    HW232310   2.870   0.443   2.195 -1.2569 -0.0730  1.0138
 6951SOL     OW32311   3.332   0.125   3.068  0.7173  0.1056  0.2827
 6951SOL    HW132312   3.279   0.074   3.129 -0.6036  1.1240 -0.0122
 6951SOL    HW232313   3.347   0.060   2.999 -1.7642 -0.2733  0.1212
 6952SOL     OW32314   0.909   2.795   1.410  0.3475  0.2125  0.6271
 6952SOL    HW132315   0.845   2.819   1.477  0.1027  0.1718  0.4040
 6952SOL    HW232316   0.936   2.705   1.433  1.4638 -0.1770 -2.2037
 6953SOL     OW32317   4.491   0.700   2.846 -0.5140 -0.1763 -0.0468
 6953SOL    HW132318   4.426   0.637   2.880  0.7715 -1.5854 -0.2096
 6953SOL    HW232319   4.461   0.710   2.756  1.8332 -3.0237 -1.1213
 6954SOL     OW32320   3.119   4.589  17.337  0.3793 -0.1404  0.2066
 6954SOL    HW132321   3.177   4.594  17.413 -0.1325 -2.4986  0.7549
 6954SOL    HW232322   3.177   4.539  17.279  0.9723  0.4610  0.2846
 6955SOL     OW32323   3.212   2.776   9.731 -0.9486 -0.2904 -0.5161
 6955SOL    HW132324   3.193   2.869   9.722 -2.0302 -0.3724  1.1224
 6955SOL    HW232325   3.125   2.749   9.704 -1.0733 -0.3893 -0.0106
 6956SOL     OW32326   4.284   0.084   2.040 -0.3040  0.7232 -0.2203
 6956SOL    HW132327   4.206   0.053   2.086 -0.8544  1.1578 -0.8501
 6956SOL    HW232328   4.342   0.104   2.114 -1.0309 -2.0604  1.0867
 6957SOL     OW32329   4.330   4.206   2.352 -0.0768 -0.2177  0.2043
 6957SOL    HW132330   4.276   4.220   2.429 -1.3448  0.7479 -0.8677
 6957SOL    HW232331   4.374   4.122   2.366 -1.6624 -1.5197 -2.6900
 6958SOL     OW32332   2.800   0.095   7.447  0.0222  0.1945 -0.6265
 6958SOL    HW132333   2.729   0.049   7.491  1.1529  0.4287  1.4471
 6958SOL    HW232334   2.827   0.030   7.381  1.3625  1.5446 -1.4372
 6959SOL     OW32335   2.104   2.372   8.304 -0.3408 -0.1830  0.0812
 6959SOL    HW132336   2.025   2.417   8.335  0.5332  1.9304 -0.7875
 6959SOL    HW232337   2.107   2.293   8.358 -0.3818  1.0531  1.8922
 6960SOL     OW32338   1.981   4.552   3.505  0.6236 -0.6060 -0.0011
 6960SOL    HW132339   2.012   4.545   3.596 -0.5232 -2.5037  0.2527
 6960SOL    HW232340   2.064   4.565   3.460  1.0908  0.3225  1.1162
 6961SOL     OW32341   2.436   4.463  11.436 -0.1998  0.8775 -0.3360
 6961SOL    HW132342   2.377   4.402  11.480  0.4236 -0.2891 -1.1102
 6961SOL    HW232343   2.418   4.537  11.494 -1.1080  2.2720 -2.3863
 6962SOL     OW32344   1.267   0.989   7.978  0.4820  0.2182 -0.0795
 6962SOL    HW132345   1.210   1.033   7.915 -1.1943 -2.4903 -0.4377
 6962SOL    HW232346   1.326   1.059   8.004 -0.4499  1.0224 -0.1596
 6963SOL     OW32347   1.848   2.886   6.764  0.5290 -0.0981  0.0889
 6963SOL    HW132348   1.840   2.888   6.668  0.3629 -0.5150  0.0976
 6963SOL    HW232349   1.895   2.968   6.779  0.3361  0.3545 -1.6836
 6964SOL     OW32350   4.572   0.707  16.513 -0.2382 -0.1967  0.2828
 6964SOL    HW132351   4.484   0.674  16.533  0.2163 -1.5667  0.0132
 6964SOL    HW232352   4.628   0.630  16.525 -0.4656 -0.0322  2.3697
 6965SOL     OW32353   1.513   1.311   1.219  0.2006  0.4419  0.6644
 6965SOL    HW132354   1.513   1.237   1.159  1.6816  1.5307 -0.6802
 6965SOL    HW232355   1.540   1.267   1.300  0.6574  0.4868  0.5369
 6966SOL     OW32356   2.325   0.851  17.170 -0.5121  0.0308 -0.6315
 6966SOL    HW132357   2.349   0.810  17.253 -3.0610 -1.3464 -0.5694
 6966SOL    HW232358   2.390   0.921  17.179  1.1262 -1.8755  2.0487
 6967SOL     OW32359   2.481   1.461  16.155 -0.0612 -0.1748 -0.6201
 6967SOL    HW132360   2.460   1.432  16.244  1.2582 -2.5365 -1.0683
 6967SOL    HW232361   2.572   1.432  16.148 -0.6931 -2.4077  0.1397
 6968SOL     OW32362   1.974   0.874   1.497 -0.0419  0.1230 -0.0582
 6968SOL    HW132363   1.902   0.937   1.493 -1.5211 -1.6280 -0.7929
 6968SOL    HW232364   2.007   0.888   1.408 -0.7429 -0.9585 -0.4862
 6969SOL     OW32365   2.718   2.567   5.145  0.0794  0.2186  0.3106
 6969SOL    HW132366   2.707   2.566   5.240 -1.0859 -0.2056  0.1685
 6969SOL    HW232367   2.639   2.520   5.119  0.5514 -0.3164 -0.1524
 6970SOL     OW32368   3.204   1.626   1.689  0.0687 -0.1167  0.2161
 6970SOL    HW132369   3.180   1.687   1.760 -0.9486  0.2022 -0.3938
 6970SOL    HW232370   3.259   1.679   1.632 -2.2514  1.8283 -0.2564
 6971SOL     OW32371   3.437   2.635  11.726 -0.2378 -0.1575  0.8021
 6971SOL    HW132372   3.489   2.715  11.736 -1.0250  0.5837 -0.9552
 6971SOL    HW232373   3.495   2.575  11.681 -0.2695  0.9693 -0.7619
 6972SOL     OW32374   4.153   1.123   4.288  0.3352  0.1996  0.3602
 6972SOL    HW132375   4.238   1.167   4.295 -0.2953  1.3895  0.5910
 6972SOL    HW232376   4.095   1.175   4.344  1.5742  0.1007  1.7609
 6973SOL     OW32377   1.661   0.978   1.549 -0.0767 -0.0716 -0.4214
 6973SOL    HW132378   1.597   1.014   1.610  0.1442 -1.5202  0.6743
 6973SOL    HW232379   1.637   1.022   1.467 -2.6323  1.4018  1.1301
 6974SOL     OW32380   4.449   0.945   2.407  0.0922 -0.3463 -1.0823
 6974SOL    HW132381   4.416   0.918   2.322 -0.2602  1.4872 -1.5246
 6974SOL    HW232382   4.527   0.992   2.377  0.4821 -0.8355 -0.8412
 6975SOL     OW32383   2.776   4.612  15.228 -0.2262 -0.1090 -0.4223
 6975SOL    HW132384   2.863   4.576  15.208  0.4580  0.5174  1.4466
 6975SOL    HW232385   2.792   4.686  15.286  1.0007 -0.5147 -0.2442
 6976SOL     OW32386   1.428   3.361   5.451  0.0965 -0.2119 -0.3127
 6976SOL    HW132387   1.343   3.378   5.410 -0.7757 -1.7101  0.8919
 6976SOL    HW232388   1.429   3.438   5.508 -0.6291  0.1951 -0.8610
 6977SOL     OW32389   3.587   1.541   0.235  0.3234 -0.3053  0.3672
 6977SOL    HW132390   3.563   1.597   0.161  3.0822  1.1877  0.5977
 6977SOL    HW232391   3.511   1.484   0.238 -0.1742  0.0774 -4.3563
 6978SOL     OW32392   3.720   2.334   5.347 -0.3304 -0.3599 -1.0019
 6978SOL    HW132393   3.736   2.255   5.399 -0.7876 -2.3200 -3.7899
 6978SOL    HW232394   3.700   2.300   5.259 -1.3894 -2.4242  0.0422
 6979SOL     OW32395   0.421   1.144   2.149 -0.2670  0.6235 -0.5026
 6979SOL    HW132396   0.357   1.095   2.200  2.6809 -1.6278  1.0634
 6979SOL    HW232397   0.422   1.229   2.194 -2.6826  0.3291  0.1000
 6980SOL     OW32398   3.979   2.056   9.078 -0.1787 -0.0406 -0.0147
 6980SOL    HW132399   3.886   2.040   9.064  0.0285 -1.4232  0.2427
 6980SOL    HW232400   4.004   1.995   9.147 -1.4407 -0.9404 -0.3590
 6981SOL     OW32401   3.192   4.451   1.399  0.5167  0.3054  0.0616
 6981SOL    HW132402   3.164   4.491   1.317 -0.2887 -0.1237  0.1203
 6981SOL    HW232403   3.285   4.430   1.387 -0.1395 -2.4489 -0.2038
 6982SOL     OW32404   1.009   2.699   3.216 -1.0336  0.3823  0.0342
 6982SOL    HW132405   0.955   2.625   3.190  0.5638 -1.3698  1.7154
 6982SOL    HW232406   1.085   2.699   3.159 -0.9150 -1.4426  0.1914
 6983SOL     OW32407   0.850   2.455   5.480 -0.6085 -0.1644  0.0717
 6983SOL    HW132408   0.799   2.460   5.560 -1.4929 -1.4212 -0.4266
 6983SOL    HW232409   0.891   2.368   5.480 -1.6252 -0.6465 -2.0844
 6984SOL     OW32410   4.001   3.896   0.236 -0.3688  0.0251  0.5239
 6984SOL    HW132411   4.079   3.918   0.288  0.3625  0.0294 -0.5909
 6984SOL    HW232412   3.926   3.896   0.295 -0.2008 -1.7550  0.7332
 6985SOL     OW32413   2.630   0.205  11.178 -0.0362 -0.1089 -0.4409
 6985SOL    HW132414   2.696   0.136  11.176  1.1492  1.0020  0.3385
 6985SOL    HW232415   2.548   0.158  11.196 -0.4677  0.5466 -0.7034
 6986SOL     OW32416   2.808   3.639   6.048 -0.0329  0.5163 -0.0463
 6986SOL    HW132417   2.796   3.583   5.971 -0.2838  1.1345 -0.4614
 6986SOL    HW232418   2.721   3.635   6.088  0.4381 -0.7439  0.8124
 6987SOL     OW32419   3.752   1.466  11.708 -0.0038  0.1136 -0.3947
 6987SOL    HW132420   3.786   1.448  11.796  0.4405 -0.5683 -0.7072
 6987SOL    HW232421   3.659   1.485  11.722 -0.3070 -2.8274  1.5313
 6988SOL     OW32422   2.850   0.386   9.578  0.3823 -0.3904 -0.1578
 6988SOL    HW132423   2.834   0.467   9.625 -0.7587 -1.2817  1.0028
 6988SOL    HW232424   2.783   0.329   9.616  0.5140 -2.7081 -3.3211
 6989SOL     OW32425   1.257   1.799  14.735  0.3905  0.3080  0.1515
 6989SOL    HW132426   1.211   1.828  14.813  2.3505  0.7645  1.1507
 6989SOL    HW232427   1.204   1.736  14.687  1.6232 -0.2610 -0.4813
 6990SOL     OW32428   3.079   0.779   5.634 -0.1014 -0.4365 -0.3500
 6990SOL    HW132429   3.149   0.841   5.612  0.0531 -0.6838 -0.5618
 6990SOL    HW232430   3.018   0.793   5.561 -1.4205 -3.5049  0.1978
 6991SOL     OW32431   0.570   1.389   0.701  0.3513  0.3616  0.0364
 6991SOL    HW132432   0.574   1.332   0.624 -0.6289 -0.8578  0.8935
 6991SOL    HW232433   0.530   1.469   0.668 -1.4246 -1.5566 -2.4706
 6992SOL     OW32434   1.430   0.663   6.064  0.6440 -0.1005 -0.4887
 6992SOL    HW132435   1.519   0.668   6.027  0.2051 -0.7393 -1.6180
 6992SOL    HW232436   1.453   0.658   6.157  0.3655 -1.2258 -0.4907
 6993SOL     OW32437   1.960   0.359   1.800  0.4682 -0.0670  0.0961
 6993SOL    HW132438   1.898   0.429   1.782  0.8490  0.5824  1.3338
 6993SOL    HW232439   2.033   0.413   1.827  0.1413 -0.3456  1.5204
 6994SOL     OW32440   1.957   3.568   8.042  0.3656 -0.3261  0.2586
 6994SOL    HW132441   2.037   3.620   8.038 -0.6215  1.2699  1.3294
 6994SOL    HW232442   1.940   3.577   7.949 -1.3569  3.1864  0.8944
 6995SOL     OW32443   3.801   2.238  13.477 -0.0840  0.4221  0.0816
 6995SOL    HW132444   3.793   2.264  13.385 -0.4826  1.0061  0.2816
 6995SOL    HW232445   3.791   2.320  13.525 -1.3067  1.0699 -1.2591
 6996SOL     OW32446   1.296   3.024   3.208 -0.0876 -0.3479  0.1936
 6996SOL    HW132447   1.218   3.079   3.221  0.8778  1.3128 -1.0189
 6996SOL    HW232448   1.311   3.021   3.114  0.5899  1.0179  0.2596
 6997SOL     OW32449   4.644   4.036   5.561 -0.3181  0.1135  0.5352
 6997SOL    HW132450   4.653   3.997   5.648 -0.0490  0.3553  0.6185
 6997SOL    HW232451   4.659   4.128   5.583  1.2808 -0.6033  2.5816
 6998SOL     OW32452   1.661   3.981  13.797  0.0823  0.1790  0.1044
 6998SOL    HW132453   1.610   3.971  13.717 -0.7331  0.6903  0.5575
 6998SOL    HW232454   1.593   3.948  13.857  0.0445 -1.2529 -0.7233
 6999SOL     OW32455   0.815   0.966   7.593 -0.1129  0.5244  0.0286
 6999SOL    HW132456   0.867   0.933   7.520  0.0158 -1.4695  1.0291
 6999SOL    HW232457   0.851   1.055   7.598  2.5175 -0.4293 -2.5624
 7000SOL     OW32458   3.505   3.509   8.170 -0.4760 -0.0638  0.2632
 7000SOL    HW132459   3.511   3.415   8.156 -2.5226  0.0648 -1.5431
 7000SOL    HW232460   3.540   3.522   8.258  2.1051 -0.4480 -0.7017
 7001SOL     OW32461   0.451   3.081   2.743  0.2749 -0.0487 -0.5705
 7001SOL    HW132462   0.522   3.072   2.680  0.3947 -3.4062  0.0024
 7001SOL    HW232463   0.465   3.163   2.790  0.1038 -0.3877  0.0769
 7002SOL     OW32464   1.544   2.756  11.838  0.0560 -0.3624 -0.2020
 7002SOL    HW132465   1.502   2.686  11.788  1.8208 -1.1003 -0.6561
 7002SOL    HW232466   1.619   2.706  11.869 -0.8859 -0.9905  1.0351
 7003SOL     OW32467   3.505   1.686   3.976 -0.6128  0.2219 -0.4123
 7003SOL    HW132468   3.416   1.712   3.951  0.1516  2.3173 -0.9763
 7003SOL    HW232469   3.560   1.764   3.966 -1.8009  1.2191  0.7994
 7004SOL     OW32470   0.105   4.078  15.072 -0.0357  0.4842  0.4919
 7004SOL    HW132471   0.122   3.991  15.108  0.1060  0.2290 -0.1925
 7004SOL    HW232472   0.071   4.052  14.987 -1.5116  0.3815  1.1164
 7005SOL     OW32473   1.975   2.099   3.211 -0.0369  0.2002  0.4690
 7005SOL    HW132474   2.071   2.103   3.212 -0.0915  1.4333  0.0465
 7005SOL    HW232475   1.971   2.003   3.207  0.3644  0.1475  1.2755
 7006SOL     OW32476   3.520   1.517  12.551  0.8036  0.0339 -0.3357
 7006SOL    HW132477   3.587   1.572  12.591  1.4125 -2.2432  1.6961
 7006SOL    HW232478   3.561   1.431  12.552  1.9950  0.6278  2.3338
 7007SOL     OW32479   1.294   0.855  12.076  0.5141  0.2309  0.2454
 7007SOL    HW132480   1.265   0.930  12.024 -1.3761 -0.0195  0.9308
 7007SOL    HW232481   1.216   0.802  12.095  0.8927 -0.6836 -0.7198
 7008SOL     OW32482   2.869   3.383   3.009 -0.9794 -0.1198  0.0146
 7008SOL    HW132483   2.847   3.476   3.008  4.1937  1.1088  0.5151
 7008SOL    HW232484   2.808   3.354   2.941 -0.0291  1.9998 -1.7281
 7009SOL     OW32485   3.169   0.667  11.600 -0.3318 -0.0524  0.1742
 7009SOL    HW132486   3.207   0.688  11.685  0.5201 -0.4270 -0.1113
 7009SOL    HW232487   3.227   0.602  11.561 -1.0323 -0.7770  0.3449
 7010SOL     OW32488   0.698   0.757   1.952  0.2737 -0.8194  0.1106
 7010SOL    HW132489   0.661   0.671   1.971  0.7380 -1.1990 -0.6873
 7010SOL    HW232490   0.690   0.760   1.856  2.7310 -1.3663 -0.1119
 7011SOL     OW32491   0.424   0.738   3.623 -0.4346 -0.3075  0.2998
 7011SOL    HW132492   0.382   0.824   3.614  0.2162  0.2858  3.2060
 7011SOL    HW232493   0.510   0.773   3.601  0.2027 -2.4587 -0.6261
 7012SOL     OW32494   2.515   1.624   2.790  0.2543  0.8651  0.7816
 7012SOL    HW132495   2.462   1.699   2.764  1.3526  0.7475 -1.7903
 7012SOL    HW232496   2.521   1.636   2.885  2.9721  0.8768  0.6071
 7013SOL     OW32497   3.722   3.356   4.023  0.1343  0.2275  0.7359
 7013SOL    HW132498   3.768   3.273   4.027 -0.2211 -0.0210 -0.3194
 7013SOL    HW232499   3.637   3.341   4.065  0.2846 -0.6409  0.7354
 7014SOL     OW32500   1.069   0.942  13.232  0.2154 -0.0718  0.1781
 7014SOL    HW132501   1.129   0.912  13.164  0.2669  1.2399 -0.3498
 7014SOL    HW232502   1.102   0.900  13.312 -0.8002  1.7833  1.5872
 7015SOL     OW32503   2.241   4.529  16.571 -0.1087  0.7773  0.2407
 7015SOL    HW132504   2.210   4.614  16.538  5.2918  1.9403 -1.9610
 7015SOL    HW232505   2.228   4.471  16.496  2.4975  1.0517 -0.4366
 7016SOL     OW32506   4.654   3.151   9.591  0.1944  0.6665 -0.0849
 7016SOL    HW132507   0.022   3.171   9.613  0.0275 -0.7392  1.8556
 7016SOL    HW232508   4.639   3.065   9.630 -1.0416  1.7587  1.8832
 7017SOL     OW32509   0.035   2.404   7.219 -0.2920 -0.4013  0.3696
 7017SOL    HW132510   4.721   2.481   7.175 -3.2780 -0.3088  3.1328
 7017SOL    HW232511   4.675   2.371   7.252  0.0282 -1.4221  0.1550
 7018SOL     OW32512   1.366   3.348  11.079 -0.1426 -0.1506  0.5690
 7018SOL    HW132513   1.317   3.319  11.156  0.3158 -2.4527  0.0080
 7018SOL    HW232514   1.299   3.406  11.043  1.3337  0.5998 -0.9606
 7019SOL     OW32515   2.596   1.638   1.119 -0.8605 -0.6142 -0.2622
 7019SOL    HW132516   2.505   1.607   1.113 -1.8758  1.7864  2.4171
 7019SOL    HW232517   2.579   1.718   1.170 -0.0066  0.2683 -1.3735
 7020SOL     OW32518   1.213   1.275   7.268 -0.3155  0.1694 -0.2390
 7020SOL    HW132519   1.242   1.355   7.313  0.4271 -0.8480  1.0857
 7020SOL    HW232520   1.129   1.303   7.232 -0.4484 -0.2269 -0.2331
 7021SOL     OW32521   4.621   1.421   4.040 -0.6965 -0.6514 -0.4572
 7021SOL    HW132522   4.659   1.421   4.128  0.3720  0.7766 -0.9220
 7021SOL    HW232523   4.683   1.367   3.991  1.1593 -0.0100  1.1861
 7022SOL     OW32524   2.719   3.495  10.741 -0.1120  0.4059 -0.3838
 7022SOL    HW132525   2.750   3.412  10.705 -2.2610 -0.5714  0.0751
 7022SOL    HW232526   2.798   3.517  10.790  0.4171 -1.6139 -0.3122
 7023SOL     OW32527   2.138   1.154  11.937  0.2675  0.1286 -0.2257
 7023SOL    HW132528   2.179   1.174  12.021  1.1736 -1.8676 -0.2096
 7023SOL    HW232529   2.205   1.121  11.878 -0.2792  0.7621 -1.2102
 7024SOL     OW32530   2.699   3.345  11.049 -0.3255  0.2878 -0.3594
 7024SOL    HW132531   2.727   3.286  11.119  0.1392  0.0404 -0.7542
 7024SOL    HW232532   2.612   3.314  11.022  0.2256 -1.3217 -0.3033
 7025SOL     OW32533   0.740   0.099   1.013 -0.0783  0.3065  0.1806
 7025SOL    HW132534   0.676   0.093   1.083 -0.0822 -0.1024  0.1416
 7025SOL    HW232535   0.729   0.013   0.971  0.8915  0.5636 -0.6093
 7026SOL     OW32536   2.155   2.231  14.565  0.1474  0.7562 -0.1732
 7026SOL    HW132537   2.106   2.150  14.554  0.3626  0.7429 -1.0296
 7026SOL    HW232538   2.086   2.297  14.560 -0.9591 -0.2365  2.0661
 7027SOL     OW32539   2.786   2.452  14.856 -0.0306 -0.2067 -0.0769
 7027SOL    HW132540   2.739   2.487  14.780  2.2418  0.2391 -1.2545
 7027SOL    HW232541   2.833   2.378  14.819  1.6267  1.8229 -2.0824
 7028SOL     OW32542   2.342   2.715  12.992 -0.3709  0.4614  0.0730
 7028SOL    HW132543   2.284   2.765  12.935 -0.7865  0.0528  0.1404
 7028SOL    HW232544   2.372   2.783  13.052  2.0871  0.4146 -1.1047
 7029SOL     OW32545   1.369   4.526   4.940 -0.6248 -0.4610 -0.2052
 7029SOL    HW132546   1.279   4.547   4.968 -0.4184  1.0729 -0.7340
 7029SOL    HW232547   1.383   4.450   4.996  0.9467 -0.0346 -0.0393
 7030SOL     OW32548   4.038   0.879   4.270 -0.5796  0.5159  0.2494
 7030SOL    HW132549   4.044   0.884   4.174 -0.1866 -1.2745  0.1810
 7030SOL    HW232550   4.082   0.961   4.294 -2.3599  1.2776  0.8758
 7031SOL     OW32551   1.216   1.253   7.734 -0.3539 -0.0117 -0.3745
 7031SOL    HW132552   1.188   1.344   7.747 -0.2113  0.0401 -0.4278
 7031SOL    HW232553   1.147   1.206   7.780  1.4702  0.0688  2.4026
 7032SOL     OW32554   3.078   1.023  14.460  0.0214 -0.8335  0.0213
 7032SOL    HW132555   3.169   1.005  14.482 -0.2370 -2.7346 -0.4276
 7032SOL    HW232556   3.102   1.070  14.380 -0.3144 -0.3310  0.2232
 7033SOL     OW32557   1.948   3.123   2.328  0.4066  0.0155 -0.0120
 7033SOL    HW132558   1.854   3.141   2.319  0.0860 -1.5094  0.2934
 7033SOL    HW232559   1.964   3.062   2.256 -0.4362  1.2460 -1.2487
 7034SOL     OW32560   4.548   3.481  12.484  0.3509  0.3973  0.8529
 7034SOL    HW132561   4.522   3.529  12.562 -2.0013  1.7833 -0.7742
 7034SOL    HW232562   4.499   3.514  12.408  2.8723  0.8942 -0.5316
 7035SOL     OW32563   3.557   1.602  14.450 -0.4622 -0.2941 -0.6896
 7035SOL    HW132564   3.560   1.637  14.539  0.8329 -0.6498 -0.5949
 7035SOL    HW232565   3.465   1.620  14.428 -0.6059 -0.5781 -0.3318
 7036SOL     OW32566   0.081   2.672   9.771 -0.1315 -0.2204 -0.3048
 7036SOL    HW132567   0.143   2.599   9.767 -0.6693 -0.7272  0.6490
 7036SOL    HW232568   0.054   2.681   9.679  0.0103 -0.8980 -0.4148
 7037SOL     OW32569   4.188   0.343   5.806  0.3814  0.8121 -0.0249
 7037SOL    HW132570   4.257   0.358   5.742 -0.7092 -1.1594 -1.6500
 7037SOL    HW232571   4.191   0.425   5.855 -2.1299 -0.3419  2.0284
 7038SOL     OW32572   0.300   3.840   1.367  0.2469 -0.0919  0.4390
 7038SOL    HW132573   0.367   3.908   1.354 -0.1619  0.1704 -0.2584
 7038SOL    HW232574   0.351   3.771   1.411 -2.3249 -1.4151  1.3144
 7039SOL     OW32575   4.511   1.827   3.775 -0.4137  0.7979  0.7324
 7039SOL    HW132576   4.473   1.741   3.758 -1.9487  1.1321  2.5137
 7039SOL    HW232577   4.456   1.857   3.847 -0.6944 -1.1292  1.3010
 7040SOL     OW32578   0.076   4.552   8.857  0.0773 -0.2087  0.2230
 7040SOL    HW132579   0.091   4.608   8.781 -2.2260  0.6721  0.4100
 7040SOL    HW232580   0.041   4.610   8.924 -2.7306 -0.0669 -1.3207
 7041SOL     OW32581   0.952   3.429   3.056  0.4379  0.3040  0.0503
 7041SOL    HW132582   0.962   3.424   2.961 -1.0166 -0.6819 -0.0601
 7041SOL    HW232583   0.896   3.352   3.064  2.6438 -1.4618 -1.6729
 7042SOL     OW32584   3.112   4.676   2.641  0.1332  0.1108 -0.3277
 7042SOL    HW132585   3.028   4.715   2.616 -0.2138  0.3594  1.2630
 7042SOL    HW232586   3.098   4.586   2.613  0.4543 -0.2432  0.6460
 7043SOL     OW32587   1.708   4.103   3.272 -0.2699  0.6388 -0.3141
 7043SOL    HW132588   1.786   4.132   3.318  0.5858 -1.0278 -0.6933
 7043SOL    HW232589   1.668   4.049   3.340  1.9002  0.3842  0.7464
 7044SOL     OW32590   1.738   4.701   3.750 -0.2478  0.1925 -1.1890
 7044SOL    HW132591   1.698   4.614   3.759 -0.1280  0.2893  0.2853
 7044SOL    HW232592   1.830   4.691   3.725  0.1487 -2.8863  1.4526
 7045SOL     OW32593   2.940   1.514   0.882 -0.7987  0.6887  0.1860
 7045SOL    HW132594   2.909   1.547   0.966  0.7828  1.1200  0.6145
 7045SOL    HW232595   3.007   1.449   0.901 -1.5569 -0.9533 -2.7247
 7046SOL     OW32596   1.219   0.067   7.056 -0.4364  0.3310  0.0231
 7046SOL    HW132597   1.313   0.081   7.064 -0.8247  2.8180  0.1889
 7046SOL    HW232598   1.210   4.703   7.016  0.4727  0.0998  0.3127
 7047SOL     OW32599   1.403   0.294   5.788 -0.1327  0.4392  0.0840
 7047SOL    HW132600   1.326   0.307   5.844  0.1996 -0.6389  0.7922
 7047SOL    HW232601   1.374   0.221   5.734 -0.4302 -0.0167  0.8568
 7048SOL     OW32602   0.480   4.149  16.794  0.0060 -0.2082 -0.6539
 7048SOL    HW132603   0.524   4.225  16.754  0.3037 -0.3040 -0.5073
 7048SOL    HW232604   0.455   4.179  16.881  2.7425  0.5894 -0.1304
 7049SOL     OW32605   1.012   0.208   6.934  0.4137  0.6072 -0.1534
 7049SOL    HW132606   0.921   0.201   6.961  1.0928  1.2384  2.3109
 7049SOL    HW232607   1.060   0.180   7.012  1.6724 -0.3264 -1.2640
 7050SOL     OW32608   1.683   4.109   7.340 -0.1370 -0.3468  0.2032
 7050SOL    HW132609   1.646   4.100   7.252  3.5553 -1.3108 -1.2342
 7050SOL    HW232610   1.708   4.019   7.360  0.5684 -0.1871  0.0425
 7051SOL     OW32611   3.462   2.615  14.541 -0.3960 -0.2155 -0.3289
 7051SOL    HW132612   3.379   2.650  14.507 -1.0817  0.0268  1.5919
 7051SOL    HW232613   3.448   2.520  14.542  2.6010 -0.6457  0.2096
 7052SOL     OW32614   2.224   0.903   1.995  0.8626  0.1139  0.3299
 7052SOL    HW132615   2.234   0.810   2.016 -1.8930 -0.6834 -1.8899
 7052SOL    HW232616   2.314   0.935   1.984 -0.2840  3.1666 -0.0383
 7053SOL     OW32617   0.928   1.143   0.710 -0.8461  0.2655 -0.5513
 7053SOL    HW132618   0.996   1.081   0.685 -0.6485 -0.2188  1.1592
 7053SOL    HW232619   0.854   1.099   0.753  0.4415  0.1225  1.5061
 7054SOL     OW32620   1.418   0.744   4.329 -0.0329  0.2361  0.5101
 7054SOL    HW132621   1.364   0.665   4.334 -0.2171  0.3237 -0.0491
 7054SOL    HW232622   1.382   0.791   4.403  0.3312  0.9764  0.2166
 7055SOL     OW32623   3.659   1.487   4.602  0.0113  0.3916  0.0419
 7055SOL    HW132624   3.704   1.452   4.525 -0.3427 -0.5637  0.2599
 7055SOL    HW232625   3.654   1.581   4.585  0.0199  0.7343  1.9096
 7056SOL     OW32626   4.349   4.309   9.178 -0.1116 -0.2872  0.6451
 7056SOL    HW132627   4.444   4.315   9.167 -0.4127  1.1481 -1.3617
 7056SOL    HW232628   4.328   4.391   9.223 -0.5762  0.0242 -0.1385
 7057SOL     OW32629   0.032   3.229   2.263  0.4817  0.1579  0.1186
 7057SOL    HW132630   0.049   3.160   2.327 -0.8137 -0.1644  0.1269
 7057SOL    HW232631   0.013   3.189   2.178  1.7031 -0.3680  0.1053
 7058SOL     OW32632   2.743   2.557   2.941 -0.0896  0.2456 -0.0440
 7058SOL    HW132633   2.805   2.551   2.868  2.2954 -0.0794  1.9922
 7058SOL    HW232634   2.690   2.484   2.911 -1.3877  0.9791  0.4799
 7059SOL     OW32635   2.106   4.167  12.103 -0.3919 -0.0421  0.1236
 7059SOL    HW132636   2.081   4.256  12.080  0.1927 -0.3606 -1.7349
 7059SOL    HW232637   2.183   4.185  12.157  0.0686  1.9409 -1.2155
 7060SOL     OW32638   0.057   0.667   6.761 -0.1894 -0.7280  0.0570
 7060SOL    HW132639   0.059   0.763   6.758  3.5275 -0.8516 -1.1064
 7060SOL    HW232640   4.721   0.646   6.834  0.9190 -0.9795  0.8812
 7061SOL     OW32641   1.080   4.716  17.101 -0.4218 -0.1593  0.3895
 7061SOL    HW132642   0.999   4.677  17.069 -0.9893  0.7847  0.6773
 7061SOL    HW232643   1.057   0.016  17.192 -1.5237  0.2486  0.0069
 7062SOL     OW32644   3.879   2.504   5.207  0.1366  0.6041 -0.3643
 7062SOL    HW132645   3.821   2.579   5.218 -1.2836 -0.4149 -0.9828
 7062SOL    HW232646   3.833   2.433   5.251  1.9516 -0.1497  0.3430
 7063SOL     OW32647   2.054   0.270   6.737 -0.7724 -0.3653 -0.0939
 7063SOL    HW132648   2.010   0.194   6.700  1.3955 -0.3209 -2.7151
 7063SOL    HW232649   2.084   0.305   6.653  0.8450 -0.6149  0.3850
 7064SOL     OW32650   0.546   2.769  13.640 -0.2977  0.2777 -0.1266
 7064SOL    HW132651   0.545   2.676  13.665 -1.9017  0.1607 -0.6764
 7064SOL    HW232652   0.493   2.807  13.710 -1.9254 -0.6106 -0.8949
 7065SOL     OW32653   2.304   3.011   8.774 -0.1578 -0.2438 -0.3544
 7065SOL    HW132654   2.321   3.059   8.855 -1.6742 -2.3869  1.2344
 7065SOL    HW232655   2.278   3.084   8.717  1.4877  0.0421 -0.7615
 7066SOL     OW32656   3.418   2.798  10.392  0.4221 -0.1457 -0.2448
 7066SOL    HW132657   3.422   2.819  10.298 -0.3697  0.7758 -0.0730
 7066SOL    HW232658   3.369   2.876  10.418  0.2018  0.4184 -2.3286
 7067SOL     OW32659   4.407   2.941   2.845 -0.1633  0.1775 -0.1699
 7067SOL    HW132660   4.409   2.979   2.757  0.8583  0.1223 -0.1667
 7067SOL    HW232661   4.440   2.852   2.830  1.2620  0.0961  3.5613
 7068SOL     OW32662   4.263   3.649   4.772 -0.5704 -0.1980 -0.0156
 7068SOL    HW132663   4.177   3.642   4.731 -0.7763  0.8867  0.2245
 7068SOL    HW232664   4.243   3.701   4.850  0.6779 -0.5463  0.5348
 7069SOL     OW32665   3.723   0.246  14.417 -0.5455 -0.0501 -0.3037
 7069SOL    HW132666   3.650   0.210  14.468 -0.8241 -3.2226 -2.9829
 7069SOL    HW232667   3.754   0.316  14.475  0.2126 -0.7699  0.1505
 7070SOL     OW32668   2.591   3.528   3.567 -0.3868 -0.5056 -0.1122
 7070SOL    HW132669   2.623   3.450   3.521  0.6364 -1.8389  2.8352
 7070SOL    HW232670   2.669   3.579   3.590 -1.5585  1.1123  0.2712
 7071SOL     OW32671   1.164   3.477   8.769  0.1406  0.8411  0.0764
 7071SOL    HW132672   1.166   3.390   8.729 -0.9890  0.4795  0.8121
 7071SOL    HW232673   1.248   3.517   8.745 -0.8760  3.6141  1.1596
 7072SOL     OW32674   3.391   4.423  14.302 -0.5054 -0.0970 -0.9450
 7072SOL    HW132675   3.434   4.495  14.255  1.2684  0.6388  1.7391
 7072SOL    HW232676   3.355   4.376  14.227 -1.5230 -1.6705  0.5386
 7073SOL     OW32677   2.887   2.305   2.779  0.3023  0.3621 -0.3277
 7073SOL    HW132678   2.860   2.234   2.721  2.9030 -2.8487  2.3750
 7073SOL    HW232679   2.931   2.264   2.854 -1.6899 -1.5438 -0.2084
 7074SOL     OW32680   3.272   1.295   1.367  0.4394 -0.1999  0.3085
 7074SOL    HW132681   3.246   1.385   1.348 -1.3644 -1.0166 -1.1162
 7074SOL    HW232682   3.329   1.276   1.292 -1.4327 -1.0819 -0.8892
 7075SOL     OW32683   3.926   0.962   2.411 -1.3578  0.0556  0.0595
 7075SOL    HW132684   3.965   1.049   2.420 -0.7300 -0.1952 -0.2659
 7075SOL    HW232685   3.872   0.960   2.490  0.6185 -0.5228  1.3725
 7076SOL     OW32686   0.248   3.668   9.471 -0.2390 -0.2292 -0.0917
 7076SOL    HW132687   0.289   3.715   9.544 -0.1677 -0.4382  0.0025
 7076SOL    HW232688   0.163   3.667   9.516  0.0029  1.8826  0.4030
 7077SOL     OW32689   3.530   3.930   5.800  0.1033  0.0502  0.7867
 7077SOL    HW132690   3.562   3.895   5.883 -1.4400 -1.8273  0.5849
 7077SOL    HW232691   3.569   4.018   5.800  1.3969 -0.5116 -1.5897
 7078SOL     OW32692   0.015   4.546   1.045 -0.2961  0.8777 -0.0264
 7078SOL    HW132693   4.653   4.588   1.030 -1.5964 -2.2125 -1.4762
 7078SOL    HW232694   0.071   4.586   0.979 -0.1936 -1.7155 -1.5448
 7079SOL     OW32695   0.894   0.102   5.266  0.2833 -0.5624 -0.0174
 7079SOL    HW132696   0.900   0.177   5.206  0.2515 -1.7497 -1.5091
 7079SOL    HW232697   0.937   0.131   5.347 -0.0947  2.2553 -0.8189
 7080SOL     OW32698   1.203   2.918   6.416  0.5947 -0.2729  0.7892
 7080SOL    HW132699   1.239   2.984   6.357  0.1726  0.3217  1.2001
 7080SOL    HW232700   1.279   2.864   6.440  1.1936  0.5057  0.6219
 7081SOL     OW32701   4.433   4.002   3.700  0.4028  0.5846  0.3399
 7081SOL    HW132702   4.447   4.006   3.605 -0.2721  2.3567  0.3293
 7081SOL    HW232703   4.377   4.079   3.708 -1.8295 -0.9234 -0.8106
 7082SOL     OW32704   2.235   1.876  11.783  0.1240  0.1791 -0.3173
 7082SOL    HW132705   2.207   1.854  11.872  1.4474 -2.1528 -0.4607
 7082SOL    HW232706   2.149   1.869  11.744 -0.8211 -3.2123  2.2851
 7083SOL     OW32707   0.106   0.269   4.825 -0.5218 -0.3569  0.1791
 7083SOL    HW132708   0.196   0.256   4.796 -0.2376  1.7935  0.0685
 7083SOL    HW232709   0.108   0.352   4.873 -1.0335  1.5719 -3.1766
 7084SOL     OW32710   3.215   1.962   5.116 -0.2322 -1.3636 -0.1396
 7084SOL    HW132711   3.210   1.886   5.058  0.9976 -1.3659 -0.2313
 7084SOL    HW232712   3.135   2.001   5.080  0.7136 -0.5429 -1.3423
 7085SOL     OW32713   1.912   2.467  14.553  0.0998 -0.0058 -0.0482
 7085SOL    HW132714   1.920   2.484  14.647  3.1101 -1.9925  0.0655
 7085SOL    HW232715   1.865   2.548  14.535  0.0733 -0.4939 -2.1111
 7086SOL     OW32716   3.923   3.955   3.340  0.2185  0.2291  0.5225
 7086SOL    HW132717   3.979   3.953   3.262  2.4039  1.1909  2.1023
 7086SOL    HW232718   3.860   4.021   3.309 -0.5919  0.4967  2.7794
 7087SOL     OW32719   2.074   3.596   8.701 -0.0311  0.4457 -0.1758
 7087SOL    HW132720   2.163   3.566   8.683  0.2271  1.0938 -0.0165
 7087SOL    HW232721   2.016   3.521   8.692 -0.0348  0.3946  0.2722
 7088SOL     OW32722   0.154   4.686   9.440 -0.6539  0.4012  0.4177
 7088SOL    HW132723   0.182   0.055   9.439  0.4458  0.0645  0.4435
 7088SOL    HW232724   0.237   4.650   9.470 -1.7783 -0.4447  2.4812
 7089SOL     OW32725   1.552   1.516   6.013  0.0361 -0.3180 -0.1520
 7089SOL    HW132726   1.527   1.448   5.951  0.0164 -0.5574  0.1164
 7089SOL    HW232727   1.557   1.586   5.948  0.1215  0.2173  0.4372
 7090SOL     OW32728   0.476   0.466   9.081  0.5472 -0.6999 -0.1189
 7090SOL    HW132729   0.538   0.393   9.079  2.8136  1.2267  0.4469
 7090SOL    HW232730   0.445   0.441   8.994 -0.4797  2.4844 -0.6755
 7091SOL     OW32731   2.376   3.726   4.333  0.1808  0.3415 -0.8202
 7091SOL    HW132732   2.463   3.733   4.373 -0.4427 -4.0476  1.3194
 7091SOL    HW232733   2.397   3.723   4.240  0.1099  0.5081 -0.8402
 7092SOL     OW32734   3.061   2.933  10.668 -0.9828 -0.6750  0.2672
 7092SOL    HW132735   3.108   3.009  10.702  1.2325 -2.7515  1.8948
 7092SOL    HW232736   3.035   2.963  10.581 -2.6476  2.4405  1.8229
 7093SOL     OW32737   4.678   0.556   3.091 -0.0369  0.2926  0.2800
 7093SOL    HW132738   4.596   0.522   3.056  0.1208 -0.9956  1.1679
 7093SOL    HW232739   0.021   0.504   3.044 -0.1768  0.4556 -0.0980
 7094SOL     OW32740   0.938   0.599   3.621  0.2237  0.1111 -0.1246
 7094SOL    HW132741   1.002   0.531   3.602  1.3531  1.1186  0.0898
 7094SOL    HW232742   0.992   0.674   3.647 -0.1376  0.6396 -0.8981
 7095SOL     OW32743   3.902   3.356  16.554 -0.4149 -0.1488  0.0914
 7095SOL    HW132744   3.851   3.372  16.474  2.2380 -0.4552 -1.6393
 7095SOL    HW232745   3.847   3.312  16.619 -1.5915  0.0431 -0.7720
 7096SOL     OW32746   2.281   1.110  15.758  0.2306 -0.1195  0.0822
 7096SOL    HW132747   2.334   1.169  15.812  1.4426  0.1691 -1.4405
 7096SOL    HW232748   2.197   1.155  15.766  1.3801  2.6082 -3.4349
 7097SOL     OW32749   4.396   1.467   8.465 -0.0410 -0.1608 -0.4497
 7097SOL    HW132750   4.369   1.376   8.457 -0.3549 -0.2353  1.2949
 7097SOL    HW232751   4.389   1.498   8.556  2.0258 -2.5636  0.5435
 7098SOL     OW32752   1.263   2.781  15.691  0.0903  0.0344  0.1603
 7098SOL    HW132753   1.212   2.757  15.769 -0.0167 -1.9105 -0.4996
 7098SOL    HW232754   1.222   2.718  15.632  2.6830 -0.2143 -1.3891
 7099SOL     OW32755   3.384   2.230   8.340 -0.3100  0.2292 -0.6364
 7099SOL    HW132756   3.314   2.288   8.372 -2.2303 -1.7866 -1.1719
 7099SOL    HW232757   3.339   2.196   8.262 -3.3542 -1.9147  2.0310
 7100SOL     OW32758   1.636   3.715   4.640  0.1674  0.4475  0.3081
 7100SOL    HW132759   1.617   3.653   4.570  0.8980  0.9047 -0.2828
 7100SOL    HW232760   1.569   3.697   4.707  1.7985 -0.1798  1.7673
 7101SOL     OW32761   1.480   1.060   7.728 -0.6116 -0.0063  0.0746
 7101SOL    HW132762   1.481   0.969   7.759  0.5297 -0.7094 -2.0278
 7101SOL    HW232763   1.479   1.096   7.816  0.5296  0.8440 -0.2668
 7102SOL     OW32764   0.778   2.796   4.836 -0.4714  0.1361 -0.2742
 7102SOL    HW132765   0.854   2.746   4.808  0.9095  0.0639  3.5395
 7102SOL    HW232766   0.760   2.758   4.922 -0.7621  2.8007  0.8363
 7103SOL     OW32767   0.232   1.099   9.598 -0.3970  0.0293  0.1109
 7103SOL    HW132768   0.141   1.124   9.617  0.4482  3.4963 -0.4648
 7103SOL    HW232769   0.236   1.004   9.585  0.0911 -0.1983  1.9862
 7104SOL     OW32770   4.376   1.784   3.287 -0.5212 -0.9012 -0.3686
 7104SOL    HW132771   4.293   1.786   3.335 -0.5884 -0.7164 -0.4911
 7104SOL    HW232772   4.428   1.857   3.320 -1.1366  0.8548 -3.2246
 7105SOL     OW32773   2.569   3.047  16.389  0.4394 -0.0720 -0.0770
 7105SOL    HW132774   2.639   3.059  16.453 -1.5847  1.0775  1.8997
 7105SOL    HW232775   2.497   3.106  16.411  1.6861  1.5764 -0.4104
 7106SOL     OW32776   1.684   1.706  17.110 -0.0825  0.3780  0.5198
 7106SOL    HW132777   1.751   1.699  17.042 -0.5547  0.5377  0.0357
 7106SOL    HW232778   1.714   1.646  17.178  1.9114 -2.4960 -2.8908
 7107SOL     OW32779   1.445   4.546  16.267  0.5297 -0.6484 -0.0628
 7107SOL    HW132780   1.464   4.493  16.344 -1.2564 -2.0797 -0.5969
 7107SOL    HW232781   1.414   4.626  16.310  1.4115 -1.5763  2.3117
 7108SOL     OW32782   3.290   2.396   1.114 -0.0922  0.4295 -0.1518
 7108SOL    HW132783   3.281   2.381   1.208 -2.1988  2.3155 -0.0732
 7108SOL    HW232784   3.262   2.487   1.105  0.2808  0.5716  0.1226
 7109SOL     OW32785   1.521   1.406   4.290 -0.2501  0.3315 -0.1924
 7109SOL    HW132786   1.579   1.357   4.232 -1.4826 -3.0208  1.4468
 7109SOL    HW232787   1.506   1.488   4.242 -1.3345 -0.0139 -0.4531
 7110SOL     OW32788   2.533   0.660  11.995  0.2917 -0.5314  0.2098
 7110SOL    HW132789   2.514   0.742  11.948  3.4149 -0.0003 -0.1047
 7110SOL    HW232790   2.485   0.678  12.076  0.7048 -0.8398  0.5183
 7111SOL     OW32791   4.629   2.649   6.037  0.0997 -0.5908 -0.3700
 7111SOL    HW132792   4.563   2.711   6.005 -0.2737 -0.9724 -0.3354
 7111SOL    HW232793   4.576   2.611   6.107  0.5236  1.0947  0.8852
 7112SOL     OW32794   2.886   1.203  15.386 -0.0256 -0.2407  0.1392
 7112SOL    HW132795   2.901   1.283  15.336  1.6249 -0.2566  0.6070
 7112SOL    HW232796   2.978   1.184  15.404 -0.2042 -0.3248  0.9296
 7113SOL     OW32797   1.571   4.527   4.770 -0.0134 -0.3276 -0.7931
 7113SOL    HW132798   1.577   4.618   4.798 -0.5308 -0.6726  0.4163
 7113SOL    HW232799   1.493   4.513   4.822  0.3841 -0.2273 -0.1730
 7114SOL     OW32800   0.451   3.096  16.086  0.4802 -0.4613 -0.0194
 7114SOL    HW132801   0.463   3.047  16.168  1.1937 -1.1342 -0.5230
 7114SOL    HW232802   0.423   3.175  16.132  0.3996  0.5791 -1.8938
 7115SOL     OW32803   2.804   4.276   9.957 -0.2897 -0.4817  0.1717
 7115SOL    HW132804   2.716   4.311   9.968 -0.0791  0.6358 -1.7045
 7115SOL    HW232805   2.838   4.365   9.959  2.9052 -1.5593 -4.2267
 7116SOL     OW32806   4.256   4.420   6.688  0.0646 -0.5065  0.0962
 7116SOL    HW132807   4.257   4.346   6.750 -0.6251  0.8725  1.7440
 7116SOL    HW232808   4.172   4.406   6.645  0.5252 -1.1264 -0.6015
 7117SOL     OW32809   0.472   1.085   5.938  0.2404 -0.5080 -0.3442
 7117SOL    HW132810   0.418   1.157   5.904  0.5198 -0.8674 -1.5411
 7117SOL    HW232811   0.551   1.128   5.907 -0.7652  2.7591  1.5333
 7118SOL     OW32812   3.014   2.254   0.325  0.0354 -0.1068 -0.3039
 7118SOL    HW132813   2.964   2.267   0.406  1.1491 -2.4916  0.7605
 7118SOL    HW232814   3.021   2.346   0.298 -1.0333 -0.2007 -0.8992
 7119SOL     OW32815   1.460   3.079   2.957 -0.0719 -0.2332  0.1571
 7119SOL    HW132816   1.487   3.160   3.001  0.5516  0.3670 -1.3566
 7119SOL    HW232817   1.522   3.019   2.998  0.2247 -0.1821 -0.2209
 7120SOL     OW32818   2.579   2.668   2.556  0.0843 -0.0504  0.2877
 7120SOL    HW132819   2.603   2.690   2.466  0.7952 -2.3328 -0.0923
 7120SOL    HW232820   2.584   2.573   2.573 -0.1698  0.2149  1.8386
 7121SOL     OW32821   3.288   2.677   1.073  0.9960 -0.1261 -0.5264
 7121SOL    HW132822   3.207   2.708   1.113 -0.3352 -0.7578 -2.7418
 7121SOL    HW232823   3.298   2.741   1.003 -1.2375  1.3067  0.4574
 7122SOL     OW32824   3.169   1.074   1.037 -0.1551 -0.4252 -0.1760
 7122SOL    HW132825   3.106   1.127   1.087  0.8373  1.0529 -0.4991
 7122SOL    HW232826   3.206   1.016   1.104 -1.2852  2.5054  2.9824
 7123SOL     OW32827   0.354   1.190  11.767  0.6719  0.0560  0.1016
 7123SOL    HW132828   0.416   1.133  11.722  2.0827  0.3640  1.6355
 7123SOL    HW232829   0.306   1.122  11.813 -2.4130 -0.1656 -3.5493
 7124SOL     OW32830   1.824   4.287   4.276 -1.0078 -0.0410 -0.0026
 7124SOL    HW132831   1.794   4.255   4.191  0.4344 -1.5349  0.0643
 7124SOL    HW232832   1.782   4.225   4.336  2.8217 -1.8398  0.7608
 7125SOL     OW32833   1.847   3.541   6.224  0.2721  0.3083 -0.4083
 7125SOL    HW132834   1.841   3.588   6.141  0.0783  1.5567  0.3167
 7125SOL    HW232835   1.763   3.496   6.233 -1.2957  3.3716  0.4461
 7126SOL     OW32836   3.466   1.717   8.418  0.4975  0.4584 -0.1295
 7126SOL    HW132837   3.410   1.765   8.357 -2.4135 -0.5171  1.7750
 7126SOL    HW232838   3.424   1.631   8.417  1.1788  0.1327 -1.0593
 7127SOL     OW32839   2.247   3.033   8.064 -1.0520  0.6156 -0.0750
 7127SOL    HW132840   2.255   3.071   7.977 -0.5645 -1.1755 -0.8086
 7127SOL    HW232841   2.336   2.999   8.073 -0.6591  1.1240 -2.1580
 7128SOL     OW32842   2.903   0.572   8.533 -0.2013 -0.0252  0.0227
 7128SOL    HW132843   2.989   0.579   8.491  0.1772  0.9762  0.9682
 7128SOL    HW232844   2.918   0.599   8.624 -0.9094  3.2638 -0.8350
 7129SOL     OW32845   1.538   0.199   6.042  0.3793  0.4280  0.6011
 7129SOL    HW132846   1.612   0.251   6.072  0.4706  0.7881 -0.2560
 7129SOL    HW232847   1.493   0.268   5.993  0.5094 -0.1835 -0.3872
 7130SOL     OW32848   3.425   4.151   0.946 -0.0182  0.3847 -0.4456
 7130SOL    HW132849   3.373   4.074   0.968 -0.4061  0.0447 -2.5714
 7130SOL    HW232850   3.377   4.198   1.014 -1.8505 -0.4362 -1.1817
 7131SOL     OW32851   3.644   4.166   5.868  0.1694 -0.4544  0.3309
 7131SOL    HW132852   3.722   4.182   5.921  1.1270 -0.1967 -1.1712
 7131SOL    HW232853   3.605   4.253   5.867  0.4668 -0.3090  1.5801
 7132SOL     OW32854   3.129   2.736   2.253 -0.0706 -0.2652 -0.2910
 7132SOL    HW132855   3.041   2.715   2.221  0.1311 -0.7609 -0.5329
 7132SOL    HW232856   3.114   2.759   2.344  1.5894 -0.3416  0.0009
 7133SOL     OW32857   3.384   1.273   2.069 -0.7186  0.2232 -0.0730
 7133SOL    HW132858   3.403   1.367   2.074  3.1722 -0.6419  1.3657
 7133SOL    HW232859   3.381   1.247   2.161  3.0585  1.0724  0.3231
 7134SOL     OW32860   0.941   0.326   3.782  0.0110  0.0245  0.0703
 7134SOL    HW132861   0.936   0.402   3.724  1.4084 -0.6704 -0.9737
 7134SOL    HW232862   0.932   0.254   3.719 -1.0106  0.5581 -0.4005
 7135SOL     OW32863   3.710   4.570  17.099  0.0252  0.4328  0.4962
 7135SOL    HW132864   3.683   4.504  17.036  0.5378  0.2208  0.5022
 7135SOL    HW232865   3.792   4.532  17.131 -0.3870  0.2499  1.3470
 7136SOL     OW32866   0.424   4.282   4.251 -0.0217 -0.1852 -0.2615
 7136SOL    HW132867   0.461   4.338   4.182 -2.4665  0.5273 -1.0210
 7136SOL    HW232868   0.468   4.313   4.330  1.7801  1.0611 -1.7529
 7137SOL     OW32869   2.129   3.619  10.374  0.3058 -0.2177 -0.6007
 7137SOL    HW132870   2.173   3.696  10.409 -0.2369 -0.6060  0.9351
 7137SOL    HW232871   2.184   3.602  10.298 -0.0772  1.8952 -1.3400
 7138SOL     OW32872   3.281   3.987   5.021 -0.6420 -0.1039 -0.4469
 7138SOL    HW132873   3.357   3.945   4.981  0.1134  1.5258 -0.6877
 7138SOL    HW232874   3.310   4.012   5.109  1.6164 -0.4503 -1.1053
 7139SOL     OW32875   0.158   2.550   6.825 -0.6236  0.8104 -0.4711
 7139SOL    HW132876   0.149   2.479   6.762  1.5269  1.5485 -1.6379
 7139SOL    HW232877   0.100   2.611   6.780 -1.8781  0.3133  0.4780
 7140SOL     OW32878   2.314   3.546  10.204 -0.2565 -0.6250  0.3142
 7140SOL    HW132879   2.311   3.531  10.110 -0.5065 -0.3799  0.2808
 7140SOL    HW232880   2.268   3.467  10.232 -0.3986 -0.3066  0.9834
 7141SOL     OW32881   2.230   4.486   3.853 -0.1858  0.1289  0.2248
 7141SOL    HW132882   2.245   4.497   3.947 -2.1761  0.7103  0.4807
 7141SOL    HW232883   2.252   4.569   3.811 -1.2093  1.1035  1.5984
 7142SOL     OW32884   0.185   1.344   7.719  0.1326  0.2448  0.2758
 7142SOL    HW132885   0.132   1.271   7.685 -0.0623 -0.2888  1.7392
 7142SOL    HW232886   0.162   1.346   7.812 -2.3522 -0.9355 -0.2966
 7143SOL     OW32887   0.296   4.487   3.893 -0.3714 -0.0720  0.2974
 7143SOL    HW132888   0.363   4.464   3.829 -0.5509 -1.2542  0.5271
 7143SOL    HW232889   0.345   4.561   3.927 -0.2827 -1.2296  2.6952
 7144SOL     OW32890   1.259   0.620   2.402  0.1032 -0.1804  0.2064
 7144SOL    HW132891   1.331   0.668   2.442 -0.2881  0.8384 -0.2947
 7144SOL    HW232892   1.248   0.659   2.315  2.7959  0.9389  0.3758
 7145SOL     OW32893   2.530   0.413  11.826 -0.1652 -0.0602 -0.0196
 7145SOL    HW132894   2.557   0.504  11.837 -0.3538  0.0076 -0.1164
 7145SOL    HW232895   2.494   0.384  11.910 -0.8946 -0.5487 -0.4901
 7146SOL     OW32896   2.212   3.903  16.732 -0.4509  0.2249 -0.1334
 7146SOL    HW132897   2.228   3.846  16.807  0.1834  0.5193 -0.0443
 7146SOL    HW232898   2.172   3.981  16.770  0.4379 -0.0825  1.4441
 7147SOL     OW32899   1.493   0.665   1.191 -0.1175 -0.2266 -0.1120
 7147SOL    HW132900   1.428   0.701   1.250  0.5589 -0.9354  1.0519
 7147SOL    HW232901   1.575   0.688   1.234 -0.2334  1.5291 -0.8218
 7148SOL     OW32902   1.620   2.015  16.071  0.2505  0.0885  0.7881
 7148SOL    HW132903   1.539   2.036  16.117 -1.0622 -2.2514 -0.4763
 7148SOL    HW232904   1.602   2.060  15.988  0.0904 -0.8961  0.2866
 7149SOL     OW32905   3.567   4.214   7.334 -0.3435 -0.1782 -0.0123
 7149SOL    HW132906   3.582   4.307   7.350  0.4521 -0.2034 -0.6067
 7149SOL    HW232907   3.490   4.199   7.390  0.8889  2.3447  2.3559
 7150SOL     OW32908   4.371   0.539  16.243  0.2358 -0.3011  0.4227
 7150SOL    HW132909   4.289   0.496  16.267 -0.8052  0.5785 -1.4941
 7150SOL    HW232910   4.442   0.494  16.289  0.7680 -1.2043 -1.2593
 7151SOL     OW32911   0.958   4.300   5.674  0.6402 -0.3309 -0.1739
 7151SOL    HW132912   0.930   4.253   5.595 -1.6646  0.1472  0.3464
 7151SOL    HW232913   0.904   4.266   5.745 -0.0355 -0.4575 -0.7406
 7152SOL     OW32914   4.542   3.261   6.007 -0.1542 -0.2853  0.2567
 7152SOL    HW132915   4.634   3.284   5.992 -0.4623 -0.6500 -2.2282
 7152SOL    HW232916   4.517   3.247   5.915 -2.7853 -0.6424  1.0318
 7153SOL     OW32917   0.431   0.662   6.900  0.7300 -0.4678 -0.5193
 7153SOL    HW132918   0.358   0.599   6.898 -0.7593  1.1817  2.3912
 7153SOL    HW232919   0.500   0.611   6.943  0.6757  1.7490  2.1575
 7154SOL     OW32920   2.455   3.382  13.946 -1.1954  0.4999 -0.0533
 7154SOL    HW132921   2.437   3.439  14.020  2.0531 -0.1180  1.2166
 7154SOL    HW232922   2.495   3.307  13.990  0.0287 -0.3541 -2.5824
 7155SOL     OW32923   3.571   0.331   4.492  0.1629  0.2204  0.4278
 7155SOL    HW132924   3.664   0.334   4.468  0.2256 -2.9564  0.3616
 7155SOL    HW232925   3.575   0.243   4.528  1.9938  0.0176 -0.2807
 7156SOL     OW32926   0.782   4.345   6.459 -0.0555  0.2701 -0.1370
 7156SOL    HW132927   0.728   4.269   6.438 -1.1076  0.1160  3.2242
 7156SOL    HW232928   0.758   4.354   6.551  0.7561  0.2716  0.0724
 7157SOL     OW32929   4.285   4.604   3.402 -0.2611  0.4081  0.2947
 7157SOL    HW132930   4.372   4.633   3.373  0.2042 -2.2051 -0.9254
 7157SOL    HW232931   4.239   4.619   3.319 -0.3563  0.4381  0.3531
 7158SOL     OW32932   4.277   3.039   6.476  0.3602  0.5026  0.4840
 7158SOL    HW132933   4.232   2.958   6.497 -0.4817  1.1577  1.1574
 7158SOL    HW232934   4.233   3.068   6.396  1.0462 -0.3250 -0.1911
 7159SOL     OW32935   1.163   2.893   1.380  0.0539  0.0431  0.1129
 7159SOL    HW132936   1.211   2.904   1.462 -0.3404 -0.5264  0.4301
 7159SOL    HW232937   1.071   2.882   1.407 -0.1804  0.4404 -0.5297
 7160SOL     OW32938   2.642   4.449   4.689  0.7447  0.3821 -0.2312
 7160SOL    HW132939   2.738   4.454   4.686  0.8402 -2.0428 -1.2813
 7160SOL    HW232940   2.614   4.540   4.689  1.0347  0.4666 -2.2382
 7161SOL     OW32941   1.470   2.512  11.523  0.3355  0.2854 -0.0709
 7161SOL    HW132942   1.419   2.586  11.489  2.2837  2.3650  1.6027
 7161SOL    HW232943   1.402   2.457  11.563  0.2856  0.1898 -0.2879
 7162SOL     OW32944   3.816   0.240  17.370 -0.1213 -0.1296  0.0037
 7162SOL    HW132945   3.806   0.249  17.275  3.2091  1.4945 -0.1955
 7162SOL    HW232946   3.868   0.320  17.379 -2.0687  0.9704  1.2784
 7163SOL     OW32947   3.326   4.547  17.534 -0.4492 -0.2942  0.1684
 7163SOL    HW132948   3.399   4.567  17.476 -1.5407 -1.0703 -1.4989
 7163SOL    HW232949   3.364   4.469  17.574 -1.2578 -2.5435 -3.4274
 7164SOL     OW32950   0.990   1.040   6.998 -0.1394 -0.2259 -0.2557
 7164SOL    HW132951   1.053   0.992   7.052  0.3153 -0.7934 -1.3022
 7164SOL    HW232952   0.986   0.989   6.918  0.4838 -1.6871  0.6476
 7165SOL     OW32953   4.365   3.306   1.446  1.0088  0.0331  0.4475
 7165SOL    HW132954   4.358   3.344   1.533 -0.7467 -0.1304  0.3750
 7165SOL    HW232955   4.408   3.225   1.474 -1.7979 -1.3485  0.6951
 7166SOL     OW32956   0.157   3.858  10.387 -0.5374  0.2279 -0.5509
 7166SOL    HW132957   0.199   3.829  10.306  0.8032 -0.2020  0.2929
 7166SOL    HW232958   0.067   3.860  10.356 -1.0371  0.3992  0.9441
 7167SOL     OW32959   0.533   0.636   8.425  0.2702  0.1016 -1.1041
 7167SOL    HW132960   0.475   0.560   8.419  0.3620  0.0540 -1.3817
 7167SOL    HW232961   0.549   0.652   8.518  0.2221 -0.9319 -0.9182
 7168SOL     OW32962   0.708   1.787   5.287  0.5097  0.3293 -0.1327
 7168SOL    HW132963   0.696   1.880   5.308  1.4712  0.5778 -0.6531
 7168SOL    HW232964   0.670   1.774   5.200 -0.6681 -1.3056  0.6307
 7169SOL     OW32965   4.567   2.861   5.126  0.0098  0.0520 -0.0955
 7169SOL    HW132966   4.662   2.858   5.112  0.0311 -1.1419  0.2935
 7169SOL    HW232967   4.541   2.816   5.046  0.7592 -0.3470 -0.1069
 7170SOL     OW32968   2.795   3.502   8.578  0.1997 -0.5939  0.6001
 7170SOL    HW132969   2.832   3.566   8.516 -0.3682  2.5031  3.4213
 7170SOL    HW232970   2.743   3.450   8.517 -1.8227  0.9238  1.0260
 7171SOL     OW32971   0.976   2.772   0.474 -0.2734 -0.6979  0.2494
 7171SOL    HW132972   0.913   2.790   0.544 -0.3898  2.2189 -0.5740
 7171SOL    HW232973   1.052   2.818   0.508 -1.4179 -0.3498  2.3507
 7172SOL     OW32974   4.436   2.873   8.922 -0.0473  0.2181 -0.6009
 7172SOL    HW132975   4.347   2.843   8.902 -0.8123  1.1172  1.4078
 7172SOL    HW232976   4.478   2.830   8.848  0.7102  0.4437 -0.3002
 7173SOL     OW32977   1.808   3.413  14.605 -0.2666  0.1947 -0.2203
 7173SOL    HW132978   1.899   3.433  14.587  0.0958 -0.4876  0.8242
 7173SOL    HW232979   1.776   3.367  14.528  0.2236 -1.3927  0.5207
 7174SOL     OW32980   4.514   1.288   1.538 -0.2692  0.8351 -0.5251
 7174SOL    HW132981   4.520   1.254   1.449  0.4254 -1.3922  0.3675
 7174SOL    HW232982   4.537   1.208   1.586 -0.7940  1.0928  0.1463
 7175SOL     OW32983   2.201   3.024  10.014 -0.2300 -0.0454  0.0508
 7175SOL    HW132984   2.122   3.078  10.009  0.0774  0.6666  2.9384
 7175SOL    HW232985   2.165   2.949  10.062  0.8947 -1.2934 -1.0728
 7176SOL     OW32986   3.672   0.916  14.940  0.4740 -0.2828 -0.2707
 7176SOL    HW132987   3.681   0.909  14.845 -0.0857 -3.3125 -0.1165
 7176SOL    HW232988   3.641   1.005  14.955  0.4836 -0.5324  1.2773
 7177SOL     OW32989   0.044   3.374   7.452 -0.0242 -0.4378  0.5160
 7177SOL    HW132990   4.696   3.312   7.472 -1.9889  1.0794 -1.7376
 7177SOL    HW232991   0.122   3.319   7.465 -0.5817 -1.0899  1.1132
 7178SOL     OW32992   0.333   0.252  11.461 -0.1374  0.1382  0.1112
 7178SOL    HW132993   0.377   0.187  11.408 -0.9266  0.0968 -0.4951
 7178SOL    HW232994   0.246   0.213  11.452  0.1465 -0.0495 -1.6813
 7179SOL     OW32995   3.222   0.646   2.301  0.7858 -0.6233  0.1503
 7179SOL    HW132996   3.156   0.692   2.250  0.6234 -1.9686 -0.8444
 7179SOL    HW232997   3.165   0.582   2.344 -0.8921 -1.0028 -2.6630
 7180SOL     OW32998   2.919   0.376  17.225 -0.1404 -0.1702 -0.6389
 7180SOL    HW132999   3.013   0.375  17.238 -0.3275  1.5343  0.8235
 7180SOL    HW233000   2.894   0.285  17.209  0.0194  0.0400 -2.0165
 7181SOL     OW33001   4.541   0.096   4.103 -0.2574 -0.2662 -0.5932
 7181SOL    HW133002   4.491   0.072   4.025 -2.5747 -1.5265  1.2459
 7181SOL    HW233003   4.549   0.010   4.144 -1.4726 -0.6495 -1.1647
 7182SOL     OW33004   0.769   2.044   6.917 -0.1178 -0.0817  0.1246
 7182SOL    HW133005   0.788   1.969   6.974 -0.4793 -1.5006 -1.6086
 7182SOL    HW233006   0.675   2.029   6.909 -0.0838 -0.1437 -0.1569
 7183SOL     OW33007   2.489   3.979   3.221 -0.0608 -0.2121  0.4411
 7183SOL    HW133008   2.567   4.016   3.179  0.7148 -2.1694  0.1181
 7183SOL    HW233009   2.484   3.889   3.189  2.0510  0.0766 -0.6939
 7184SOL     OW33010   1.569   0.132   3.190 -0.3148 -0.3912 -0.1620
 7184SOL    HW133011   1.612   0.208   3.229 -0.4178 -0.4112 -0.0061
 7184SOL    HW233012   1.489   0.168   3.152 -0.6244 -0.1491  0.7180
 7185SOL     OW33013   0.552   2.802   3.987  0.9042 -0.0172  0.3644
 7185SOL    HW133014   0.633   2.785   3.940  1.2137 -0.7708  1.1589
 7185SOL    HW233015   0.498   2.733   3.947  0.7373  1.4363 -1.8770
 7186SOL     OW33016   3.716   0.253  10.889  0.5028  0.2726  0.2329
 7186SOL    HW133017   3.693   0.278  10.800  0.0351 -1.1984 -0.0676
 7186SOL    HW233018   3.669   0.323  10.934  2.3110  0.2121  2.1800
 7187SOL     OW33019   3.213   0.401   5.858 -0.2995  0.1912  0.2700
 7187SOL    HW133020   3.266   0.389   5.779 -3.3939 -0.9653 -1.6321
 7187SOL    HW233021   3.146   0.462   5.826  0.5511  0.8624 -0.2468
 7188SOL     OW33022   4.588   3.947   3.947 -0.6427 -0.2261 -0.1686
 7188SOL    HW133023   4.537   3.975   3.871 -1.3789  1.6940  1.0378
 7188SOL    HW233024   4.546   3.866   3.977 -1.6685  0.9001  1.4921
 7189SOL     OW33025   4.716   4.400   8.262 -0.3033  0.3488 -0.0052
 7189SOL    HW133026   0.053   4.335   8.299  0.6919  0.1991 -1.9099
 7189SOL    HW233027   4.644   4.388   8.324 -0.2960  3.1364  0.5748
 7190SOL     OW33028   2.790   0.124   8.421 -0.0264  0.5013 -0.1830
 7190SOL    HW133029   2.736   0.047   8.436  0.9374 -0.2210 -0.3987
 7190SOL    HW233030   2.841   0.142   8.500  0.1536 -1.4307  0.1541
 7191SOL     OW33031   2.318   2.447  14.497  0.1232  0.4577  0.2326
 7191SOL    HW133032   2.289   2.361  14.526  0.6304 -0.2318 -1.2981
 7191SOL    HW233033   2.299   2.490  14.581 -1.6072  1.7568 -0.8168
 7192SOL     OW33034   2.205   4.240  12.548 -0.2601  0.0588 -0.3005
 7192SOL    HW133035   2.115   4.257  12.576 -0.9183 -2.9263 -0.5991
 7192SOL    HW233036   2.214   4.147  12.567  0.4967 -0.6421 -3.9719
 7193SOL     OW33037   2.798   4.096   2.284  0.1256 -0.1426  0.1210
 7193SOL    HW133038   2.825   4.006   2.301 -0.8402 -0.4274  0.1912
 7193SOL    HW233039   2.704   4.088   2.304  0.0257  1.3354  0.2713
 7194SOL     OW33040   4.413   3.047   3.710 -0.0058  0.0284 -0.9145
 7194SOL    HW133041   4.320   3.067   3.709  0.1547  0.8687  2.5486
 7194SOL    HW233042   4.441   3.046   3.802 -1.6937 -1.5125 -0.4238
 7195SOL     OW33043   2.493   0.952   1.966 -0.3784 -0.8319 -0.3073
 7195SOL    HW133044   2.559   0.956   2.035 -0.4246 -0.7133 -0.2707
 7195SOL    HW233045   2.525   0.869   1.930 -1.2949 -1.5818  0.5890
 7196SOL     OW33046   3.557   4.108  16.448 -0.5979 -0.8385 -0.2322
 7196SOL    HW133047   3.631   4.151  16.405 -1.7546 -0.4397 -1.8036
 7196SOL    HW233048   3.496   4.129  16.378 -0.5039 -0.0780 -0.0812
 7197SOL     OW33049   3.549   1.535  13.719  0.4441  0.1938 -0.0154
 7197SOL    HW133050   3.566   1.525  13.813 -1.1261 -0.7014  0.1856
 7197SOL    HW233051   3.476   1.473  13.719 -0.7837  1.6721 -2.9377
 7198SOL     OW33052   0.617   3.906   3.007 -0.1779 -0.1701 -0.1602
 7198SOL    HW133053   0.686   3.842   3.022  1.6460  1.5672 -1.1415
 7198SOL    HW233054   0.546   3.844   2.990  0.1557 -1.1005  1.8606
 7199SOL     OW33055   0.111   2.416   2.709 -0.1569  0.4134  0.1763
 7199SOL    HW133056   0.175   2.465   2.656  1.6262 -0.8130  1.1804
 7199SOL    HW233057   0.110   2.480   2.781  0.3616  1.1430 -0.4565
 7200SOL     OW33058   2.434   3.255  16.445  0.4447 -0.0110  0.1307
 7200SOL    HW133059   2.509   3.301  16.406  0.5314 -0.7445 -0.5777
 7200SOL    HW233060   2.429   3.297  16.531  0.4549 -2.5229  1.3525
 7201SOL     OW33061   0.803   2.852  13.608 -0.3572  0.5222 -0.3649
 7201SOL    HW133062   0.830   2.854  13.700 -1.2384  0.1796 -0.1033
 7201SOL    HW233063   0.710   2.837  13.624  0.5468 -1.8425  2.4591
 7202SOL     OW33064   3.762   1.866   0.726 -0.2979  0.2295  0.1828
 7202SOL    HW133065   3.747   1.814   0.647 -0.8562 -1.0223  1.1048
 7202SOL    HW233066   3.761   1.948   0.677  0.5390 -0.4921 -1.0123
 7203SOL     OW33067   1.121   2.792  15.185  0.2275 -0.0316  0.5789
 7203SOL    HW133068   1.085   2.851  15.119 -0.5955  0.0830  1.1258
 7203SOL    HW233069   1.192   2.846  15.220 -0.0433  0.7995 -0.1539
 7204SOL     OW33070   1.542   3.023   7.607  0.1702  0.3149 -0.0699
 7204SOL    HW133071   1.561   3.104   7.559 -0.3371  0.7822  0.5195
 7204SOL    HW233072   1.498   2.970   7.541 -0.4123 -2.5158  2.5885
 7205SOL     OW33073   4.064   0.670   9.696  0.1878  0.0874  0.6628
 7205SOL    HW133074   4.008   0.738   9.733 -1.0023 -0.6064  0.1442
 7205SOL    HW233075   4.000   0.599   9.688 -0.4166  0.7375 -0.2877
 7206SOL     OW33076   0.039   4.503   5.438 -0.0876  0.6084  0.6695
 7206SOL    HW133077   4.695   4.570   5.425 -1.5183 -1.1501 -0.9731
 7206SOL    HW233078   0.083   4.515   5.354 -2.7218 -1.9695 -1.0679
 7207SOL     OW33079   4.101   2.994  15.985  0.0142 -0.3379  0.0020
 7207SOL    HW133080   4.062   3.081  15.996 -0.8864 -0.9699  1.6524
 7207SOL    HW233081   4.028   2.937  16.008 -0.9994  0.6980 -0.6283
 7208SOL     OW33082   1.734   0.753  16.916 -0.0813  0.1655  0.4340
 7208SOL    HW133083   1.682   0.683  16.877  0.2617  1.2501 -1.9612
 7208SOL    HW233084   1.675   0.828  16.918  1.8446  1.6837  0.4160
 7209SOL     OW33085   2.152   4.349   5.013  0.1913 -0.6793 -0.2382
 7209SOL    HW133086   2.135   4.270   4.961  0.4218 -1.5492  1.0239
 7209SOL    HW233087   2.156   4.402   4.932 -1.4577 -0.1843  0.0086
 7210SOL     OW33088   3.699   4.500  17.642  0.5102  0.2708  0.0312
 7210SOL    HW133089   3.734   4.576  17.595 -0.5108  1.9215  1.9156
 7210SOL    HW233090   3.689   4.555   0.028  2.9172 -0.8875  1.1326
 7211SOL     OW33091   3.907   3.712   4.415  0.3186  0.1580 -0.3014
 7211SOL    HW133092   3.979   3.671   4.463  1.6053  0.4922 -1.9584
 7211SOL    HW233093   3.953   3.795   4.402  0.2166  0.5226  1.6233
 7212SOL     OW33094   0.860   2.128   4.863 -0.3066 -0.3094 -0.0451
 7212SOL    HW133095   0.933   2.109   4.805  1.5325  2.2751  1.4261
 7212SOL    HW233096   0.829   2.037   4.871 -0.0258 -0.4971 -1.1027
 7213SOL     OW33097   1.320   2.216   5.020 -0.4322 -0.9380  0.3525
 7213SOL    HW133098   1.349   2.144   5.076  1.5623  0.8176  1.5651
 7213SOL    HW233099   1.396   2.210   4.962  0.9042  2.5888  1.7222
 7214SOL     OW33100   3.774   0.203   6.061 -0.1309  0.4537 -0.0354
 7214SOL    HW133101   3.712   0.143   6.019 -0.0818  0.4006 -0.0322
 7214SOL    HW233102   3.788   0.268   5.992  0.0103 -0.4807 -0.8955
 7215SOL     OW33103   1.173   0.056   1.005  0.1192 -0.5771 -0.6693
 7215SOL    HW133104   1.119   0.118   0.957 -1.2967  0.7310  2.5935
 7215SOL    HW233105   1.243   0.108   1.043  1.2325 -2.3428 -0.3098
 7216SOL     OW33106   1.228   0.788  11.383  0.0519 -0.9174 -0.4143
 7216SOL    HW133107   1.219   0.757  11.292  0.7841  0.9213 -1.1114
 7216SOL    HW233108   1.167   0.862  11.382 -0.1783 -1.1222 -2.8278
 7217SOL     OW33109   0.261   0.259   4.414  0.4353 -0.1432  0.3872
 7217SOL    HW133110   0.213   0.176   4.418  0.6804 -0.3541 -0.9328
 7217SOL    HW233111   0.203   0.309   4.357 -0.2226 -0.5471  0.7049
 7218SOL     OW33112   4.038   3.326   5.928 -0.0588  0.2177 -0.2045
 7218SOL    HW133113   4.133   3.320   5.937 -0.1562  0.2173  0.8600
 7218SOL    HW233114   4.022   3.408   5.882  1.1633  0.3826 -0.3199
 7219SOL     OW33115   0.349   2.328   3.124 -0.5490 -0.0298 -0.6053
 7219SOL    HW133116   0.261   2.363   3.135  0.0197  1.1569  0.1149
 7219SOL    HW233117   0.335   2.235   3.107  2.0669 -0.9379  2.0850
 7220SOL     OW33118   1.144   4.690   4.190  0.1583  0.1033 -0.0927
 7220SOL    HW133119   1.168   0.023   4.116  2.4030  0.7595  1.1623
 7220SOL    HW233120   1.106   0.035   4.246 -2.5756 -1.1922 -0.3846
 7221SOL     OW33121   3.614   2.093  17.127  0.1682  0.4162  0.1252
 7221SOL    HW133122   3.660   2.102  17.044  0.0154 -1.2607 -0.1458
 7221SOL    HW233123   3.659   2.027  17.181 -1.9663 -1.8486 -0.8474
 7222SOL     OW33124   1.939   4.229   2.720  0.6022  0.1477  0.1900
 7222SOL    HW133125   1.911   4.160   2.660 -1.8104  0.9271  0.4175
 7222SOL    HW233126   1.929   4.304   2.661  0.3430 -0.7322 -0.8825
 7223SOL     OW33127   3.156   2.625  10.071  0.1086 -0.1327 -0.3792
 7223SOL    HW133128   3.168   2.580   9.988  1.1566 -0.2998 -0.1479
 7223SOL    HW233129   3.079   2.588  10.115 -0.2438  1.4448  0.3110
 7224SOL     OW33130   2.315   4.512   5.947 -0.0312 -0.3134  0.2034
 7224SOL    HW133131   2.405   4.481   5.952 -0.2146 -1.0925 -1.2777
 7224SOL    HW233132   2.332   4.602   5.973  0.2515 -0.4375  0.4455
 7225SOL     OW33133   4.355   3.745   1.398 -0.3974 -0.0162 -0.3807
 7225SOL    HW133134   4.415   3.767   1.327  0.3450  0.4303  0.3701
 7225SOL    HW233135   4.420   3.705   1.455  0.6534  3.4858  0.9127
 7226SOL     OW33136   2.210   4.175   4.412  0.1576  0.0127  0.3173
 7226SOL    HW133137   2.203   4.080   4.427  2.5060 -0.1846  0.0604
 7226SOL    HW233138   2.293   4.194   4.455  1.2602 -0.7044 -1.5364
 7227SOL     OW33139   0.040   2.596   4.420  0.3460 -0.4246 -0.1776
 7227SOL    HW133140   0.026   2.592   4.325 -0.6112 -2.2532  0.0557
 7227SOL    HW233141   0.133   2.576   4.420  0.1612 -1.1854  1.8233
 7228SOL     OW33142   0.005   2.525   2.174  0.3102  0.2310  0.4168
 7228SOL    HW133143   4.722   2.454   2.238 -1.3483  1.8547  2.0834
 7228SOL    HW233144   0.097   2.546   2.188  0.5407 -1.6411  1.6707
 7229SOL     OW33145   3.652   0.359  10.646  0.0099 -0.0160  0.1301
 7229SOL    HW133146   3.635   0.301  10.573  0.3007  0.5664 -0.4013
 7229SOL    HW233147   3.659   0.443  10.601  1.7162  0.0890  0.5948
 7230SOL     OW33148   2.827   2.374  12.682 -0.0461  0.4061  0.4496
 7230SOL    HW133149   2.894   2.382  12.750  0.7764 -2.5490  0.0019
 7230SOL    HW233150   2.826   2.278  12.675 -1.7946  0.4089  0.6384
 7231SOL     OW33151   1.315   2.414   6.515  0.4655 -0.1359 -0.1730
 7231SOL    HW133152   1.243   2.383   6.461  0.1324  4.4209 -2.3684
 7231SOL    HW233153   1.385   2.349   6.513 -0.5420 -1.2736  1.3083
 7232SOL     OW33154   0.886   3.732   3.228 -0.0383 -0.2969  0.4147
 7232SOL    HW133155   0.958   3.741   3.166  0.0234  2.5904  0.9094
 7232SOL    HW233156   0.814   3.718   3.166  0.3017 -2.4857  0.5111
 7233SOL     OW33157   1.680   3.112   1.998  0.2590 -0.3274  0.1809
 7233SOL    HW133158   1.619   3.181   2.024  1.9817  2.0395 -2.1618
 7233SOL    HW233159   1.715   3.089   2.084  0.8128 -0.2909 -0.0315
 7234SOL     OW33160   2.102   3.078   5.007 -0.4971  0.6436 -0.2136
 7234SOL    HW133161   2.069   3.026   4.934  0.2434 -1.8723  1.2204
 7234SOL    HW233162   2.193   3.049   5.003 -1.5634 -2.5797 -1.3398
 7235SOL     OW33163   1.350   3.224   9.009 -0.5127  0.3679 -0.1333
 7235SOL    HW133164   1.397   3.140   9.006  1.4313  1.3341  2.7187
 7235SOL    HW233165   1.272   3.195   8.962 -0.5614  1.0795 -0.4751
 7236SOL     OW33166   3.891   0.686   4.856 -0.3257  0.5602 -0.3780
 7236SOL    HW133167   3.866   0.676   4.764  0.3049  2.8302 -0.8034
 7236SOL    HW233168   3.807   0.690   4.901 -0.0155 -1.2237  0.3261
 7237SOL     OW33169   4.059   2.975   3.971  0.0112  0.1412 -0.0082
 7237SOL    HW133170   3.996   3.042   3.998  1.5971  0.4490  3.0359
 7237SOL    HW233171   4.040   2.910   4.039  3.9700 -0.8371  0.1860
 7238SOL     OW33172   2.222   3.845   4.978 -0.4668  0.5610 -0.0838
 7238SOL    HW133173   2.237   3.764   4.930  1.1255  0.5237  0.4741
 7238SOL    HW233174   2.150   3.822   5.037  1.3502  0.1294  1.9719
 7239SOL     OW33175   1.881   0.008   6.086  0.3978 -0.4137 -0.3287
 7239SOL    HW133176   1.870   0.049   6.000 -1.4107  0.7331  0.4336
 7239SOL    HW233177   1.900   0.090   6.131 -0.8162  0.8909 -2.1909
 7240SOL     OW33178   1.857   0.016   9.968  0.2413  0.4906  0.4384
 7240SOL    HW133179   1.833   0.080   9.900 -0.4765  2.0353  2.1623
 7240SOL    HW233180   1.779   0.015  10.023 -0.1415 -2.9304 -0.1968
 7241SOL     OW33181   3.839   0.626   4.204  0.1378 -0.1055 -0.4941
 7241SOL    HW133182   3.894   0.622   4.125 -0.1503  1.6268 -0.7835
 7241SOL    HW233183   3.881   0.691   4.259 -0.8053 -1.9428  2.3836
 7242SOL     OW33184   3.072   0.510   3.142  0.2062 -0.0659  0.7329
 7242SOL    HW133185   2.977   0.520   3.146  0.3214  1.3576 -0.2244
 7242SOL    HW233186   3.079   0.440   3.077 -1.0658 -0.7500  1.3397
 7243SOL     OW33187   1.762   4.443   5.312  0.2501  0.0960 -0.2128
 7243SOL    HW133188   1.788   4.423   5.222 -0.4369 -3.2450  0.3178
 7243SOL    HW233189   1.826   4.408   5.374  0.9479  1.2455 -0.2945
 7244SOL     OW33190   2.035   3.692   4.395  0.1156  0.6712 -0.1344
 7244SOL    HW133191   1.981   3.673   4.472  0.6734  0.3957  0.1891
 7244SOL    HW233192   1.979   3.674   4.320  2.0521 -0.1955 -1.3581
 7245SOL     OW33193   0.896   3.524   7.376  0.5926 -1.0607 -0.0413
 7245SOL    HW133194   0.833   3.466   7.333  0.7130 -1.4826  0.3484
 7245SOL    HW233195   0.908   3.602   7.322  0.5567 -0.2752  1.0773
 7246SOL     OW33196   2.253   0.473   4.955 -0.1759 -0.1664 -0.0403
 7246SOL    HW133197   2.163   0.452   4.931 -0.8457  0.6851  1.6899
 7246SOL    HW233198   2.249   0.568   4.940  0.8573 -0.0477  0.4415
 7247SOL     OW33199   1.961   0.613   0.922 -0.0305 -0.1381  0.0309
 7247SOL    HW133200   1.936   0.610   1.014 -2.2437  1.7061 -0.5071
 7247SOL    HW233201   2.040   0.559   0.918  1.7814  2.3606  2.2286
 7248SOL     OW33202   2.369   0.442  11.395 -0.0659 -0.0913 -0.0247
 7248SOL    HW133203   2.439   0.429  11.331  1.2335 -4.3191  2.2197
 7248SOL    HW233204   2.293   0.429  11.339  0.4159 -0.2811 -0.6395
 7249SOL     OW33205   3.339   2.311  11.796  0.6771  0.2477  0.4967
 7249SOL    HW133206   3.278   2.270  11.858  1.1241  1.2018  1.5790
 7249SOL    HW233207   3.409   2.327  11.859  1.5298  3.1217 -1.1976
 7250SOL     OW33208   0.655   4.345   8.795 -0.2706  0.0345 -0.7064
 7250SOL    HW133209   0.612   4.274   8.843 -0.9898  0.6715 -0.4085
 7250SOL    HW233210   0.657   4.295   8.713  2.6782 -1.5105  0.2979
 7251SOL     OW33211   4.564   2.994   7.936 -0.4616  0.6545  0.2762
 7251SOL    HW133212   4.647   2.980   7.982 -0.2849  0.8127  0.0055
 7251SOL    HW233213   4.591   2.975   7.846  0.4535 -0.5945  0.8180
 7252SOL     OW33214   1.229   0.329   4.063  0.2108 -0.2286 -0.1002
 7252SOL    HW133215   1.285   0.357   3.990 -2.1663  1.2500 -1.3429
 7252SOL    HW233216   1.184   0.247   4.043  2.1627 -1.1473 -0.7379
 7253SOL     OW33217   4.105   2.245  12.970 -0.0196 -0.0266 -0.2398
 7253SOL    HW133218   4.104   2.150  12.971  4.0823 -0.0786 -0.6728
 7253SOL    HW233219   4.196   2.263  12.991  0.1318 -0.7708 -0.2655
 7254SOL     OW33220   0.110   0.819   7.223  0.1514  0.1591  0.0969
 7254SOL    HW133221   0.047   0.863   7.166  1.5252  1.5525 -0.3368
 7254SOL    HW233222   0.069   0.733   7.235  0.0580  0.3856  1.4254
 7255SOL     OW33223   1.002   0.883  14.976 -0.2233 -0.2563  0.4942
 7255SOL    HW133224   0.986   0.891  14.882 -1.6254 -3.2763  0.4767
 7255SOL    HW233225   1.096   0.890  14.988 -0.0223 -2.1450  0.1229
 7256SOL     OW33226   0.267   0.125   7.737 -0.3467 -0.3256 -0.0198
 7256SOL    HW133227   0.326   0.074   7.793  0.7579 -1.1356 -1.8670
 7256SOL    HW233228   0.242   0.194   7.798 -0.5140 -0.5411  0.1544
 7257SOL     OW33229   1.987   0.054   1.204 -0.8779 -0.2951  0.1114
 7257SOL    HW133230   1.960   4.685   1.199  2.3801 -1.1704 -1.7296
 7257SOL    HW233231   1.989   0.076   1.111 -0.3804 -0.4491  0.0859
 7258SOL     OW33232   1.221   3.424  11.312  0.3619 -0.1093  0.2696
 7258SOL    HW133233   1.281   3.470  11.370  0.7343  0.5705 -0.6561
 7258SOL    HW233234   1.138   3.433  11.359  0.8855  0.0184  1.1533
 7259SOL     OW33235   1.089   0.759   2.846  0.2703  0.0297 -0.2647
 7259SOL    HW133236   1.095   0.729   2.756 -0.8500 -0.8431 -0.0522
 7259SOL    HW233237   1.100   0.854   2.837  0.8818  0.1307  1.5489
 7260SOL     OW33238   4.552   2.537  10.183 -0.1791 -0.9602 -0.3102
 7260SOL    HW133239   4.534   2.583  10.101  1.3749 -1.6042 -1.0244
 7260SOL    HW233240   4.544   2.602  10.252 -1.4216 -1.5103  0.0676
 7261SOL     OW33241   0.710   4.557   7.751 -0.0204 -0.5568 -0.2730
 7261SOL    HW133242   0.684   4.649   7.750  1.0285 -0.2124  2.6668
 7261SOL    HW233243   0.806   4.556   7.744 -0.1354  0.5204 -1.9796
 7262SOL     OW33244   3.731   2.462   3.795  0.1752 -0.5440 -0.2078
 7262SOL    HW133245   3.689   2.384   3.759  1.3057 -1.3217  0.1412
 7262SOL    HW233246   3.710   2.529   3.729 -2.1627 -1.5454 -0.4455
 7263SOL     OW33247   2.406   1.123   2.248  0.2661  0.1830 -0.5513
 7263SOL    HW133248   2.485   1.165   2.281  0.2720  1.9600 -2.8443
 7263SOL    HW233249   2.349   1.200   2.250  2.3412  1.7634 -3.1059
 7264SOL     OW33250   0.923   3.299   1.449 -0.4144 -0.0134  0.1748
 7264SOL    HW133251   0.969   3.270   1.370  0.3824 -0.4313  0.7991
 7264SOL    HW233252   0.931   3.393   1.433  0.9374 -0.3661 -1.2285
 7265SOL     OW33253   1.014   4.294   4.717  0.5645 -0.5700  0.2338
 7265SOL    HW133254   0.990   4.209   4.681 -0.7542  0.0008 -0.2325
 7265SOL    HW233255   0.977   4.282   4.805  0.1015  0.7743  0.2280
 7266SOL     OW33256   3.663   2.024   6.362 -0.0461  0.1380  0.5769
 7266SOL    HW133257   3.662   2.116   6.386  0.5686  0.4500 -0.6305
 7266SOL    HW233258   3.714   1.986   6.434 -1.4383 -2.4242  0.2096
 7267SOL     OW33259   1.172   4.233   2.708 -0.0808 -0.2400 -0.0013
 7267SOL    HW133260   1.202   4.324   2.697  0.7782 -0.4044  0.9863
 7267SOL    HW233261   1.249   4.178   2.722  0.2831 -0.2985 -2.3349
 7268SOL     OW33262   1.412   3.015  10.638  0.5268  0.9046 -0.2746
 7268SOL    HW133263   1.378   3.104  10.624  1.2049  1.3168  0.6556
 7268SOL    HW233264   1.477   3.015  10.568  1.3034  0.7526  0.4398
 7269SOL     OW33265   2.661   0.480   8.429 -0.7414  0.1696  0.5732
 7269SOL    HW133266   2.604   0.556   8.437 -1.8170 -0.3840 -1.8814
 7269SOL    HW233267   2.746   0.512   8.458 -1.0769  2.7469 -1.3189
 7270SOL     OW33268   4.166   1.011  16.243  0.7052 -0.2346  0.1956
 7270SOL    HW133269   4.196   0.922  16.263 -1.5259 -0.3970  2.8281
 7270SOL    HW233270   4.096   1.031  16.306  0.9924  3.2493 -0.5818
 7271SOL     OW33271   1.195   3.273   2.999  0.6428  0.4084 -0.4976
 7271SOL    HW133272   1.152   3.266   3.084  0.4628  0.0132 -0.6206
 7271SOL    HW233273   1.283   3.298   3.029  0.1796  0.0289  1.1810
 7272SOL     OW33274   1.752   1.606   4.645  0.1190 -0.0461  0.1050
 7272SOL    HW133275   1.685   1.538   4.651 -2.0690  1.9195 -2.1430
 7272SOL    HW233276   1.694   1.682   4.652 -0.4992 -0.3691 -1.6464
 7273SOL     OW33277   2.318   4.683   3.681  0.3710 -0.0593 -0.3242
 7273SOL    HW133278   2.313   0.030   3.615 -0.2448  1.7532  1.6450
 7273SOL    HW233279   2.386   4.627   3.643  0.1238  0.2465 -1.2244
 7274SOL     OW33280   4.539   3.341   9.800 -0.7034  0.1309  0.1155
 7274SOL    HW133281   4.544   3.294   9.716  0.8941 -1.8312  1.3002
 7274SOL    HW233282   4.624   3.316   9.835 -0.3216 -1.6405 -2.0557
 7275SOL     OW33283   2.727   2.834   3.669  0.1047  0.0488  0.8542
 7275SOL    HW133284   2.744   2.825   3.575  1.4417 -0.3454  1.1321
 7275SOL    HW233285   2.633   2.853   3.667 -0.1677 -1.4058 -0.0459
 7276SOL     OW33286   4.068   4.112  11.518  0.1478  0.0539 -0.0483
 7276SOL    HW133287   4.124   4.130  11.594  1.4482  0.7518 -1.1836
 7276SOL    HW233288   4.010   4.052  11.565  0.0909 -1.2247 -1.7717
 7277SOL     OW33289   1.464   3.025   0.364  0.1047 -0.2564  0.1707
 7277SOL    HW133290   1.499   2.943   0.330 -1.4798 -0.1016 -1.8426
 7277SOL    HW233291   1.544   3.054   0.408 -0.4903  1.7808 -0.0645
 7278SOL     OW33292   0.634   1.131   6.906  0.0935 -0.5692  0.1445
 7278SOL    HW133293   0.546   1.096   6.891 -1.0148  1.8240  1.0855
 7278SOL    HW233294   0.617   1.198   6.972  1.4801  1.4704 -1.6094
 7279SOL     OW33295   0.635   4.166   2.873  0.1263 -0.1210 -0.6420
 7279SOL    HW133296   0.629   4.072   2.891  2.2260  0.0186  0.7363
 7279SOL    HW233297   0.723   4.190   2.903  0.6288  1.0231 -3.0228
 7280SOL     OW33298   1.921   3.325   3.351 -0.2621  0.2896 -0.3773
 7280SOL    HW133299   1.947   3.318   3.443 -0.7110  1.8447 -0.1255
 7280SOL    HW233300   1.844   3.382   3.359  0.5864  1.3408  0.3418
 7281SOL     OW33301   0.367   1.838   7.254  0.3249 -0.2356  0.1667
 7281SOL    HW133302   0.398   1.805   7.339  4.1336  2.4319 -0.2153
 7281SOL    HW233303   0.442   1.893   7.231  1.2611 -1.2904  0.7237
 7282SOL     OW33304   4.056   3.223   7.190 -0.3812 -0.0085 -0.1917
 7282SOL    HW133305   4.089   3.304   7.150 -0.9370 -0.1443 -0.9242
 7282SOL    HW233306   4.096   3.234   7.276 -0.5572  0.6418 -0.1905
 7283SOL     OW33307   0.855   2.222   9.080  0.1075  0.2337 -0.6453
 7283SOL    HW133308   0.836   2.132   9.106  1.1556 -0.0561 -0.8814
 7283SOL    HW233309   0.789   2.244   9.014 -1.0716 -4.3140 -0.9794
 7284SOL     OW33310   3.612   3.561  10.751 -0.3941 -0.0423 -0.1830
 7284SOL    HW133311   3.665   3.632  10.716  1.1169 -0.7802  0.5943
 7284SOL    HW233312   3.681   3.511  10.795  0.6009  0.5516 -1.0571
 7285SOL     OW33313   3.413   4.504   5.422 -0.0109  0.5389  0.6037
 7285SOL    HW133314   3.382   4.581   5.470 -2.0985  0.4450 -0.5604
 7285SOL    HW233315   3.458   4.550   5.352  1.3976 -3.2430 -0.9783
 7286SOL     OW33316   4.715   4.317   8.751  0.5049  0.3489 -0.5013
 7286SOL    HW133317   4.658   4.261   8.805 -0.1686  1.7168  0.2153
 7286SOL    HW233318   0.010   4.397   8.800  0.4184 -0.6423  1.1597
 7287SOL     OW33319   1.173   3.448   8.309 -0.3505 -0.2047 -0.4695
 7287SOL    HW133320   1.258   3.402   8.308  0.0487  0.5490 -0.8590
 7287SOL    HW233321   1.109   3.380   8.288 -1.3197  0.2144  1.1445
 7288SOL     OW33322   4.563   2.287   7.370  0.3019 -0.7851 -0.0459
 7288SOL    HW133323   4.564   2.194   7.350 -0.7623 -0.7140 -0.4612
 7288SOL    HW233324   4.471   2.311   7.358  0.2059 -1.5558 -0.8254
 7289SOL     OW33325   0.420   0.584  11.836 -0.0247  0.2607 -0.1471
 7289SOL    HW133326   0.458   0.522  11.774 -1.4259 -2.9042  2.1371
 7289SOL    HW233327   0.363   0.525  11.886 -0.1637  0.8818  0.4284
 7290SOL     OW33328   2.550   0.462   5.073 -0.3297 -0.2210 -0.1820
 7290SOL    HW133329   2.482   0.398   5.095 -0.3387 -0.1786 -0.0867
 7290SOL    HW233330   2.498   0.512   5.010 -0.6983 -0.4226 -0.0378
 7291SOL     OW33331   0.346   4.602  11.551 -0.3145  0.6502  0.0931
 7291SOL    HW133332   0.309   4.626  11.466 -0.6146  1.4697  0.4658
 7291SOL    HW233333   0.374   4.513  11.528 -1.5085  0.7483 -1.7205
 7292SOL     OW33334   3.572   3.643   0.472  0.2102 -0.2472 -0.1297
 7292SOL    HW133335   3.528   3.569   0.515  0.0511 -0.3241 -0.4315
 7292SOL    HW233336   3.633   3.591   0.419  2.2199  1.1988  0.7412
 7293SOL     OW33337   4.503   0.010  14.127 -0.5233 -0.3941 -0.3781
 7293SOL    HW133338   4.539   0.070  14.063 -2.2104 -0.1970 -1.1194
 7293SOL    HW233339   4.521   4.653  14.078  0.6751 -1.8063  2.3283
 7294SOL     OW33340   3.397   2.711   4.282  0.1224  0.0317 -0.5438
 7294SOL    HW133341   3.482   2.749   4.305  0.5948 -1.3985  0.1393
 7294SOL    HW233342   3.341   2.760   4.342 -0.4010 -0.2970 -0.7665
 7295SOL     OW33343   1.191   1.712  13.812  0.1354 -0.0274  0.3501
 7295SOL    HW133344   1.107   1.715  13.857  0.7781 -1.4346  1.6419
 7295SOL    HW233345   1.169   1.647  13.745  0.0335  0.7356 -0.3493
 7296SOL     OW33346   1.466   0.791  15.243 -0.7115  0.1176  0.7265
 7296SOL    HW133347   1.453   0.771  15.336 -0.1565 -0.7605  0.6164
 7296SOL    HW233348   1.403   0.857  15.215  1.3260  1.8691  0.2895
 7297SOL     OW33349   2.929   0.033   8.193 -0.5768  0.5417 -0.6696
 7297SOL    HW133350   2.885   0.088   8.258  2.3711 -0.4254  2.1453
 7297SOL    HW233351   3.014   0.077   8.187 -0.3705  0.3106  0.7992
 7298SOL     OW33352   0.089   1.066   0.463 -0.7525  0.5159 -0.0794
 7298SOL    HW133353   0.085   1.096   0.372  2.6347  1.0290 -0.0730
 7298SOL    HW233354   0.167   1.010   0.459 -0.8395  0.2452  2.0484
 7299SOL     OW33355   2.062   3.832   8.825  0.3578 -0.2139  0.6378
 7299SOL    HW133356   1.970   3.856   8.822  1.1009  2.5579  0.3682
 7299SOL    HW233357   2.062   3.742   8.791  0.1776  0.5329 -1.3379
 7300SOL     OW33358   2.576   2.430  14.457  0.4451  0.0855  0.1110
 7300SOL    HW133359   2.599   2.467  14.372 -1.2887  0.8458 -0.0334
 7300SOL    HW233360   2.480   2.430  14.461  0.4532  0.4079  0.3091
 7301SOL     OW33361   0.486   3.465  14.624 -0.8324 -0.0454  0.2466
 7301SOL    HW133362   0.486   3.560  14.635  1.0598 -0.0733  0.5125
 7301SOL    HW233363   0.579   3.456  14.602 -0.9501  0.1411 -0.3164
 7302SOL     OW33364   0.112   0.046   2.202 -0.5712 -0.1412  1.0362
 7302SOL    HW133365   0.116   0.031   2.296  1.2488  3.1105  1.4669
 7302SOL    HW233366   0.166   0.124   2.191  1.3380 -1.4412  1.2152
 7303SOL     OW33367   1.731   3.480  14.217 -0.1527 -0.0551  0.1416
 7303SOL    HW133368   1.660   3.425  14.184 -0.7613  1.0228 -0.3594
 7303SOL    HW233369   1.683   3.562  14.233  2.2739  1.5245 -0.6409
 7304SOL     OW33370   2.070   0.105   3.690  0.3215 -1.2955  0.0628
 7304SOL    HW133371   2.150   0.054   3.698  0.5547 -1.3412 -2.4498
 7304SOL    HW233372   2.074   0.135   3.599 -0.9074 -1.4104 -0.0280
 7305SOL     OW33373   0.127   2.026   7.353 -0.3903 -0.4450 -0.2093
 7305SOL    HW133374   0.172   1.950   7.316  0.7894 -1.3582  3.0885
 7305SOL    HW233375   0.046   2.018   7.303 -0.6257 -0.7744  0.2296
 7306SOL     OW33376   4.316   2.646   0.206  0.4726  0.1432  0.0197
 7306SOL    HW133377   4.348   2.564   0.168  0.1762 -0.5849  1.3768
 7306SOL    HW233378   4.284   2.614   0.290  0.1853 -0.2353 -0.2337
 7307SOL     OW33379   2.899   0.585   0.531 -0.4640 -0.6314 -0.1816
 7307SOL    HW133380   2.931   0.594   0.442 -0.2484 -0.1970 -0.0613
 7307SOL    HW233381   2.977   0.617   0.577 -1.3087 -0.1679  0.9372
 7308SOL     OW33382   1.236   2.005   7.275  0.2676  0.3178 -0.0756
 7308SOL    HW133383   1.229   2.101   7.271 -0.2859  0.2570 -0.6521
 7308SOL    HW233384   1.147   1.970   7.278 -0.8605  3.1910  0.4870
 7309SOL     OW33385   4.715   4.082   5.959 -0.0009  0.1402  0.1029
 7309SOL    HW133386   4.647   4.083   6.026  0.9678  3.7824  1.0317
 7309SOL    HW233387   4.677   4.014   5.903 -0.6421 -0.1855  0.9275
 7310SOL     OW33388   0.145   1.538  13.356 -0.1310  0.4801 -0.9962
 7310SOL    HW133389   0.068   1.590  13.377  1.4404  2.1761  0.4303
 7310SOL    HW233390   0.137   1.468  13.421  0.3056  1.8358  0.4921
 7311SOL     OW33391   0.229   2.006  17.508 -1.2580  0.1188 -0.2548
 7311SOL    HW133392   0.319   1.988  17.481 -1.1237  1.4058 -0.7122
 7311SOL    HW233393   0.228   1.983  17.601 -0.1445  0.3487 -0.1871
 7312SOL     OW33394   1.833   1.586  14.446 -0.1936  0.3571  0.0067
 7312SOL    HW133395   1.857   1.529  14.373 -1.5904  0.0271 -0.2105
 7312SOL    HW233396   1.833   1.519  14.515 -2.0142  0.8195  0.4804
 7313SOL     OW33397   1.363   0.116  14.904 -0.3168  0.0276 -0.0442
 7313SOL    HW133398   1.373   0.086  14.994  0.3946 -0.1368 -0.1791
 7313SOL    HW233399   1.273   0.081  14.897  0.6860 -2.6673  0.4126
 7314SOL     OW33400   0.674   2.781   3.584  0.1099 -0.2773 -0.0723
 7314SOL    HW133401   0.623   2.702   3.603 -0.7325  0.2186 -0.3008
 7314SOL    HW233402   0.723   2.752   3.507  2.2016 -0.8441  1.4420
 7315SOL     OW33403   3.179   1.104   9.893 -0.2618 -0.4128 -0.0370
 7315SOL    HW133404   3.182   1.190   9.850 -1.8713 -0.2222  0.2538
 7315SOL    HW233405   3.172   1.131   9.984 -0.0193  1.2748 -0.4977
 7316SOL     OW33406   3.283   1.505   0.493  0.0239 -0.4321 -0.2788
 7316SOL    HW133407   3.344   1.565   0.536 -1.1337  1.5932 -1.4219
 7316SOL    HW233408   3.223   1.573   0.461  0.3323  0.4237  0.9599
 7317SOL     OW33409   1.886   1.831  14.854 -0.2788 -0.3956  0.2957
 7317SOL    HW133410   1.969   1.870  14.825 -1.1806  0.1722 -1.5154
 7317SOL    HW233411   1.833   1.850  14.777  0.5101  1.1443  0.1519
 7318SOL     OW33412   1.618   0.768  11.620 -0.1349  0.7637 -0.1777
 7318SOL    HW133413   1.607   0.713  11.698 -1.0052 -0.3018 -1.0454
 7318SOL    HW233414   1.679   0.713  11.570 -0.6575 -1.2910  1.4610
 7319SOL     OW33415   2.305   3.278   4.825 -0.7023  0.0273  0.2982
 7319SOL    HW133416   2.321   3.263   4.918  0.3513 -0.7739 -0.0146
 7319SOL    HW233417   2.394   3.302   4.803 -0.5700  0.7569  1.6745
 7320SOL     OW33418   1.235   2.081   8.037 -0.2568 -0.7314 -0.2238
 7320SOL    HW133419   1.190   2.007   7.998  0.9855 -0.9040 -1.3171
 7320SOL    HW233420   1.293   2.045   8.104  0.5562  1.6965  0.3887
 7321SOL     OW33421   0.294   4.142   2.368  0.0228  0.0735 -0.3522
 7321SOL    HW133422   0.366   4.078   2.366  0.0601  0.1015  0.1156
 7321SOL    HW233423   0.237   4.110   2.297  1.3965 -0.6549 -1.1356
 7322SOL     OW33424   0.949   3.735   7.219  0.5286  0.5641 -0.4152
 7322SOL    HW133425   0.975   3.752   7.129 -0.8291  1.6435 -0.5936
 7322SOL    HW233426   0.987   3.815   7.256  0.7786  1.1950 -2.0708
 7323SOL     OW33427   3.267   3.256   3.580 -0.5704 -0.0741 -0.6011
 7323SOL    HW133428   3.212   3.296   3.648 -0.5810 -2.3209  0.7052
 7323SOL    HW233429   3.325   3.331   3.567  1.4216 -1.8712 -2.1682
 7324SOL     OW33430   2.603   1.589   4.223  0.1389  0.3683  0.0702
 7324SOL    HW133431   2.532   1.530   4.198  0.0914  0.8382 -0.9118
 7324SOL    HW233432   2.582   1.621   4.311 -0.8041  0.4763 -0.1997
 7325SOL     OW33433   3.391   3.530   5.032  0.0128 -0.4826  0.4539
 7325SOL    HW133434   3.379   3.492   5.119  0.3666 -0.2075  0.6223
 7325SOL    HW233435   3.433   3.454   4.992  0.0812  0.7274 -1.7744
 7326SOL     OW33436   0.099   3.910  11.507  0.4259  0.0617  0.2043
 7326SOL    HW133437   0.121   3.832  11.557  0.0100 -0.3793 -0.2976
 7326SOL    HW233438   0.158   3.906  11.432 -0.2304 -2.3175 -0.1725
 7327SOL     OW33439   3.925   0.158   0.102  0.0136 -0.2269  0.3439
 7327SOL    HW133440   3.908   0.226   0.038  2.2380  2.6346  2.7967
 7327SOL    HW233441   3.963   0.209   0.173  1.6840  1.6359 -1.8851
 7328SOL     OW33442   0.087   3.769   8.166  0.6667  0.3548  0.5432
 7328SOL    HW133443   0.066   3.837   8.230 -2.3097  0.5913 -0.7003
 7328SOL    HW233444   0.001   3.728   8.163  1.0589 -0.6219  2.4626
 7329SOL     OW33445   3.113   3.296   7.450  0.2845  0.0857 -0.3554
 7329SOL    HW133446   3.024   3.310   7.416  0.4191  1.1373 -0.2618
 7329SOL    HW233447   3.135   3.208   7.421 -1.9276 -0.6660  0.2326
 7330SOL     OW33448   1.305   0.596   9.355  0.3060 -0.5200 -0.0798
 7330SOL    HW133449   1.309   0.512   9.308 -1.1703 -1.2344  1.0883
 7330SOL    HW233450   1.237   0.570   9.416  1.5829  0.1060  1.5983
 7331SOL     OW33451   1.976   0.089  14.598 -0.1149  0.6035 -0.1128
 7331SOL    HW133452   1.992   0.171  14.551 -0.5134 -1.3121 -3.6150
 7331SOL    HW233453   2.043   0.026  14.574 -0.1850  0.9451 -1.1921
 7332SOL     OW33454   4.696   0.329  12.602 -0.2264  0.4830  0.9621
 7332SOL    HW133455   4.653   0.394  12.548 -1.0544  0.1993  1.2831
 7332SOL    HW233456   4.628   0.265  12.623  0.1139 -0.6081 -1.2698
 7333SOL     OW33457   1.291   2.622  12.783  0.2497  0.0339 -0.4424
 7333SOL    HW133458   1.341   2.651  12.859  2.7032 -1.4765 -1.4484
 7333SOL    HW233459   1.367   2.603  12.727  0.7024  0.2274  0.1002
 7334SOL     OW33460   0.878   1.967  12.810 -0.0989  0.1473 -0.3224
 7334SOL    HW133461   0.891   1.879  12.774 -2.3791 -0.1915 -0.2749
 7334SOL    HW233462   0.932   2.030  12.761  1.4468 -1.7862 -1.1360
 7335SOL     OW33463   3.659   3.553  15.551  0.0145 -0.6546 -0.6317
 7335SOL    HW133464   3.607   3.605  15.491 -1.2625 -0.6217  0.5037
 7335SOL    HW233465   3.619   3.467  15.538 -0.6293 -0.5594  0.7472
 7336SOL     OW33466   4.168   4.254   0.574 -0.4606 -0.1954 -0.5581
 7336SOL    HW133467   4.116   4.334   0.584 -1.0328 -0.8368  1.8011
 7336SOL    HW233468   4.247   4.284   0.619  0.8359  1.6284 -4.0551
 7337SOL     OW33469   2.439   1.578   5.079  0.4554  0.0792  0.2901
 7337SOL    HW133470   2.428   1.522   5.002 -1.2734  1.9411 -0.8212
 7337SOL    HW233471   2.524   1.620   5.068  0.3263  0.2063 -0.2269
 7338SOL     OW33472   0.026   4.355  15.024 -0.1372  0.1572  0.1462
 7338SOL    HW133473   4.698   4.351  14.943  0.9990 -2.8532 -0.4060
 7338SOL    HW233474   0.051   4.262  15.026  1.2981  0.5129 -0.8364
 7339SOL     OW33475   1.570   0.159   4.016  0.1988 -0.5646 -0.8858
 7339SOL    HW133476   1.569   0.194   3.927  1.2579  1.3307 -0.1436
 7339SOL    HW233477   1.506   0.088   4.008  1.1901 -1.5385 -0.1583
 7340SOL     OW33478   2.990   0.550   3.471 -0.2398 -0.3745  0.4177
 7340SOL    HW133479   2.960   0.621   3.528  0.9651  0.3935  0.0900
 7340SOL    HW233480   3.028   0.596   3.396 -0.5811 -0.5937  0.1118
 7341SOL     OW33481   2.944   1.115   4.812 -0.0042  0.5412  0.6670
 7341SOL    HW133482   2.922   1.164   4.733 -3.4656  0.8727  1.8637
 7341SOL    HW233483   2.859   1.115   4.855  0.0807  1.7003  0.8372
 7342SOL     OW33484   2.198   4.257  10.446 -0.8293 -0.7226  0.5546
 7342SOL    HW133485   2.136   4.287  10.379  0.2990 -0.6467 -0.4617
 7342SOL    HW233486   2.142   4.238  10.522  1.1918  0.7502  2.4276
 7343SOL     OW33487   4.447   3.258   9.313 -0.3875 -0.1919 -0.2361
 7343SOL    HW133488   4.397   3.208   9.249  0.1035 -0.0325 -0.7530
 7343SOL    HW233489   4.391   3.254   9.390  1.2725 -1.0606  0.9447
 7344SOL     OW33490   1.140   1.499   9.289  0.5914  0.1468  0.2430
 7344SOL    HW133491   1.098   1.457   9.363 -1.5688  1.9805  0.0715
 7344SOL    HW233492   1.155   1.423   9.233  2.0021  0.8788 -0.3695
 7345SOL     OW33493   3.356   2.029  11.071 -0.4074 -0.2343  0.0252
 7345SOL    HW133494   3.332   2.115  11.105 -2.6642 -0.1398 -1.8038
 7345SOL    HW233495   3.385   1.981  11.148 -1.0743  1.1709  1.1420
 7346SOL     OW33496   3.374   1.931   0.707  0.4470 -0.2851  0.0418
 7346SOL    HW133497   3.391   1.928   0.613  0.2986 -1.2759  0.0410
 7346SOL    HW233498   3.423   2.008   0.733  1.4554 -1.0008  0.2566
 7347SOL     OW33499   2.963   4.086  11.985  0.2680  0.4606  0.0638
 7347SOL    HW133500   2.921   4.005  11.956  1.5128 -0.3747  0.5842
 7347SOL    HW233501   3.041   4.086  11.930  0.1168 -2.4764 -0.1578
 7348SOL     OW33502   1.938   4.142   3.407  0.6891 -0.8136 -0.3144
 7348SOL    HW133503   1.967   4.054   3.384 -2.7612 -1.6593 -1.4548
 7348SOL    HW233504   1.954   4.147   3.501 -3.4498  0.1132  0.3502
 7349SOL     OW33505   2.662   3.847   5.479 -0.3014 -0.2981  0.1269
 7349SOL    HW133506   2.588   3.863   5.421  1.3660  0.6729 -1.7356
 7349SOL    HW233507   2.731   3.902   5.442 -1.8162  1.1893 -0.4636
 7350SOL     OW33508   0.692   1.045   0.835  0.0984  0.4978  0.1433
 7350SOL    HW133509   0.669   1.138   0.829  0.9615  0.8260  2.0557
 7350SOL    HW233510   0.694   1.030   0.929  1.2107 -1.5248 -0.2165
 7351SOL     OW33511   2.667   4.667  11.376 -0.2910 -0.4645 -0.1309
 7351SOL    HW133512   2.599   4.615  11.418  1.4281 -2.3651  0.3115
 7351SOL    HW233513   2.675   4.620  11.293 -0.3047  1.9469 -1.4917
 7352SOL     OW33514   4.473   2.173   4.787  0.2429  0.1396 -0.1059
 7352SOL    HW133515   4.413   2.111   4.829 -1.4160  1.6800 -0.2086
 7352SOL    HW233516   4.558   2.144   4.818 -0.2638  0.5274  1.6377
 7353SOL     OW33517   4.463   1.418   4.925  0.0616  0.2090 -0.1955
 7353SOL    HW133518   4.514   1.362   4.866  1.4646  0.5457  0.6946
 7353SOL    HW233519   4.531   1.476   4.958  2.2246 -1.0212 -2.4786
 7354SOL     OW33520   2.156   2.302  11.142  0.0916  0.1717 -0.2315
 7354SOL    HW133521   2.073   2.254  11.143 -0.8705  1.8483  0.3769
 7354SOL    HW233522   2.203   2.253  11.210  0.9791  3.0462  1.2100
 7355SOL     OW33523   3.749   0.335   2.392 -0.0810 -0.2634  0.1646
 7355SOL    HW133524   3.778   0.262   2.447 -0.3899 -2.6896 -2.9122
 7355SOL    HW233525   3.693   0.288   2.331 -1.0010 -0.1086  0.8890
 7356SOL     OW33526   2.624   1.118  15.388  0.2807  0.5441  0.0249
 7356SOL    HW133527   2.670   1.035  15.379  0.8170  0.8739 -0.2795
 7356SOL    HW233528   2.701   1.173  15.406  0.7082 -0.3985  1.0610
 7357SOL     OW33529   2.478   2.684   3.010 -0.1923  0.3641 -0.5304
 7357SOL    HW133530   2.466   2.706   2.918  2.5935 -1.4754 -1.3344
 7357SOL    HW233531   2.568   2.650   3.003 -0.3298 -0.3006  0.8759
 7358SOL     OW33532   2.998   3.843   4.244 -0.5616 -1.0493  0.0417
 7358SOL    HW133533   3.072   3.903   4.234 -1.2704 -0.4353 -1.5385
 7358SOL    HW233534   2.967   3.829   4.154  2.0069 -1.2456 -0.7969
 7359SOL     OW33535   2.995   0.682   9.340  0.2308 -0.0073  0.2475
 7359SOL    HW133536   3.007   0.588   9.333  0.5989  0.1204 -0.8425
 7359SOL    HW233537   3.047   0.684   9.420  0.6664  1.2510 -0.0663
 7360SOL     OW33538   4.346   0.957   1.466  0.2752 -0.0182 -0.0135
 7360SOL    HW133539   4.367   1.030   1.407 -2.8139  2.1385  1.5484
 7360SOL    HW233540   4.308   0.995   1.545  0.1794 -0.7878  0.3157
 7361SOL     OW33541   0.987   3.441   3.846 -0.3774  0.0140 -0.4209
 7361SOL    HW133542   0.955   3.514   3.898  1.3985  1.3119 -1.1706
 7361SOL    HW233543   0.930   3.432   3.769 -3.0325  1.6593  1.3623
 7362SOL     OW33544   0.548   3.157   8.632 -0.0593  1.0067  0.3344
 7362SOL    HW133545   0.532   3.083   8.573 -1.4330  2.5698 -1.2306
 7362SOL    HW233546   0.466   3.204   8.619 -0.2635  0.7081  0.5632
 7363SOL     OW33547   2.206   0.417   5.246 -0.7535 -0.1258  0.3189
 7363SOL    HW133548   2.178   0.493   5.298  0.1651 -0.4910  1.3489
 7363SOL    HW233549   2.242   0.456   5.165  0.5353 -0.9946  0.4756
 7364SOL     OW33550   1.633   3.298  15.316  0.4749  0.4147 -0.2919
 7364SOL    HW133551   1.551   3.277  15.272 -0.8115  0.9841  1.8323
 7364SOL    HW233552   1.639   3.392  15.301  0.6794  0.4588  0.0615
 7365SOL     OW33553   4.237   3.704   0.739  0.1073 -0.4751  0.0017
 7365SOL    HW133554   4.172   3.768   0.709  0.6724  0.6770  1.2653
 7365SOL    HW233555   4.200   3.617   0.721  0.6279 -0.7939  0.4979
 7366SOL     OW33556   2.061   2.677   8.395  0.7439  0.3147 -0.7443
 7366SOL    HW133557   2.131   2.664   8.330  1.8867 -0.2065  0.5968
 7366SOL    HW233558   1.988   2.622   8.366  1.4413 -0.3297 -1.2927
 7367SOL     OW33559   2.043   4.560  12.801  0.5184  0.6775 -0.3515
 7367SOL    HW133560   2.096   4.515  12.735  1.2507 -1.3887  1.6405
 7367SOL    HW233561   2.108   4.598  12.862  0.9148  0.0771 -0.3973
 7368SOL     OW33562   0.704   4.609  13.021 -0.1566  0.0333  0.2405
 7368SOL    HW133563   0.651   4.546  12.972  0.0830  0.0315 -0.0207
 7368SOL    HW233564   0.642   4.682  13.020 -0.0433  0.1387  0.8747
 7369SOL     OW33565   3.777   1.812  15.063 -0.3496  0.4513 -0.3467
 7369SOL    HW133566   3.721   1.760  15.121 -0.0825  0.6877  0.1245
 7369SOL    HW233567   3.821   1.876  15.119 -0.4121 -0.3771  0.6686
 7370SOL     OW33568   4.359   4.707   4.370 -0.1129 -0.1337  0.8508
 7370SOL    HW133569   4.385   4.615   4.364 -2.1190 -0.6800  0.4821
 7370SOL    HW233570   4.422   0.022   4.431  1.0882 -1.4389  0.4291
 7371SOL     OW33571   2.226   3.640   8.011  0.1772 -0.1346  0.2641
 7371SOL    HW133572   2.292   3.629   7.942  0.0907  0.7611  0.0432
 7371SOL    HW233573   2.240   3.731   8.038 -1.7142  0.0779  0.5200
 7372SOL     OW33574   0.424   0.301   5.543  0.3823 -0.0226 -0.4513
 7372SOL    HW133575   0.500   0.354   5.567  0.0211  0.8884 -1.3405
 7372SOL    HW233576   0.476   0.249   5.482  1.7172  1.9774 -1.0155
 7373SOL     OW33577   0.275   4.119  10.493 -0.0771  0.5511  0.2139
 7373SOL    HW133578   0.195   4.149  10.535 -0.4386  0.7694 -0.6354
 7373SOL    HW233579   0.245   4.033  10.464  1.7344  0.0988 -0.3339
 7374SOL     OW33580   4.478   1.132  11.473 -0.1634 -0.2453 -0.1385
 7374SOL    HW133581   4.521   1.051  11.446  0.8007 -0.7247  2.8215
 7374SOL    HW233582   4.551   1.193  11.477  1.7526 -2.6987  2.5773
 7375SOL     OW33583   2.835   1.503   5.175  0.3398  0.3097  0.3757
 7375SOL    HW133584   2.873   1.558   5.106  1.5558  0.3699  1.0895
 7375SOL    HW233585   2.790   1.563   5.234 -0.3494  2.0517 -1.9348
 7376SOL     OW33586   2.710   1.600  16.059 -0.2411 -0.1240 -0.7041
 7376SOL    HW133587   2.711   1.517  16.107  3.0069  0.8628  0.9024
 7376SOL    HW233588   2.619   1.608  16.031  0.1164 -0.0088 -1.8126
 7377SOL     OW33589   2.471   3.546  14.238 -0.2163 -0.0164  0.2004
 7377SOL    HW133590   2.426   3.582  14.314 -1.4714  0.9532 -1.0114
 7377SOL    HW233591   2.419   3.579  14.165 -1.4281 -0.5927  0.8053
 7378SOL     OW33592   0.643   2.075   4.351 -0.1801  0.2792 -0.2187
 7378SOL    HW133593   0.559   2.032   4.367  0.9137 -1.4670  0.9009
 7378SOL    HW233594   0.694   1.998   4.327 -0.0908  0.1251  0.4598
 7379SOL     OW33595   0.403   2.139   6.199  0.1863 -0.2406  0.7266
 7379SOL    HW133596   0.344   2.065   6.189  0.4429 -0.6325  2.0933
 7379SOL    HW233597   0.356   2.203   6.252 -0.2476  0.5672 -0.6292
 7380SOL     OW33598   2.877   2.348   5.913 -0.1846 -0.2518 -0.3021
 7380SOL    HW133599   2.820   2.392   5.850 -1.6360 -3.9206 -1.5196
 7380SOL    HW233600   2.945   2.329   5.849 -0.1620  0.1789 -0.4053
 7381SOL     OW33601   2.599   0.131   5.091 -0.6052  0.1001 -0.0281
 7381SOL    HW133602   2.563   0.186   5.021 -0.5236 -2.1045 -1.7871
 7381SOL    HW233603   2.524   0.073   5.105  0.0950 -1.0390 -1.0192
 7382SOL     OW33604   2.341   2.940   4.675 -0.4169 -0.3171 -0.3868
 7382SOL    HW133605   2.418   2.891   4.646  0.1291  0.4160 -0.1776
 7382SOL    HW233606   2.369   2.955   4.765  0.4337 -0.2537 -0.6571
 7383SOL     OW33607   0.154   2.183   5.145  0.3130  0.2720  0.0838
 7383SOL    HW133608   0.192   2.188   5.233  1.9709  1.1656 -0.6908
 7383SOL    HW233609   0.217   2.240   5.101 -0.2167  2.3910  2.0837
 7384SOL     OW33610   3.070   2.132   3.557 -0.0759 -0.3252 -0.1251
 7384SOL    HW133611   3.040   2.125   3.467  2.3701  4.5316 -1.3261
 7384SOL    HW233612   3.073   2.039   3.582  0.7283 -0.1611  0.3805
 7385SOL     OW33613   0.805   0.082  15.418 -0.0399  1.2281  0.0018
 7385SOL    HW133614   0.810   4.717  15.381  3.4530  1.1530  0.6128
 7385SOL    HW233615   0.848   0.141  15.357 -1.1189  0.6182 -1.3364
 7386SOL     OW33616   2.614   0.521   6.371 -0.2403 -0.2915 -0.2852
 7386SOL    HW133617   2.591   0.612   6.353 -0.5205  0.0733  1.9432
 7386SOL    HW233618   2.698   0.535   6.414 -1.6506  2.6256  1.5276
 7387SOL     OW33619   1.483   0.603   5.336  1.0859  1.0147 -0.4797
 7387SOL    HW133620   1.419   0.546   5.292  0.8274  0.8494  0.0997
 7387SOL    HW233621   1.452   0.592   5.426  1.9371  1.8489 -0.0849
 7388SOL     OW33622   4.052   3.286   2.975  0.0269 -0.0580 -0.2375
 7388SOL    HW133623   4.097   3.248   2.899 -0.1928 -0.7398 -0.0234
 7388SOL    HW233624   3.977   3.226   2.975 -0.6681  0.8205  0.8352
 7389SOL     OW33625   3.946   1.417   1.087 -0.2527 -0.4671 -0.5945
 7389SOL    HW133626   4.002   1.436   1.012  0.1789  1.3563  0.2169
 7389SOL    HW233627   4.003   1.421   1.164  0.0751  1.1867 -0.9268
 7390SOL     OW33628   1.153   0.415   3.109  0.0481  0.1741 -0.7484
 7390SOL    HW133629   1.085   0.391   3.046 -2.4902  2.1561  1.2148
 7390SOL    HW233630   1.201   0.482   3.060  2.0124  1.0863  2.4342
 7391SOL     OW33631   0.711   1.661   0.376  0.1915 -0.2561  0.2844
 7391SOL    HW133632   0.716   1.663   0.472 -0.6247 -0.0057  0.3229
 7391SOL    HW233633   0.630   1.710   0.364 -1.7308 -3.6639 -0.7760
 7392SOL     OW33634   1.048   1.533  10.433  0.0185 -0.3028  0.2181
 7392SOL    HW133635   1.015   1.478  10.504 -0.1357 -2.3552 -1.4250
 7392SOL    HW233636   0.993   1.610  10.445 -0.1456 -0.2553 -0.7701
 7393SOL     OW33637   4.066   2.429   3.991 -0.7406  0.5666 -0.2860
 7393SOL    HW133638   4.030   2.346   3.958 -1.1960  0.9379 -0.7129
 7393SOL    HW233639   4.055   2.410   4.085  2.2369  2.1211  0.3708
 7394SOL     OW33640   2.252   2.056   7.891  0.2992 -0.4975  0.5049
 7394SOL    HW133641   2.288   2.076   7.977 -0.7782 -0.0213  0.8341
 7394SOL    HW233642   2.223   2.142   7.862 -1.6848 -1.9524 -1.9101
 7395SOL     OW33643   3.722   2.381   8.358 -0.3594  0.9557 -0.6348
 7395SOL    HW133644   3.818   2.374   8.352 -0.3975 -1.8547  1.9308
 7395SOL    HW233645   3.715   2.419   8.445  0.2086 -1.0041  0.2739
 7396SOL     OW33646   2.243   3.170   4.585  0.3173 -0.4403  0.3292
 7396SOL    HW133647   2.281   3.086   4.610  1.0377 -0.0198  0.6506
 7396SOL    HW233648   2.234   3.208   4.672  1.6403 -0.1070  0.3221
 7397SOL     OW33649   4.268   1.018   8.195 -0.1823  0.3591  0.0783
 7397SOL    HW133650   4.182   1.060   8.188 -0.2929 -0.0367 -1.0243
 7397SOL    HW233651   4.278   1.006   8.290  1.9901  0.0311 -0.2035
 7398SOL     OW33652   0.379   4.671   9.566  0.3458 -0.1549  0.3729
 7398SOL    HW133653   0.362   4.619   9.644 -0.6057  1.3768  1.1939
 7398SOL    HW233654   0.461   4.718   9.583  2.1871 -2.7362 -1.3279
 7399SOL     OW33655   0.946   0.472   6.719 -0.0431 -0.5034  0.7044
 7399SOL    HW133656   0.878   0.429   6.771  2.1653 -1.1229  3.0948
 7399SOL    HW233657   0.924   0.443   6.630  0.5595  0.9531  0.0852
 7400SOL     OW33658   1.799   1.856  14.106 -0.3971 -0.0437 -0.6255
 7400SOL    HW133659   1.885   1.813  14.095  0.5619  2.2631 -2.0077
 7400SOL    HW233660   1.765   1.853  14.017 -1.3093  2.2125 -0.3341
 7401SOL     OW33661   1.332   1.349   9.592 -0.0501 -0.6862  0.3743
 7401SOL    HW133662   1.337   1.265   9.639  0.2806 -1.0798 -0.3581
 7401SOL    HW233663   1.239   1.370   9.598  0.1607 -0.3412  2.4257
 7402SOL     OW33664   2.013   0.068   4.878 -1.0040  0.7823  0.9509
 7402SOL    HW133665   1.965   4.719   4.919 -0.1273 -0.0627  0.5185
 7402SOL    HW233666   2.018   0.122   4.957  0.6277  0.6242  0.9681
 7403SOL     OW33667   3.306   2.020   1.951  0.2266  0.0534 -0.1965
 7403SOL    HW133668   3.379   2.026   1.891  0.7333 -1.2925  0.2964
 7403SOL    HW233669   3.250   1.959   1.904 -0.4292 -0.4745  1.2566
 7404SOL     OW33670   4.452   3.256   0.262 -0.2129  0.6356  0.1569
 7404SOL    HW133671   4.447   3.161   0.263  0.0483  0.6293  1.6854
 7404SOL    HW233672   4.366   3.294   0.245  0.4695  1.8903 -0.5095
 7405SOL     OW33673   4.449   4.315  14.023  0.0922 -0.4843  0.7358
 7405SOL    HW133674   4.457   4.393  13.968  0.5356 -1.2601 -0.2852
 7405SOL    HW233675   4.520   4.259  13.991 -0.6863 -1.5796  0.9277
 7406SOL     OW33676   0.744   1.948  15.528 -0.0822  0.8760  0.1510
 7406SOL    HW133677   0.776   1.977  15.443 -2.6284 -0.5313 -1.3034
 7406SOL    HW233678   0.681   1.880  15.503  0.6047  0.3924 -0.2846
 7407SOL     OW33679   0.222   3.297  15.923  0.2179 -0.1673  0.7649
 7407SOL    HW133680   0.245   3.218  15.873 -0.4602 -0.1504  0.4236
 7407SOL    HW233681   0.215   3.250  16.006 -1.1551 -1.7799 -0.2683
 7408SOL     OW33682   1.985   2.607   4.890 -0.0671  1.0308 -0.1369
 7408SOL    HW133683   2.041   2.672   4.933 -1.3594  0.8427  1.8572
 7408SOL    HW233684   2.023   2.531   4.935 -0.3471  0.4069 -0.9666
 7409SOL     OW33685   0.149   2.735   8.162 -0.1049 -0.1718 -0.3661
 7409SOL    HW133686   0.100   2.666   8.207 -0.3331 -0.4053 -0.9698
 7409SOL    HW233687   0.231   2.686   8.165  0.2135  0.4160  0.2815
 7410SOL     OW33688   3.818   4.707  16.336 -0.0282  0.2996 -0.4998
 7410SOL    HW133689   3.845   4.666  16.254 -0.2815 -1.5859  0.3627
 7410SOL    HW233690   3.817   4.634  16.397  0.0796  0.2064 -0.6087
 7411SOL     OW33691   2.917   2.873  12.071 -0.2454 -0.6395 -0.2833
 7411SOL    HW133692   2.955   2.920  12.145  1.7102  0.8992 -2.2514
 7411SOL    HW233693   2.946   2.783  12.084  1.0583 -0.2039 -0.1313
 7412SOL     OW33694   0.899   1.627   2.404  0.6086  0.2388 -0.6517
 7412SOL    HW133695   0.841   1.626   2.327 -2.9898  1.3437  2.0749
 7412SOL    HW233696   0.965   1.676   2.355  1.4460  1.2433  1.4745
 7413SOL     OW33697   0.171   3.358   2.835  0.5489 -0.0518 -0.3209
 7413SOL    HW133698   0.159   3.413   2.913 -1.4115 -1.5081  0.3978
 7413SOL    HW233699   0.233   3.414   2.788  1.4683 -0.2786  0.6228
 7414SOL     OW33700   1.296   1.854   7.058  0.6582 -0.0975  0.2323
 7414SOL    HW133701   1.310   1.919   6.990 -0.6784 -0.5447 -0.4761
 7414SOL    HW233702   1.282   1.917   7.129 -2.4870 -0.1355 -0.3280
 7415SOL     OW33703   3.852   1.216  16.164 -0.0565 -0.0955 -0.0256
 7415SOL    HW133704   3.776   1.226  16.107 -0.7811  0.2317  0.9922
 7415SOL    HW233705   3.905   1.291  16.139  0.0021 -0.6489 -1.5333
 7416SOL     OW33706   3.942   1.211   3.276  0.6741 -0.0761 -0.1821
 7416SOL    HW133707   3.881   1.263   3.225  2.0440 -1.0679 -2.8167
 7416SOL    HW233708   4.029   1.249   3.272 -0.1113  1.7567  0.4781
 7417SOL     OW33709   1.445   0.788   9.510  0.7112  0.1663 -0.8839
 7417SOL    HW133710   1.411   0.725   9.446 -0.1874 -1.8437  1.6075
 7417SOL    HW233711   1.370   0.830   9.552 -0.4908  0.7828 -3.6417
 7418SOL     OW33712   2.815   0.715   7.317 -0.2860 -0.0285 -0.0419
 7418SOL    HW133713   2.846   0.764   7.393 -0.6387 -0.9424  0.6992
 7418SOL    HW233714   2.724   0.698   7.342 -0.0296 -1.0823  0.1826
 7419SOL     OW33715   0.367   4.653   4.736 -0.0415 -0.2699  0.5504
 7419SOL    HW133716   0.463   4.643   4.740  0.0481 -0.0864 -0.9634
 7419SOL    HW233717   0.337   4.640   4.646  1.9820 -0.3292 -0.1378
 7420SOL     OW33718   4.486   2.748   6.525 -0.2416 -0.2306  0.1803
 7420SOL    HW133719   4.447   2.703   6.600 -1.4686 -5.1419 -3.4493
 7420SOL    HW233720   4.508   2.829   6.571 -1.7173 -0.3387  1.0782
 7421SOL     OW33721   1.969   4.595  12.478  0.4023 -0.8209 -0.4208
 7421SOL    HW133722   1.935   4.664  12.535  2.6621  0.0469 -0.1576
 7421SOL    HW233723   1.894   4.582  12.420 -0.5638 -1.3442  0.9310
 7422SOL     OW33724   4.232   0.184  15.030  0.3512  0.3441 -0.7197
 7422SOL    HW133725   4.285   0.110  15.062  0.6496  1.4009  1.2465
 7422SOL    HW233726   4.299   0.252  15.032  1.3630 -0.7058  1.2211
 7423SOL     OW33727   4.691   1.679   4.033  0.0291 -0.0902  0.5610
 7423SOL    HW133728   4.649   1.596   4.010 -2.1597  1.6921 -1.8628
 7423SOL    HW233729   4.621   1.732   4.070 -0.1114  1.3529 -1.7316
 7424SOL     OW33730   1.944   1.685   7.359  0.1047 -0.3834 -0.3825
 7424SOL    HW133731   1.879   1.746   7.325  0.3546 -0.0977 -0.3433
 7424SOL    HW233732   1.932   1.693   7.454  0.3351  0.8930 -0.4723
 7425SOL     OW33733   0.763   3.343   2.827  0.0294 -0.2559  0.0056
 7425SOL    HW133734   0.669   3.327   2.816 -0.0093  1.0112 -1.3808
 7425SOL    HW233735   0.793   3.266   2.876 -5.1781 -1.9874  0.4663
 7426SOL     OW33736   4.458   2.632   7.232 -0.4599 -0.2928  0.1347
 7426SOL    HW133737   4.535   2.680   7.263 -2.7573  1.6723  2.7330
 7426SOL    HW233738   4.493   2.587   7.155  0.7689  0.5548  0.1947
 7427SOL     OW33739   3.673   2.743   2.726 -0.4156  0.4064  0.1230
 7427SOL    HW133740   3.616   2.666   2.732 -0.5331  0.4744 -0.1323
 7427SOL    HW233741   3.735   2.712   2.660 -0.4643  1.3184 -0.3435
 7428SOL     OW33742   2.571   4.700   2.705 -0.3050 -0.6743 -0.2161
 7428SOL    HW133743   2.508   4.633   2.731  0.6225 -1.8326 -0.9249
 7428SOL    HW233744   2.518   0.053   2.679 -0.6838 -0.7783  0.2742
 7429SOL     OW33745   2.484   3.030   7.018  0.3069 -0.5240 -0.0280
 7429SOL    HW133746   2.477   3.109   6.966  1.2510  0.4501  1.3171
 7429SOL    HW233747   2.398   2.988   7.020  0.1895 -0.2700  0.4021
 7430SOL     OW33748   1.068   1.012   1.934 -0.0064 -0.9358 -0.2238
 7430SOL    HW133749   1.042   0.972   2.017  3.7234 -0.5375  1.1473
 7430SOL    HW233750   1.162   1.032   1.936  0.1297 -1.7659  1.6070
 7431SOL     OW33751   1.839   3.617  16.553  0.3388  0.2468 -0.2926
 7431SOL    HW133752   1.822   3.656  16.639  0.5857 -0.9487  0.3008
 7431SOL    HW233753   1.786   3.539  16.566  0.9010 -0.6076 -3.2528
 7432SOL     OW33754   0.337   2.777   3.658  0.3194  0.3470  0.0439
 7432SOL    HW133755   0.330   2.724   3.737 -1.5664  1.2522  0.4783
 7432SOL    HW233756   0.392   2.850   3.689  0.5812  0.7146 -1.2568
 7433SOL     OW33757   1.056   1.088   8.328  0.0882 -0.5945  0.7752
 7433SOL    HW133758   1.057   1.156   8.261  0.5957 -2.4004 -1.0502
 7433SOL    HW233759   1.010   1.015   8.287 -0.0666 -0.4596  0.7119
 7434SOL     OW33760   3.591   2.873  12.361 -0.1834 -0.1833 -0.0837
 7434SOL    HW133761   3.647   2.808  12.319 -0.8840 -1.9234  1.6636
 7434SOL    HW233762   3.648   2.887  12.436  2.8462  1.1796 -2.6821
 7435SOL     OW33763   1.044   2.510  12.898 -0.0904 -0.0495  0.4986
 7435SOL    HW133764   1.134   2.541  12.898 -0.0215 -0.2370 -0.3768
 7435SOL    HW233765   1.033   2.479  12.988 -0.0116  2.4572  1.3795
 7436SOL     OW33766   1.380   0.102   9.526  0.0495  0.2734  0.6957
 7436SOL    HW133767   1.309   0.147   9.571  0.8273 -0.9455  3.2029
 7436SOL    HW233768   1.449   0.168   9.537 -1.2560  1.6217  0.7816
 7437SOL     OW33769   3.332   0.648   3.965 -0.0083  0.4936 -0.4023
 7437SOL    HW133770   3.411   0.702   3.963 -0.9479  1.8615 -0.6232
 7437SOL    HW233771   3.320   0.614   3.876 -1.4315  0.6406 -0.2702
 7438SOL     OW33772   1.841   1.496   1.132  0.0360 -0.1412  0.4920
 7438SOL    HW133773   1.883   1.581   1.122  1.8777 -1.1477 -0.3674
 7438SOL    HW233774   1.920   1.444   1.120 -0.1999 -0.7942  1.7201
 7439SOL     OW33775   3.784   4.124  15.694 -0.5934  0.0525 -0.6980
 7439SOL    HW133776   3.778   4.213  15.660  3.0152  0.6084  0.1667
 7439SOL    HW233777   3.811   4.084  15.612  2.6503  2.2983 -0.6997
 7440SOL     OW33778   0.735   2.922   6.820  0.2915 -0.3485  0.1706
 7440SOL    HW133779   0.787   2.933   6.900 -0.2362  0.3079  0.4233
 7440SOL    HW233780   0.709   2.831   6.834 -0.3054 -0.1155  0.5578
 7441SOL     OW33781   3.044   4.537  10.485  0.1927  0.0301 -0.5146
 7441SOL    HW133782   3.118   4.488  10.519 -0.8314 -1.1671  0.0012
 7441SOL    HW233783   3.029   4.483  10.407 -1.2779 -0.8746  0.3824
 7442SOL     OW33784   1.163   4.280   0.109 -0.4617  0.0479 -0.1740
 7442SOL    HW133785   1.196   4.223   0.179 -0.0535  1.0804  0.4767
 7442SOL    HW233786   1.091   4.228   0.073 -0.6599 -0.5478  1.0882
 7443SOL     OW33787   3.486   0.818  10.703 -0.3062 -0.4127  0.4645
 7443SOL    HW133788   3.499   0.901  10.750  0.8761 -0.7813  0.8033
 7443SOL    HW233789   3.392   0.811  10.717 -0.3241 -0.2118  0.4491
 7444SOL     OW33790   1.111   1.059   4.236  0.1202 -0.4902 -0.1993
 7444SOL    HW133791   1.174   0.997   4.199  0.8777  0.2043 -0.0697
 7444SOL    HW233792   1.155   1.144   4.248  0.5871 -0.3952 -2.5345
 7445SOL     OW33793   1.873   3.141  10.204 -0.1390 -0.0228  0.2807
 7445SOL    HW133794   1.866   3.103  10.292 -1.1804  0.4306  0.3874
 7445SOL    HW233795   1.891   3.231  10.228 -0.3648 -0.1327  0.8530
 7446SOL     OW33796   1.325   1.890   7.698  0.8397 -0.0968  0.4736
 7446SOL    HW133797   1.340   1.855   7.610 -1.8720  2.7485 -1.0905
 7446SOL    HW233798   1.367   1.830   7.760  1.0919 -0.7857 -0.3471
 7447SOL     OW33799   0.677   2.983  11.558  0.7726 -0.2489 -0.2562
 7447SOL    HW133800   0.594   2.976  11.511 -0.4415 -1.6055  2.0934
 7447SOL    HW233801   0.727   2.910  11.520  2.0873 -0.6649  2.2650
 7448SOL     OW33802   2.304   2.251   2.829  0.4060 -0.3790 -0.0112
 7448SOL    HW133803   2.252   2.197   2.770 -1.9077  1.1460  0.6016
 7448SOL    HW233804   2.285   2.339   2.797  1.4099  0.1411  0.8143
 7449SOL     OW33805   1.519   3.517   8.151  0.4671 -0.6559  0.0498
 7449SOL    HW133806   1.486   3.432   8.122 -1.0501 -0.0387 -0.0583
 7449SOL    HW233807   1.568   3.550   8.076 -1.4225  1.9939 -0.0519
 7450SOL     OW33808   1.542   1.454   6.285 -0.0064  0.4598  0.3496
 7450SOL    HW133809   1.496   1.529   6.321  0.0363  0.8252 -0.3571
 7450SOL    HW233810   1.563   1.480   6.195 -1.8465  0.5976 -0.0408
 7451SOL     OW33811   2.404   1.887  13.893  0.2138  0.3401  0.0358
 7451SOL    HW133812   2.324   1.890  13.840 -0.1313  1.5794  0.6056
 7451SOL    HW233813   2.379   1.838  13.971 -0.7770 -2.3813 -2.0037
 7452SOL     OW33814   2.069   0.659   5.327  0.0006 -0.2180 -0.3331
 7452SOL    HW133815   2.132   0.730   5.315  1.6761 -1.2298  2.4528
 7452SOL    HW233816   2.021   0.656   5.244 -2.4830 -0.3033  1.1135
 7453SOL     OW33817   0.520   4.489  14.316  0.2935  0.2801 -0.7165
 7453SOL    HW133818   0.451   4.465  14.378  2.0914  0.4670  1.3830
 7453SOL    HW233819   0.518   4.410  14.262 -1.6026 -0.2478  0.1230
 7454SOL     OW33820   3.709   2.326   6.034  0.0899 -0.4906 -0.1446
 7454SOL    HW133821   3.642   2.375   6.082  1.1274  0.2194  0.5805
 7454SOL    HW233822   3.654   2.263   5.988 -0.1287 -0.5019  0.1342
 7455SOL     OW33823   4.091   1.485   0.883  0.0685  0.0247  0.3739
 7455SOL    HW133824   4.147   1.555   0.915  0.9361 -1.0800  1.2762
 7455SOL    HW233825   4.137   1.464   0.801 -1.1362 -1.9101  0.1766
 7456SOL     OW33826   0.741   3.941   7.097  0.5251 -0.0955 -0.1527
 7456SOL    HW133827   0.833   3.913   7.100  0.3085 -0.6441  1.3659
 7456SOL    HW233828   0.710   3.890   7.171  0.3702 -0.7753 -0.6831
 7457SOL     OW33829   2.937   2.550  12.073 -0.0009  0.0388 -0.3282
 7457SOL    HW133830   2.902   2.503  11.998 -0.0275 -1.0496  0.3681
 7457SOL    HW233831   2.895   2.496  12.141 -1.0176  1.2352  0.0071
 7458SOL     OW33832   0.281   2.086   5.819  0.2149 -0.7418 -0.3357
 7458SOL    HW133833   0.214   2.041   5.871  0.5634  0.0316  0.7770
 7458SOL    HW233834   0.258   2.176   5.841 -1.9600 -1.4711  0.3831
 7459SOL     OW33835   0.224   2.701   9.253  0.4236  0.0529 -0.2045
 7459SOL    HW133836   0.134   2.669   9.251 -0.3105  2.0500  1.3565
 7459SOL    HW233837   0.269   2.617   9.264 -0.0100 -0.0590  0.6623
 7460SOL     OW33838   1.411   4.600   2.449 -0.4172 -0.2462  0.4586
 7460SOL    HW133839   1.398   4.685   2.490  0.8220 -0.1386  0.6463
 7460SOL    HW233840   1.367   4.545   2.514  1.4468 -1.3197  0.8270
 7461SOL     OW33841   1.486   4.367   5.891  0.3210 -0.1652  0.2472
 7461SOL    HW133842   1.528   4.447   5.920 -2.8499  1.7213 -0.3675
 7461SOL    HW233843   1.399   4.397   5.863  0.5038  0.6904  0.6229
 7462SOL     OW33844   2.462   3.508  15.166 -0.1789 -0.0635 -0.3233
 7462SOL    HW133845   2.367   3.494  15.174  0.0850 -0.0173  2.8944
 7462SOL    HW233846   2.482   3.558  15.245  2.4866 -2.3763  0.4702
 7463SOL     OW33847   0.762   2.586  12.137  0.8188  0.1474  0.3802
 7463SOL    HW133848   0.777   2.545  12.052  2.3484  1.3657  0.0680
 7463SOL    HW233849   0.671   2.613  12.125  0.0870 -3.1622 -1.8376
 7464SOL     OW33850   1.520   3.287   2.562  0.3874 -0.4307 -0.2563
 7464SOL    HW133851   1.443   3.332   2.599  1.2047 -0.6346  1.6959
 7464SOL    HW233852   1.547   3.349   2.495  1.5680 -1.7376 -0.9996
 7465SOL     OW33853   1.871   1.511  15.300  0.1244 -0.1086  0.0301
 7465SOL    HW133854   1.853   1.539  15.390  0.5946  1.6428 -0.4086
 7465SOL    HW233855   1.943   1.452  15.321  1.2371  0.4627 -2.2334
 7466SOL     OW33856   1.383   1.650   3.120 -0.6686 -0.3222  0.5307
 7466SOL    HW133857   1.451   1.713   3.143  0.2096 -0.8992 -0.4799
 7466SOL    HW233858   1.436   1.600   3.057  1.4960  0.2316  1.9074
 7467SOL     OW33859   2.551   3.533   2.626  0.5362  0.1188 -0.3823
 7467SOL    HW133860   2.535   3.447   2.588  0.6559 -0.2922  0.5075
 7467SOL    HW233861   2.546   3.588   2.548  0.4269  1.2942  0.4514
 7468SOL     OW33862   0.025   2.537   3.452 -0.7969  0.5739  0.3420
 7468SOL    HW133863   4.715   2.474   3.517 -0.0844  0.0402  0.1802
 7468SOL    HW233864   4.701   2.615   3.481  0.7327  1.3496  0.7155
 7469SOL     OW33865   1.531   1.334   2.649  0.0006  0.2399 -0.1543
 7469SOL    HW133866   1.473   1.397   2.691 -1.2199 -0.5126 -0.7021
 7469SOL    HW233867   1.516   1.356   2.557  1.1674  3.9272  0.5068
 7470SOL     OW33868   1.843   0.165   5.483  0.4046 -0.2889 -0.0763
 7470SOL    HW133869   1.928   0.135   5.451  1.3508  1.9895  0.3420
 7470SOL    HW233870   1.817   0.083   5.525 -1.7716 -0.3689 -1.5658
 7471SOL     OW33871   2.851   0.640  17.184 -0.0076 -0.4215  0.2436
 7471SOL    HW133872   2.822   0.595  17.264 -3.3193 -1.2501 -1.4159
 7471SOL    HW233873   2.861   0.560  17.132  1.5211 -1.2312  1.7746
 7472SOL     OW33874   4.163   0.720   8.278  0.2525 -0.3437  0.3282
 7472SOL    HW133875   4.220   0.673   8.339  1.8830 -0.6921 -1.4603
 7472SOL    HW233876   4.209   0.717   8.194 -3.2699  2.6309 -1.6938
 7473SOL     OW33877   2.756   3.433   0.780 -0.3790 -0.1698  0.4003
 7473SOL    HW133878   2.742   3.367   0.713 -1.1362  1.8517 -1.4433
 7473SOL    HW233879   2.807   3.393   0.850 -0.3994 -0.2788  0.3534
 7474SOL     OW33880   3.957   3.971   4.111 -0.0326 -1.0046 -0.0252
 7474SOL    HW133881   3.955   4.037   4.180 -0.5460  0.6571 -1.6472
 7474SOL    HW233882   4.033   4.002   4.061  1.1394  0.9091  2.9286
 7475SOL     OW33883   0.778   4.410   2.605  0.1434 -0.2995 -0.8033
 7475SOL    HW133884   0.795   4.415   2.699  0.2379 -0.5471 -0.8059
 7475SOL    HW233885   0.774   4.314   2.601  0.1718 -0.4576  2.8061
 7476SOL     OW33886   4.503   0.005   7.146  0.2695 -0.5283  0.2555
 7476SOL    HW133887   4.457   4.643   7.145  0.2067 -0.4895 -0.3097
 7476SOL    HW233888   4.542   0.010   7.059  0.9064 -0.6726  0.5369
 7477SOL     OW33889   4.407   3.253  12.559  0.3052  0.5449 -0.2423
 7477SOL    HW133890   4.480   3.312  12.540  1.1339 -0.4080 -0.0095
 7477SOL    HW233891   4.344   3.283  12.494 -0.9113  1.0024  1.1656
 7478SOL     OW33892   3.637   3.978   1.070 -0.0659 -0.5040 -0.1043
 7478SOL    HW133893   3.581   4.043   1.028  0.2918 -0.6030 -0.7355
 7478SOL    HW233894   3.714   4.029   1.095 -1.3550  0.5838  1.6659
 7479SOL     OW33895   3.557   1.212   8.575  0.2137  0.0747 -0.1860
 7479SOL    HW133896   3.643   1.193   8.611 -0.4747 -0.4658  1.1966
 7479SOL    HW233897   3.535   1.134   8.524 -1.4847 -0.3176  1.1394
 7480SOL     OW33898   2.628   2.742   1.966 -0.5277 -0.5294  0.4268
 7480SOL    HW133899   2.699   2.692   1.926  0.8727  0.9901  0.9460
 7480SOL    HW233900   2.635   2.832   1.933  1.2764 -0.8432 -0.0880
 7481SOL     OW33901   2.160   1.712  14.587  0.0840  0.3177  0.1970
 7481SOL    HW133902   2.230   1.656  14.554 -0.0007  0.6511 -0.5565
 7481SOL    HW233903   2.104   1.656  14.641  1.5383 -0.3485  0.9856
 7482SOL     OW33904   3.088   3.054   3.973  0.0778  0.2118 -0.2835
 7482SOL    HW133905   3.139   3.133   3.990 -0.1357  0.0531  1.0920
 7482SOL    HW233906   3.154   3.019   3.912  0.8212  0.6324  0.2907
 7483SOL     OW33907   1.059   2.677   7.029  0.3370  0.3068 -0.2112
 7483SOL    HW133908   1.153   2.698   7.031  0.5116 -0.4697 -0.1751
 7483SOL    HW233909   1.053   2.591   6.988  0.5363 -0.1704  0.7460
 7484SOL     OW33910   3.119   3.945  12.699  0.0412  0.1553 -0.2890
 7484SOL    HW133911   3.048   3.978  12.754 -1.2593 -0.7501 -1.4203
 7484SOL    HW233912   3.071   3.897  12.632  1.1301 -2.0767  0.5240
 7485SOL     OW33913   2.750   4.019   9.045  0.5419 -0.2002 -0.6685
 7485SOL    HW133914   2.692   3.948   9.072  0.6810  0.2052  0.7064
 7485SOL    HW233915   2.687   4.082   9.008 -1.0445 -0.6028  1.3124
 7486SOL     OW33916   0.696   2.941   7.451 -0.0757  0.2666 -0.6156
 7486SOL    HW133917   0.758   2.888   7.401 -0.0976  1.5019 -1.9614
 7486SOL    HW233918   0.746   2.946   7.532 -0.7748 -2.0038 -0.0201
 7487SOL     OW33919   4.162   2.037  17.534 -0.3661  0.0042 -0.0223
 7487SOL    HW133920   4.166   2.101  17.463  0.9082  0.3338  0.3414
 7487SOL    HW233921   4.221   2.074  17.599 -1.5784 -0.2343  1.2005
 7488SOL     OW33922   3.479   3.628   3.091  0.5584 -0.3213  0.2964
 7488SOL    HW133923   3.423   3.586   3.027 -0.1524 -3.0884  2.7212
 7488SOL    HW233924   3.443   3.598   3.175 -0.6451 -0.6502 -0.3413
 7489SOL     OW33925   3.056   1.274   7.671 -0.5485 -0.2066 -0.0808
 7489SOL    HW133926   3.121   1.204   7.668 -2.0478 -1.6647  1.4691
 7489SOL    HW233927   3.082   1.324   7.593 -2.5509  0.4555 -0.3363
 7490SOL     OW33928   2.976   3.690   8.452 -0.1735  0.1143 -0.4334
 7490SOL    HW133929   3.038   3.686   8.379  1.1425 -0.9451  0.7454
 7490SOL    HW233930   3.038   3.699   8.525 -0.3789 -1.5314 -0.0551
 7491SOL     OW33931   0.458   4.240   1.559  0.5640 -0.1797 -0.0096
 7491SOL    HW133932   0.527   4.302   1.583  0.6494  0.1267 -1.0218
 7491SOL    HW233933   0.386   4.291   1.523 -0.0692 -1.7210 -0.9341
 7492SOL     OW33934   0.414   2.456   4.114 -0.2459  0.0776 -0.0118
 7492SOL    HW133935   0.468   2.381   4.141  0.6138  0.6869 -0.0195
 7492SOL    HW233936   0.456   2.490   4.035  0.8790  2.3305  1.5906
 7493SOL     OW33937   4.275   3.102   9.159  0.0928  0.1397 -0.5957
 7493SOL    HW133938   4.252   3.080   9.069  2.2104  0.3228 -1.1758
 7493SOL    HW233939   4.217   3.175   9.180  1.3443  1.2722 -1.0442
 7494SOL     OW33940   4.390   2.357   9.921 -0.5681  0.4570 -0.0911
 7494SOL    HW133941   4.356   2.440   9.954  1.5667  1.0723  0.5579
 7494SOL    HW233942   4.461   2.335   9.981 -0.4187  0.2853 -0.3320
 7495SOL     OW33943   2.333   0.097   2.437 -0.7946 -0.3271 -0.0251
 7495SOL    HW133944   2.292   0.018   2.401  0.0164 -1.3493  1.2867
 7495SOL    HW233945   2.418   0.076   2.398 -0.6298  2.2440 -1.0683
 7496SOL     OW33946   0.318   2.492   2.156  0.3795  0.3191  0.0554
 7496SOL    HW133947   0.387   2.550   2.124  0.9375 -1.4541 -1.9198
 7496SOL    HW233948   0.349   2.403   2.139 -0.1687  0.0593  0.4176
 7497SOL     OW33949   0.567   0.742   3.861  0.4987 -0.0401  0.4720
 7497SOL    HW133950   0.517   0.677   3.911 -1.0316 -0.2211 -1.3020
 7497SOL    HW233951   0.547   0.725   3.769  1.2901 -2.9056  0.8365
 7498SOL     OW33952   1.560   3.522   8.948 -1.2882  0.2133 -0.3464
 7498SOL    HW133953   1.489   3.584   8.930  0.7336  2.3652 -0.8389
 7498SOL    HW233954   1.528   3.478   9.027  2.4550 -0.3149  0.8631
 7499SOL     OW33955   2.527   4.321   4.471 -0.0714 -0.2236 -0.7512
 7499SOL    HW133956   2.567   4.359   4.550  1.9446  0.2659 -2.0043
 7499SOL    HW233957   2.468   4.391   4.443 -1.5896 -1.2128 -0.0064
 7500SOL     OW33958   0.895   4.138   3.499 -0.6098 -0.0237  0.0854
 7500SOL    HW133959   0.920   4.191   3.422  0.8455  0.6666  1.0290
 7500SOL    HW233960   0.919   4.053   3.463 -0.7114 -0.2159  0.4810
 7501SOL     OW33961   0.020   0.789   3.483  0.0961 -0.1273 -0.4628
 7501SOL    HW133962   0.013   0.830   3.396  0.7225 -0.1200 -0.5115
 7501SOL    HW233963   4.672   0.727   3.472  0.4617 -0.9652  1.9953
 7502SOL     OW33964   3.177   1.197   0.483 -0.2019 -0.1779  0.0929
 7502SOL    HW133965   3.186   1.138   0.408 -1.7502 -2.2007  1.5202
 7502SOL    HW233966   3.241   1.167   0.547  0.8470  0.7222 -0.5330
 7503SOL     OW33967   4.528   3.146   8.838  0.5054  0.3526  0.2010
 7503SOL    HW133968   4.510   3.130   8.746 -0.8226  3.4293 -0.0488
 7503SOL    HW233969   4.491   3.066   8.876 -0.8971  1.1157  0.4413
 7504SOL     OW33970   0.751   1.604   2.190 -0.0010 -0.1635 -0.3070
 7504SOL    HW133971   0.756   1.524   2.138 -2.9286 -1.5889  1.5872
 7504SOL    HW233972   0.753   1.660   2.113  1.0484  2.0170  1.3042
 7505SOL     OW33973   0.631   4.424   1.561 -0.0592  0.6321  0.4477
 7505SOL    HW133974   0.616   4.465   1.646  0.0836 -1.2133  1.3422
 7505SOL    HW233975   0.687   4.494   1.526 -0.9517  0.2649 -1.6872
 7506SOL     OW33976   2.153   3.049   2.602 -0.2768  0.3385 -0.5722
 7506SOL    HW133977   2.081   3.006   2.648 -1.1486  0.0955 -2.1487
 7506SOL    HW233978   2.223   3.051   2.667  1.3396 -1.1604 -2.2488
 7507SOL     OW33979   4.681   1.140  16.060 -0.2947  0.5509 -0.0546
 7507SOL    HW133980   4.662   1.051  16.032  0.0781  0.4799 -0.0789
 7507SOL    HW233981   4.594   1.176  16.077 -0.0569  1.6140 -1.1077
 7508SOL     OW33982   4.059   2.260   8.885 -0.0409 -0.1221 -0.2498
 7508SOL    HW133983   4.014   2.218   8.959 -1.3467  1.2219 -0.2724
 7508SOL    HW233984   4.041   2.195   8.817 -0.1540 -0.5808  0.2110
 7509SOL     OW33985   1.990   4.299   6.219 -0.0894  0.3186  0.0053
 7509SOL    HW133986   1.944   4.322   6.300 -0.1885  0.6260 -0.1361
 7509SOL    HW233987   2.041   4.375   6.191  0.8619  0.0744  1.0961
 7510SOL     OW33988   2.502   2.711   6.485  0.4014 -0.2090  0.6230
 7510SOL    HW133989   2.557   2.633   6.472  1.0131  0.7681 -2.6610
 7510SOL    HW233990   2.561   2.782   6.460  0.8969 -1.2421 -1.0900
 7511SOL     OW33991   0.959   4.105   1.206 -0.2463  0.3604  0.0686
 7511SOL    HW133992   1.035   4.163   1.198  0.7175 -1.0551 -1.1671
 7511SOL    HW233993   0.893   4.172   1.223  0.4548  0.9331  0.4882
 7512SOL     OW33994   0.847   3.076   5.424  0.0148  0.1930 -0.1006
 7512SOL    HW133995   0.915   3.053   5.487 -0.4300  1.5213  0.8623
 7512SOL    HW233996   0.808   2.989   5.418 -0.4759  0.3193  1.3198
 7513SOL     OW33997   1.002   3.705  11.011 -0.7671 -0.3789 -0.1888
 7513SOL    HW133998   0.942   3.779  11.018  0.0123  0.0641  1.9171
 7513SOL    HW233999   1.089   3.745  11.012 -1.3794  0.9486 -0.0653
 7514SOL     OW34000   4.559   4.484   7.500  0.1482 -0.2685  0.4495
 7514SOL    HW134001   4.603   4.548   7.443 -2.9981  1.2938 -0.2290
 7514SOL    HW234002   4.541   4.546   7.571 -1.9310 -0.5887  0.1859
 7515SOL     OW34003   4.222   3.254   7.638 -0.0666 -0.1865  0.7274
 7515SOL    HW134004   4.238   3.278   7.547 -0.8992 -0.1081  0.6067
 7515SOL    HW234005   4.276   3.177   7.653 -1.0387 -0.9036  0.5192
 7516SOL     OW34006   3.969   2.012   3.927  0.1954  0.4405 -0.8533
 7516SOL    HW134007   3.876   1.993   3.917  0.3333  0.2264 -1.7619
 7516SOL    HW234008   3.975   2.064   4.007 -2.1377 -0.4338 -0.1195
 7517SOL     OW34009   1.125   1.534   3.439  0.2694  0.1010  0.4139
 7517SOL    HW134010   1.214   1.545   3.406 -0.1035 -0.7450 -0.8786
 7517SOL    HW234011   1.135   1.538   3.534  0.3281  1.3091  0.3524
 7518SOL     OW34012   0.228   2.709  12.344  0.2236 -0.2111 -0.2083
 7518SOL    HW134013   0.320   2.718  12.322  0.1745 -1.7133 -1.0221
 7518SOL    HW234014   0.215   2.620  12.311  0.7434 -0.5379  0.4585
 7519SOL     OW34015   3.335   3.344   6.130  0.2821 -0.2754  0.3780
 7519SOL    HW134016   3.345   3.420   6.188  2.7519 -1.9942  2.2248
 7519SOL    HW234017   3.274   3.295   6.184 -0.2252  1.4596  1.3936
 7520SOL     OW34018   3.694   4.472   2.012 -0.2594 -0.2413  0.8165
 7520SOL    HW134019   3.766   4.524   1.974 -0.1899 -1.7296 -1.1092
 7520SOL    HW234020   3.622   4.528   1.983  0.2855 -0.6510 -1.3420
 7521SOL     OW34021   2.682   4.534   3.185 -0.2980 -0.5008 -0.3214
 7521SOL    HW134022   2.746   4.507   3.251  0.1885 -2.2979 -1.5222
 7521SOL    HW234023   2.706   4.491   3.102  1.1813  4.5256 -2.4938
 7522SOL     OW34024   3.063   1.114   5.095  0.5299 -0.1417 -0.0871
 7522SOL    HW134025   3.006   1.181   5.133  1.2734 -0.2459  1.1997
 7522SOL    HW234026   3.027   1.114   5.006 -0.2693  2.6712  0.2248
 7523SOL     OW34027   3.911   0.921  13.098  0.1616 -0.9548  0.5045
 7523SOL    HW134028   3.983   0.961  13.146  0.3432 -0.9052  0.1946
 7523SOL    HW234029   3.948   0.921  13.009 -0.8473  1.7454  0.1028
 7524SOL     OW34030   2.755   2.465   2.450 -0.1192  0.1368  0.1479
 7524SOL    HW134031   2.702   2.385   2.455  0.2328 -0.2589 -2.4768
 7524SOL    HW234032   2.827   2.430   2.398  0.3689  1.8888 -0.3486
 7525SOL     OW34033   3.411   1.611  10.398 -0.7542 -0.2344 -0.4497
 7525SOL    HW134034   3.360   1.692  10.392  0.6012  0.5646 -1.2337
 7525SOL    HW234035   3.494   1.651  10.424 -1.4078  0.8107  0.0388
 7526SOL     OW34036   4.389   0.665   6.251  0.3632 -0.2494 -0.3042
 7526SOL    HW134037   4.457   0.730   6.232 -0.9242  0.8884 -1.0654
 7526SOL    HW234038   4.343   0.719   6.315 -1.2474 -0.8283 -0.9695
 7527SOL     OW34039   2.788   4.568   2.590  0.0544 -0.1468  0.1682
 7527SOL    HW134040   2.740   4.490   2.564  1.4139 -0.7841 -0.4486
 7527SOL    HW234041   2.714   4.622   2.618 -0.6666  0.1814 -2.4310
 7528SOL     OW34042   2.824   2.010   7.445 -0.6598  0.6314 -0.3416
 7528SOL    HW134043   2.897   1.948   7.444 -0.9103  0.3107  1.1023
 7528SOL    HW234044   2.861   2.078   7.502 -1.1009  0.2046  0.4476
 7529SOL     OW34045   2.303   1.316   4.462  0.3836  0.2826  0.1335
 7529SOL    HW134046   2.311   1.412   4.465 -0.4773  0.3662 -0.1851
 7529SOL    HW234047   2.365   1.313   4.389  0.5614 -0.7535  0.3340
 7530SOL     OW34048   1.586   0.488   2.329  0.4432 -0.1665 -0.2390
 7530SOL    HW134049   1.677   0.513   2.343  0.0278  2.3883 -2.0703
 7530SOL    HW234050   1.564   0.513   2.239  3.4330  1.2927 -0.5563
 7531SOL     OW34051   1.184   3.635  13.614  0.2144  0.8308 -0.6958
 7531SOL    HW134052   1.254   3.581  13.653 -0.1393 -0.8863 -2.4431
 7531SOL    HW234053   1.130   3.564  13.580 -1.0972  1.0193  1.0210
 7532SOL     OW34054   0.138   0.957   6.742  0.2761 -0.4274  0.2979
 7532SOL    HW134055   0.111   1.038   6.786 -1.6389 -0.2458 -1.2362
 7532SOL    HW234056   0.233   0.957   6.729  0.4249 -0.6661  1.3470
 7533SOL     OW34057   1.399   3.467   7.509 -0.0341 -0.2669  0.4381
 7533SOL    HW134058   1.417   3.560   7.521  2.7207 -0.6450 -0.8430
 7533SOL    HW234059   1.309   3.455   7.539 -0.3664  0.5264 -0.2760
 7534SOL     OW34060   2.270   4.091   5.146 -0.2728 -0.7458  0.1892
 7534SOL    HW134061   2.262   4.022   5.081  1.7339  0.1477 -1.0098
 7534SOL    HW234062   2.227   4.054   5.223 -2.0886 -0.5688 -0.7293
 7535SOL     OW34063   0.020   3.102   3.389  0.4474 -0.2687 -0.6394
 7535SOL    HW134064   0.084   3.031   3.396  1.3712  0.5369 -0.8894
 7535SOL    HW234065   4.658   3.059   3.398 -1.3334  2.4444 -4.5415
 7536SOL     OW34066   1.699   2.273  14.561  0.3857  0.1783  0.0385
 7536SOL    HW134067   1.635   2.328  14.606  0.8216  1.2391 -0.6378
 7536SOL    HW234068   1.784   2.306  14.591 -0.8738  3.1213  0.3808
 7537SOL     OW34069   0.554   2.699   4.335  0.7282 -0.1519  0.0700
 7537SOL    HW134070   0.631   2.716   4.390  0.7640  1.8184 -0.5979
 7537SOL    HW234071   0.520   2.788   4.338  0.3969 -0.2847  0.2142
 7538SOL     OW34072   4.421   1.784   4.549 -0.1421 -0.0302  0.1458
 7538SOL    HW134073   4.450   1.834   4.473  0.1993 -0.7741 -0.2015
 7538SOL    HW234074   4.481   1.810   4.619  1.4024 -1.3779 -0.6948
 7539SOL     OW34075   4.580   3.207   4.178 -0.0348 -0.4561  0.4046
 7539SOL    HW134076   4.594   3.114   4.196 -1.2290 -0.2328  2.4680
 7539SOL    HW234077   4.650   3.236   4.235  0.0604  1.4623 -0.7125
 7540SOL     OW34078   2.989   2.777  16.965  0.0431 -0.2075  0.5097
 7540SOL    HW134079   2.971   2.689  16.930  0.0596 -0.4180  1.0250
 7540SOL    HW234080   3.073   2.763  17.008 -0.7675 -1.7924  1.5576
 7541SOL     OW34081   4.492   4.194   8.881 -0.0868 -0.2587 -0.6142
 7541SOL    HW134082   4.457   4.196   8.970 -3.4089 -1.2158 -1.8965
 7541SOL    HW234083   4.417   4.174   8.825 -1.9795  2.4883  0.9987
 7542SOL     OW34084   4.585   3.208   6.559 -0.0978 -0.1735  0.5269
 7542SOL    HW134085   4.646   3.244   6.624  2.9187  1.6143 -3.2676
 7542SOL    HW234086   4.613   3.252   6.479 -0.6392  1.8138  1.4323
 7543SOL     OW34087   1.789   3.594   2.628  0.1809  0.1999  0.1413
 7543SOL    HW134088   1.700   3.624   2.612  0.9898  1.2157 -2.4236
 7543SOL    HW234089   1.795   3.641   2.711 -0.8446 -0.0318  0.3443
 7544SOL     OW34090   4.498   1.055   4.694  0.4593 -0.5428 -0.2012
 7544SOL    HW134091   4.464   1.076   4.607  1.2598  0.3077 -0.3043
 7544SOL    HW234092   4.422   1.058   4.753  1.1026 -0.3368  0.6143
 7545SOL     OW34093   1.321   0.473   6.262 -0.4770 -0.2180 -0.2157
 7545SOL    HW134094   1.353   0.558   6.291  0.8801 -0.4925 -0.8986
 7545SOL    HW234095   1.276   0.501   6.182 -1.7789 -3.2866 -0.5707
 7546SOL     OW34096   1.953   3.942   3.036  0.0262  0.0818 -0.3434
 7546SOL    HW134097   1.903   4.022   3.051  1.1474  0.9203 -1.0415
 7546SOL    HW234098   1.970   3.921   3.128 -0.7486  0.8484 -0.0275
 7547SOL     OW34099   0.895   3.163   3.025  0.0316 -0.0825  0.8523
 7547SOL    HW134100   0.986   3.139   3.040  1.1164  2.5263 -1.6679
 7547SOL    HW234101   0.861   3.074   3.036  0.2764 -0.2219  0.4486
 7548SOL     OW34102   0.892   0.911   5.444  0.4188  0.2495 -0.2826
 7548SOL    HW134103   0.799   0.892   5.432  0.8375 -2.5507  0.8648
 7548SOL    HW234104   0.894   1.003   5.471  2.6107  0.8171 -2.4410
 7549SOL     OW34105   0.188   3.553   7.329 -0.1170  0.6205  0.0887
 7549SOL    HW134106   0.128   3.489   7.367  0.3840 -0.6622 -1.2409
 7549SOL    HW234107   0.171   3.631   7.380  0.2533  0.5071  0.3828
 7550SOL     OW34108   0.027   3.266   9.926  0.0685  0.0425  0.4035
 7550SOL    HW134109   0.107   3.308   9.893  0.5479 -1.3094 -0.1625
 7550SOL    HW234110   0.023   3.287  10.019  3.1391  1.5316  0.2116
 7551SOL     OW34111   0.611   0.659   5.391  0.0678 -0.0780  0.0132
 7551SOL    HW134112   0.639   0.737   5.438  3.9111  0.4825 -3.2344
 7551SOL    HW234113   0.578   0.611   5.467 -1.6690  2.3400  0.7580
 7552SOL     OW34114   3.992   1.634   8.388 -0.0858  0.0106 -0.0324
 7552SOL    HW134115   4.002   1.583   8.308  0.6532 -1.5373  1.0653
 7552SOL    HW234116   3.909   1.677   8.366 -0.2833 -0.5973 -0.4779
 7553SOL     OW34117   0.558   3.128   9.795  0.3990 -0.3973  0.1395
 7553SOL    HW134118   0.550   3.218   9.829  0.8158  0.4735 -2.0365
 7553SOL    HW234119   0.599   3.088   9.872  2.1975  1.5269  0.1956
 7554SOL     OW34120   2.549   3.612  11.210 -0.3370  0.0223 -0.3476
 7554SOL    HW134121   2.550   3.688  11.152 -1.6381 -0.3092 -0.8032
 7554SOL    HW234122   2.471   3.572  11.172 -0.9614 -0.3753  1.3200
 7555SOL     OW34123   3.292   3.693   0.302 -0.1036  0.1223  0.5850
 7555SOL    HW134124   3.224   3.725   0.243  0.1449  0.0365  0.2534
 7555SOL    HW234125   3.369   3.740   0.270  0.4997 -1.7775 -0.7668
 7556SOL     OW34126   0.566   3.860   5.670  0.0096 -0.0483  0.5980
 7556SOL    HW134127   0.531   3.895   5.752  0.2007  1.8766 -0.1568
 7556SOL    HW234128   0.512   3.906   5.606  1.7329 -1.3310 -1.7714
 7557SOL     OW34129   0.856   3.931   5.593 -0.2265 -0.0980  0.0532
 7557SOL    HW134130   0.881   4.019   5.563  1.2730 -1.5180 -2.8313
 7557SOL    HW234131   0.763   3.920   5.573 -0.1485 -1.3987  0.3958
 7558SOL     OW34132   0.134   2.451  12.242 -0.0457  0.7474  0.2972
 7558SOL    HW134133   0.053   2.495  12.217  0.6562  1.1713 -1.2105
 7558SOL    HW234134   0.158   2.401  12.164  1.3990 -0.6378  1.6062
 7559SOL     OW34135   3.666   0.819   5.977  0.4041 -0.7653 -0.4707
 7559SOL    HW134136   3.655   0.830   5.882  1.8861  0.6026 -0.4760
 7559SOL    HW234137   3.757   0.789   5.979 -0.3255 -2.7997  1.3569
 7560SOL     OW34138   3.488   3.882   3.852 -0.2430 -0.0432  0.4993
 7560SOL    HW134139   3.582   3.868   3.860 -0.5980 -2.8958 -0.1131
 7560SOL    HW234140   3.465   3.792   3.829 -0.6195  0.2258 -0.1709
 7561SOL     OW34141   1.146   3.154   0.964  0.1405  0.1576  0.8615
 7561SOL    HW134142   1.158   3.125   0.874 -2.8024  1.4091  0.0788
 7561SOL    HW234143   1.133   3.249   0.959 -3.4212 -0.2721  2.6496
 7562SOL     OW34144   2.091   1.979  16.027  0.6128  0.3613  0.2325
 7562SOL    HW134145   2.008   2.028  16.028  0.6603  0.4248  1.5326
 7562SOL    HW234146   2.071   1.888  16.005 -0.8598  0.3841  1.4418
 7563SOL     OW34147   2.625   1.235   6.375  0.0593 -0.3438  0.1255
 7563SOL    HW134148   2.564   1.272   6.439  1.5988 -1.1376  2.0867
 7563SOL    HW234149   2.687   1.189   6.431  0.7426 -1.9483 -1.9370
 7564SOL     OW34150   4.399   3.383   4.839 -0.3369 -0.0807  0.8087
 7564SOL    HW134151   4.434   3.391   4.928 -0.1809  0.5267  0.6926
 7564SOL    HW234152   4.342   3.460   4.827  0.7401  0.4908 -0.6597
 7565SOL     OW34153   2.929   2.679   4.641  0.1085  0.4501 -0.4828
 7565SOL    HW134154   2.912   2.731   4.719 -2.1406 -1.2619  0.1589
 7565SOL    HW234155   2.874   2.718   4.573 -1.5565 -1.4381 -0.2278
 7566SOL     OW34156   0.409   1.287   3.098  0.6433 -0.7570  0.2758
 7566SOL    HW134157   0.435   1.366   3.146 -0.4669  0.9593 -1.8930
 7566SOL    HW234158   0.418   1.318   3.007  0.0992  1.7746  1.0746
 7567SOL     OW34159   3.472   1.022   0.986  0.4462 -0.1220 -0.1903
 7567SOL    HW134160   3.442   0.945   1.034  0.6172 -0.5381 -0.7522
 7567SOL    HW234161   3.411   1.019   0.913  3.8436 -1.6425 -2.9846
 7568SOL     OW34162   4.665   1.204   3.687  0.0806 -0.6249 -0.3702
 7568SOL    HW134163   4.607   1.147   3.636 -2.9367  0.6227  1.7158
 7568SOL    HW234164   0.010   1.228   3.623  0.2740  0.9514  0.4235
 7569SOL     OW34165   2.220   3.506   4.268 -0.1584 -0.6355 -0.2694
 7569SOL    HW134166   2.285   3.570   4.239 -0.1098  0.5667  2.4906
 7569SOL    HW234167   2.143   3.562   4.276  1.0832  0.5086  3.3654
 7570SOL     OW34168   2.466   1.555   3.861  0.2779  0.2360 -0.2197
 7570SOL    HW134169   2.385   1.505   3.856  0.5602  0.1686 -3.8609
 7570SOL    HW234170   2.522   1.494   3.812 -1.2332 -1.1700 -0.1869
 7571SOL     OW34171   3.547   3.153   5.215  0.1126 -0.1972  0.6039
 7571SOL    HW134172   3.461   3.194   5.223  0.7241  1.2910 -0.5499
 7571SOL    HW234173   3.585   3.204   5.144 -1.3220  0.2694  0.1721
 7572SOL     OW34174   3.016   0.842  15.427 -0.8869  0.4088  0.2983
 7572SOL    HW134175   3.010   0.801  15.514  0.5956  0.0533  0.2400
 7572SOL    HW234176   3.060   0.923  15.453 -1.7146  0.0388  2.8826
 7573SOL     OW34177   3.033   0.400   1.575 -0.1624  0.2029  0.1439
 7573SOL    HW134178   3.048   0.408   1.481  1.6583 -2.3092  0.2390
 7573SOL    HW234179   3.066   0.311   1.582 -2.5313 -0.7691 -1.2396
 7574SOL     OW34180   4.016   4.420   4.421  0.0816  0.2021  0.5022
 7574SOL    HW134181   3.977   4.507   4.414  1.6322  0.6585 -2.4616
 7574SOL    HW234182   3.983   4.380   4.502  1.0371  0.8053  1.1862
 7575SOL     OW34183   3.669   4.624   2.456  0.2178  0.1155  0.1727
 7575SOL    HW134184   3.746   4.618   2.512  0.4320 -1.5496 -0.2875
 7575SOL    HW234185   3.602   4.593   2.517 -0.4460  0.8180 -0.2057
 7576SOL     OW34186   3.553   3.113   7.193 -0.9183 -0.3449 -0.7447
 7576SOL    HW134187   3.526   3.145   7.279 -1.1094  0.1598 -0.9972
 7576SOL    HW234188   3.642   3.147   7.190 -0.7888 -0.4363  1.4783
 7577SOL     OW34189   2.250   3.204   0.085  0.3271 -0.1554 -0.3272
 7577SOL    HW134190   2.225   3.261   0.012 -3.9341 -0.3289  0.9948
 7577SOL    HW234191   2.168   3.158   0.103 -0.7845  1.7199 -0.5482
 7578SOL     OW34192   2.455   3.814  11.990  0.3758 -0.0368 -0.2208
 7578SOL    HW134193   2.456   3.776  11.902  0.0711 -1.7689  0.5353
 7578SOL    HW234194   2.548   3.837  11.988  0.6862 -1.2485  0.0805
 7579SOL     OW34195   0.637   1.910   1.084  0.0205  0.0817  0.0912
 7579SOL    HW134196   0.579   1.986   1.081 -0.1356 -0.1311 -2.1965
 7579SOL    HW234197   0.719   1.952   1.059 -0.8455  1.9001  0.2892
 7580SOL     OW34198   3.054   2.860  11.809 -0.3122 -0.0509 -0.4138
 7580SOL    HW134199   3.005   2.903  11.879 -1.3519 -0.9574 -0.5833
 7580SOL    HW234200   3.104   2.927  11.763  0.5974  1.7120  3.1037
 7581SOL     OW34201   0.353   0.950   4.531  0.3126 -0.0506  0.4464
 7581SOL    HW134202   0.270   0.946   4.484 -0.7824 -0.9410  2.4865
 7581SOL    HW234203   0.392   1.032   4.500 -0.9899  0.4898  0.2502
 7582SOL     OW34204   0.996   0.873   4.399  0.6148 -0.1926  0.0101
 7582SOL    HW134205   0.945   0.817   4.341  1.4255  0.2857 -1.1653
 7582SOL    HW234206   1.011   0.952   4.348  0.7951 -0.6459 -0.6426
 7583SOL     OW34207   3.409   2.849  17.591  0.0497 -0.7768  0.1180
 7583SOL    HW134208   3.375   2.937  17.575  0.7822 -0.1582  1.9119
 7583SOL    HW234209   3.502   2.863  17.576 -0.1974  1.3565  0.4995
 7584SOL     OW34210   0.443   1.208   8.410 -0.0610  0.2746 -0.4398
 7584SOL    HW134211   0.373   1.260   8.449  0.6540 -0.0494  1.2842
 7584SOL    HW234212   0.511   1.237   8.470  1.8416  0.4674 -2.6753
 7585SOL     OW34213   3.045   1.848   2.618 -0.3128 -0.6906 -0.2433
 7585SOL    HW134214   3.089   1.849   2.533  0.2222 -0.3157  0.0456
 7585SOL    HW234215   3.115   1.807   2.668 -1.9080  0.0194  2.5648
 7586SOL     OW34216   0.787   3.870  12.340  0.0099  0.4614 -0.0166
 7586SOL    HW134217   0.727   3.938  12.309 -0.7444  0.7491  2.0995
 7586SOL    HW234218   0.778   3.872  12.435 -0.9586 -0.6308 -0.0912
 7587SOL     OW34219   3.598   0.102   5.105 -0.1915 -0.0141  0.1078
 7587SOL    HW134220   3.685   0.142   5.106  0.0600 -0.6131  2.7460
 7587SOL    HW234221   3.547   0.180   5.126 -0.0869  0.0454  0.1403
 7588SOL     OW34222   1.038   2.518   1.596  0.3513  0.6873 -0.0603
 7588SOL    HW134223   1.097   2.553   1.662  1.0144 -0.7866  0.1374
 7588SOL    HW234224   0.960   2.501   1.649  1.0834 -0.8530  0.5234
 7589SOL     OW34225   1.803   2.536   3.167  0.3280 -0.7059 -0.7174
 7589SOL    HW134226   1.886   2.583   3.175 -0.8411  1.5705 -1.9542
 7589SOL    HW234227   1.759   2.577   3.093 -0.2897  0.2679  0.1821
 7590SOL     OW34228   2.995   1.526   5.877 -0.4057  0.0327  0.3281
 7590SOL    HW134229   2.950   1.572   5.947 -0.6163  3.1336 -1.8829
 7590SOL    HW234230   2.972   1.436   5.900  0.6021 -0.1427  0.6924
 7591SOL     OW34231   0.379   2.558   6.615 -0.0445 -0.3284 -0.4589
 7591SOL    HW134232   0.473   2.557   6.596  0.3300 -1.1701  1.4382
 7591SOL    HW234233   0.400   2.530   6.704  1.3892 -0.8678 -0.9480
 7592SOL     OW34234   0.262   0.239   2.907 -0.4751 -0.0993  0.0424
 7592SOL    HW134235   0.196   0.217   2.972  0.0468 -0.2006  0.5413
 7592SOL    HW234236   0.210   0.309   2.868  1.2158  2.1896  1.9118
 7593SOL     OW34237   2.880   3.151  13.599 -0.4499 -0.8043 -0.1120
 7593SOL    HW134238   2.792   3.139  13.566 -0.6493  0.9504 -0.2162
 7593SOL    HW234239   2.860   3.172  13.690 -0.2362  0.1311 -0.2810
 7594SOL     OW34240   2.064   4.579  14.473  0.9439  0.7898  0.8778
 7594SOL    HW134241   2.080   4.487  14.492  0.8462  0.1096 -2.3430
 7594SOL    HW234242   2.078   4.587  14.379  0.2677 -2.2900  0.5112
 7595SOL     OW34243   3.990   3.250   6.769  0.5815  0.3887 -0.4572
 7595SOL    HW134244   4.022   3.339   6.753 -0.3108  0.8014  0.0920
 7595SOL    HW234245   3.896   3.265   6.773  0.2108 -1.0952 -3.8307
 7596SOL     OW34246   2.747   1.860  12.839 -0.2627 -0.2779 -0.0181
 7596SOL    HW134247   2.684   1.793  12.866 -0.0136 -1.3735 -2.1492
 7596SOL    HW234248   2.801   1.866  12.918  0.8616  1.9741 -0.9641
 7597SOL     OW34249   0.198   4.654   0.832  0.2912 -0.1073 -0.1839
 7597SOL    HW134250   0.167   4.682   0.746 -1.2903 -0.8528  0.1377
 7597SOL    HW234251   0.227   4.567   0.808  0.6095 -0.3217  0.9708
 7598SOL     OW34252   1.587   0.050   6.473 -0.5926 -0.4370 -0.0149
 7598SOL    HW134253   1.616   0.129   6.427  2.0930 -2.1150 -1.2169
 7598SOL    HW234254   1.500   0.079   6.500 -1.0042 -1.2671 -0.4628
 7599SOL     OW34255   0.686   2.933  16.991 -0.2234 -0.2915 -0.2779
 7599SOL    HW134256   0.709   2.846  17.023 -1.8706 -0.0225  1.6498
 7599SOL    HW234257   0.730   2.919  16.907  0.3495  0.7507 -0.1570
 7600SOL     OW34258   0.270   2.350   5.860 -0.2590  0.2434  0.1446
 7600SOL    HW134259   0.188   2.394   5.840  0.5665  2.0968  0.8027
 7600SOL    HW234260   0.307   2.410   5.925 -1.3639  0.1210  0.8761
 7601SOL     OW34261   1.020   3.093  12.748  0.1499  0.0370  0.9848
 7601SOL    HW134262   1.049   3.019  12.695 -0.6856  2.6735 -3.2535
 7601SOL    HW234263   0.926   3.094  12.730  0.2077 -0.5142  0.6730
 7602SOL     OW34264   3.642   2.340  13.253 -0.2336  0.2268 -0.2501
 7602SOL    HW134265   3.570   2.372  13.306 -1.9023 -2.1963 -1.0622
 7602SOL    HW234266   3.696   2.417  13.234  0.0431  0.4695  1.5404
 7603SOL     OW34267   4.306   0.800   9.770  0.4065 -0.1563 -0.1030
 7603SOL    HW134268   4.226   0.750   9.752  1.8790 -1.2201 -3.6065
 7603SOL    HW234269   4.277   0.882   9.732 -0.5631  0.0710  1.1133
 7604SOL     OW34270   0.727   3.669   8.658 -0.8575 -0.7463 -0.5175
 7604SOL    HW134271   0.673   3.591   8.664 -3.1465  0.7953 -0.9274
 7604SOL    HW234272   0.796   3.633   8.603 -0.5646  1.6682 -1.7433
 7605SOL     OW34273   1.918   3.761   3.772  0.0901 -0.3497  0.1642
 7605SOL    HW134274   1.928   3.837   3.829 -0.2342 -1.5142  1.7847
 7605SOL    HW234275   2.004   3.748   3.731 -1.1052 -0.4401 -2.2982
 7606SOL     OW34276   0.822   2.751   1.656  0.0009  0.3916  0.2953
 7606SOL    HW134277   0.828   2.656   1.667 -3.0149  0.2011  0.1073
 7606SOL    HW234278   0.830   2.788   1.744  0.8972  0.9092 -0.0051
 7607SOL     OW34279   2.389   2.927  16.196 -0.2685  0.1206  0.0431
 7607SOL    HW134280   2.453   2.856  16.186  0.9436  1.0563  1.1257
 7607SOL    HW234281   2.431   2.978  16.266  0.6645 -0.6675  0.0609
 7608SOL     OW34282   0.431   2.602   3.226  0.6076  0.0222  0.1716
 7608SOL    HW134283   0.369   2.611   3.298 -0.0108 -0.0877 -0.3472
 7608SOL    HW234284   0.397   2.522   3.188 -1.5024  1.7667 -1.6519
 7609SOL     OW34285   1.396   1.503   3.376 -0.3803  0.4533  0.2414
 7609SOL    HW134286   1.375   1.569   3.310  0.0533 -0.3964 -0.7602
 7609SOL    HW234287   1.486   1.525   3.402  0.5124 -0.5439 -2.0265
 7610SOL     OW34288   0.101   0.555   7.420 -0.6991 -0.1866  0.1014
 7610SOL    HW134289   0.089   0.504   7.500 -1.7941 -0.6170 -0.3360
 7610SOL    HW234290   0.132   0.488   7.359  1.2678  0.4761  0.3583
 7611SOL     OW34291   1.811   3.898   5.376  0.5983  0.1519  0.0333
 7611SOL    HW134292   1.906   3.905   5.373  0.5846  1.3701  2.8514
 7611SOL    HW234293   1.785   3.984   5.409  1.8758  0.2114  0.8636
 7612SOL     OW34294   1.923   2.844   4.247  0.0887  0.1040  0.0180
 7612SOL    HW134295   1.909   2.925   4.296 -0.7193 -0.3902  0.6250
 7612SOL    HW234296   1.982   2.796   4.306 -0.3576  0.4296  0.7371
 7613SOL     OW34297   2.565   2.300   4.132  1.0956 -0.0211 -0.1302
 7613SOL    HW134298   2.656   2.325   4.115  0.9868  0.2338 -0.3516
 7613SOL    HW234299   2.560   2.229   4.067  0.1019  0.3428 -0.4452
 7614SOL     OW34300   0.481   2.526   6.896 -0.1707  0.2291 -0.3177
 7614SOL    HW134301   0.546   2.459   6.914  0.5384  0.9745 -0.0962
 7614SOL    HW234302   0.406   2.509   6.953 -1.2700 -1.6407 -2.3431
 7615SOL     OW34303   2.565   3.126   3.652 -0.1712 -0.4321 -0.3857
 7615SOL    HW134304   2.510   3.048   3.650  0.0713 -0.7149  4.4402
 7615SOL    HW234305   2.503   3.197   3.637  0.6739  0.0104 -1.8458
 7616SOL     OW34306   1.013   0.088  17.355 -0.1026 -0.1593  0.1359
 7616SOL    HW134307   0.926   0.062  17.387  0.8554 -2.7281  0.5807
 7616SOL    HW234308   1.072   0.062  17.426 -0.3605 -1.2526 -0.0515
 7617SOL     OW34309   0.154   2.068  13.504 -0.6940 -0.8441 -0.7205
 7617SOL    HW134310   0.102   2.018  13.566 -1.1230 -1.2538 -1.4201
 7617SOL    HW234311   0.102   2.148  13.512 -1.0211 -1.0074 -1.2342
 7618SOL     OW34312   3.094   0.978   6.307 -0.8210 -0.1812 -0.8097
 7618SOL    HW134313   3.125   1.065   6.331  1.4393 -1.4040  0.6731
 7618SOL    HW234314   3.138   0.969   6.223 -2.7841 -0.0188 -1.8707
 7619SOL     OW34315   2.158   0.839   3.662 -0.0655 -0.2870 -0.3610
 7619SOL    HW134316   2.191   0.749   3.662 -0.4168 -0.4158 -0.0682
 7619SOL    HW234317   2.138   0.835   3.756 -0.1722  2.4236 -0.2803
 7620SOL     OW34318   2.999   2.626   3.666 -0.1104 -0.5717  0.2322
 7620SOL    HW134319   2.941   2.667   3.602  0.9551  0.6169  0.0242
 7620SOL    HW234320   3.084   2.661   3.639 -0.6753 -0.6006 -1.6039
 7621SOL     OW34321   1.475   4.283   7.107  0.1846 -0.4124  0.2614
 7621SOL    HW134322   1.540   4.224   7.068  1.4302  0.4810  0.9696
 7621SOL    HW234323   1.415   4.295   7.033 -0.6027 -1.3591  0.7437
 7622SOL     OW34324   2.303   4.547   9.726  0.6359 -0.5776 -0.0267
 7622SOL    HW134325   2.348   4.626   9.756 -0.7248 -0.8743  2.8056
 7622SOL    HW234326   2.223   4.558   9.778 -0.9710  0.3061 -2.6879
 7623SOL     OW34327   3.134   3.305   5.299 -0.0271 -0.1005  0.1139
 7623SOL    HW134328   3.177   3.387   5.276  1.4173  0.0958  3.6632
 7623SOL    HW234329   3.111   3.320   5.391  0.1226 -1.8476  0.4385
 7624SOL     OW34330   2.476   2.681   6.981 -0.5813  0.1967  0.0134
 7624SOL    HW134331   2.555   2.731   6.960 -1.7419  1.4923 -1.3068
 7624SOL    HW234332   2.504   2.589   6.982  1.5475  0.8726  0.5714
 7625SOL     OW34333   1.542   1.317  16.839 -0.4512 -0.0976 -0.1961
 7625SOL    HW134334   1.528   1.297  16.932  0.7658 -1.6710 -0.3459
 7625SOL    HW234335   1.612   1.382  16.849 -0.4567 -0.3540  1.5422
 7626SOL     OW34336   2.729   0.691   2.795  0.3281 -0.2422 -0.0034
 7626SOL    HW134337   2.658   0.754   2.791  1.2528  0.8859  1.4147
 7626SOL    HW234338   2.699   0.623   2.734 -0.9422  2.0525 -1.9608
 7627SOL     OW34339   1.147   1.918   6.118  0.3172  0.2369  0.2198
 7627SOL    HW134340   1.056   1.932   6.090  0.7628 -2.7195 -2.7804
 7627SOL    HW234341   1.183   1.994   6.072 -1.6502  1.0837  0.0658
 7628SOL     OW34342   3.150   0.606  13.270 -0.1404 -0.2692 -0.1949
 7628SOL    HW134343   3.147   0.689  13.318 -0.5888 -0.4416  0.0769
 7628SOL    HW234344   3.099   0.547  13.327 -0.3283 -0.8439 -0.9605
 7629SOL     OW34345   4.286   1.842   1.711  0.3522  0.2660  0.0644
 7629SOL    HW134346   4.341   1.808   1.781 -1.6389  1.8971  2.4065
 7629SOL    HW234347   4.349   1.902   1.673 -0.2477  1.7591  1.4643
 7630SOL     OW34348   0.458   4.031   3.628  0.6890  0.2976  0.2979
 7630SOL    HW134349   0.366   4.019   3.649  0.5350 -0.4491 -0.8341
 7630SOL    HW234350   0.468   4.126   3.638  2.0874  0.2711 -0.8324
 7631SOL     OW34351   4.071   3.337  14.016 -0.3538 -0.1285  0.5389
 7631SOL    HW134352   4.065   3.331  14.111 -0.3244 -0.3846  0.5266
 7631SOL    HW234353   4.138   3.403  13.997 -0.8840 -0.5730 -2.9402
 7632SOL     OW34354   0.678   1.312   6.712  0.2838 -0.0978  0.6863
 7632SOL    HW134355   0.767   1.313   6.745  0.3836 -1.8920  0.4830
 7632SOL    HW234356   0.643   1.235   6.757  0.6927  0.0880  1.3170
 7633SOL     OW34357   4.439   1.147   6.298 -0.3805 -0.0063  0.3552
 7633SOL    HW134358   4.355   1.103   6.312 -1.2011  1.5650  0.3879
 7633SOL    HW234359   4.478   1.153   6.385 -1.6241  3.2822  0.6651
 7634SOL     OW34360   1.560   3.417   6.544  0.2265 -0.0915  0.3951
 7634SOL    HW134361   1.633   3.355   6.547  1.2531  1.1130  0.3077
 7634SOL    HW234362   1.485   3.375   6.503 -0.3539 -0.8054  2.2051
 7635SOL     OW34363   0.962   2.854   3.428  0.1542 -0.0908  0.0955
 7635SOL    HW134364   0.996   2.797   3.497 -0.2621  0.8508  1.0805
 7635SOL    HW234365   0.976   2.789   3.359  0.7022  0.3562 -0.2178
 7636SOL     OW34366   2.090   1.686   6.987 -0.0307  0.0572  0.5472
 7636SOL    HW134367   2.039   1.763   7.011 -0.5144 -0.8642  2.4733
 7636SOL    HW234368   2.175   1.730   6.980 -0.8631  1.5505 -0.0856
 7637SOL     OW34369   1.738   3.019   0.454 -0.2010  0.1511  0.5442
 7637SOL    HW134370   1.812   2.960   0.472  0.2512  0.4841 -0.2095
 7637SOL    HW234371   1.707   3.040   0.542 -1.9193  0.0337 -0.0459
 7638SOL     OW34372   3.046   1.028  10.780 -0.0104  0.0952  0.5668
 7638SOL    HW134373   3.010   1.054  10.695 -0.2923 -3.2133 -0.3184
 7638SOL    HW234374   3.111   0.963  10.753 -0.0088 -0.9345  3.0545
 7639SOL     OW34375   0.578   4.386   4.463 -0.9370  0.2276  0.0037
 7639SOL    HW134376   0.642   4.316   4.458 -0.1878  0.7406  2.4822
 7639SOL    HW234377   0.546   4.371   4.552 -1.0884  1.9649  0.2570
 7640SOL     OW34378   4.647   3.999   0.123 -0.0576  0.7971 -0.5339
 7640SOL    HW134379   4.649   4.087   0.087  1.1878  1.5214  1.3470
 7640SOL    HW234380   0.006   3.999   0.172 -0.5909  0.0819  0.3593
 7641SOL     OW34381   3.579   1.921  11.668 -0.3091 -0.3534  0.1035
 7641SOL    HW134382   3.516   1.977  11.622  1.0236  1.4613  0.5022
 7641SOL    HW234383   3.625   1.901  11.586  1.2484  0.8223  0.7114
 7642SOL     OW34384   4.283   3.744  16.370 -0.3050 -0.1089 -0.7939
 7642SOL    HW134385   4.360   3.801  16.374 -0.0808 -0.6838  3.2251
 7642SOL    HW234386   4.285   3.730  16.465  3.1812  0.8996 -0.7224
 7643SOL     OW34387   4.036   3.358   2.555 -0.6833  0.1277 -0.4532
 7643SOL    HW134388   3.949   3.325   2.530 -0.8820  1.0912 -1.0190
 7643SOL    HW234389   4.081   3.286   2.600 -0.5451  0.5023  0.0081
 7644SOL     OW34390   4.265   0.560  15.549 -0.3111 -0.4705 -0.1363
 7644SOL    HW134391   4.262   0.617  15.472  2.3273  1.1735  0.9955
 7644SOL    HW234392   4.208   0.487  15.524  0.0953 -1.6217  2.3556
 7645SOL     OW34393   4.345   2.912   3.982  0.4777 -0.3588 -0.1408
 7645SOL    HW134394   4.353   2.844   4.050  0.3806  1.8485  2.0841
 7645SOL    HW234395   4.252   2.933   3.986  0.2035 -1.4604 -0.7619
 7646SOL     OW34396   3.851   2.000   8.459 -0.0843 -0.7410  0.3470
 7646SOL    HW134397   3.821   1.955   8.380 -0.7061  0.0382  0.1326
 7646SOL    HW234398   3.770   2.052   8.466 -0.8668 -2.0467  0.9472
 7647SOL     OW34399   0.522   3.559  16.115  0.7759 -0.1700 -0.1805
 7647SOL    HW134400   0.465   3.531  16.044  0.2886 -0.0741  0.1779
 7647SOL    HW234401   0.588   3.616  16.076  0.3513  0.4799  0.0536
 7648SOL     OW34402   1.694   1.496   9.142 -0.3576  0.0735  0.1243
 7648SOL    HW134403   1.738   1.573   9.178 -0.5239 -0.3610  1.2509
 7648SOL    HW234404   1.647   1.533   9.067 -0.5236  1.7070  1.0470
 7649SOL     OW34405   3.529   0.206  17.471  0.0880  0.4770  0.5183
 7649SOL    HW134406   3.475   0.194  17.393  0.7428 -0.8704  0.2693
 7649SOL    HW234407   3.618   0.221  17.440 -0.0549 -2.0479 -1.0593
 7650SOL     OW34408   1.193   2.673  10.997  0.2931 -0.1743  0.1387
 7650SOL    HW134409   1.277   2.628  11.006 -0.8180 -1.9498  1.4601
 7650SOL    HW234410   1.222   2.753  10.953  0.5845  0.8046  2.0627
 7651SOL     OW34411   0.867   3.074   1.820  0.2623 -0.5148  0.0208
 7651SOL    HW134412   0.864   2.980   1.841  0.4910 -0.3181  0.9379
 7651SOL    HW234413   0.953   3.095   1.783 -0.5027 -0.7001 -1.8787
 7652SOL     OW34414   0.060   1.067  12.337 -0.3468 -0.6549  0.2339
 7652SOL    HW134415   4.692   1.095  12.354  0.8945  2.3941  1.8408
 7652SOL    HW234416   0.098   1.049  12.423 -0.2414  0.2041  0.3718
 7653SOL     OW34417   2.568   0.062   4.156  0.4044 -0.4656 -0.0874
 7653SOL    HW134418   2.575   0.154   4.182 -2.2422 -1.0164  2.6529
 7653SOL    HW234419   2.616   0.026   4.231  1.4292  3.1073  0.9660
 7654SOL     OW34420   4.086   1.414   8.225  0.2485 -0.1727  0.2648
 7654SOL    HW134421   4.045   1.363   8.295 -2.5122 -1.0960 -2.0323
 7654SOL    HW234422   4.042   1.378   8.148 -1.9629  2.6938  0.1667
 7655SOL     OW34423   2.308   2.007  15.907 -0.4998  0.0633 -0.1910
 7655SOL    HW134424   2.272   2.031  15.821 -0.0368  1.9330  0.1438
 7655SOL    HW234425   2.224   1.982  15.945  0.1104 -2.4059 -0.4391
 7656SOL     OW34426   2.591   3.152   8.317 -0.2582 -0.3404 -0.1190
 7656SOL    HW134427   2.528   3.083   8.298 -1.3555  0.3268  1.0986
 7656SOL    HW234428   2.656   3.144   8.246 -0.6561 -1.1365 -0.3895
 7657SOL     OW34429   0.859   2.858   7.034  0.0596  0.6817 -0.0235
 7657SOL    HW134430   0.925   2.789   7.025  1.6825  2.4124 -1.4787
 7657SOL    HW234431   0.886   2.897   7.117  1.0020 -0.2101  0.0935
 7658SOL     OW34432   2.301   0.081  12.610  0.6018  0.6003 -0.2331
 7658SOL    HW134433   2.333   0.027  12.683  0.6920  0.5613 -0.3017
 7658SOL    HW234434   2.385   0.109  12.572  0.7047  0.0947 -0.3849
 7659SOL     OW34435   4.299   4.131   4.289  0.2030  0.1459 -0.8828
 7659SOL    HW134436   4.206   4.135   4.308  0.5699 -2.6895  1.5101
 7659SOL    HW234437   4.304   4.039   4.262  2.1175 -0.1792  0.5563
 7660SOL     OW34438   4.696   0.802   5.745  0.0465 -0.6363  0.3379
 7660SOL    HW134439   4.686   0.713   5.710  3.8627 -0.7964 -0.3198
 7660SOL    HW234440   4.702   0.863   5.672  0.7974  0.3958  1.2607
 7661SOL     OW34441   4.684   0.409   7.188  0.2569 -0.0498  0.3602
 7661SOL    HW134442   4.678   0.360   7.106 -1.0460  2.2824 -0.9629
 7661SOL    HW234443   0.027   0.362   7.240  1.8790  2.3692  0.4940
 7662SOL     OW34444   0.509   0.914   0.615  0.4810  0.0794 -0.0873
 7662SOL    HW134445   0.470   0.980   0.672 -0.5342  0.0911 -0.8088
 7662SOL    HW234446   0.565   0.862   0.673 -1.1727 -0.2874  1.1621
 7663SOL     OW34447   2.347   0.555  15.105 -0.0331 -0.1864 -0.2395
 7663SOL    HW134448   2.407   0.495  15.062 -0.0105 -0.2254 -0.1535
 7663SOL    HW234449   2.270   0.501  15.123 -0.1274 -0.4023 -1.3164
 7664SOL     OW34450   2.025   0.702   7.966  1.3129 -0.0695 -0.6059
 7664SOL    HW134451   2.088   0.770   7.989 -0.5214  0.7627  1.9826
 7664SOL    HW234452   2.070   0.676   7.885  0.3695  0.7795 -1.4059
 7665SOL     OW34453   1.607   4.644  11.335  0.1786  0.0928  0.0620
 7665SOL    HW134454   1.658   4.609  11.262 -1.3669  0.0295 -0.9943
 7665SOL    HW234455   1.572   4.715  11.281  0.7592  2.5294  2.8834
 7666SOL     OW34456   0.670   2.072   5.256  0.5026 -0.4700  0.1452
 7666SOL    HW134457   0.734   2.140   5.233  1.1068 -1.1097 -0.0514
 7666SOL    HW234458   0.620   2.112   5.328 -0.0963 -3.1730  1.2232
 7667SOL     OW34459   0.249   0.476   7.095  0.4946  0.0762 -0.2763
 7667SOL    HW134460   0.219   0.432   7.174  0.7636  0.4558  0.0390
 7667SOL    HW234461   0.256   0.566   7.127  0.7692  0.5077 -1.5220
 7668SOL     OW34462   0.491   0.063  11.357 -0.2838  0.4529  0.2405
 7668SOL    HW134463   0.446   4.709  11.322 -0.9408  0.9283  0.0508
 7668SOL    HW234464   0.560   0.029  11.413 -0.1176  0.5986  0.1255
 7669SOL     OW34465   1.848   0.139   8.984 -0.0174 -0.7533  0.4571
 7669SOL    HW134466   1.808   0.219   9.016 -1.6900 -0.7881 -1.5700
 7669SOL    HW234467   1.874   0.097   9.067 -0.9547  0.0638  1.1588
 7670SOL     OW34468   3.445   0.705   2.597  0.3156  0.1614  0.8676
 7670SOL    HW134469   3.472   0.694   2.688  0.1894 -3.7846  0.4078
 7670SOL    HW234470   3.511   0.648   2.558  0.9181  1.6405 -0.2866
 7671SOL     OW34471   4.464   3.100  15.066  0.2370 -0.4357 -0.0592
 7671SOL    HW134472   4.426   3.182  15.036 -1.2456 -0.5962  1.3618
 7671SOL    HW234473   4.512   3.084  14.985  0.8672 -0.7005  0.3677
 7672SOL     OW34474   3.857   1.056   5.336  0.1870  0.6704 -0.1883
 7672SOL    HW134475   3.819   1.036   5.251 -1.4803 -1.1030  0.9757
 7672SOL    HW234476   3.837   1.149   5.350 -1.8961  0.1371  0.3450
 7673SOL     OW34477   1.354   3.246  10.505  0.0472 -0.4356 -0.4661
 7673SOL    HW134478   1.419   3.224  10.438 -0.1048  2.7764 -1.6731
 7673SOL    HW234479   1.379   3.337  10.520  2.4808 -0.8875 -1.7811
 7674SOL     OW34480   3.358   4.677   2.844 -0.0453 -0.5598  0.0045
 7674SOL    HW134481   3.288   4.627   2.802  0.1844 -1.7160  1.0051
 7674SOL    HW234482   3.432   4.621   2.822  1.0439  1.1354 -0.6822
 7675SOL     OW34483   0.835   1.689  12.772  0.1415 -0.4760  0.1142
 7675SOL    HW134484   0.773   1.702  12.845 -0.5579 -0.5668 -0.4607
 7675SOL    HW234485   0.906   1.642  12.814 -0.9832 -1.9986  0.3003
 7676SOL     OW34486   1.572   2.901   7.092 -0.3601  0.0380 -0.3763
 7676SOL    HW134487   1.628   2.869   7.162  0.6502  0.6108 -0.9197
 7676SOL    HW234488   1.629   2.905   7.015  1.3259 -1.3410  0.8122
 7677SOL     OW34489   4.297   3.940   7.773  0.1566  0.3093  0.5373
 7677SOL    HW134490   4.240   3.875   7.732  0.1421  0.2871  0.5930
 7677SOL    HW234491   4.297   4.021   7.721 -0.0167 -0.9981 -1.4738
 7678SOL     OW34492   2.336   0.475   5.999  0.4266  0.1674 -0.4584
 7678SOL    HW134493   2.265   0.537   6.019  0.1064  0.0584 -1.2788
 7678SOL    HW234494   2.287   0.406   5.953  0.3625  0.4799 -0.8552
 7679SOL     OW34495   2.312   1.941  14.648  0.1379  0.1239  0.3791
 7679SOL    HW134496   2.280   1.854  14.623 -0.4734  0.1199  1.1475
 7679SOL    HW234497   2.351   1.964  14.564 -1.5145  0.0944 -0.3880
 7680SOL     OW34498   0.803   2.419   4.772  0.0799 -0.4499  0.3915
 7680SOL    HW134499   0.788   2.329   4.741 -0.3541 -0.9123  1.9380
 7680SOL    HW234500   0.712   2.448   4.776  0.5466  1.0957 -0.2330
 7681SOL     OW34501   2.952   4.119  16.770  0.3205  0.1411  0.7212
 7681SOL    HW134502   2.880   4.141  16.830 -0.2136  0.7653 -0.1474
 7681SOL    HW234503   3.006   4.198  16.775 -1.0127  1.2024 -1.6625
 7682SOL     OW34504   3.536   0.072  11.541 -0.0971 -0.3348 -0.8422
 7682SOL    HW134505   3.612   0.114  11.580 -0.4880  0.2604 -0.7373
 7682SOL    HW234506   3.545   0.084  11.447 -2.6470 -1.1912 -1.2135
 7683SOL     OW34507   1.570   0.206   3.748  0.2677  0.8052 -0.1061
 7683SOL    HW134508   1.580   0.226   3.655  0.1096  0.0585 -0.2872
 7683SOL    HW234509   1.609   0.119   3.746 -1.1057  0.2079 -0.9145
 7684SOL     OW34510   2.772   1.760  11.518 -0.2835 -0.5804 -0.3945
 7684SOL    HW134511   2.816   1.704  11.582  1.6932  0.0594 -1.1680
 7684SOL    HW234512   2.852   1.805  11.488 -0.2025 -0.3353  0.1937
 7685SOL     OW34513   4.437   1.464  11.428  0.3257  0.8596  0.1451
 7685SOL    HW134514   4.449   1.474  11.334 -0.2867 -0.7381 -0.1125
 7685SOL    HW234515   4.518   1.421  11.456 -0.8777 -3.6572 -3.3074
 7686SOL     OW34516   0.992   1.045  12.409  0.1932 -0.2762  0.3450
 7686SOL    HW134517   0.961   0.970  12.460  0.2088  0.6243  1.6834
 7686SOL    HW234518   0.986   1.108  12.480  0.9634  0.6264 -0.3911
 7687SOL     OW34519   2.677   4.220  16.768  0.0244  0.3784 -0.3103
 7687SOL    HW134520   2.754   4.245  16.717  0.0275  0.8042 -0.0977
 7687SOL    HW234521   2.650   4.150  16.709  1.4746 -1.2612  0.9810
 7688SOL     OW34522   0.575   3.711   1.633 -0.6575  0.0808  0.6669
 7688SOL    HW134523   0.616   3.694   1.549  1.1552  1.8914  1.1771
 7688SOL    HW234524   0.555   3.805   1.628  1.5529  0.5971  1.4383
 7689SOL     OW34525   0.787   2.431  12.344  0.2234  0.2320  0.2074
 7689SOL    HW134526   0.810   2.498  12.278 -0.9635  0.9295  0.5064
 7689SOL    HW234527   0.836   2.460  12.421  2.0989 -0.7039 -0.6451
 7690SOL     OW34528   4.281   2.158   3.237 -0.5094  0.2505 -0.0717
 7690SOL    HW134529   4.343   2.141   3.308 -0.1635  0.9212 -0.2108
 7690SOL    HW234530   4.337   2.149   3.160  1.0752  0.6138  1.0367
 7691SOL     OW34531   3.465   1.626   7.590 -0.0480  0.0486 -0.4281
 7691SOL    HW134532   3.411   1.547   7.597 -1.1730  0.7556 -1.0806
 7691SOL    HW234533   3.466   1.648   7.683 -0.6608 -0.8948 -0.2014
 7692SOL     OW34534   2.329   0.792   9.084 -0.0672 -0.0328 -0.6831
 7692SOL    HW134535   2.335   0.812   9.178 -0.3641 -2.4492 -0.1575
 7692SOL    HW234536   2.245   0.832   9.060  0.1698  0.9185  0.0478
 7693SOL     OW34537   1.164   2.920   8.146  0.1118  0.2027  0.3727
 7693SOL    HW134538   1.176   2.887   8.235  0.0405 -0.0670  0.2829
 7693SOL    HW234539   1.254   2.939   8.120  0.3566 -1.1485  0.2621
 7694SOL     OW34540   2.314   4.396  17.002 -0.4793 -0.1861  0.1191
 7694SOL    HW134541   2.249   4.449  16.956 -2.5477 -3.2226 -0.4824
 7694SOL    HW234542   2.261   4.355  17.070  0.1686  1.3771  1.5450
 7695SOL     OW34543   2.810   0.033  13.202  0.0278 -0.7260 -0.2371
 7695SOL    HW134544   2.763   4.720  13.126 -1.1141  2.2605 -0.9142
 7695SOL    HW234545   2.851   4.675  13.234 -1.3400 -0.3082  2.5948
 7696SOL     OW34546   1.903   0.818   0.334  0.0351 -0.3083  0.3066
 7696SOL    HW134547   1.838   0.851   0.271 -0.5382 -1.6493  0.1837
 7696SOL    HW234548   1.981   0.819   0.279  0.1286 -0.3093  0.4405
 7697SOL     OW34549   2.369   1.881   0.627  0.4586 -0.2058 -0.8022
 7697SOL    HW134550   2.309   1.814   0.661 -0.2426  1.2195  0.7473
 7697SOL    HW234551   2.418   1.915   0.702  0.1149 -0.2466 -0.5607
 7698SOL     OW34552   4.015   1.145   0.024 -0.6342 -0.3422 -0.2017
 7698SOL    HW134553   4.086   1.082   0.014 -1.4719 -1.6539  2.0242
 7698SOL    HW234554   3.949   1.097   0.075  0.2788 -0.0571  1.2391
 7699SOL     OW34555   0.498   1.298   6.170 -0.5482  0.3666 -0.1382
 7699SOL    HW134556   0.550   1.357   6.225  0.8936 -0.2728 -0.8045
 7699SOL    HW234557   0.540   1.304   6.084 -1.1199  1.2990 -0.3580
 7700SOL     OW34558   0.233   3.543   4.685  0.4475  0.0193 -0.0951
 7700SOL    HW134559   0.267   3.534   4.774  0.3480  1.5866  0.0951
 7700SOL    HW234560   0.139   3.540   4.698  0.3840  2.6791  0.0009
 7701SOL     OW34561   0.620   0.411   6.322 -0.2886  0.4224 -0.3273
 7701SOL    HW134562   0.617   0.507   6.315 -0.8113  0.2994 -1.7167
 7701SOL    HW234563   0.591   0.384   6.409 -1.2751  0.8511 -0.5274
 7702SOL     OW34564   2.568   2.827  14.495 -0.1896 -0.0146 -0.0697
 7702SOL    HW134565   2.476   2.808  14.475 -0.0038  0.5023 -1.3839
 7702SOL    HW234566   2.593   2.870  14.414 -1.2017 -0.6366 -0.7203
 7703SOL     OW34567   1.898   2.507  15.481 -0.4704  0.2911 -0.3682
 7703SOL    HW134568   1.819   2.492  15.532 -0.9564 -0.1841 -1.2746
 7703SOL    HW234569   1.934   2.589  15.516 -0.1286 -0.4229  0.9554
 7704SOL     OW34570   4.522   1.738  10.933  0.5913 -0.3579  0.4811
 7704SOL    HW134571   4.552   1.829  10.923 -1.0013  0.0361 -0.7443
 7704SOL    HW234572   4.503   1.752  11.026 -1.0875 -0.5165  0.1545
 7705SOL     OW34573   3.788   4.066   7.669  0.2071 -0.4957 -0.1471
 7705SOL    HW134574   3.861   4.038   7.613 -1.5294 -0.5087 -2.3920
 7705SOL    HW234575   3.800   4.160   7.676  0.4211 -0.5524  0.2671
 7706SOL     OW34576   0.190   4.000   7.213 -0.0070 -0.4847 -0.3138
 7706SOL    HW134577   0.273   4.046   7.210  0.5530 -1.4880 -0.0398
 7706SOL    HW234578   0.177   3.999   7.308 -0.0709 -0.8869 -0.3255
 7707SOL     OW34579   3.427   2.091  12.135 -0.5743 -0.3150 -0.2155
 7707SOL    HW134580   3.334   2.076  12.118 -0.1674 -1.0046 -1.8918
 7707SOL    HW234581   3.464   2.003  12.137  0.8527  0.2312 -1.9689
 7708SOL     OW34582   0.013   1.811  14.185 -0.3959 -0.0891 -0.6269
 7708SOL    HW134583   0.028   1.861  14.265 -2.8069  0.9137 -0.7902
 7708SOL    HW234584   4.659   1.862  14.160  0.6415  1.6579 -0.2187
 7709SOL     OW34585   3.676   0.825   6.410 -0.4683 -0.0912  0.2817
 7709SOL    HW134586   3.695   0.736   6.440 -1.2993 -0.5107 -0.4548
 7709SOL    HW234587   3.640   0.860   6.492  1.3706  0.8804  0.6832
 7710SOL     OW34588   2.070   2.700   8.669 -0.3034 -0.4269 -0.0089
 7710SOL    HW134589   2.003   2.633   8.656 -2.1360  1.1117  1.5240
 7710SOL    HW234590   2.089   2.714   8.576  0.2369  0.5773  0.2615
 7711SOL     OW34591   1.732   4.257   1.871  0.4207 -0.2414 -0.3882
 7711SOL    HW134592   1.643   4.263   1.908  1.4502 -0.9295  2.2038
 7711SOL    HW234593   1.702   4.206   1.796  0.9088  0.0186 -0.7521
 7712SOL     OW34594   1.068   3.696   9.199  0.5194  0.0801  0.2226
 7712SOL    HW134595   0.985   3.649   9.207  0.9121 -0.4765  1.0268
 7712SOL    HW234596   1.115   3.652   9.129  0.2818  0.2425 -0.0405
 7713SOL     OW34597   0.778   1.499  13.969  0.2984 -0.2019 -0.3387
 7713SOL    HW134598   0.683   1.492  13.958  0.1007 -0.0984  1.3682
 7713SOL    HW234599   0.797   1.405  13.959  0.0967 -0.4162  1.2696
 7714SOL     OW34600   3.166   2.100   6.383  0.2959 -0.7459  0.2535
 7714SOL    HW134601   3.101   2.072   6.447 -1.8049  1.1659 -1.0304
 7714SOL    HW234602   3.213   2.160   6.442  1.7392 -0.9192 -0.7030
 7715SOL     OW34603   3.707   2.391   2.361 -0.1437  0.5328  0.4133
 7715SOL    HW134604   3.757   2.453   2.307  0.9174 -0.1834  0.5702
 7715SOL    HW234605   3.778   2.372   2.422 -0.5392 -1.2153  0.3456
 7716SOL     OW34606   0.645   1.805   1.665 -0.4242 -0.2226 -0.0983
 7716SOL    HW134607   0.619   1.897   1.675  0.8246  0.1040  0.1199
 7716SOL    HW234608   0.665   1.814   1.572  0.6582 -1.8954 -0.0181
 7717SOL     OW34609   3.994   3.486  13.229  0.1368  0.1871 -0.3604
 7717SOL    HW134610   4.023   3.425  13.296  1.1821  2.3310  1.1402
 7717SOL    HW234611   4.067   3.487  13.167 -0.2539  1.6808 -0.8097
 7718SOL     OW34612   1.014   1.498  10.163  0.3369 -0.2542 -0.2644
 7718SOL    HW134613   1.028   1.506  10.258  0.8161  0.6877 -0.4148
 7718SOL    HW234614   0.991   1.587  10.139  0.0263 -0.5905 -1.2179
 7719SOL     OW34615   1.948   0.533   3.808  0.2134 -0.1348 -0.4796
 7719SOL    HW134616   2.039   0.550   3.784  0.2593  0.6164  0.2376
 7719SOL    HW234617   1.956   0.451   3.855 -2.6849 -0.4464 -0.5581
 7720SOL     OW34618   2.440   3.343   6.114 -0.2902  0.0159 -0.1383
 7720SOL    HW134619   2.476   3.262   6.077 -1.3148 -0.1474 -0.7813
 7720SOL    HW234620   2.354   3.346   6.073  0.7050  1.7939 -2.0741
 7721SOL     OW34621   2.595   3.896  13.059  0.4305  0.2870 -0.2287
 7721SOL    HW134622   2.663   3.952  13.095 -0.0776  0.3800  0.5760
 7721SOL    HW234623   2.520   3.946  13.092  1.2831  1.0462  0.5816
 7722SOL     OW34624   0.879   4.474   7.424  0.3596 -0.1902  0.2945
 7722SOL    HW134625   0.895   4.531   7.499  0.2838  0.6762 -0.3520
 7722SOL    HW234626   0.828   4.401   7.461 -2.3340  2.8544  2.5426
 7723SOL     OW34627   1.184   0.175   8.639 -0.8023  0.1731 -0.6022
 7723SOL    HW134628   1.167   0.159   8.546  1.9116 -1.0492 -0.8617
 7723SOL    HW234629   1.205   0.087   8.670  4.7781  1.1300 -1.7589
 7724SOL     OW34630   2.913   0.643  10.378 -0.4192  0.6034  0.0019
 7724SOL    HW134631   2.974   0.693  10.324  0.6040 -0.4328  0.2098
 7724SOL    HW234632   2.901   0.566  10.322 -2.0248 -0.1304  1.3712
 7725SOL     OW34633   0.807   4.610  17.098  0.5229 -0.5179 -0.8835
 7725SOL    HW134634   0.783   4.702  17.094  3.3526  0.2517  0.2029
 7725SOL    HW234635   0.718   4.578  17.082  0.5559 -0.0217 -2.0311
 7726SOL     OW34636   1.770   4.185   1.031 -0.1723 -0.1475  0.3006
 7726SOL    HW134637   1.720   4.264   1.053  0.8903  0.5509  0.2434
 7726SOL    HW234638   1.760   4.140   1.114 -1.0823  2.7332  1.7418
 7727SOL     OW34639   1.508   2.215   1.259  0.0841 -0.2081  0.0223
 7727SOL    HW134640   1.427   2.259   1.285  0.3557  0.7105 -0.6568
 7727SOL    HW234641   1.550   2.214   1.344 -2.5915 -0.9770  1.3351
 7728SOL     OW34642   3.282   1.307   8.378  0.4145 -0.5146 -0.2115
 7728SOL    HW134643   3.216   1.252   8.420  0.3664  0.4191  0.9149
 7728SOL    HW234644   3.309   1.252   8.304 -0.3209  1.2780 -1.7871
 7729SOL     OW34645   1.218   0.969   1.670 -0.1198  0.2054  0.4555
 7729SOL    HW134646   1.205   1.060   1.695  0.9871  1.1333 -2.2805
 7729SOL    HW234647   1.250   0.946   1.757  1.3829  0.9969  0.1107
 7730SOL     OW34648   2.542   0.315   5.777 -0.0041 -0.6885 -0.5045
 7730SOL    HW134649   2.484   0.277   5.711 -1.4338 -1.5272  1.2133
 7730SOL    HW234650   2.505   0.397   5.809 -0.1979 -0.3690 -1.5647
 7731SOL     OW34651   2.913   2.715  16.198 -0.0962 -0.0344  0.5824
 7731SOL    HW134652   2.941   2.652  16.131  2.5425  1.6607  0.1078
 7731SOL    HW234653   2.837   2.751  16.152 -0.0492  0.5147  0.9423
 7732SOL     OW34654   0.525   4.703   5.985  0.3163 -0.5443 -0.5528
 7732SOL    HW134655   0.435   4.671   5.988  0.5861 -1.4363 -1.8084
 7732SOL    HW234656   0.513   0.064   6.029  0.8024 -0.3515 -0.7713
 7733SOL     OW34657   4.058   2.385   4.980 -0.2595 -0.4286 -0.3466
 7733SOL    HW134658   4.131   2.367   5.039 -0.7864 -1.7781 -0.1009
 7733SOL    HW234659   3.994   2.416   5.044 -0.4152 -0.9812 -0.2349
 7734SOL     OW34660   0.922   3.951   8.418 -0.5292  0.3359  0.1548
 7734SOL    HW134661   0.834   3.925   8.447 -0.4517  0.1003  0.1802
 7734SOL    HW234662   0.976   3.941   8.497 -0.8105  0.9544  0.4203
 7735SOL     OW34663   4.034   0.376  17.008 -0.5055  0.1554 -0.4742
 7735SOL    HW134664   4.012   0.408  16.921  1.8876 -0.5315 -1.3433
 7735SOL    HW234665   4.082   0.455  17.034 -1.6420  0.9215 -0.7169
 7736SOL     OW34666   3.203   1.377   5.710  0.3699 -0.4741 -0.1945
 7736SOL    HW134667   3.155   1.429   5.774 -1.0399 -1.6802 -0.2927
 7736SOL    HW234668   3.140   1.359   5.641 -1.6108  0.2389  1.4451
 7737SOL     OW34669   2.575   4.421   9.935 -0.2446  0.8134 -0.1975
 7737SOL    HW134670   2.494   4.378   9.907 -0.5620  1.1311  0.2360
 7737SOL    HW234671   2.548   4.478  10.007 -1.1362  0.2309 -0.0737
 7738SOL     OW34672   0.068   3.326   3.716 -0.6357  0.5386  0.3866
 7738SOL    HW134673   0.095   3.259   3.778 -0.1156 -1.4580 -2.0024
 7738SOL    HW234674   4.717   3.364   3.764  0.3161  0.3738  1.9614
 7739SOL     OW34675   4.319   3.327   5.248  0.5739  0.1872  0.0127
 7739SOL    HW134676   4.241   3.370   5.213 -0.1103 -1.2084 -0.1640
 7739SOL    HW234677   4.299   3.233   5.255  0.5748  0.3291  1.8677
 7740SOL     OW34678   3.390   1.655  16.279 -0.2245 -0.0089  0.2031
 7740SOL    HW134679   3.470   1.701  16.253  0.3151 -1.0550 -0.0098
 7740SOL    HW234680   3.340   1.737  16.278  1.2580  0.9261  2.4318
 7741SOL     OW34681   0.849   1.849   4.962  0.3624 -0.1605  0.1418
 7741SOL    HW134682   0.773   1.826   5.015  0.8450  1.9503  1.7580
 7741SOL    HW234683   0.881   1.775   4.910  1.2514  1.5369 -1.7575
 7742SOL     OW34684   3.621   1.434   5.135  0.0042 -0.4598 -0.1211
 7742SOL    HW134685   3.699   1.395   5.176 -1.1790 -0.5194  2.0745
 7742SOL    HW234686   3.652   1.433   5.045  0.3672 -0.1462  0.0012
 7743SOL     OW34687   3.678   3.500   6.083 -0.1633 -0.1722  0.6725
 7743SOL    HW134688   3.766   3.524   6.113 -0.0230 -1.3390  1.1912
 7743SOL    HW234689   3.660   3.562   6.013 -0.6901  1.4099  2.2053
 7744SOL     OW34690   4.541   1.599   7.262  0.1625  0.1312 -0.1857
 7744SOL    HW134691   4.499   1.597   7.348  1.0721 -0.2303  0.2584
 7744SOL    HW234692   4.623   1.562   7.296  0.5876 -1.1921 -2.6945
 7745SOL     OW34693   1.468   0.779   8.557 -0.3180 -0.3017 -0.0411
 7745SOL    HW134694   1.537   0.802   8.496 -0.4590  1.9485  0.6508
 7745SOL    HW234695   1.454   0.856   8.613  0.8565 -0.0211 -0.1280
 7746SOL     OW34696   1.475   2.116   9.375 -0.1955  0.1652 -0.4826
 7746SOL    HW134697   1.429   2.165   9.443  0.9183  1.1765 -0.4580
 7746SOL    HW234698   1.402   2.063   9.343 -1.1363  1.4805 -0.5077
 7747SOL     OW34699   3.647   2.934   9.818 -0.7896  0.6223 -0.0834
 7747SOL    HW134700   3.715   2.888   9.866  1.7455  1.8765 -2.4941
 7747SOL    HW234701   3.589   2.931   9.894 -0.5284 -1.6656  0.0252
 7748SOL     OW34702   3.345   3.728   4.318 -0.2458 -0.6823 -0.2488
 7748SOL    HW134703   3.320   3.817   4.291 -0.0003 -0.1603  1.2729
 7748SOL    HW234704   3.398   3.697   4.244  0.9512  1.7597 -0.4446
 7749SOL     OW34705   1.051   2.036  17.353 -0.0422  0.3719  0.0525
 7749SOL    HW134706   1.061   2.041  17.448  2.9983  1.9340 -0.3606
 7749SOL    HW234707   1.111   1.967  17.326  0.4857  0.7966  0.1639
 7750SOL     OW34708   0.465   2.043   9.342  0.4545  0.4148 -0.1765
 7750SOL    HW134709   0.415   2.096   9.404 -0.6003 -2.0501  1.0268
 7750SOL    HW234710   0.495   2.123   9.297 -0.5092  2.6734  3.2186
 7751SOL     OW34711   1.646   4.637   8.641  0.5028  0.2476  0.1427
 7751SOL    HW134712   1.658   4.618   8.734  3.6629  0.7786 -0.1372
 7751SOL    HW234713   1.697   4.718   8.648  2.0720 -0.6376 -1.0761
 7752SOL     OW34714   3.941   0.885   5.618  0.3496  0.4420 -0.2739
 7752SOL    HW134715   3.916   0.929   5.537 -2.2405 -1.4105 -0.4747
 7752SOL    HW234716   4.036   0.870   5.614  0.0505 -0.9385 -2.0587
 7753SOL     OW34717   3.837   1.640  17.472  0.3308  0.0643 -0.7316
 7753SOL    HW134718   3.903   1.703  17.444  0.5509 -0.2362 -0.8936
 7753SOL    HW234719   3.841   1.644  17.568 -2.7751 -0.9853 -0.5403
 7754SOL     OW34720   3.020   0.056   0.899  0.7573  0.0021 -0.2469
 7754SOL    HW134721   2.928   0.034   0.915  0.7487  0.9220  1.0156
 7754SOL    HW234722   3.043   0.113   0.972  0.8372 -0.6305  0.2273
 7755SOL     OW34723   3.718   1.899   9.078 -0.1190  0.0140  0.3100
 7755SOL    HW134724   3.667   1.855   9.145 -0.4796  1.0228  0.6968
 7755SOL    HW234725   3.694   1.991   9.072 -0.9525 -0.1826  0.7199
 7756SOL     OW34726   0.235   1.801   2.772 -0.0986 -0.1125  0.8209
 7756SOL    HW134727   0.322   1.831   2.800 -0.1991 -0.6334  1.7151
 7756SOL    HW234728   0.249   1.707   2.758  0.4996 -0.0939  1.2738
 7757SOL     OW34729   3.167   4.601  15.061  0.0005 -0.1024  0.0637
 7757SOL    HW134730   3.098   4.548  15.102  1.4835 -0.6817  1.7802
 7757SOL    HW234731   3.221   4.621  15.137  3.9624 -2.7288 -2.1066
 7758SOL     OW34732   3.955   2.223  13.706 -0.3414  0.0773 -0.3955
 7758SOL    HW134733   3.891   2.208  13.636 -0.9451 -0.2046  0.2134
 7758SOL    HW234734   3.947   2.317  13.721  0.8848  0.3233 -1.3280
 7759SOL     OW34735   4.039   2.774   8.196  0.0822 -0.1934  0.9466
 7759SOL    HW134736   4.037   2.684   8.226 -2.0416 -0.0685  1.1369
 7759SOL    HW234737   4.085   2.818   8.267 -0.3377  1.8560 -0.0188
 7760SOL     OW34738   1.769   1.715   3.772  0.4804  0.4207 -0.1604
 7760SOL    HW134739   1.864   1.706   3.764  0.1481 -4.0009  1.0465
 7760SOL    HW234740   1.741   1.635   3.727 -1.2040  0.7113  0.3616
 7761SOL     OW34741   3.786   3.755   1.365  0.1867  0.3561  0.0704
 7761SOL    HW134742   3.879   3.775   1.356  0.1275  0.7065  0.2262
 7761SOL    HW234743   3.767   3.815   1.437 -1.4082 -1.9003  1.4967
 7762SOL     OW34744   4.641   1.659   6.185  0.3218  0.5780  0.0554
 7762SOL    HW134745   4.587   1.738   6.188  1.5821  1.4327  0.0952
 7762SOL    HW234746   4.578   1.611   6.130 -0.7122  0.7170  1.1276
 7763SOL     OW34747   1.864   4.304   2.222 -0.1256  0.0671  0.9459
 7763SOL    HW134748   1.909   4.275   2.143 -0.4681 -2.3157  1.6239
 7763SOL    HW234749   1.833   4.390   2.195  1.6994  0.6858  0.7588
 7764SOL     OW34750   3.586   1.531   6.789 -0.3045  0.3442 -0.2633
 7764SOL    HW134751   3.645   1.583   6.734  1.8110 -0.0106  1.6529
 7764SOL    HW234752   3.528   1.515   6.715  0.5214 -1.4740 -0.5012
 7765SOL     OW34753   2.663   4.556  11.124 -0.6585  0.4503 -0.7183
 7765SOL    HW134754   2.724   4.625  11.099 -0.7847  0.5889 -0.6455
 7765SOL    HW234755   2.696   4.488  11.065  0.1111 -0.7538  1.1054
 7766SOL     OW34756   0.664   2.926  14.045  0.3844 -0.4556  0.1908
 7766SOL    HW134757   0.715   3.003  14.017  0.0908 -1.4121 -2.9182
 7766SOL    HW234758   0.705   2.857  13.993  1.5224  0.1706  0.2358
 7767SOL     OW34759   3.417   0.953  14.154  0.5369  0.6346 -0.3349
 7767SOL    HW134760   3.421   1.029  14.211  0.1521  1.7389 -1.7800
 7767SOL    HW234761   3.505   0.922  14.175  0.2560  1.0905  1.5367
 7768SOL     OW34762   3.608   2.039   7.395  0.1176  0.2482  0.5797
 7768SOL    HW134763   3.654   2.057   7.477  0.5539 -2.9026  1.0182
 7768SOL    HW234764   3.589   1.945   7.397 -1.1401  0.5078  0.8554
 7769SOL     OW34765   1.265   0.526   4.434 -0.4007  0.1873 -0.1755
 7769SOL    HW134766   1.266   0.591   4.504  0.5260 -1.3303  1.2375
 7769SOL    HW234767   1.212   0.453   4.467  0.1673 -0.2302 -0.1802
 7770SOL     OW34768   0.401   0.531  12.221  0.1722  0.0164  0.2570
 7770SOL    HW134769   0.429   0.445  12.252  0.9254  0.0307 -0.3776
 7770SOL    HW234770   0.393   0.580  12.303 -1.2056  0.7950 -0.3278
 7771SOL     OW34771   3.660   3.264   4.608 -0.0447  0.4229  0.0848
 7771SOL    HW134772   3.720   3.284   4.537 -0.0743 -0.1636 -0.1008
 7771SOL    HW234773   3.597   3.206   4.565 -1.5816  2.0304  0.1838
 7772SOL     OW34774   0.070   2.164   9.911 -0.2562  0.0047 -0.1538
 7772SOL    HW134775   0.056   2.102   9.839  2.0750 -1.3475  0.5541
 7772SOL    HW234776   4.712   2.157   9.961  1.2304 -0.4869  2.1760
 7773SOL     OW34777   3.145   4.365   7.459 -0.0823 -0.1572  0.0762
 7773SOL    HW134778   3.214   4.299   7.467 -0.6683 -0.8600 -0.5544
 7773SOL    HW234779   3.191   4.430   7.407 -0.7526  1.6545  1.7671
 7774SOL     OW34780   4.643   1.220   8.771 -0.2699 -0.0456 -0.1137
 7774SOL    HW134781   4.657   1.226   8.677 -0.2122 -1.9368 -0.2355
 7774SOL    HW234782   0.008   1.193   8.798  0.3025  0.9548 -1.0069
 7775SOL     OW34783   2.410   1.003   6.064 -0.1992 -0.1737  0.2710
 7775SOL    HW134784   2.434   1.094   6.078 -1.3688  0.3300 -0.9752
 7775SOL    HW234785   2.379   0.989   6.154 -1.2149  0.6378  0.0475
 7776SOL     OW34786   1.517   0.351   8.877 -0.2567  0.1482  0.3626
 7776SOL    HW134787   1.606   0.367   8.907 -0.2492  0.3272  0.2482
 7776SOL    HW234788   1.511   0.398   8.793 -1.1858  0.5760  0.6618
 7777SOL     OW34789   4.314   4.515  14.348 -0.6534  0.0542  0.0768
 7777SOL    HW134790   4.305   4.498  14.442 -0.6185  1.3133  0.3091
 7777SOL    HW234791   4.341   4.430  14.313  1.9845  1.6743 -1.7270
 7778SOL     OW34792   0.277   4.184   3.298 -0.1517  0.1299 -0.7781
 7778SOL    HW134793   0.364   4.200   3.261  0.4224  1.5636  1.1884
 7778SOL    HW234794   0.265   4.089   3.309 -1.3589  0.1758 -1.8075
 7779SOL     OW34795   2.517   0.848  11.179 -0.3511 -0.5174  0.0146
 7779SOL    HW134796   2.424   0.832  11.163  0.0847 -0.4831 -2.5543
 7779SOL    HW234797   2.566   0.771  11.148  0.3379  0.9549 -2.5636
 7780SOL     OW34798   2.492   0.395  10.749 -0.2245  0.2806  0.4631
 7780SOL    HW134799   2.457   0.335  10.815  0.0804 -1.0937 -0.6275
 7780SOL    HW234800   2.413   0.446  10.732 -0.4020  0.3178  1.3782
 7781SOL     OW34801   4.330   3.604   2.767  0.0455  0.2724  0.8597
 7781SOL    HW134802   4.306   3.679   2.713  1.1405 -0.2741 -0.4060
 7781SOL    HW234803   4.250   3.587   2.816 -1.6164 -1.8241 -2.5755
 7782SOL     OW34804   1.548   0.810   4.100  0.3373  0.0099 -0.1866
 7782SOL    HW134805   1.522   0.762   4.178 -1.0742  1.7689  0.4242
 7782SOL    HW234806   1.600   0.745   4.052 -0.1423  0.0108 -0.7043
 7783SOL     OW34807   1.114   4.550   3.548 -0.7142  0.2511  0.0833
 7783SOL    HW134808   1.124   4.456   3.536 -1.4243 -0.1898  2.8754
 7783SOL    HW234809   1.181   4.571   3.614  0.0596 -0.9111 -0.3377
 7784SOL     OW34810   1.427   4.151   4.314 -0.0690  0.1367  1.0500
 7784SOL    HW134811   1.372   4.136   4.391  1.4158  3.1210  2.7185
 7784SOL    HW234812   1.510   4.151   4.361  1.6876 -0.4278 -2.0275
 7785SOL     OW34813   0.256   3.765  11.065 -0.5935  0.2061  0.2665
 7785SOL    HW134814   0.315   3.803  11.000 -0.9906  1.1727  0.4748
 7785SOL    HW234815   0.179   3.768  11.007 -1.2039  1.0965  1.1336
 7786SOL     OW34816   0.649   0.399  12.784 -0.4579  0.1355 -0.1051
 7786SOL    HW134817   0.679   0.362  12.867  1.3324 -1.4756 -1.4794
 7786SOL    HW234818   0.666   0.493  12.794 -1.1495  0.2405  0.0815
 7787SOL     OW34819   1.582   2.470   6.848  0.2633 -0.3055 -0.2673
 7787SOL    HW134820   1.669   2.478   6.887 -0.5071  0.6727  1.2593
 7787SOL    HW234821   1.543   2.519   6.920  0.1217  0.3152 -0.7690
 7788SOL     OW34822   2.479   0.497  13.906 -0.7391  0.1484 -0.3728
 7788SOL    HW134823   2.387   0.491  13.879 -0.3740  1.6598 -1.9789
 7788SOL    HW234824   2.471   0.541  13.991  0.8507  0.9137 -0.6158
 7789SOL     OW34825   2.130   3.521  16.598 -0.4287  0.1844 -0.2252
 7789SOL    HW134826   2.072   3.545  16.670  1.4366  2.7913  0.4263
 7789SOL    HW234827   2.074   3.491  16.526 -0.0042 -0.8299 -0.1313
 7790SOL     OW34828   0.695   3.264   4.113 -0.2245 -0.3073  0.8227
 7790SOL    HW134829   0.731   3.255   4.201  1.0159 -3.0227  0.0200
 7790SOL    HW234830   0.734   3.190   4.067 -1.1362  0.2946 -0.9110
 7791SOL     OW34831   4.040   4.001   7.536 -0.0051  0.0887  0.2013
 7791SOL    HW134832   4.122   4.040   7.505  0.4261  1.0443  2.5255
 7791SOL    HW234833   4.058   3.907   7.546 -0.7772 -0.1676 -0.7893
 7792SOL     OW34834   1.615   3.582  12.303 -0.2805  0.0397  0.2441
 7792SOL    HW134835   1.671   3.512  12.335  0.2851  0.1970 -0.3939
 7792SOL    HW234836   1.669   3.611  12.228  0.8229  1.7938  1.7255
 7793SOL     OW34837   1.695   1.211   4.580  0.6365  0.5058  0.6191
 7793SOL    HW134838   1.626   1.277   4.570 -0.1623 -0.6138 -1.3138
 7793SOL    HW234839   1.766   1.253   4.531  0.9967  0.0094  0.7232
 7794SOL     OW34840   1.214   3.306   4.537  0.6925  0.4749 -0.1908
 7794SOL    HW134841   1.182   3.247   4.469  1.6446  1.1966 -1.2783
 7794SOL    HW234842   1.162   3.387   4.530 -1.8948 -1.1523  0.3759
 7795SOL     OW34843   3.821   4.147   8.567  0.0009 -0.4191  0.5331
 7795SOL    HW134844   3.867   4.150   8.651 -0.1913  1.5357  0.5614
 7795SOL    HW234845   3.733   4.115   8.585 -0.2117 -0.6325 -0.8809
 7796SOL     OW34846   0.717   1.338   5.212  0.4377  0.1783  0.2029
 7796SOL    HW134847   0.648   1.324   5.277  3.8039 -0.0218  3.7039
 7796SOL    HW234848   0.773   1.400   5.258 -1.7893 -0.0284  3.1900
 7797SOL     OW34849   2.795   4.618   2.090  0.2693 -0.3752 -0.1068
 7797SOL    HW134850   2.748   4.639   2.010 -3.1259 -3.2664  1.1150
 7797SOL    HW234851   2.857   4.553   2.057  1.6928  1.8670 -1.8334
 7798SOL     OW34852   2.752   4.353   6.546 -0.4518 -0.1389 -0.7783
 7798SOL    HW134853   2.766   4.319   6.635 -0.7459 -1.5476 -1.2702
 7798SOL    HW234854   2.841   4.363   6.511 -0.8031 -0.4902 -1.7538
 7799SOL     OW34855   1.879   0.982   1.771 -0.2089  0.0507  0.6398
 7799SOL    HW134856   1.911   1.045   1.706 -0.6296  0.1812  0.5558
 7799SOL    HW234857   1.796   0.968   1.726  0.2327 -0.2341 -0.0734
 7800SOL     OW34858   3.986   3.983   2.632 -0.4752  0.4519 -0.0674
 7800SOL    HW134859   3.923   3.916   2.657  0.0767  0.2675  0.8340
 7800SOL    HW234860   3.942   4.031   2.562 -1.1561 -1.0288 -0.6490
 7801SOL     OW34861   0.914   4.023   6.603 -0.0467  0.3113  0.7931
 7801SOL    HW134862   0.940   4.107   6.640 -0.4066 -0.7231  3.4595
 7801SOL    HW234863   0.991   4.003   6.551 -0.2955  0.7305  0.2695
 7802SOL     OW34864   3.271   4.201  12.141  0.2824 -0.2813 -0.7579
 7802SOL    HW134865   3.242   4.135  12.078 -0.4236 -2.5705  1.9665
 7802SOL    HW234866   3.194   4.195  12.198  0.3225 -2.0635 -0.8762
 7803SOL     OW34867   1.799   0.184   2.569  0.6763  0.4632  0.6319
 7803SOL    HW134868   1.872   0.239   2.596  1.9782 -0.8666 -0.2061
 7803SOL    HW234869   1.734   0.255   2.575 -1.7449 -1.5678 -1.5180
 7804SOL     OW34870   1.084   0.323   4.481  0.0340  1.0505  0.5829
 7804SOL    HW134871   1.069   0.274   4.562  0.9509  0.0374  0.1395
 7804SOL    HW234872   1.054   0.255   4.420  0.3707  1.7038 -0.3056
 7805SOL     OW34873   4.129   2.205   0.818 -0.5901  0.8942 -0.1841
 7805SOL    HW134874   4.131   2.183   0.911  1.0311  3.0042  0.3038
 7805SOL    HW234875   4.098   2.296   0.817 -1.0252  0.7341 -1.7026
 7806SOL     OW34876   2.067   0.591  10.988 -0.1947  0.5438 -0.3724
 7806SOL    HW134877   2.012   0.513  10.985  1.9850 -1.0188 -0.1749
 7806SOL    HW234878   2.009   0.659  11.021  0.9248  2.9114 -3.3899
 7807SOL     OW34879   1.141   4.400   4.514  0.2487 -0.2720 -0.2557
 7807SOL    HW134880   1.167   4.315   4.478  3.4972  0.5836  0.1010
 7807SOL    HW234881   1.112   4.374   4.601 -0.2039 -1.4379 -0.7531
 7808SOL     OW34882   3.708   0.597  16.051  0.1120  0.1510  0.6557
 7808SOL    HW134883   3.673   0.680  16.018  1.3309  0.1009 -0.8148
 7808SOL    HW234884   3.799   0.624  16.065  0.2094  0.3485 -0.2924
 7809SOL     OW34885   4.692   2.301   9.636  0.2449  0.0776  0.2506
 7809SOL    HW134886   0.064   2.313   9.639  0.0156  1.7779  0.4215
 7809SOL    HW234887   4.681   2.250   9.556 -0.4121  0.3570  0.1624
 7810SOL     OW34888   3.219   2.238   6.621 -0.0357 -0.4262 -0.9718
 7810SOL    HW134889   3.244   2.330   6.619 -0.3347 -0.3523 -1.2359
 7810SOL    HW234890   3.245   2.208   6.708  0.5651  0.2366 -0.9188
 7811SOL     OW34891   2.480   0.840   2.495 -0.7622  0.7231  0.3325
 7811SOL    HW134892   2.416   0.823   2.564 -0.4635  0.2527  0.4949
 7811SOL    HW234893   2.517   0.752   2.486 -0.1673  1.1569 -1.3829
 7812SOL     OW34894   2.735   4.175   4.245 -0.2694  0.6745 -0.0290
 7812SOL    HW134895   2.756   4.118   4.171 -0.5110  0.0564  0.3765
 7812SOL    HW234896   2.820   4.208   4.273  0.8520 -2.8249  0.6254
 7813SOL     OW34897   2.750   4.279   7.729  0.2708 -0.3907 -0.3775
 7813SOL    HW134898   2.834   4.316   7.700  1.1167 -1.9045  0.1288
 7813SOL    HW234899   2.773   4.186   7.729 -1.3721 -0.7948  2.2212
 7814SOL     OW34900   4.386   2.167  11.118 -0.1023  0.3991 -0.6384
 7814SOL    HW134901   4.456   2.120  11.166  0.1220  0.5266 -0.8415
 7814SOL    HW234902   4.380   2.102  11.048  3.8975 -0.0951 -0.5633
 7815SOL     OW34903   0.238   2.249   0.885 -0.0310  0.5311  0.6085
 7815SOL    HW134904   0.268   2.334   0.916 -0.8811  1.5797 -1.4144
 7815SOL    HW234905   0.147   2.256   0.857 -0.3465  0.8203  1.7534
 7816SOL     OW34906   4.558   1.271   7.633 -0.2699 -0.1662  0.1160
 7816SOL    HW134907   4.638   1.242   7.678 -1.5845  0.0206  2.5553
 7816SOL    HW234908   4.501   1.211   7.680 -2.1908 -0.8769 -3.0952
 7817SOL     OW34909   2.888   2.066   8.095 -0.0937  0.1135 -0.1663
 7817SOL    HW134910   2.885   2.159   8.116  1.6483  0.1700 -0.1450
 7817SOL    HW234911   2.830   2.067   8.019  0.7553  0.8423 -0.8013
 7818SOL     OW34912   3.770   3.180   7.878 -1.1068 -0.3919 -0.0797
 7818SOL    HW134913   3.732   3.093   7.864  1.0344 -1.1815 -0.9536
 7818SOL    HW234914   3.834   3.173   7.807 -2.2626 -0.7995 -1.0778
 7819SOL     OW34915   1.105   0.374   9.466 -0.3648  0.2398  0.3768
 7819SOL    HW134916   1.139   0.323   9.539 -1.4040  0.5797  1.0945
 7819SOL    HW234917   1.159   0.341   9.394  1.0708 -2.6715  2.7841
 7820SOL     OW34918   4.600   0.490   4.521 -0.2506  0.2369  0.4303
 7820SOL    HW134919   4.624   0.486   4.614 -1.1239 -0.8019  0.6076
 7820SOL    HW234920   4.531   0.557   4.523 -0.1959  0.3170 -0.6169
 7821SOL     OW34921   4.050   1.872   9.253  0.1331  0.5253  0.4478
 7821SOL    HW134922   4.133   1.916   9.234 -0.4328  0.3044 -2.5001
 7821SOL    HW234923   4.044   1.806   9.184  1.0209  0.0031  0.8623
 7822SOL     OW34924   1.301   4.460  16.052  0.6242 -0.1230  0.7638
 7822SOL    HW134925   1.323   4.522  15.982 -0.3139 -2.3444 -1.5280
 7822SOL    HW234926   1.341   4.508  16.124  0.9969  1.9280 -0.8106
 7823SOL     OW34927   2.448   3.671  12.760  0.4331 -0.4273  0.2207
 7823SOL    HW134928   2.441   3.663  12.855 -1.0862  2.0744  0.3039
 7823SOL    HW234929   2.390   3.598  12.739  0.7902 -0.4665 -0.6203
 7824SOL     OW34930   3.069   3.544  13.337  0.1085 -0.2690  0.0840
 7824SOL    HW134931   3.043   3.488  13.264 -1.8223 -0.3275  0.8180
 7824SOL    HW234932   3.089   3.626  13.292 -2.6479 -0.1491 -0.9347
 7825SOL     OW34933   2.849   4.152  11.194 -0.0604  0.1607 -0.3251
 7825SOL    HW134934   2.895   4.202  11.262 -0.6329  2.3382 -1.5121
 7825SOL    HW234935   2.813   4.219  11.136  1.6439  0.4837 -1.0130
 7826SOL     OW34936   0.890   4.335  12.965 -0.2259 -0.0705 -0.2157
 7826SOL    HW134937   0.959   4.271  12.979 -0.4530 -0.1459  0.5538
 7826SOL    HW234938   0.943   4.414  12.969 -1.6120  0.7864  1.4301
 7827SOL     OW34939   1.208   0.386   7.586 -0.5299  0.0619 -0.4256
 7827SOL    HW134940   1.277   0.388   7.653  1.0258 -3.6607 -1.8786
 7827SOL    HW234941   1.137   0.440   7.620  0.1444 -1.0228  2.6613
 7828SOL     OW34942   0.427   4.005   4.264 -0.7263 -0.0952 -0.3061
 7828SOL    HW134943   0.398   4.093   4.239 -1.1561 -0.3312 -0.6402
 7828SOL    HW234944   0.517   4.011   4.233 -1.3005  3.3947 -1.3016
 7829SOL     OW34945   1.960   3.839   8.517 -0.1900  0.1276 -0.4278
 7829SOL    HW134946   2.006   3.783   8.578 -1.7618 -1.9061 -1.0960
 7829SOL    HW234947   2.029   3.829   8.452 -2.0566  1.9418 -2.7211
 7830SOL     OW34948   3.192   0.310  17.645  0.6165 -0.6075  0.1095
 7830SOL    HW134949   3.097   0.320  17.657  0.4872 -2.3409  0.5045
 7830SOL    HW234950   3.199   0.227  17.598 -0.6340 -0.2675 -0.6866
 7831SOL     OW34951   0.613   3.958   7.720  0.0295 -0.2341  0.3069
 7831SOL    HW134952   0.524   3.969   7.754  0.2394 -1.0945  1.1362
 7831SOL    HW234953   0.673   3.992   7.786  0.2755 -2.1228  1.0687
 7832SOL     OW34954   3.252   3.564   2.937 -0.1887  0.6815  0.2133
 7832SOL    HW134955   3.201   3.628   2.988 -1.4229 -0.2541  0.1499
 7832SOL    HW234956   3.205   3.562   2.854 -0.5573  0.9748  0.4150
 7833SOL     OW34957   2.670   3.472   5.463 -0.5925 -0.5065  0.0660
 7833SOL    HW134958   2.720   3.460   5.382 -0.1725 -0.8636  0.3763
 7833SOL    HW234959   2.700   3.560   5.484 -0.3935 -0.5184 -0.1666
 7834SOL     OW34960   1.754   0.062   4.775 -0.0322  1.0508 -0.2462
 7834SOL    HW134961   1.786   0.121   4.843  0.4754  2.1401 -1.4502
 7834SOL    HW234962   1.822   0.082   4.710  0.5036  0.2194  0.0478
 7835SOL     OW34963   3.265   4.124   2.269 -0.3538 -0.3729  0.3302
 7835SOL    HW134964   3.197   4.189   2.288 -0.9368 -1.4584  1.9682
 7835SOL    HW234965   3.235   4.081   2.189 -0.6693 -1.9040  1.2591
 7836SOL     OW34966   1.902   3.400   3.621 -0.1769 -0.2123 -0.1983
 7836SOL    HW134967   1.991   3.396   3.655 -1.0284  0.2824  2.0455
 7836SOL    HW234968   1.859   3.411   3.705 -0.9704 -1.2001 -0.4825
 7837SOL     OW34969   0.774   2.215   7.277 -0.0604  0.2601  0.1002
 7837SOL    HW134970   0.736   2.273   7.344  0.2332 -0.2723  0.7237
 7837SOL    HW234971   0.863   2.250   7.272  0.4682 -0.7746  2.0377
 7838SOL     OW34972   1.747   2.741  11.485  0.4727  0.4061  0.4536
 7838SOL    HW134973   1.789   2.727  11.400 -0.3019  1.4285 -0.0855
 7838SOL    HW234974   1.756   2.652  11.520  1.1881  0.2694 -0.0756
 7839SOL     OW34975   3.372   3.756  11.316 -0.2933 -0.3336 -0.0613
 7839SOL    HW134976   3.411   3.838  11.286 -1.0416 -0.1077 -0.4226
 7839SOL    HW234977   3.326   3.785  11.395  0.9964  2.5155 -0.3678
 7840SOL     OW34978   3.331   1.148   8.142 -0.0698  0.4366  0.6666
 7840SOL    HW134979   3.264   1.151   8.074  0.8169 -2.7762 -0.3703
 7840SOL    HW234980   3.409   1.137   8.088 -0.1951 -1.5035  0.8506
 7841SOL     OW34981   0.759   2.933   3.106  0.3168 -0.1229 -0.0731
 7841SOL    HW134982   0.665   2.950   3.111  0.8201  2.3587  1.1641
 7841SOL    HW234983   0.766   2.880   3.185  2.7317  1.8187  1.0221
 7842SOL     OW34984   0.490   0.063   6.775 -0.6450 -0.4842  0.0315
 7842SOL    HW134985   0.520   0.096   6.691  2.8889  1.9450  2.2400
 7842SOL    HW234986   0.501   0.139   6.832  1.1773 -0.5361 -0.2623
 7843SOL     OW34987   3.192   2.658   3.462  0.1284 -0.0513  0.4483
 7843SOL    HW134988   3.167   2.656   3.369  1.0828 -2.7281  0.2511
 7843SOL    HW234989   3.181   2.751   3.484  0.0920 -0.2761  1.3538
 7844SOL     OW34990   3.374   1.356   7.467 -0.0892  0.0074 -0.5794
 7844SOL    HW134991   3.360   1.294   7.396  0.2856 -0.6628 -0.0597
 7844SOL    HW234992   3.448   1.318   7.513  1.1111  1.3253 -1.4061
 7845SOL     OW34993   1.240   0.673   8.875 -0.4669 -0.4443 -0.0967
 7845SOL    HW134994   1.171   0.711   8.930 -3.4167 -0.6628 -3.6207
 7845SOL    HW234995   1.189   0.607   8.829 -0.5502 -2.1497  2.4720
 7846SOL     OW34996   2.438   1.947   7.674 -0.0452  0.0719 -0.2262
 7846SOL    HW134997   2.368   1.882   7.674  0.7080 -0.7328  0.7142
 7846SOL    HW234998   2.412   1.995   7.752  4.8223 -0.7646  1.9269
 7847SOL     OW34999   4.670   4.255   7.793  0.2829 -0.4669  0.7494
 7847SOL    HW135000   0.037   4.286   7.801  0.4066 -0.5779 -0.2680
 7847SOL    HW235001   4.683   4.160   7.790 -0.6636 -0.5385 -0.9380
 7848SOL     OW35002   0.053   2.919  15.202  0.5209 -0.1368  0.2157
 7848SOL    HW135003   0.147   2.923  15.186  0.0935  0.9865 -2.0292
 7848SOL    HW235004   0.030   2.845  15.145  0.0625  0.2446 -0.0938
 7849SOL     OW35005   0.453   3.065  13.266 -0.0134  0.3674  0.5301
 7849SOL    HW135006   0.506   2.999  13.311 -1.6409 -0.2786  1.5285
 7849SOL    HW235007   0.473   3.140  13.322 -1.3418  1.4398 -0.4307
 7850SOL     OW35008   2.025   1.864   5.524  0.1798 -0.2118 -0.2554
 7850SOL    HW135009   2.054   1.791   5.578 -0.1007 -0.9069 -1.0491
 7850SOL    HW235010   1.935   1.868   5.554  0.3100  0.7035  0.0302
 7851SOL     OW35011   0.515   0.756  15.388  0.1557 -0.3434  0.1887
 7851SOL    HW135012   0.494   0.753  15.294 -0.7413 -1.2984  0.4140
 7851SOL    HW235013   0.437   0.799  15.424 -0.4601 -0.8458 -0.5277
 7852SOL     OW35014   0.011   2.005   8.351  0.0296  0.2569  0.4044
 7852SOL    HW135015   0.087   2.025   8.296  0.5910 -2.0772  0.3310
 7852SOL    HW235016   0.053   1.978   8.432 -1.9429  1.1324  1.7176
 7853SOL     OW35017   3.652   3.123   6.511 -0.5654  0.1330 -0.5079
 7853SOL    HW135018   3.619   3.209   6.484 -0.7706  0.6787  1.4860
 7853SOL    HW235019   3.684   3.140   6.599 -1.3224  0.3308 -0.2772
 7854SOL     OW35020   2.788   2.919   6.638  0.2586 -0.0809 -0.3196
 7854SOL    HW135021   2.725   2.921   6.566 -0.5294 -2.4975  0.3260
 7854SOL    HW235022   2.855   2.980   6.604 -0.6970  0.5328 -1.0864
 7855SOL     OW35023   4.173   2.578   7.021  0.4619 -0.0632 -0.3977
 7855SOL    HW135024   4.260   2.540   7.033  0.7531  0.8624  0.3970
 7855SOL    HW235025   4.152   2.560   6.929 -3.2634  1.3754  0.1711
 7856SOL     OW35026   2.865   2.570   1.997 -0.2374  0.0018 -0.1040
 7856SOL    HW135027   2.950   2.568   1.954  0.0524  0.3259  0.4449
 7856SOL    HW235028   2.892   2.571   2.089 -1.0924 -2.0112  0.1746
 7857SOL     OW35029   0.934   1.219   3.810 -0.2794  0.0806 -0.8197
 7857SOL    HW135030   1.002   1.159   3.779 -1.6828 -0.9704 -1.8615
 7857SOL    HW235031   0.858   1.168   3.838 -0.4873 -0.8569 -3.1134
 7858SOL     OW35032   2.513   1.113  16.101  0.5870  0.0745  0.3361
 7858SOL    HW135033   2.565   1.119  16.021 -0.0994  0.0532 -0.1131
 7858SOL    HW235034   2.530   1.202  16.131 -1.4713  0.9807 -1.1286
 7859SOL     OW35035   0.345   4.446   2.135  0.1678  0.5125 -0.1413
 7859SOL    HW135036   0.326   4.366   2.086 -1.9070  0.6777  0.3915
 7859SOL    HW235037   0.269   4.456   2.193  0.6555  2.5565  0.1434
 7860SOL     OW35038   1.521   2.733   6.193  0.0419 -0.3490  0.2098
 7860SOL    HW135039   1.462   2.711   6.121 -1.1284 -0.4996  1.2176
 7860SOL    HW235040   1.466   2.707   6.267  0.1169  0.9782  0.7439
 7861SOL     OW35041   3.982   0.838   5.055  0.1898 -0.4557 -0.0397
 7861SOL    HW135042   3.930   0.918   5.052 -0.5122 -0.9133 -0.0381
 7861SOL    HW235043   3.963   0.795   4.971  2.0075  2.3595 -1.9178
 7862SOL     OW35044   1.988   0.394   2.575 -0.2061  0.0091 -0.3712
 7862SOL    HW135045   2.063   0.452   2.567 -0.2212  0.0432 -0.2640
 7862SOL    HW235046   2.009   0.320   2.517  2.3713 -0.8792  1.7372
 7863SOL     OW35047   2.489   4.560   3.468  1.3216 -0.4748  0.2080
 7863SOL    HW135048   2.545   4.490   3.433 -0.1511 -0.8928 -1.2742
 7863SOL    HW235049   2.553   4.628   3.489 -0.8410  1.6030  0.0664
 7864SOL     OW35050   0.196   4.548   8.412 -0.1950 -0.3641  0.4854
 7864SOL    HW135051   0.167   4.626   8.365  0.4682 -1.7959 -2.3525
 7864SOL    HW235052   0.262   4.529   8.344 -1.7000 -1.8671 -0.5579
 7865SOL     OW35053   0.413   2.892   7.916  0.2892  0.1054 -0.4154
 7865SOL    HW135054   0.361   2.948   7.858 -1.4740 -3.2819 -2.1123
 7865SOL    HW235055   0.376   2.810   7.883  2.1346 -1.7931  2.2273
 7866SOL     OW35056   4.365   3.172   4.001 -0.4842 -0.0093  0.1075
 7866SOL    HW135057   4.375   3.077   4.004  0.2090  0.0655 -0.0181
 7866SOL    HW235058   4.436   3.210   4.051 -0.1859 -0.0244 -0.3083
 7867SOL     OW35059   1.471   3.734   7.480  0.0575  0.2578 -0.3016
 7867SOL    HW135060   1.441   3.779   7.559  1.7172  0.9198 -0.0477
 7867SOL    HW235061   1.431   3.786   7.410 -0.6697 -0.6894 -0.5868
 7868SOL     OW35062   3.278   1.527   8.544  0.2281  0.0006  0.4514
 7868SOL    HW135063   3.305   1.448   8.499 -0.1014 -0.9469  1.9052
 7868SOL    HW235064   3.212   1.502   8.609  0.4416  0.5189  0.8680
 7869SOL     OW35065   1.359   1.916   3.996 -0.2271  0.2758 -0.4379
 7869SOL    HW135066   1.334   1.985   3.935 -0.4502  0.7936  0.2433
 7869SOL    HW235067   1.450   1.899   3.969 -0.7923 -0.9176 -1.6070
 7870SOL     OW35068   4.406   0.189   5.354  0.3701  0.5557  0.2808
 7870SOL    HW135069   4.473   0.248   5.388  0.3021  1.9516 -2.0359
 7870SOL    HW235070   4.383   0.242   5.277 -0.8605 -1.3463 -0.6781
 7871SOL     OW35071   1.707   0.775  13.311 -1.0292 -0.8902  0.2434
 7871SOL    HW135072   1.802   0.784  13.308 -1.3553  2.5294 -0.2641
 7871SOL    HW235073   1.687   0.857  13.356 -2.9031 -1.5757  0.6646
 7872SOL     OW35074   0.952   4.471   3.050 -0.1699  0.2839  0.1740
 7872SOL    HW135075   1.041   4.453   3.020  0.1101 -0.2685  1.3292
 7872SOL    HW235076   0.975   4.506   3.136  0.2673  0.6820 -0.1025
 7873SOL     OW35077   0.595   4.100   8.679  0.2077 -0.9415 -0.3845
 7873SOL    HW135078   0.622   4.070   8.766  1.3576  0.1859 -0.3580
 7873SOL    HW235079   0.638   4.039   8.620  0.4204 -1.3746  0.2119
 7874SOL     OW35080   2.331   1.403   7.416 -0.8122 -0.2370 -0.1692
 7874SOL    HW135081   2.424   1.425   7.420 -1.1381  0.9275  0.8993
 7874SOL    HW235082   2.291   1.489   7.412 -1.5395 -0.5105  1.4491
 7875SOL     OW35083   0.474   2.305  11.014  0.0642  0.5473  0.1973
 7875SOL    HW135084   0.466   2.317  10.919  1.4604  1.3291  0.1786
 7875SOL    HW235085   0.446   2.389  11.050 -0.1530 -1.2675  4.1762
 7876SOL     OW35086   3.018   1.112   7.045 -0.8029 -0.3891  0.1781
 7876SOL    HW135087   2.963   1.063   6.983 -0.9362 -3.5913  2.8792
 7876SOL    HW235088   2.952   1.164   7.090 -0.6803 -1.0475  1.1079
 7877SOL     OW35089   0.021   3.517  17.148  0.3742 -0.0543  0.4452
 7877SOL    HW135090   4.696   3.498  17.067  1.9811  0.7150 -0.6921
 7877SOL    HW235091   0.010   3.435  17.196 -1.2140 -0.0864  0.0109
 7878SOL     OW35092   0.104   1.300  10.573 -0.7016 -0.1561 -0.4833
 7878SOL    HW135093   0.109   1.337  10.485  0.1521  0.3240 -0.2386
 7878SOL    HW235094   0.085   1.373  10.633 -0.0715  0.5255 -1.1070
 7879SOL     OW35095   1.139   3.440  10.947 -0.1718  0.0336 -0.5723
 7879SOL    HW135096   1.098   3.379  10.885 -1.3530  0.7675 -0.5046
 7879SOL    HW235097   1.083   3.518  10.950  0.3742  0.4336 -0.8417
 7880SOL     OW35098   0.784   1.127   1.143 -0.1509  0.0962  0.6014
 7880SOL    HW135099   0.710   1.119   1.202 -0.3057  0.6353  0.4826
 7880SOL    HW235100   0.765   1.205   1.091 -0.9354 -1.3096 -1.2331
 7881SOL     OW35101   0.943   1.716  13.904 -0.3991 -0.1431 -0.3510
 7881SOL    HW135102   0.895   1.645  13.947 -0.2297 -0.1166 -0.1220
 7881SOL    HW235103   0.895   1.794  13.931 -1.7865 -1.2857  0.4622
 7882SOL     OW35104   4.216   1.598   6.741 -0.2807  0.1936 -0.0798
 7882SOL    HW135105   4.304   1.568   6.763 -1.0433 -0.7111  1.7179
 7882SOL    HW235106   4.217   1.565   6.651 -0.0215  2.0226 -0.7480
 7883SOL     OW35107   0.797   4.329   4.239  0.0276 -0.4141  0.0490
 7883SOL    HW135108   0.728   4.358   4.179  1.2561 -3.1336 -2.7319
 7883SOL    HW235109   0.853   4.291   4.170  2.3463 -1.4521  2.5213
 7884SOL     OW35110   0.850   3.328   7.121 -0.0874  0.1677 -0.0004
 7884SOL    HW135111   0.865   3.276   7.042 -1.0446  1.3108 -0.9455
 7884SOL    HW235112   0.926   3.308   7.175  0.3736  0.1153 -0.6772
 7885SOL     OW35113   1.307   1.092   9.664 -0.5706 -0.2825  0.1238
 7885SOL    HW135114   1.277   1.046   9.585 -1.6370  1.7130 -0.6594
 7885SOL    HW235115   1.309   1.012   9.715  1.7268 -0.0100  0.4547
 7886SOL     OW35116   1.762   0.739  10.745  0.5812  0.0279  0.7278
 7886SOL    HW135117   1.722   0.679  10.808  0.9017  1.2640  2.1087
 7886SOL    HW235118   1.708   0.817  10.756  1.4758  0.6716  0.4986
 7887SOL     OW35119   3.422   4.275   2.481 -0.4440 -0.5403  0.1108
 7887SOL    HW135120   3.490   4.273   2.413 -0.9816  2.2574 -0.5030
 7887SOL    HW235121   3.372   4.197   2.456 -0.9684  0.0562 -0.6772
 7888SOL     OW35122   0.140   3.831   9.886  0.3185  0.0338 -0.2464
 7888SOL    HW135123   0.045   3.832   9.894  0.2561 -3.2217 -0.5846
 7888SOL    HW235124   0.161   3.913   9.841  2.0048 -0.0609  0.3894
 7889SOL     OW35125   4.042   3.895   9.116  0.5938  0.2460 -0.4722
 7889SOL    HW135126   4.097   3.817   9.125 -1.1136 -0.8448  0.5007
 7889SOL    HW235127   4.108   3.964   9.122 -2.0192  2.7187 -0.6750
 7890SOL     OW35128   3.887   1.959  14.512 -0.3552  0.2304 -0.6869
 7890SOL    HW135129   3.910   1.869  14.490 -1.0016  0.2756 -1.5613
 7890SOL    HW235130   3.837   1.941  14.592 -0.6094 -1.8473 -1.3129
 7891SOL     OW35131   3.192   0.122   7.864 -0.0969 -0.9998 -0.2044
 7891SOL    HW135132   3.133   0.129   7.789  0.7067 -0.6578 -0.7993
 7891SOL    HW235133   3.127   0.112   7.934  1.1050 -0.9468  0.9197
 7892SOL     OW35134   2.002   0.312  11.001  0.4075  0.3784 -0.2921
 7892SOL    HW135135   1.968   0.227  11.028 -1.3841  1.2883  0.3241
 7892SOL    HW235136   2.046   0.287  10.920  2.2411 -1.4811  1.2694
 7893SOL     OW35137   4.594   4.028  13.574 -0.3862  0.0498  0.0215
 7893SOL    HW135138   4.513   4.072  13.600  0.3377  1.0520  0.5876
 7893SOL    HW235139   4.656   4.079  13.626  2.1463 -1.3988 -1.5734
 7894SOL     OW35140   1.853   1.427   4.435 -0.0880 -0.8398  0.2179
 7894SOL    HW135141   1.913   1.390   4.499  0.3451 -1.1038 -0.3470
 7894SOL    HW235142   1.804   1.492   4.487 -0.7957  0.6792 -2.3407
 7895SOL     OW35143   0.238   1.309   9.786 -0.1906 -0.4270 -0.4554
 7895SOL    HW135144   0.256   1.235   9.728  1.0996 -1.3175  1.0785
 7895SOL    HW235145   0.222   1.261   9.868 -1.2443  2.2169  0.8870
 7896SOL     OW35146   2.871   0.352  15.001  0.7925 -0.7144 -0.1975
 7896SOL    HW135147   2.875   0.286  15.070  2.3566 -0.2582  0.1564
 7896SOL    HW235148   2.889   0.297  14.925  1.2769 -1.1275  0.2144
 7897SOL     OW35149   1.409   4.125   2.776  0.0082 -0.2987 -0.2401
 7897SOL    HW135150   1.455   4.181   2.838  0.8638 -0.4108 -0.7719
 7897SOL    HW235151   1.483   4.098   2.721 -0.2667 -0.5297 -0.5044
 7898SOL     OW35152   0.554   2.296  10.676  0.6481 -0.0788  0.6142
 7898SOL    HW135153   0.574   2.347  10.597  1.8533 -2.1523 -0.4051
 7898SOL    HW235154   0.615   2.345  10.730  1.9703 -1.9152  0.7678
 7899SOL     OW35155   0.599   2.830  15.544 -0.1760 -0.3080  0.9265
 7899SOL    HW135156   0.549   2.817  15.625 -0.9741 -0.8501  0.3570
 7899SOL    HW235157   0.684   2.855  15.580  0.2504 -3.9413  2.4723
 7900SOL     OW35158   2.899   1.294   5.963  0.4803 -0.0034  0.4362
 7900SOL    HW135159   2.873   1.310   6.054 -1.4953  1.8930 -0.4671
 7900SOL    HW235160   2.886   1.199   5.959  1.9124 -0.2475  1.4672
 7901SOL     OW35161   0.916   4.410   8.914  0.2635 -0.6446 -0.4366
 7901SOL    HW135162   0.975   4.473   8.873  2.0165 -1.1702  1.2606
 7901SOL    HW235163   0.855   4.385   8.845 -1.8487  2.7224  0.1853
 7902SOL     OW35164   1.226   3.515   1.350 -0.7020  0.7624 -0.4564
 7902SOL    HW135165   1.146   3.519   1.401 -0.1914  2.8551  0.1913
 7902SOL    HW235166   1.257   3.605   1.365  0.3558  0.1013  1.3719
 7903SOL     OW35167   1.105   0.839   3.640  0.0177 -0.4380 -0.1566
 7903SOL    HW135168   1.195   0.843   3.608  0.5393 -1.2272  1.1820
 7903SOL    HW235169   1.055   0.903   3.589 -0.9590  0.3688  1.8091
 7904SOL     OW35170   1.633   3.245   8.422 -0.5662 -0.9265  0.5175
 7904SOL    HW135171   1.539   3.239   8.439 -0.7830  0.0635 -0.3452
 7904SOL    HW235172   1.640   3.338   8.442 -0.9592 -0.8720  0.3929
 7905SOL     OW35173   1.715   1.828   7.292  0.1808 -0.0631  0.2629
 7905SOL    HW135174   1.635   1.786   7.262 -0.3473  1.0645  0.1017
 7905SOL    HW235175   1.696   1.864   7.379 -1.1841  1.6478 -0.7514
 7906SOL     OW35176   4.688   3.107  15.701  0.1938 -0.0180 -0.0672
 7906SOL    HW135177   4.704   3.158  15.622  1.9994  3.6939  2.6965
 7906SOL    HW235178   0.044   3.112  15.754  0.4083 -2.0926 -0.2044
 7907SOL     OW35179   4.697   3.946   9.430  0.3466  0.1397  0.1217
 7907SOL    HW135180   4.630   4.000   9.389 -0.6141 -0.2475  1.1947
 7907SOL    HW235181   4.650   3.863   9.440  1.4837 -0.5279 -0.1065
 7908SOL     OW35182   4.381   4.376   4.867 -0.0813 -0.9337  0.1080
 7908SOL    HW135183   4.296   4.359   4.907  0.2297  0.4414  1.3358
 7908SOL    HW235184   4.352   4.427   4.791  0.1564  1.7791  1.8421
 7909SOL     OW35185   4.685   2.164   5.623 -0.2863 -0.5228 -0.0016
 7909SOL    HW135186   4.681   2.221   5.700  2.2989  1.1804 -1.1180
 7909SOL    HW235187   0.056   2.144   5.625  0.0944  1.3605  0.8124
 7910SOL     OW35188   1.860   2.740   4.000  0.1233  0.3287  0.0468
 7910SOL    HW135189   1.853   2.816   3.942  2.5712 -0.5859 -1.4244
 7910SOL    HW235190   1.863   2.786   4.084  0.3903  0.8908 -0.2717
 7911SOL     OW35191   1.289   0.915  15.076  0.3105  0.0387  0.3036
 7911SOL    HW135192   1.287   1.007  15.050 -1.9519  0.1961  1.0367
 7911SOL    HW235193   1.271   0.874  14.991 -0.1322  0.3193  0.2602
 7912SOL     OW35194   2.048   1.530  14.725  0.5567  0.1291 -0.0065
 7912SOL    HW135195   1.977   1.468  14.709 -0.8854  1.3029  1.9264
 7912SOL    HW235196   2.070   1.493  14.811 -0.1102 -1.1282 -0.3682
 7913SOL     OW35197   3.191   0.016   7.525  0.3703 -0.2276 -0.2355
 7913SOL    HW135198   3.114   0.025   7.581  1.7768  2.8342  1.1931
 7913SOL    HW235199   3.160   0.044   7.439 -1.9915  1.0724  1.0495
 7914SOL     OW35200   0.674   0.520   6.947 -0.2894 -0.4451 -0.3960
 7914SOL    HW135201   0.723   0.594   6.913 -2.5274  1.5739  0.8069
 7914SOL    HW235202   0.714   0.514   7.034 -0.2045  0.5234 -0.3692
 7915SOL     OW35203   2.993   4.004   7.072 -0.3153 -0.0698 -0.3337
 7915SOL    HW135204   2.976   3.914   7.101 -0.1814 -0.6675 -2.0928
 7915SOL    HW235205   2.910   4.028   7.032 -0.3029  0.2726 -0.1502
 7916SOL     OW35206   3.344   0.153  14.004  0.9222 -0.4493  0.0996
 7916SOL    HW135207   3.366   0.174  13.914  0.5131 -1.7835 -0.3071
 7916SOL    HW235208   3.425   0.181  14.047  1.3436 -1.4256 -0.0538
 7917SOL     OW35209   0.534   3.136   6.848 -0.0632 -0.2742 -0.2904
 7917SOL    HW135210   0.503   3.106   6.934 -0.1372  0.6164 -0.0118
 7917SOL    HW235211   0.610   3.080   6.830 -1.1458 -2.2048  1.0514
 7918SOL     OW35212   3.080   2.261   9.959 -0.2563 -0.4675 -0.1886
 7918SOL    HW135213   2.993   2.249   9.995 -0.3966 -0.4006 -0.5026
 7918SOL    HW235214   3.079   2.199   9.886  2.0734 -0.5441 -0.1730
 7919SOL     OW35215   2.638   1.078  11.079  0.0052  0.3931  0.1031
 7919SOL    HW135216   2.718   1.025  11.080  0.7886  1.5552 -1.6433
 7919SOL    HW235217   2.570   1.013  11.100  1.0128 -0.0053  2.1482
 7920SOL     OW35218   0.014   1.950   8.016  0.3977  0.3207 -0.6155
 7920SOL    HW135219   0.004   1.860   7.985 -1.9286  0.6967 -0.9616
 7920SOL    HW235220   4.658   1.991   7.978 -0.7343 -0.5260  0.8301
 7921SOL     OW35221   2.206   2.577  14.710  0.3812  0.1339  0.1512
 7921SOL    HW135222   2.224   2.541  14.797  0.8455  0.8527  0.3545
 7921SOL    HW235223   2.146   2.650  14.726 -0.3242 -0.2044 -0.9491
 7922SOL     OW35224   3.777   0.527   3.852  0.0427  0.2536  0.1706
 7922SOL    HW135225   3.707   0.491   3.906 -0.7312  1.5888  0.0560
 7922SOL    HW235226   3.845   0.557   3.912  2.2872 -0.8797 -1.7810
 7923SOL     OW35227   0.814   3.287   2.340  0.2192 -0.2182 -0.6742
 7923SOL    HW135228   0.801   3.195   2.317 -1.1961  0.0486 -0.9677
 7923SOL    HW235229   0.785   3.336   2.263 -0.4713 -2.6425 -1.9383
 7924SOL     OW35230   1.934   3.372  10.374 -0.1180  0.0277  0.3957
 7924SOL    HW135231   1.982   3.453  10.394 -1.4748  0.9820 -0.2104
 7924SOL    HW235232   1.845   3.403  10.390 -0.7709 -0.9686 -1.2614
 7925SOL     OW35233   0.793   3.566   6.361  0.1457  0.0372  0.8087
 7925SOL    HW135234   0.854   3.594   6.293 -0.7106  1.6550  0.7051
 7925SOL    HW235235   0.829   3.485   6.398  0.6610 -0.5024 -0.8549
 7926SOL     OW35236   2.797   3.013   2.318  0.0550  0.5675 -0.1626
 7926SOL    HW135237   2.831   3.096   2.353 -1.6182  1.4491 -0.6191
 7926SOL    HW235238   2.831   3.017   2.229 -1.2051 -1.7245 -0.7374
 7927SOL     OW35239   4.415   3.291   0.537  0.3406  0.6192 -0.0024
 7927SOL    HW135240   4.399   3.274   0.444  0.0703 -0.0115  0.1585
 7927SOL    HW235241   4.478   3.362   0.527  1.9015 -0.7617  0.0829
 7928SOL     OW35242   0.341   0.573   1.895  0.3107  0.3098  0.1293
 7928SOL    HW135243   0.385   0.497   1.933 -0.4536  0.6264  1.6969
 7928SOL    HW235244   0.361   0.553   1.804 -2.3921  2.5249 -0.9733
 7929SOL     OW35245   1.636   1.857   7.857 -0.2581 -0.5393  0.1646
 7929SOL    HW135246   1.565   1.796   7.879 -0.9215  0.4565  0.7540
 7929SOL    HW235247   1.622   1.918   7.929  2.4291  1.2855 -0.9064
 7930SOL     OW35248   2.873   1.082   3.713  0.2932  0.2760  0.1170
 7930SOL    HW135249   2.850   0.990   3.714  1.7172 -0.0648  1.3516
 7930SOL    HW235250   2.941   1.095   3.779 -0.0750  0.6978  0.4114
 7931SOL     OW35251   0.491   1.613   6.265 -0.1417  0.1429 -0.1001
 7931SOL    HW135252   0.538   1.639   6.186 -0.1140  2.0596  0.5485
 7931SOL    HW235253   0.568   1.624   6.321 -0.5467  0.5554  0.3741
 7932SOL     OW35254   1.686   2.810  17.489 -0.1608  0.3667 -0.9689
 7932SOL    HW135255   1.642   2.892  17.467 -0.8615  0.5764  1.1158
 7932SOL    HW235256   1.615   2.755  17.523  0.9850 -1.1519 -1.0217
 7933SOL     OW35257   0.603   1.234   0.479  0.0605 -0.4037 -0.1662
 7933SOL    HW135258   0.547   1.250   0.403 -1.2936 -0.7700  0.7541
 7933SOL    HW235259   0.617   1.139   0.476 -0.6747 -0.5345  0.5809
 7934SOL     OW35260   1.520   1.904   6.556 -0.1316  0.3029 -0.2371
 7934SOL    HW135261   1.610   1.920   6.586 -0.0057 -0.1312 -0.3830
 7934SOL    HW235262   1.492   1.995   6.543 -1.1636  0.0699  0.4326
 7935SOL     OW35263   1.278   0.806  14.825 -0.2179 -0.0375  0.0409
 7935SOL    HW135264   1.322   0.734  14.780  0.2398 -0.3162  0.9281
 7935SOL    HW235265   1.233   0.846  14.751 -0.5585  2.3873  1.5592
 7936SOL     OW35266   0.064   0.152  11.478  0.5479 -0.2308 -0.4810
 7936SOL    HW135267   0.042   0.143  11.385  1.0582  0.4176 -0.6676
 7936SOL    HW235268   4.698   0.167  11.509  0.4271 -1.2804 -0.3284
 7937SOL     OW35269   1.689   3.201  14.425  0.0534 -0.6091 -0.3328
 7937SOL    HW135270   1.758   3.178  14.363 -2.2379 -2.2796 -2.2521
 7937SOL    HW235271   1.614   3.210  14.366 -0.9253  2.2203  1.3497
 7938SOL     OW35272   2.707   0.309  15.472 -0.0780  0.3010 -0.2421
 7938SOL    HW135273   2.749   0.223  15.478 -1.8747 -0.7679 -3.0884
 7938SOL    HW235274   2.613   0.298  15.461  0.0648  0.7116 -1.8036
 7939SOL     OW35275   3.170   0.743  15.198 -0.0303  0.3204  0.1915
 7939SOL    HW135276   3.109   0.678  15.165 -0.8916  1.3690 -0.2922
 7939SOL    HW235277   3.127   0.775  15.278 -1.4204  0.4702 -0.6169
 7940SOL     OW35278   3.837   0.106   8.837 -0.4155 -0.6083 -0.2655
 7940SOL    HW135279   3.759   0.143   8.878  0.3985 -0.8990  1.5823
 7940SOL    HW235280   3.910   0.127   8.895 -0.7826  1.1565 -0.4493
 7941SOL     OW35281   4.025   1.012   2.808 -0.1743  0.2173  0.4461
 7941SOL    HW135282   4.086   1.037   2.877 -0.1128 -0.6825  0.7181
 7941SOL    HW235283   4.077   0.949   2.758  0.8998  1.2944  0.1899
 7942SOL     OW35284   1.563   0.774   0.689 -0.1810  0.4583 -0.2231
 7942SOL    HW135285   1.589   0.864   0.670 -0.5998  0.4514 -0.8131
 7942SOL    HW235286   1.504   0.744   0.621 -0.9426  0.7124  0.3261
 7943SOL     OW35287   0.662   1.311   8.583 -0.2976 -0.5337 -0.6026
 7943SOL    HW135288   0.641   1.403   8.595 -1.4699 -0.9440  0.5565
 7943SOL    HW235289   0.723   1.309   8.509 -0.7443 -0.2080 -0.9804
 7944SOL     OW35290   1.608   3.582  13.267  0.3019  0.5062  0.4953
 7944SOL    HW135291   1.676   3.529  13.308 -0.9936 -0.7078  1.0502
 7944SOL    HW235292   1.616   3.573  13.172  1.7841  2.8545  0.3680
 7945SOL     OW35293   1.419   3.402  12.471  0.0128 -0.6715  0.2263
 7945SOL    HW135294   1.373   3.431  12.550 -0.3017 -1.6382  0.3959
 7945SOL    HW235295   1.452   3.487  12.442 -0.4683 -0.3227  0.7107
 7946SOL     OW35296   0.871   2.227   1.338  0.2281 -0.8236  0.0130
 7946SOL    HW135297   0.776   2.236   1.340  0.4028  0.6215  1.7035
 7946SOL    HW235298   0.896   2.318   1.321 -2.2789 -0.5216 -1.9429
 7947SOL     OW35299   1.881   2.914   6.495 -0.8477 -0.3789 -0.2416
 7947SOL    HW135300   1.956   2.938   6.440 -0.7757 -0.3303 -0.1206
 7947SOL    HW235301   1.812   2.913   6.429 -1.0724  1.3627 -0.0192
 7948SOL     OW35302   2.039   4.002   8.208  0.3600 -0.2945  0.1904
 7948SOL    HW135303   2.081   4.005   8.121  2.4215  0.7835  1.2222
 7948SOL    HW235304   2.103   3.965   8.268 -2.3630 -2.5794  1.6374
 7949SOL     OW35305   3.737   3.266   5.406  0.0062  0.3680  0.1465
 7949SOL    HW135306   3.683   3.201   5.361  0.0401 -0.3259  1.1075
 7949SOL    HW235307   3.720   3.250   5.499 -0.4464  0.6274  0.1063
 7950SOL     OW35308   2.847   2.730   3.120  0.1957  0.5945 -0.2506
 7950SOL    HW135309   2.818   2.672   3.051  0.5166  0.3815 -0.2075
 7950SOL    HW235310   2.845   2.813   3.071  2.4640  1.4100  1.0253
 7951SOL     OW35311   3.546   3.319  15.461 -0.0004  0.6040  0.7970
 7951SOL    HW135312   3.509   3.340  15.375  1.5278 -2.6363 -0.6596
 7951SOL    HW235313   3.547   3.224  15.448 -1.1836  1.0174 -2.4217
 7952SOL     OW35314   0.752   0.922   9.223  0.4181 -0.1396  0.0380
 7952SOL    HW135315   0.710   0.982   9.284 -1.0335 -0.4125 -0.6837
 7952SOL    HW235316   0.689   0.912   9.151 -0.9025 -0.4720  1.2391
 7953SOL     OW35317   1.899   2.856  11.741  0.0580  0.4184  0.5902
 7953SOL    HW135318   1.833   2.813  11.687  2.2953 -1.1181 -0.8963
 7953SOL    HW235319   1.926   2.788  11.802 -0.0905 -1.4161 -1.3913
 7954SOL     OW35320   2.176   3.538   2.657  0.4189  0.6080  0.5150
 7954SOL    HW135321   2.222   3.454   2.654  0.5370  0.7455 -1.2717
 7954SOL    HW235322   2.169   3.549   2.752 -0.6834  2.1085  0.2646
 7955SOL     OW35323   3.213   0.839   3.648 -0.4217  0.0244 -0.3030
 7955SOL    HW135324   3.282   0.869   3.589  0.5158 -0.0527  0.7644
 7955SOL    HW235325   3.209   0.909   3.713  0.7952  0.3359 -0.5695
 7956SOL     OW35326   4.568   1.234   3.279  0.2712 -0.2336 -0.2347
 7956SOL    HW135327   4.655   1.258   3.310 -0.8001  2.8242  0.4165
 7956SOL    HW235328   4.563   1.138   3.277 -3.2581 -0.0485 -0.3507
 7957SOL     OW35329   3.718   4.303  16.589  0.1767 -0.4724 -0.1418
 7957SOL    HW135330   3.736   4.252  16.668 -2.2539 -1.1496 -0.0218
 7957SOL    HW235331   3.628   4.269  16.588 -0.1094  0.3259 -0.7928
 7958SOL     OW35332   3.837   0.213   5.084  0.3972  0.3079  0.2736
 7958SOL    HW135333   3.881   0.298   5.080  1.1715 -0.0723  0.5160
 7958SOL    HW235334   3.915   0.159   5.095 -1.2311 -1.9386  0.7057
 7959SOL     OW35335   1.963   0.809  15.330 -0.2539  0.0613 -0.1285
 7959SOL    HW135336   2.042   0.853  15.299  0.3508  0.7704  2.3973
 7959SOL    HW235337   1.995   0.759  15.405 -2.5386  1.0409  1.5448
 7960SOL     OW35338   3.648   3.201   0.589  0.1379 -0.2102  0.3486
 7960SOL    HW135339   3.700   3.185   0.667 -0.6098  0.6161  1.0255
 7960SOL    HW235340   3.687   3.154   0.515  0.6681  0.9894 -0.1427
 7961SOL     OW35341   1.129   1.448   2.173 -0.6369 -0.1185  0.3489
 7961SOL    HW135342   1.125   1.530   2.221  0.7358  1.1423 -1.6833
 7961SOL    HW235343   1.101   1.480   2.087 -0.3260 -0.7347  0.0182
 7962SOL     OW35344   1.560   3.705   2.487 -0.2244 -0.1466 -0.9693
 7962SOL    HW135345   1.526   3.618   2.467 -0.8466 -0.2170  0.3943
 7962SOL    HW235346   1.560   3.744   2.400  2.2613  0.1166 -0.8635
 7963SOL     OW35347   1.966   1.008   2.043 -0.2556 -0.4156  0.2490
 7963SOL    HW135348   1.953   0.991   1.949  1.9125  2.1343 -0.5184
 7963SOL    HW235349   2.059   0.983   2.045  0.5703  2.4775 -1.8307
 7964SOL     OW35350   0.427   1.864  11.426  0.6052  0.3151  0.2718
 7964SOL    HW135351   0.406   1.876  11.519  1.3555  1.1739  0.3245
 7964SOL    HW235352   0.369   1.792  11.401 -0.9004  0.4095  3.4370
 7965SOL     OW35353   0.369   4.460   2.488 -0.4645  0.3816  0.4010
 7965SOL    HW135354   0.330   4.459   2.575  0.9432  0.7720  1.0352
 7965SOL    HW235355   0.419   4.378   2.491 -0.2435  0.4655 -0.9755
 7966SOL     OW35356   0.135   0.670  11.807  0.1469 -0.0294 -0.5966
 7966SOL    HW135357   0.095   0.585  11.792 -1.8108  0.6692  0.6663
 7966SOL    HW235358   0.215   0.632  11.841  0.0756  1.3614  1.1665
 7967SOL     OW35359   4.083   3.764   1.101  0.0299  0.7990 -1.4009
 7967SOL    HW135360   4.066   3.782   1.194  1.0174  0.1387 -1.0811
 7967SOL    HW235361   4.146   3.832   1.078  0.8454  0.6019  0.2120
 7968SOL     OW35362   0.927   1.137   5.857 -0.0897  0.4763 -0.0340
 7968SOL    HW135363   1.006   1.188   5.877  1.1136  0.2047 -4.1056
 7968SOL    HW235364   0.967   1.055   5.828 -2.5317 -1.0777  1.0360
 7969SOL     OW35365   3.635   4.569   3.351  0.0426  0.6254 -0.7030
 7969SOL    HW135366   3.677   4.489   3.380  0.7942  0.6024 -1.8730
 7969SOL    HW235367   3.677   4.619   3.421 -2.4353  0.8217  0.6544
 7970SOL     OW35368   0.939   4.384  17.119  0.1425  0.0813  0.2094
 7970SOL    HW135369   0.874   4.353  17.056  2.7484  0.0042 -2.4241
 7970SOL    HW235370   0.909   4.475  17.113  0.8457  0.2513 -0.6709
 7971SOL     OW35371   3.011   3.077   0.063 -0.1773 -0.5999  0.2979
 7971SOL    HW135372   3.009   3.009  17.689  2.1551  0.0558 -0.4471
 7971SOL    HW235373   2.938   3.053   0.121  1.3509  0.2394  2.5951
 7972SOL     OW35374   3.234   2.871  10.180  0.2310  0.1295 -0.1430
 7972SOL    HW135375   3.202   2.801  10.123  0.6278 -0.1131 -0.0701
 7972SOL    HW235376   3.161   2.934  10.182  0.3840  0.2097  2.6294
 7973SOL     OW35377   2.070   0.225  12.088 -0.0514 -0.3243 -0.1274
 7973SOL    HW135378   2.028   0.274  12.017  0.3814  0.5092  0.1930
 7973SOL    HW235379   2.025   0.142  12.071 -1.2055  0.2463  0.1544
 7974SOL     OW35380   0.457   1.490  11.529 -0.6364  0.1614  0.7432
 7974SOL    HW135381   0.402   1.551  11.480 -2.8863 -1.2714  1.4927
 7974SOL    HW235382   0.520   1.459  11.464  0.5095  0.1329  1.8812
 7975SOL     OW35383   1.423   1.903   5.840 -0.4620 -0.9496  0.0452
 7975SOL    HW135384   1.397   1.929   5.751  0.5614  2.9040  0.9122
 7975SOL    HW235385   1.504   1.951   5.854 -2.8148  2.8421  0.5783
 7976SOL     OW35386   1.203   2.313   0.850  0.0746 -0.7591 -0.6001
 7976SOL    HW135387   1.130   2.310   0.788 -1.1540  2.7869  0.6541
 7976SOL    HW235388   1.229   2.221   0.847 -1.2664 -1.1650  0.6884
 7977SOL     OW35389   0.872   3.400  16.484 -0.3627 -0.1443  0.5290
 7977SOL    HW135390   0.830   3.315  16.469  1.1049 -1.0070  1.3465
 7977SOL    HW235391   0.816   3.458  16.432 -1.7073  0.1360  2.3058
 7978SOL     OW35392   2.346   4.306   9.963 -0.5774 -0.0522 -0.0802
 7978SOL    HW135393   2.294   4.246   9.909 -0.2533 -0.3036 -0.1136
 7978SOL    HW235394   2.283   4.358  10.014 -1.9533 -2.0291  0.2802
 7979SOL     OW35395   0.583   4.506  13.367 -0.3903  0.1172 -0.3071
 7979SOL    HW135396   0.662   4.546  13.331 -0.6395  0.0733 -0.9038
 7979SOL    HW235397   0.604   4.497  13.460  1.5996 -1.7502 -0.9548
 7980SOL     OW35398   2.954   1.579  17.092 -0.1970 -0.0061 -0.4594
 7980SOL    HW135399   2.911   1.495  17.111  1.5113 -0.7752 -0.0498
 7980SOL    HW235400   2.988   1.559  17.005  1.0353 -1.5087  0.3677
 7981SOL     OW35401   1.782   3.225   6.485  0.1443 -0.1242 -0.0031
 7981SOL    HW135402   1.764   3.131   6.483  1.0911 -0.3423  1.6747
 7981SOL    HW235403   1.808   3.231   6.577 -0.0021 -0.6079  0.0682
 7982SOL     OW35404   4.480   0.217   6.050 -0.0489 -0.3763 -0.5548
 7982SOL    HW135405   4.441   0.271   6.119 -0.3857 -0.9519 -0.2872
 7982SOL    HW235406   4.403   0.165   6.027  0.4688 -0.9828 -0.9224
 7983SOL     OW35407   0.051   2.402   8.034  0.3804 -0.4690 -0.3115
 7983SOL    HW135408   0.061   2.417   8.128 -2.8716  0.9022 -0.1775
 7983SOL    HW235409   4.679   2.407   8.020  0.5212 -1.1308 -1.5119
 7984SOL     OW35410   3.131   2.883   1.303 -0.1066 -0.1425 -0.6295
 7984SOL    HW135411   3.039   2.858   1.306  0.3476 -1.4467  2.5348
 7984SOL    HW235412   3.122   2.950   1.235  1.3549 -0.1747 -0.8583
 7985SOL     OW35413   1.557   2.340   8.878  0.0805  0.1227  0.0912
 7985SOL    HW135414   1.545   2.346   8.783 -2.1288 -1.4950  0.2875
 7985SOL    HW235415   1.646   2.377   8.883  0.2902 -0.4842  0.8452
 7986SOL     OW35416   4.366   0.833   7.699 -0.1663  0.4638 -0.0249
 7986SOL    HW135417   4.355   0.832   7.604 -1.2008  1.2399  0.0843
 7986SOL    HW235418   4.314   0.754   7.716 -1.9272  1.2135 -1.9432
 7987SOL     OW35419   3.761   1.787  12.833  0.8550 -0.0922  0.3870
 7987SOL    HW135420   3.856   1.794  12.827  0.8266 -1.7510 -2.0783
 7987SOL    HW235421   3.754   1.692  12.845 -1.9263  0.4709  3.0268
 7988SOL     OW35422   3.687   1.150  13.038 -0.0096 -0.8600 -0.0962
 7988SOL    HW135423   3.679   1.219  13.103  0.2808 -0.7191 -0.2103
 7988SOL    HW235424   3.744   1.081  13.071  1.1542 -0.7189 -1.8133
 7989SOL     OW35425   1.380   0.380  15.178  0.1119 -0.0077  0.1949
 7989SOL    HW135426   1.440   0.414  15.112  1.0819 -2.8819 -0.4349
 7989SOL    HW235427   1.433   0.318  15.229  1.5093  0.0884 -1.1204
 7990SOL     OW35428   1.893   3.800   6.326 -0.0366  0.4583  0.5052
 7990SOL    HW135429   1.947   3.807   6.247 -2.3257 -0.1077 -1.1122
 7990SOL    HW235430   1.845   3.718   6.314  1.3555 -0.1628 -0.7961
 7991SOL     OW35431   1.762   2.661   5.172 -0.0213 -0.0786  0.0157
 7991SOL    HW135432   1.734   2.586   5.224 -2.3038 -0.7314 -2.1721
 7991SOL    HW235433   1.712   2.734   5.209  0.2356  0.5643 -0.8936
 7992SOL     OW35434   2.115   2.278   0.645  0.3233 -0.2008 -0.1600
 7992SOL    HW135435   2.184   2.227   0.603 -1.7943 -2.1617 -1.3062
 7992SOL    HW235436   2.110   2.231   0.728  2.0363  1.1237  0.6717
 7993SOL     OW35437   1.169   4.328   7.469 -0.7378  0.0333 -0.3056
 7993SOL    HW135438   1.101   4.383   7.508 -0.1068  0.9796 -0.5444
 7993SOL    HW235439   1.198   4.374   7.390  1.4912 -0.5870  0.1474
 7994SOL     OW35440   0.092   2.882   2.939  0.2153  0.1511  0.2807
 7994SOL    HW135441   0.027   2.909   3.004 -3.2423  0.1893 -3.1880
 7994SOL    HW235442   0.109   2.954   2.879 -1.1467  0.6101  0.4349
 7995SOL     OW35443   1.565   3.864   5.114  0.4819  0.3545 -0.1269
 7995SOL    HW135444   1.550   3.953   5.082 -1.2222 -0.0230 -0.3557
 7995SOL    HW235445   1.620   3.874   5.192 -0.1138 -0.3793  0.3857
 7996SOL     OW35446   3.876   0.751   2.234  0.0757  0.2530 -0.3101
 7996SOL    HW135447   3.872   0.775   2.326  1.2453 -1.7749  0.2663
 7996SOL    HW235448   3.931   0.672   2.233 -0.4107 -0.0838 -1.3481
 7997SOL     OW35449   3.143   4.527   3.380  0.3070  0.2587  0.4205
 7997SOL    HW135450   3.215   4.579   3.345  2.6583 -2.3827  1.3140
 7997SOL    HW235451   3.121   4.570   3.462  1.1566  2.1082 -0.3208
 7998SOL     OW35452   3.604   3.201   9.497 -0.3192  0.3258 -0.6415
 7998SOL    HW135453   3.557   3.129   9.456  2.6499 -2.0075  0.0748
 7998SOL    HW235454   3.647   3.253   9.429 -0.2545  1.3778  0.1995
 7999SOL     OW35455   0.409   4.161   7.263 -0.2154 -0.0179 -0.3047
 7999SOL    HW135456   0.424   4.238   7.318 -1.3310  0.4418 -0.6377
 7999SOL    HW235457   0.470   4.183   7.192  0.8873 -0.9379  0.3551
 8000SOL     OW35458   3.149   3.238  13.607  0.2268 -0.4263 -0.1640
 8000SOL    HW135459   3.100   3.320  13.603  3.8525  1.7435  0.7053
 8000SOL    HW235460   3.085   3.168  13.617 -0.0932 -0.1088 -0.0051
 8001SOL     OW35461   1.107   2.434   1.084 -0.2814 -0.3781 -0.2431
 8001SOL    HW135462   1.156   2.387   1.017  0.2322  1.4098 -1.1193
 8001SOL    HW235463   1.176   2.495   1.110 -0.7326  0.0825 -0.1084
 8002SOL     OW35464   3.564   0.948   2.820  0.1783 -0.0328  1.0206
 8002SOL    HW135465   3.609   0.865   2.834 -0.0431 -0.4402 -0.7353
 8002SOL    HW235466   3.471   0.929   2.832 -0.0257  1.7231  2.2342
 8003SOL     OW35467   0.795   4.091   6.335  0.4183 -0.1714 -0.4873
 8003SOL    HW135468   0.857   4.083   6.262  0.1762 -0.8501 -0.6217
 8003SOL    HW235469   0.850   4.116   6.409 -1.2054  0.6572  0.4330
 8004SOL     OW35470   0.886   3.366   6.051 -0.1703 -0.4681 -0.0734
 8004SOL    HW135471   0.957   3.430   6.036  0.3861 -0.3569  2.8662
 8004SOL    HW235472   0.810   3.418   6.024  1.5176  1.2969 -1.4791
 8005SOL     OW35473   4.091   4.035  17.175  0.1623  0.3904  0.4039
 8005SOL    HW135474   4.096   4.060  17.267 -2.3810  0.5851  0.4830
 8005SOL    HW235475   4.031   3.961  17.170  1.3799 -0.4580 -1.8624
 8006SOL     OW35476   3.723   3.971  10.435 -0.4354  0.1580 -0.1208
 8006SOL    HW135477   3.738   4.054  10.389 -2.3073  0.0613 -0.9200
 8006SOL    HW235478   3.654   3.939  10.377  3.3245 -1.8371 -3.5316
 8007SOL     OW35479   2.606   1.238   6.911 -0.9281 -0.3199 -0.0280
 8007SOL    HW135480   2.555   1.288   6.975 -3.8403 -2.6882 -0.4838
 8007SOL    HW235481   2.676   1.295   6.881 -0.3262 -0.8173  0.4471
 8008SOL     OW35482   0.873   2.713  13.304 -0.5150  0.1132  0.6146
 8008SOL    HW135483   0.869   2.736  13.211 -2.2711  0.4369  0.7554
 8008SOL    HW235484   0.879   2.618  13.298  0.3542  0.0703  2.2306
 8009SOL     OW35485   3.620   2.524   6.395  0.3720  0.4721 -0.5617
 8009SOL    HW135486   3.574   2.604   6.422  1.3210  1.2136 -1.1590
 8009SOL    HW235487   3.618   2.533   6.300  0.9991  0.4191 -0.5765
 8010SOL     OW35488   3.620   2.632   3.594  0.1868 -0.3912  0.1659
 8010SOL    HW135489   3.642   2.715   3.553 -1.8763  1.7973  3.4878
 8010SOL    HW235490   3.549   2.646   3.657 -0.5440  0.7786 -0.9384
 8011SOL     OW35491   3.539   2.270  13.719  0.3352 -0.1020  0.4121
 8011SOL    HW135492   3.486   2.226  13.653 -0.7662  0.1924  1.0989
 8011SOL    HW235493   3.610   2.310  13.668 -1.0268  2.6777  0.6810
 8012SOL     OW35494   3.319   3.426  13.710 -0.1012  0.4556 -0.0854
 8012SOL    HW135495   3.244   3.374  13.681 -0.3747 -0.4826  2.3102
 8012SOL    HW235496   3.284   3.493  13.769  0.9298  1.3692 -0.5041
 8013SOL     OW35497   4.475   0.449   2.301  0.6601  0.3833  0.0912
 8013SOL    HW135498   4.520   0.411   2.226 -2.2716 -1.4832 -0.7133
 8013SOL    HW235499   4.514   0.536   2.306  0.1942  0.5466  1.0272
 8014SOL     OW35500   2.279   0.155   3.492 -0.1292 -0.0900  0.1000
 8014SOL    HW135501   2.307   0.229   3.546 -0.8138  0.6804 -0.5906
 8014SOL    HW235502   2.290   0.198   3.407  0.7740 -0.7646 -0.1205
 8015SOL     OW35503   2.686   1.476  12.767 -0.3672  0.3011  0.0803
 8015SOL    HW135504   2.719   1.471  12.677 -1.0786 -0.0647 -0.1594
 8015SOL    HW235505   2.776   1.479  12.800 -0.2739  0.5151 -0.1942
 8016SOL     OW35506   2.892   4.393   2.005  0.3336 -0.6302 -0.2848
 8016SOL    HW135507   2.866   4.308   2.041  0.8718 -1.2377 -1.3252
 8016SOL    HW235508   2.927   4.360   1.922 -0.3864 -3.2051  0.4232
 8017SOL     OW35509   2.470   4.295   5.758 -0.1309 -0.0512 -0.1936
 8017SOL    HW135510   2.564   4.308   5.755 -0.3080  1.6666  1.7664
 8017SOL    HW235511   2.441   4.294   5.667 -2.3957  0.8489  0.5095
 8018SOL     OW35512   3.610   0.951  13.284 -0.0727 -0.0727  0.4041
 8018SOL    HW135513   3.704   0.962  13.298 -0.1882  0.9946  0.3396
 8018SOL    HW235514   3.579   1.038  13.309  0.4109 -0.0148  0.8174
 8019SOL     OW35515   1.355   2.733   3.320  0.6826 -0.0674 -0.9933
 8019SOL    HW135516   1.307   2.712   3.240  0.2753  1.1001 -1.0588
 8019SOL    HW235517   1.361   2.648   3.364  0.5113  0.6315  0.4031
 8020SOL     OW35518   4.084   0.118   4.850  0.1923  0.6338  0.8425
 8020SOL    HW135519   4.015   0.090   4.790  2.1431 -0.6876 -0.7767
 8020SOL    HW235520   4.058   0.209   4.866 -1.4375  0.1472  0.9610
 8021SOL     OW35521   1.522   2.088   5.389  0.1221 -0.2932  0.4317
 8021SOL    HW135522   1.562   2.156   5.334  0.3698 -0.3571  0.5383
 8021SOL    HW235523   1.587   2.019   5.381 -0.1996 -0.5391 -0.1397
 8022SOL     OW35524   3.537   0.040   9.386  0.2261 -0.3770  0.3417
 8022SOL    HW135525   3.540   4.673   9.417  0.9648 -0.5466 -0.2148
 8022SOL    HW235526   3.585   0.038   9.303 -2.6332 -1.2568 -1.3001
 8023SOL     OW35527   2.273   3.886   8.102  0.5775 -0.1103 -0.0545
 8023SOL    HW135528   2.353   3.909   8.149  0.8123  1.7132 -1.3309
 8023SOL    HW235529   2.264   3.961   8.044 -1.3656  0.1837  0.6132
 8024SOL     OW35530   3.081   3.961   1.866 -0.1584  0.0136  0.1460
 8024SOL    HW135531   3.005   4.019   1.864  0.4365  0.7875 -0.2488
 8024SOL    HW235532   3.045   3.880   1.831  1.1815 -1.0672  1.2772
 8025SOL     OW35533   1.239   0.322   2.444  0.3934  0.3217  0.4055
 8025SOL    HW135534   1.223   0.395   2.383  1.4368  0.6437  0.5161
 8025SOL    HW235535   1.151   0.289   2.463  0.5267  0.4437  1.2149
 8026SOL     OW35536   1.112   3.179  13.259  0.4185 -0.7765  0.0742
 8026SOL    HW135537   1.159   3.262  13.270  0.4100 -0.8984  1.0102
 8026SOL    HW235538   1.161   3.144  13.185  0.5646  2.5439 -1.4206
 8027SOL     OW35539   3.808   4.287   6.604 -0.1199 -0.1896 -0.1804
 8027SOL    HW135540   3.828   4.315   6.693  1.4356 -0.1688 -0.5383
 8027SOL    HW235541   3.744   4.356   6.583 -1.9363 -1.5462  0.8848
 8028SOL     OW35542   1.084   3.126   4.723  0.1823 -0.1816 -0.2175
 8028SOL    HW135543   1.126   3.174   4.793  0.7574 -2.6343  1.1143
 8028SOL    HW235544   1.120   3.180   4.652 -1.0164 -1.4589 -1.7955
 8029SOL     OW35545   2.184   2.910   5.479  0.3847  0.1744  0.4112
 8029SOL    HW135546   2.258   2.967   5.498 -0.7594  2.5638 -2.1893
 8029SOL    HW235547   2.139   2.948   5.403  0.9314  0.0485  0.0295
 8030SOL     OW35548   2.498   0.055   0.933  0.1835 -0.0821 -0.2252
 8030SOL    HW135549   2.530   4.687   0.932  1.6144  0.4257  0.3542
 8030SOL    HW235550   2.474   0.059   1.026 -3.1201 -1.1641 -1.0340
 8031SOL     OW35551   3.047   2.787   5.562 -0.0227 -0.3379  0.2238
 8031SOL    HW135552   3.063   2.694   5.577 -0.4990 -0.5021 -0.2452
 8031SOL    HW235553   3.129   2.823   5.595 -1.0338 -1.5351  4.0206
 8032SOL     OW35554   4.123   4.181   3.155  0.4154  0.0643  0.1011
 8032SOL    HW135555   4.059   4.252   3.146  0.4990  0.0279 -0.7744
 8032SOL    HW235556   4.120   4.143   3.067 -0.7737 -1.3351  0.7536
 8033SOL     OW35557   2.975   2.631   6.620 -0.1714  0.1528 -0.0598
 8033SOL    HW135558   2.989   2.706   6.679  1.1682 -0.3044  0.2071
 8033SOL    HW235559   2.982   2.566   6.691  0.4689  1.7413  1.3248
 8034SOL     OW35560   2.896   1.422  13.452  0.4605 -0.2131 -0.5682
 8034SOL    HW135561   2.897   1.517  13.442  0.4119 -0.1260  0.2525
 8034SOL    HW235562   2.879   1.420  13.546  0.1899  0.5014 -0.6032
 8035SOL     OW35563   3.039   0.051   9.602  0.2745 -0.1720  0.0600
 8035SOL    HW135564   3.084   0.046   9.517  0.1376 -2.7973  0.1403
 8035SOL    HW235565   2.948   0.039   9.576  0.2630 -2.1466  1.0754
 8036SOL     OW35566   2.351   0.582  14.670 -0.0836 -0.0151 -0.0303
 8036SOL    HW135567   2.287   0.559  14.602  2.2013  1.3760 -2.6749
 8036SOL    HW235568   2.330   0.515  14.735 -0.0639  0.2184  0.2170
 8037SOL     OW35569   3.034   1.090  11.044 -0.0341 -0.7511  0.3638
 8037SOL    HW135570   3.068   1.066  10.958  1.5009 -0.6807  0.9587
 8037SOL    HW235571   2.952   1.042  11.031 -0.4223  0.0159 -0.0133
 8038SOL     OW35572   1.838   1.598   1.671  0.3636  0.8934  0.5014
 8038SOL    HW135573   1.754   1.639   1.649 -0.7246 -2.0599 -0.7605
 8038SOL    HW235574   1.807   1.510   1.651  0.4252  0.6860  1.3169
 8039SOL     OW35575   4.561   2.139   5.907 -0.3968 -0.0568 -0.8022
 8039SOL    HW135576   4.483   2.134   5.852  0.0548 -0.6662 -1.3839
 8039SOL    HW235577   4.548   2.223   5.952 -0.9107  0.1934 -1.4172
 8040SOL     OW35578   0.982   4.614  15.852  0.3114 -0.1474 -0.6780
 8040SOL    HW135579   0.999   4.693  15.903  0.8385 -0.8726  0.2743
 8040SOL    HW235580   0.964   4.640  15.762  0.6274  1.4393 -0.2810
 8041SOL     OW35581   2.880   4.240   4.846  0.9469  0.4794 -0.4121
 8041SOL    HW135582   2.837   4.320   4.876 -1.9690 -0.7222 -1.3501
 8041SOL    HW235583   2.971   4.254   4.870  1.3975 -1.0389 -1.2405
 8042SOL     OW35584   0.282   2.700   8.950 -0.1014 -0.2346 -0.4489
 8042SOL    HW135585   0.272   2.663   9.038 -2.1068 -0.3210 -0.7049
 8042SOL    HW235586   0.227   2.778   8.938  1.9698  1.5420  1.6556
 8043SOL     OW35587   0.629   2.626   7.420 -0.0075  0.1759  0.5731
 8043SOL    HW135588   0.717   2.628   7.384 -0.1191 -1.0979  0.2357
 8043SOL    HW235589   0.576   2.584   7.353  1.1189  1.5141 -1.1484
 8044SOL     OW35590   4.562   2.189   3.904  0.5180  0.2882  0.0337
 8044SOL    HW135591   4.549   2.263   3.963  0.4335 -1.3124  2.0307
 8044SOL    HW235592   4.540   2.109   3.952 -2.1209  0.6980 -0.5101
 8045SOL     OW35593   2.200   1.209   3.739  0.7316  0.1556 -0.0322
 8045SOL    HW135594   2.252   1.138   3.778 -0.8745 -2.4426 -2.6510
 8045SOL    HW235595   2.115   1.193   3.779  0.8426  2.2047  0.9985
 8046SOL     OW35596   1.983   0.241   6.141 -0.3301  0.0129 -0.5164
 8046SOL    HW135597   2.041   0.252   6.216 -1.4062 -1.8158  0.5817
 8046SOL    HW235598   2.048   0.240   6.071 -1.3047  0.2232 -1.4313
 8047SOL     OW35599   4.147   0.054   1.804 -0.3044  0.0945  0.3445
 8047SOL    HW135600   4.111   0.142   1.813  0.0460  0.2255  0.4572
 8047SOL    HW235601   4.222   0.053   1.863  1.0222  1.1001 -1.3223
 8048SOL     OW35602   3.953   0.649  16.150  0.2981 -0.7245  0.0737
 8048SOL    HW135603   3.971   0.582  16.216 -2.0024 -2.1093 -0.7239
 8048SOL    HW235604   3.971   0.734  16.190 -3.8163  0.8349 -1.4194
 8049SOL     OW35605   1.776   4.560   7.608 -0.2121 -0.0756  0.1465
 8049SOL    HW135606   1.698   4.555   7.664 -0.5501 -1.2201 -0.4305
 8049SOL    HW235607   1.769   4.484   7.550 -0.6968 -1.9063  2.5713
 8050SOL     OW35608   1.650   2.811   3.431 -0.3954 -0.2200  0.4359
 8050SOL    HW135609   1.663   2.754   3.507  0.8262  1.1657  1.2522
 8050SOL    HW235610   1.739   2.807   3.397 -0.1686  1.7609  0.7799
 8051SOL     OW35611   4.050   0.465   6.490 -0.7274  0.2430  0.4287
 8051SOL    HW135612   4.068   0.547   6.535 -0.0080  0.6609 -0.6441
 8051SOL    HW235613   4.041   0.402   6.562  5.0280  0.3669  1.2652
 8052SOL     OW35614   1.603   4.573   6.184 -0.1113 -0.6764  0.0986
 8052SOL    HW135615   1.522   4.601   6.141  1.3189  0.3114 -1.9605
 8052SOL    HW235616   1.642   4.655   6.217  0.3554  0.1065 -2.4221
 8053SOL     OW35617   0.615   0.873   5.568  0.3521 -0.2980  0.0493
 8053SOL    HW135618   0.546   0.846   5.629 -1.8024  1.2868 -1.6951
 8053SOL    HW235619   0.604   0.969   5.572  0.6081 -0.2820  0.4162
 8054SOL     OW35620   1.475   1.944   2.618  0.1819  0.2816 -0.5203
 8054SOL    HW135621   1.551   1.981   2.572  0.4567 -0.1383 -0.4113
 8054SOL    HW235622   1.411   2.014   2.607 -0.2045  0.1430  0.8870
 8055SOL     OW35623   1.255   1.511   0.388  0.5500 -0.0781  0.0614
 8055SOL    HW135624   1.213   1.455   0.453  2.4628 -2.9169 -1.0896
 8055SOL    HW235625   1.233   1.591   0.434 -2.1452 -1.7090  1.6009
 8056SOL     OW35626   0.530   1.204   7.741  0.4229 -0.2452  0.2929
 8056SOL    HW135627   0.532   1.242   7.829 -1.7508  1.0030 -0.2009
 8056SOL    HW235628   0.560   1.273   7.683  1.0614  0.1661  1.1091
 8057SOL     OW35629   2.387   0.587   8.093 -0.6874  0.3585  0.2928
 8057SOL    HW135630   2.344   0.568   8.176 -1.2213 -0.4002 -0.1523
 8057SOL    HW235631   2.431   0.502   8.081 -2.0915 -0.4268  0.6461
 8058SOL     OW35632   0.819   0.436   2.254  0.5352 -0.7234 -0.2345
 8058SOL    HW135633   0.871   0.516   2.242 -0.2883 -0.2985 -0.9401
 8058SOL    HW235634   0.756   0.442   2.182  0.0129  2.5664  0.4983
 8059SOL     OW35635   0.554   4.186  16.432 -0.0075  0.2918  0.5496
 8059SOL    HW135636   0.634   4.222  16.472  0.0791  1.1106 -0.3545
 8059SOL    HW235637   0.534   4.121  16.499  0.2585 -0.1826  0.1697
 8060SOL     OW35638   4.308   0.884   6.848 -0.1267  0.7931  0.6620
 8060SOL    HW135639   4.245   0.924   6.908  0.9930  0.1445  2.2551
 8060SOL    HW235640   4.367   0.849   6.915  0.9379 -0.7444 -1.0898
 8061SOL     OW35641   3.065   0.685  12.848  0.0372 -0.2499 -0.0740
 8061SOL    HW135642   3.011   0.608  12.829  0.1867 -0.9625  2.4063
 8061SOL    HW235643   3.009   0.742  12.901  1.0259 -2.1972  3.0312
 8062SOL     OW35644   1.152   0.442   3.561  0.1481  0.0644 -0.0807
 8062SOL    HW135645   1.185   0.354   3.544 -1.9957  0.0667 -4.2801
 8062SOL    HW235646   1.227   0.498   3.539 -0.3463  0.8812  0.3108
 8063SOL     OW35647   0.691   4.035  16.068 -0.2345 -0.0043  0.3473
 8063SOL    HW135648   0.785   4.053  16.061 -0.5002  1.3313  0.0837
 8063SOL    HW235649   0.676   3.948  16.032 -3.7931  1.0028 -0.5929
 8064SOL     OW35650   3.882   2.665   1.922 -0.2404  0.0311 -0.0985
 8064SOL    HW135651   3.819   2.735   1.909  1.4268  1.1419 -2.2299
 8064SOL    HW235652   3.825   2.591   1.901 -1.6256  1.1128 -0.1357
 8065SOL     OW35653   0.252   0.952   3.579 -0.5524 -0.3030  0.3519
 8065SOL    HW135654   0.168   0.907   3.566 -0.8670  0.2121  0.5930
 8065SOL    HW235655   0.274   0.958   3.486 -1.1307  0.9673  0.2959
 8066SOL     OW35656   1.583   2.881   1.484 -0.2020 -0.1069 -0.3451
 8066SOL    HW135657   1.593   2.908   1.392 -3.1891 -3.0823 -1.5821
 8066SOL    HW235658   1.644   2.808   1.476  0.7178  0.8241 -1.8830
 8067SOL     OW35659   4.465   1.448   3.146  0.4678  0.4947  0.2347
 8067SOL    HW135660   4.545   1.499   3.149  1.2747 -0.5592 -3.7459
 8067SOL    HW235661   4.492   1.365   3.184 -2.5873 -1.2235 -1.3114
 8068SOL     OW35662   4.648   0.514   1.500  0.2520 -0.9334  0.4208
 8068SOL    HW135663   4.673   0.578   1.433 -0.2954  0.7989  1.8761
 8068SOL    HW235664   4.709   0.540   1.569  0.3851  0.8551 -0.3599
 8069SOL     OW35665   3.648   1.931   3.081 -0.0436 -0.4889 -0.7393
 8069SOL    HW135666   3.562   1.898   3.108  1.0381 -2.0276  0.8360
 8069SOL    HW235667   3.658   2.004   3.142 -0.3693 -0.6006 -0.5494
 8070SOL     OW35668   3.650   2.336   1.468  0.1708  0.1022  0.1370
 8070SOL    HW135669   3.639   2.287   1.387 -1.1462 -1.0799  1.0382
 8070SOL    HW235670   3.574   2.393   1.461  0.9344  0.7181 -3.2765
 8071SOL     OW35671   3.510   3.456   6.823  0.7432 -0.0385  0.0013
 8071SOL    HW135672   3.510   3.490   6.912  2.2733  0.6918 -0.2831
 8071SOL    HW235673   3.451   3.381   6.833 -0.1828  0.4975 -1.4575
 8072SOL     OW35674   1.476   1.294   9.086  0.3538 -0.0171  0.3025
 8072SOL    HW135675   1.483   1.367   9.024  1.2386 -1.3543 -1.1751
 8072SOL    HW235676   1.381   1.287   9.101  0.3408  0.6387  0.5197
 8073SOL     OW35677   4.311   1.170  11.234 -0.1804 -0.0821 -0.3493
 8073SOL    HW135678   4.379   1.116  11.274 -0.2361 -1.9424 -2.7499
 8073SOL    HW235679   4.351   1.257  11.238 -0.9569  0.2248  0.8834
 8074SOL     OW35680   3.530   0.054  15.250 -0.6319  0.0384 -0.6043
 8074SOL    HW135681   3.603   0.115  15.238 -1.6145  1.4651  0.7198
 8074SOL    HW235682   3.491   0.047  15.163 -1.2633 -0.4547 -0.2825
 8075SOL     OW35683   1.858   0.736  11.082 -0.1650 -0.0780 -0.2603
 8075SOL    HW135684   1.786   0.699  11.031  1.6451  0.1835 -3.0711
 8075SOL    HW235685   1.827   0.827  11.086  1.4186  0.5558 -1.8063
 8076SOL     OW35686   0.901   2.376   6.693 -0.2109  0.6207  0.6784
 8076SOL    HW135687   0.818   2.409   6.659  0.4214  0.1699 -1.3258
 8076SOL    HW235688   0.969   2.434   6.659  1.2331 -1.5912 -0.2136
 8077SOL     OW35689   3.936   3.579   6.164 -0.1219  0.1145 -0.2951
 8077SOL    HW135690   3.997   3.603   6.095  0.3866  1.3845  0.5822
 8077SOL    HW235691   3.948   3.653   6.223 -1.0348  0.2720 -0.2959
 8078SOL     OW35692   1.220   2.760   5.948 -0.5480 -0.3634 -0.2151
 8078SOL    HW135693   1.145   2.819   5.959 -0.1521  0.4671 -2.0871
 8078SOL    HW235694   1.265   2.799   5.874  0.7163 -2.4590 -0.5523
 8079SOL     OW35695   2.922   3.088   9.427  0.1870  0.2005  0.7080
 8079SOL    HW135696   2.952   3.118   9.513  1.2292 -1.1079  0.7978
 8079SOL    HW235697   2.942   3.167   9.376 -0.8004 -0.7871 -1.1757
 8080SOL     OW35698   3.070   3.621   4.406  0.7057 -0.4073 -0.7869
 8080SOL    HW135699   3.022   3.690   4.361  1.9514  0.8805 -0.1399
 8080SOL    HW235700   3.136   3.601   4.339  1.0672  0.2984 -0.6415
 8081SOL     OW35701   2.243   0.888   6.383 -0.6799 -0.0690 -0.3112
 8081SOL    HW135702   2.160   0.858   6.348 -1.8227  3.3951 -0.5298
 8081SOL    HW235703   2.224   0.940   6.461 -0.9790 -0.8642  0.1491
 8082SOL     OW35704   2.320   1.912   8.847 -0.0915  0.1273 -0.5470
 8082SOL    HW135705   2.405   1.917   8.892  0.1450 -1.0125 -0.8599
 8082SOL    HW235706   2.265   1.951   8.915  1.1852  3.5363 -1.5212
 8083SOL     OW35707   2.885   3.026  16.360 -0.0568 -0.0695  0.2201
 8083SOL    HW135708   2.836   3.051  16.438  0.5088  0.4685  0.4047
 8083SOL    HW235709   2.952   3.092  16.345  1.0852 -1.3001 -0.1059
 8084SOL     OW35710   2.891   1.244   5.286 -0.5602  0.0280 -0.3390
 8084SOL    HW135711   2.829   1.171   5.282 -1.3453  0.6373  0.8442
 8084SOL    HW235712   2.845   1.328   5.273  1.1972  1.1795  0.8852
 8085SOL     OW35713   0.016   3.640   6.842 -0.0795 -0.1352 -0.3650
 8085SOL    HW135714   4.656   3.592   6.832 -1.3689  2.0838 -0.2423
 8085SOL    HW235715   4.716   3.699   6.915 -0.1253  0.0949 -0.5656
 8086SOL     OW35716   1.848   3.069   5.867 -0.1953  0.5213 -0.1069
 8086SOL    HW135717   1.757   3.048   5.846 -0.4159 -0.2094  1.6381
 8086SOL    HW235718   1.895   2.997   5.824 -1.7263 -0.8704  0.5511
 8087SOL     OW35719   4.407   4.146  13.714  0.4309 -0.0878  0.1483
 8087SOL    HW135720   4.435   4.131  13.804  0.0432  1.3027  0.4977
 8087SOL    HW235721   4.313   4.131  13.712  0.4500 -0.1884 -0.0642
 8088SOL     OW35722   1.049   1.030   3.372  0.4350 -0.1295 -0.5112
 8088SOL    HW135723   1.124   1.025   3.312  4.4770  1.1704  4.4834
 8088SOL    HW235724   1.048   1.126   3.372  1.4665 -0.1113  0.2916
 8089SOL     OW35725   4.693   3.792   9.053  0.3675  0.2307 -0.7347
 8089SOL    HW135726   0.049   3.798   9.106 -1.8946  3.0668  2.2811
 8089SOL    HW235727   0.006   3.748   8.976 -2.4140 -0.6472 -1.5281
 8090SOL     OW35728   4.437   4.215   7.216  0.0519 -0.4653 -0.5101
 8090SOL    HW135729   4.525   4.221   7.251  0.3129  1.3663 -1.4688
 8090SOL    HW235730   4.405   4.304   7.204  0.3396 -0.4163 -0.9029
 8091SOL     OW35731   2.143   3.414   3.744  0.6883  0.3011 -0.5105
 8091SOL    HW135732   2.214   3.394   3.683  0.3815 -0.3818 -0.6406
 8091SOL    HW235733   2.172   3.356   3.815  2.2327  0.4523 -1.0071
 8092SOL     OW35734   2.915   4.433   2.789 -0.3321 -0.4696  0.5897
 8092SOL    HW135735   2.863   4.489   2.731  2.3673 -1.1913 -2.5497
 8092SOL    HW235736   2.964   4.377   2.728 -2.3440  1.6090 -2.9628
 8093SOL     OW35737   3.862   1.780   3.061 -0.2346 -0.0002  0.3517
 8093SOL    HW135738   3.913   1.817   3.133 -2.1887  3.6012 -0.1190
 8093SOL    HW235739   3.785   1.836   3.071  1.3537  2.2449 -0.0850
 8094SOL     OW35740   2.949   3.715   8.121 -0.2551 -0.1555  0.0955
 8094SOL    HW135741   3.025   3.738   8.069 -0.4712  0.0184 -0.1407
 8094SOL    HW235742   2.952   3.619   8.130 -0.5639 -0.1432  0.3340
 8095SOL     OW35743   1.151   2.792   4.481 -0.2036 -0.8121  0.4342
 8095SOL    HW135744   1.226   2.851   4.484 -0.3829 -0.6956  2.8986
 8095SOL    HW235745   1.196   2.711   4.457 -1.7503 -1.5466  0.0525
 8096SOL     OW35746   4.626   4.122  14.430  0.3447  0.1145  0.1012
 8096SOL    HW135747   4.629   4.175  14.510  0.1920  1.3054 -0.6809
 8096SOL    HW235748   4.581   4.045  14.466  1.3595 -0.7301 -0.4309
 8097SOL     OW35749   3.474   2.001   0.167 -0.2836  0.0667 -0.7069
 8097SOL    HW135750   3.544   2.063   0.151 -0.2955  0.1147 -0.5731
 8097SOL    HW235751   3.424   2.008   0.086 -0.3942 -0.5715 -0.6995
 8098SOL     OW35752   0.302   3.641   2.092  0.0206  0.7420  0.0551
 8098SOL    HW135753   0.216   3.602   2.079  1.1644 -2.0537  0.7992
 8098SOL    HW235754   0.317   3.618   2.184  0.4378 -1.6238 -0.6110
 8099SOL     OW35755   2.668   0.484  13.727  0.1948  0.1677 -0.2237
 8099SOL    HW135756   2.722   0.421  13.775  0.4559  1.3588  1.0507
 8099SOL    HW235757   2.601   0.499  13.794  2.6970 -1.3318  2.6004
 8100SOL     OW35758   4.224   2.780   9.989 -0.2806 -0.2218  0.2309
 8100SOL    HW135759   4.269   2.731   9.920 -0.7422 -0.8574  0.3820
 8100SOL    HW235760   4.298   2.837  10.010 -1.1944  1.1042 -0.2038
 8101SOL     OW35761   2.752   1.393   2.843 -0.3507  1.0164  0.7355
 8101SOL    HW135762   2.747   1.305   2.880  2.4857  0.3056 -0.5677
 8101SOL    HW235763   2.846   1.404   2.834 -0.5023  2.6401  1.0955
 8102SOL     OW35764   0.517   0.078   2.008  0.4055 -0.1698 -0.0441
 8102SOL    HW135765   0.488   0.015   1.943 -1.3869  0.4864  0.1172
 8102SOL    HW235766   0.544   0.025   2.083 -2.7822 -0.6623  0.7463
 8103SOL     OW35767   4.226   0.406   6.796  0.3826 -0.3098 -0.0863
 8103SOL    HW135768   4.166   0.472   6.760  0.3688 -0.4515 -0.3205
 8103SOL    HW235769   4.174   0.399   6.877 -1.5194 -2.0287 -1.4438
 8104SOL     OW35770   1.606   4.213   6.435 -0.8685  0.0212  0.2290
 8104SOL    HW135771   1.598   4.236   6.527  0.0378 -0.6122  0.4697
 8104SOL    HW235772   1.634   4.122   6.446 -0.1355  0.0085 -1.6433
 8105SOL     OW35773   0.118   4.008   3.965  0.5019  0.0748 -0.4063
 8105SOL    HW135774   0.119   4.087   4.019  1.0828  0.4547 -0.9713
 8105SOL    HW235775   0.027   3.978   3.959  0.6521  0.1127 -2.6304
 8106SOL     OW35776   2.036   2.404   3.048  0.4030  0.0319  0.4808
 8106SOL    HW135777   2.114   2.350   3.058 -0.6423 -2.0939 -2.8302
 8106SOL    HW235778   1.975   2.360   3.108  0.2605  0.4466  0.6426
 8107SOL     OW35779   1.797   0.509   3.603  0.1338 -0.2934  0.2853
 8107SOL    HW135780   1.794   0.416   3.583 -0.7854 -0.1668 -0.1863
 8107SOL    HW235781   1.862   0.513   3.674  0.9785  0.5735 -0.5335
 8108SOL     OW35782   0.669   0.992   4.561 -0.0689  0.0441  0.4880
 8108SOL    HW135783   0.625   1.071   4.593  0.0918  0.2105  0.2941
 8108SOL    HW235784   0.731   0.973   4.632 -2.3673  0.6878  2.6922
 8109SOL     OW35785   3.606   0.244   6.615  0.1976 -0.3976 -0.3601
 8109SOL    HW135786   3.655   0.301   6.555 -1.9941  1.5167 -0.3034
 8109SOL    HW235787   3.602   0.293   6.697  0.7050  2.3801 -2.0015
 8110SOL     OW35788   1.308   4.109   3.506  0.3906  0.0883  0.2782
 8110SOL    HW135789   1.346   4.025   3.532 -0.0483  0.4197  1.9775
 8110SOL    HW235790   1.284   4.100   3.414  0.7320  1.8819  0.0095
 8111SOL     OW35791   2.500   3.444   2.997  0.2108  0.0440  0.6276
 8111SOL    HW135792   2.506   3.406   3.084 -2.4628 -2.5194 -0.3231
 8111SOL    HW235793   2.571   3.398   2.953  1.7838 -0.0093  3.1856
 8112SOL     OW35794   3.716   2.128   6.975 -0.1800 -0.3323 -0.2922
 8112SOL    HW135795   3.649   2.173   7.027  0.2211 -0.6817  0.5103
 8112SOL    HW235796   3.735   2.060   7.039 -1.3834 -1.0010 -0.6467
 8113SOL     OW35797   0.805   4.002   0.994  0.4960  0.0934 -0.2623
 8113SOL    HW135798   0.852   4.048   1.063  2.2598 -2.0945 -0.0468
 8113SOL    HW235799   0.837   3.915   1.015  0.8014 -0.1991 -1.9680
 8114SOL     OW35800   3.023   4.369   3.898 -0.1866  0.2347  0.5606
 8114SOL    HW135801   3.091   4.353   3.964 -2.6148  0.0417  3.0618
 8114SOL    HW235802   3.076   4.420   3.838 -1.6501 -0.1487 -1.0447
 8115SOL     OW35803   1.395   3.514   8.598 -0.1372 -0.1746  0.0833
 8115SOL    HW135804   1.390   3.604   8.567 -0.0375  0.4463  1.8562
 8115SOL    HW235805   1.340   3.461   8.540  1.1605 -0.9475 -0.4457
 8116SOL     OW35806   0.153   2.291   7.427  0.2756 -0.5570  0.1417
 8116SOL    HW135807   0.190   2.216   7.380 -0.3314 -0.0123 -1.1694
 8116SOL    HW235808   0.125   2.353   7.360  3.7839  1.1698  0.2433
 8117SOL     OW35809   1.712   0.751   3.229 -0.1426 -0.1320  0.1073
 8117SOL    HW135810   1.783   0.687   3.227 -0.7005 -0.6516 -2.7646
 8117SOL    HW235811   1.674   0.732   3.143 -2.1688 -1.2617  1.2382
 8118SOL     OW35812   4.030   2.550   9.851 -0.0963  0.0802 -0.4579
 8118SOL    HW135813   4.028   2.551   9.756  1.1574  0.7640 -0.4762
 8118SOL    HW235814   3.944   2.517   9.876 -0.0351  0.0329 -0.3107
 8119SOL     OW35815   3.782   1.015   4.399 -0.4137  0.2222 -0.0790
 8119SOL    HW135816   3.734   0.936   4.424  1.0687 -0.7230 -0.2488
 8119SOL    HW235817   3.865   0.978   4.369  2.1208  4.1655  2.1303
 8120SOL     OW35818   2.470   0.119   8.970  0.7156 -0.3923 -0.2608
 8120SOL    HW135819   2.442   0.091   9.057  0.1694 -0.1949 -0.3733
 8120SOL    HW235820   2.529   0.192   8.992 -0.8231  0.8659 -0.3235
 8121SOL     OW35821   2.672   3.025   7.892  0.8537 -0.1101  0.2962
 8121SOL    HW135822   2.651   3.022   7.799 -1.2214  0.1207  0.7572
 8121SOL    HW235823   2.743   2.961   7.889  0.0940 -0.8972 -0.4985
 8122SOL     OW35824   4.668   4.448  12.781  0.6289  0.7588 -0.2244
 8122SOL    HW135825   0.026   4.493  12.803  1.0249  0.3678 -0.8723
 8122SOL    HW235826   4.661   4.456  12.686 -0.3189 -0.4798 -0.2645
 8123SOL     OW35827   1.944   2.801   0.598  0.4897 -0.0928  0.4529
 8123SOL    HW135828   1.937   2.713   0.635  1.1180 -1.3498 -2.3973
 8123SOL    HW235829   1.936   2.857   0.675 -0.8908  0.2433  0.0677
 8124SOL     OW35830   3.766   3.141   1.596  0.2063 -0.2446 -0.0577
 8124SOL    HW135831   3.758   3.081   1.522 -2.4454 -1.6942  1.4099
 8124SOL    HW235832   3.683   3.189   1.594  0.3007 -0.0508  0.6341
 8125SOL     OW35833   2.881   4.019   5.456 -0.1155 -0.1577 -0.8443
 8125SOL    HW135834   2.944   4.015   5.384  1.1024  0.8108  0.1651
 8125SOL    HW235835   2.941   3.973   5.515 -1.0249 -0.1299  0.0858
 8126SOL     OW35836   3.020   3.456  15.814  0.4162  0.4469  0.4707
 8126SOL    HW135837   3.101   3.480  15.769  0.5961 -1.4248 -0.1923
 8126SOL    HW235838   3.047   3.396  15.883 -1.3566 -2.6144 -1.5214
 8127SOL     OW35839   4.228   2.974   3.116 -0.3356 -0.3074  0.4604
 8127SOL    HW135840   4.135   2.960   3.101 -0.1441 -0.7036 -0.3279
 8127SOL    HW235841   4.265   2.995   3.030  3.1731 -2.0076  1.5386
 8128SOL     OW35842   3.502   2.997   2.937 -0.1626 -0.0938  0.2479
 8128SOL    HW135843   3.500   3.075   2.881  1.6107 -0.8222 -0.8086
 8128SOL    HW235844   3.473   2.930   2.876 -1.1756 -1.2018  1.9277
 8129SOL     OW35845   1.005   1.047   1.012  0.1337  0.3526  0.2812
 8129SOL    HW135846   1.023   1.113   0.945  1.8463  1.9577  2.3077
 8129SOL    HW235847   0.944   1.103   1.060 -0.7037 -1.0442  0.8337
 8130SOL     OW35848   1.057   4.202   3.916  0.3164 -0.2288  0.0142
 8130SOL    HW135849   1.108   4.281   3.935 -0.5745  0.2342  0.4504
 8130SOL    HW235850   1.120   4.144   3.872  0.6992 -0.7346  1.2353
 8131SOL     OW35851   1.663   2.707   1.132 -0.1306 -0.7391  0.5060
 8131SOL    HW135852   1.621   2.701   1.046  2.3753 -0.0822 -0.7513
 8131SOL    HW235853   1.620   2.782   1.172  1.0325  0.2313 -0.0683
 8132SOL     OW35854   2.989   1.080  15.127 -0.0315  0.2108 -0.1523
 8132SOL    HW135855   2.944   1.137  15.188 -2.3433 -0.7490 -0.9597
 8132SOL    HW235856   2.964   0.991  15.150 -1.6991  0.9289  0.7671
 8133SOL     OW35857   2.712   1.299   0.954  0.2830 -0.0018 -0.6764
 8133SOL    HW135858   2.642   1.235   0.968 -0.3133  0.5661 -1.0731
 8133SOL    HW235859   2.737   1.312   1.045 -0.4760  0.0793 -0.4763
 8134SOL     OW35860   2.268   1.794   2.249  0.2847 -0.4820 -0.3448
 8134SOL    HW135861   2.353   1.781   2.206  0.6531  0.0480  0.2097
 8134SOL    HW235862   2.219   1.849   2.189 -0.4185 -2.9442 -1.9997
 8135SOL     OW35863   0.590   2.956  13.062  0.5162  0.6259  0.1524
 8135SOL    HW135864   0.540   2.874  13.062  1.6066 -0.0336 -0.7102
 8135SOL    HW235865   0.533   3.011  13.116  0.6262  1.0883 -0.2107
 8136SOL     OW35866   3.738   0.447   8.527  0.7343 -0.3751 -0.0181
 8136SOL    HW135867   3.703   0.420   8.442 -0.8147 -1.3653  0.9304
 8136SOL    HW235868   3.798   0.375   8.545  0.9355 -0.1712  0.1303
 8137SOL     OW35869   0.548   2.816  16.024 -0.0897  0.2746  0.2734
 8137SOL    HW135870   0.464   2.831  15.980 -0.1807  2.9776  1.3572
 8137SOL    HW235871   0.536   2.872  16.101 -2.5629 -0.6571  0.5717
 8138SOL     OW35872   1.426   1.490   5.769 -0.6229  0.0427  0.5835
 8138SOL    HW135873   1.368   1.470   5.696  1.4242  2.5148 -1.7023
 8138SOL    HW235874   1.515   1.493   5.734 -0.5192 -2.9759  0.5877
 8139SOL     OW35875   3.557   4.356   6.299  0.0028  0.0838  0.2524
 8139SOL    HW135876   3.471   4.331   6.264  0.1995 -1.0068  0.5324
 8139SOL    HW235877   3.542   4.352   6.394  1.0464 -0.1335  0.4069
 8140SOL     OW35878   3.099   2.845   4.906 -0.1776  0.0916  0.0852
 8140SOL    HW135879   3.047   2.788   4.963  2.7803 -1.5068  1.1901
 8140SOL    HW235880   3.124   2.787   4.835  2.4162  0.8135  0.4153
 8141SOL     OW35881   0.297   2.404   7.893  0.5247  0.3853 -0.4240
 8141SOL    HW135882   0.211   2.392   7.934 -0.2477 -0.5942 -2.3475
 8141SOL    HW235883   0.276   2.409   7.800 -1.4905 -2.9132 -0.1413
 8142SOL     OW35884   3.447   0.842   8.337 -0.3906  0.0528 -0.1233
 8142SOL    HW135885   3.488   0.764   8.300 -2.6096 -1.3768  0.4015
 8142SOL    HW235886   3.360   0.834   8.298 -1.2548  2.3958  1.3139
 8143SOL     OW35887   4.061   4.697   8.554 -0.1024 -0.1735  0.1465
 8143SOL    HW135888   4.002   0.044   8.582  1.5217  0.8185  1.0247
 8143SOL    HW235889   4.008   4.625   8.589 -2.3692  0.9570 -0.9717
 8144SOL     OW35890   0.859   2.640   8.015 -0.0742 -0.1127  0.6357
 8144SOL    HW135891   0.941   2.675   7.980 -1.0665  1.5259 -0.0148
 8144SOL    HW235892   0.835   2.719   8.062 -1.7969 -0.4620  0.3357
 8145SOL     OW35893   2.608   2.055  11.600 -0.2828  0.3222 -0.2160
 8145SOL    HW135894   2.596   2.142  11.639 -0.6290  0.3467 -0.3706
 8145SOL    HW235895   2.600   2.006  11.682 -0.4340  1.4734  0.4571
 8146SOL     OW35896   3.865   4.100   4.604 -0.3160  0.5853 -0.2758
 8146SOL    HW135897   3.853   4.193   4.622 -2.3720  0.1314  0.7725
 8146SOL    HW235898   3.778   4.066   4.627  0.2815 -0.3725  0.5820
 8147SOL     OW35899   1.142   3.733   5.150  0.1272 -0.1711 -0.1934
 8147SOL    HW135900   1.161   3.822   5.119  0.3296 -0.0305  0.3484
 8147SOL    HW235901   1.070   3.751   5.209 -0.0502  1.0068 -0.7688
 8148SOL     OW35902   4.104   4.387   7.550  0.8109  0.9832 -0.0367
 8148SOL    HW135903   4.171   4.455   7.541  0.7223  0.7781 -2.1746
 8148SOL    HW235904   4.023   4.434   7.530  0.7206  0.8641  0.0554
 8149SOL     OW35905   3.693   1.420   2.638 -0.2347 -0.0891 -0.2817
 8149SOL    HW135906   3.709   1.506   2.599 -2.2609  0.9805  1.2781
 8149SOL    HW235907   3.686   1.371   2.557 -0.4681  0.4878 -0.6103
 8150SOL     OW35908   1.127   4.208   4.279 -0.4111  0.0726 -0.3309
 8150SOL    HW135909   1.213   4.166   4.273 -1.4090 -2.5631  3.7770
 8150SOL    HW235910   1.141   4.282   4.220 -0.6777  1.0802  0.8793
 8151SOL     OW35911   0.448   1.310   3.435 -0.3345  0.3015  0.4692
 8151SOL    HW135912   0.529   1.300   3.384 -0.8876 -1.6018 -0.0200
 8151SOL    HW235913   0.437   1.220   3.466 -2.9686 -0.0110 -1.4066
 8152SOL     OW35914   1.400   4.296   7.600  0.0416  0.3015  0.1332
 8152SOL    HW135915   1.348   4.231   7.648  1.0753  0.5197  1.5652
 8152SOL    HW235916   1.329   4.325   7.542  1.1963 -0.8624 -1.8434
 8153SOL     OW35917   4.124   2.676   2.023 -0.0690 -0.1888  0.1111
 8153SOL    HW135918   4.135   2.589   2.063 -2.1324  0.3165  1.7927
 8153SOL    HW235919   4.036   2.664   1.989 -0.6026  1.4661  0.9078
 8154SOL     OW35920   3.266   1.939   9.911 -1.1177 -0.2119 -0.2486
 8154SOL    HW135921   3.337   1.901   9.963  0.5507  2.7283 -0.3906
 8154SOL    HW235922   3.321   1.983   9.847 -2.0724  1.6281  0.2177
 8155SOL     OW35923   3.294   0.208   8.679  0.2349  0.2869  0.2980
 8155SOL    HW135924   3.376   0.254   8.662  1.1688 -0.7399  1.9331
 8155SOL    HW235925   3.285   0.225   8.773  1.1162  1.0583  0.2398
 8156SOL     OW35926   2.533   1.845   1.298 -0.0876  0.1666  0.0703
 8156SOL    HW135927   2.475   1.846   1.374  0.8919  1.6213  0.8048
 8156SOL    HW235928   2.502   1.917   1.245 -0.2551 -0.8087 -1.1497
 8157SOL     OW35929   2.577   2.740   2.234 -0.2644 -0.1574  0.1570
 8157SOL    HW135930   2.594   2.756   2.141  1.6850 -1.3282  0.3074
 8157SOL    HW235931   2.488   2.706   2.239  0.8043 -2.8235  0.5742
 8158SOL     OW35932   0.120   1.720  10.192  0.0964  0.2866  0.0754
 8158SOL    HW135933   0.144   1.747  10.281 -1.9758 -0.3174  0.8113
 8158SOL    HW235934   0.155   1.796  10.146 -0.4409  0.5657  0.1325
 8159SOL     OW35935   2.933   0.592  15.129  0.1219 -0.0001  0.1589
 8159SOL    HW135936   2.917   0.517  15.072 -0.6823 -0.2065  0.6426
 8159SOL    HW235937   2.952   0.551  15.214  2.4939 -0.2120 -0.4776
 8160SOL     OW35938   0.993   2.354   3.577 -0.1314  0.3910  0.4383
 8160SOL    HW135939   1.077   2.318   3.550 -1.3705 -0.5240 -2.1452
 8160SOL    HW235940   0.986   2.340   3.672 -0.6516 -1.6300  0.0933
 8161SOL     OW35941   0.340   3.550  15.905  0.0717 -0.1940  0.3595
 8161SOL    HW135942   0.293   3.574  15.825  1.6128  0.6406 -0.2936
 8161SOL    HW235943   0.276   3.484  15.932  0.3653  0.5380  2.8423
 8162SOL     OW35944   4.299   0.789   8.031 -0.0160 -0.9144  0.4221
 8162SOL    HW135945   4.234   0.796   7.962  2.0847  1.2830 -1.3348
 8162SOL    HW235946   4.293   0.875   8.073 -1.1393 -2.2732  3.0565
 8163SOL     OW35947   3.312   4.515   0.124 -0.4716 -0.2621  0.2155
 8163SOL    HW135948   3.373   4.474   0.062  1.8516  2.3719  0.7774
 8163SOL    HW235949   3.274   4.443   0.174  2.9304 -0.3804  2.6071
 8164SOL     OW35950   3.170   3.576   8.920 -0.4769 -0.2399 -0.1737
 8164SOL    HW135951   3.124   3.535   8.995 -0.4381  0.6474  0.3325
 8164SOL    HW235952   3.241   3.515   8.899  0.1835  0.8323 -0.9917
 8165SOL     OW35953   1.816   2.462   9.121 -0.5805  0.1373 -0.2168
 8165SOL    HW135954   1.807   2.460   9.026  1.2995  0.1566 -0.3886
 8165SOL    HW235955   1.773   2.379   9.140 -0.2725  0.0974  0.3112
 8166SOL     OW35956   2.529   4.357   8.440 -0.0476  0.1091 -0.1036
 8166SOL    HW135957   2.484   4.360   8.356 -1.4537 -0.3803  0.6457
 8166SOL    HW235958   2.542   4.263   8.452  0.3209  0.2480  0.5867
 8167SOL     OW35959   3.012   1.918  14.777  0.5491 -0.4863  0.2600
 8167SOL    HW135960   2.922   1.927  14.807  1.4317  1.1446  2.3959
 8167SOL    HW235961   3.013   1.964  14.693 -1.0184  1.3209  1.2394
 8168SOL     OW35962   1.779   4.566  14.644  0.2268  0.3802 -0.0034
 8168SOL    HW135963   1.756   4.659  14.637 -0.0271  0.2512 -0.9562
 8168SOL    HW235964   1.872   4.567  14.620  0.1134 -1.0356 -0.4983
 8169SOL     OW35965   0.912   4.315   4.987  0.1665  0.0463 -0.0726
 8169SOL    HW135966   0.909   4.409   5.004 -1.7701  0.1170 -0.7907
 8169SOL    HW235967   0.901   4.273   5.073 -0.2295  0.2167 -0.0403
 8170SOL     OW35968   4.539   2.760  13.833 -0.7600 -0.7966 -0.1722
 8170SOL    HW135969   4.532   2.845  13.875  2.3862 -0.1317 -1.0051
 8170SOL    HW235970   4.495   2.772  13.748 -1.1498  1.6156  0.3866
 8171SOL     OW35971   2.642   1.356   0.604  1.4264 -0.1793  0.1292
 8171SOL    HW135972   2.688   1.434   0.573 -0.4879  1.5917  1.6741
 8171SOL    HW235973   2.573   1.404   0.651  0.5827 -2.7646  1.5388
 8172SOL     OW35974   4.676   2.301  11.132 -0.1856 -0.0396  0.1188
 8172SOL    HW135975   4.706   2.327  11.219 -0.1519 -1.1820  0.4536
 8172SOL    HW235976   0.020   2.342  11.078  0.4469 -0.9093  0.2481
 8173SOL     OW35977   2.482   2.976   6.163 -0.4489  0.1266 -0.1200
 8173SOL    HW135978   2.466   3.023   6.082 -1.0954 -0.1039 -0.1265
 8173SOL    HW235979   2.533   3.032   6.221 -0.9460  0.7776 -0.3196
 8174SOL     OW35980   3.938   4.353  10.808  0.3751 -0.0776 -0.2403
 8174SOL    HW135981   3.882   4.276  10.821 -1.6225  1.1346 -1.7316
 8174SOL    HW235982   3.978   4.356  10.895  2.3383 -0.2582 -1.1239
 8175SOL     OW35983   3.041   2.629   4.238  0.3175  0.5643  0.4765
 8175SOL    HW135984   3.066   2.596   4.151  0.9094  0.3705  0.7174
 8175SOL    HW235985   3.029   2.720   4.213 -1.5494  0.6817  1.8773
 8176SOL     OW35986   3.690   0.160  12.599 -0.3110 -0.6276  0.0004
 8176SOL    HW135987   3.718   0.091  12.659  1.7854  1.7860  1.7856
 8176SOL    HW235988   3.768   0.215  12.600  0.1246 -1.2377 -0.7281
 8177SOL     OW35989   0.280   2.553   2.519 -0.4558  0.3851  0.4682
 8177SOL    HW135990   0.328   2.631   2.548  0.3223 -0.1177  0.5271
 8177SOL    HW235991   0.303   2.542   2.427  0.6241 -0.3005  0.8260
 8178SOL     OW35992   3.780   4.604   6.062 -0.0357 -0.4797 -0.0926
 8178SOL    HW135993   3.802   4.534   6.001  0.7034 -1.8044  1.6897
 8178SOL    HW235994   3.807   4.575   6.150 -1.3065  0.6165  0.6561
 8179SOL     OW35995   4.038   2.063  14.827  0.1012 -0.9379 -0.1141
 8179SOL    HW135996   4.022   2.125  14.756  1.5705  1.7097  1.8468
 8179SOL    HW235997   4.124   2.021  14.815  1.2537  0.6010  2.5580
 8180SOL     OW35998   0.937   2.117   0.517  0.2577 -0.0534  0.4531
 8180SOL    HW135999   1.027   2.106   0.485  0.0953 -3.4054  1.1175
 8180SOL    HW236000   0.881   2.091   0.444  1.4345 -0.8024 -0.1741
 8181SOL     OW36001   3.136   1.296   6.686  0.0032 -0.5212  1.1451
 8181SOL    HW136002   3.141   1.356   6.760  1.2938 -1.0475  1.4840
 8181SOL    HW236003   3.052   1.256   6.712 -1.1073 -1.9811 -4.6860
 8182SOL     OW36004   4.307   0.406   4.663 -0.8055  0.0920  0.1083
 8182SOL    HW136005   4.226   0.449   4.690 -0.7842  0.0441  0.2488
 8182SOL    HW236006   4.342   0.478   4.610  1.4178 -0.7526  0.4365
 8183SOL     OW36007   2.233   2.149  14.864 -0.1444 -0.2475 -0.6221
 8183SOL    HW136008   2.225   2.139  14.770  0.5487  0.0938 -0.7169
 8183SOL    HW236009   2.191   2.066  14.887  1.8185 -1.0603  0.0907
 8184SOL     OW36010   2.198   3.465  15.139 -0.3291 -0.1896  0.1221
 8184SOL    HW136011   2.168   3.556  15.139 -0.6132 -0.2983 -3.1463
 8184SOL    HW236012   2.119   3.435  15.095 -0.2998 -1.1641  0.7495
 8185SOL     OW36013   0.208   2.189   0.570 -0.0667  0.1667 -0.1561
 8185SOL    HW136014   0.292   2.142   0.572 -0.3101 -0.2936 -0.8313
 8185SOL    HW236015   0.167   2.176   0.655 -1.2930 -0.2170 -0.8074
 8186SOL     OW36016   3.194   2.599   7.109 -0.1856  0.2453 -0.0875
 8186SOL    HW136017   3.126   2.542   7.143  0.1898  0.0637  0.3499
 8186SOL    HW236018   3.242   2.534   7.058 -1.6031 -1.9348  1.3632
 8187SOL     OW36019   4.495   0.588   3.494  0.2162 -0.0539 -0.1651
 8187SOL    HW136020   4.419   0.591   3.436 -0.1353  1.1377  0.3529
 8187SOL    HW236021   4.519   0.502   3.459  3.3348  0.9492 -0.5011
 8188SOL     OW36022   1.178   2.276   1.614  0.4106  0.1393 -0.2957
 8188SOL    HW136023   1.121   2.352   1.603 -0.0927  0.0837  1.8651
 8188SOL    HW236024   1.157   2.245   1.702 -0.4980  1.1048 -0.1761
 8189SOL     OW36025   3.416   2.502   9.909 -0.2406  0.1624  0.3246
 8189SOL    HW136026   3.387   2.445   9.980 -0.8304  0.7084  0.5171
 8189SOL    HW236027   3.335   2.520   9.863  0.0265  0.2652 -0.1083
 8190SOL     OW36028   2.416   0.663   8.858  0.4676  0.0568 -0.2459
 8190SOL    HW136029   2.386   0.709   8.937 -0.5301 -0.3239 -0.4023
 8190SOL    HW236030   2.491   0.619   8.899 -0.1206 -0.0954  0.6801
 8191SOL     OW36031   4.128   0.143   3.666  0.2956 -0.3296  0.5424
 8191SOL    HW136032   4.069   0.120   3.738  2.0150 -0.7669  1.8027
 8191SOL    HW236033   4.067   0.168   3.597 -1.2062 -2.2045  1.1961
 8192SOL     OW36034   1.509   3.421   4.927  0.2338  0.6645  0.9093
 8192SOL    HW136035   1.533   3.513   4.916  1.2270  0.5671  2.3273
 8192SOL    HW236036   1.448   3.431   4.999 -1.9650 -1.4100 -0.6748
 8193SOL     OW36037   2.797   1.541   1.662 -0.3477 -0.1922 -0.2860
 8193SOL    HW136038   2.887   1.522   1.633 -1.4274  0.1354 -3.9349
 8193SOL    HW236039   2.803   1.633   1.637  1.6055 -0.8172 -2.2038
 8194SOL     OW36040   0.579   0.634  17.586 -0.0515 -0.5837  0.2414
 8194SOL    HW136041   0.547   0.643  17.496 -0.4870  0.1873  0.4711
 8194SOL    HW236042   0.657   0.581  17.577 -0.7862 -1.7316  0.6653
 8195SOL     OW36043   4.336   4.047   5.108  0.8094  0.0308  0.0679
 8195SOL    HW136044   4.429   4.055   5.132  0.8149  0.4102 -0.0828
 8195SOL    HW236045   4.306   4.137   5.118  1.5668  0.0984  1.8342
 8196SOL     OW36046   3.076   1.721   0.742  0.3160  0.3525  0.4064
 8196SOL    HW136047   3.111   1.794   0.792  1.1298  0.8276 -0.8543
 8196SOL    HW236048   3.063   1.647   0.801  0.7643  1.5527  1.9997
 8197SOL     OW36049   2.605   1.198   1.461  0.7969  0.0283 -0.7647
 8197SOL    HW136050   2.571   1.275   1.507 -0.7496 -0.6717 -0.7425
 8197SOL    HW236051   2.642   1.226   1.378  1.5113 -0.4209 -0.6000
 8198SOL     OW36052   0.785   0.468  17.580  0.3437  0.2254  0.2915
 8198SOL    HW136053   0.802   0.378  17.609  0.1772  0.0539 -0.1454
 8198SOL    HW236054   0.866   0.476  17.529 -0.1139 -0.7501 -0.5808
 8199SOL     OW36055   0.838   1.005   8.007 -0.4067  0.3578 -0.1569
 8199SOL    HW136056   0.877   0.969   8.087 -2.3932  0.4950  0.8694
 8199SOL    HW236057   0.780   1.067   8.052  0.4071 -1.1863  3.0482
 8200SOL     OW36058   1.376   3.819  12.030  0.7858 -0.4322  0.0807
 8200SOL    HW136059   1.387   3.845  12.122  0.8867  0.7249 -0.2617
 8200SOL    HW236060   1.400   3.901  11.986  0.5044 -0.2589  0.2460
 8201SOL     OW36061   2.812   3.992   7.778 -0.3292  0.0914  0.8568
 8201SOL    HW136062   2.866   3.914   7.790  1.4389  0.6434 -3.4461
 8201SOL    HW236063   2.747   3.965   7.713 -0.5290 -0.4377  1.2819
 8202SOL     OW36064   3.962   0.581   2.610  0.2553  0.2698  0.0943
 8202SOL    HW136065   4.028   0.566   2.543  0.0241  0.2715 -0.1375
 8202SOL    HW236066   4.011   0.651   2.654 -0.3724 -0.0834  1.3459
 8203SOL     OW36067   3.498   4.559  14.798  0.3099  0.1909 -0.2838
 8203SOL    HW136068   3.405   4.540  14.794  0.2884 -0.1242  1.9692
 8203SOL    HW236069   3.536   4.497  14.736  2.6343 -0.2600  1.5890
 8204SOL     OW36070   2.730   2.018  11.271  0.1925 -0.2565 -0.0008
 8204SOL    HW136071   2.784   1.967  11.211  0.9928  0.7625 -0.1398
 8204SOL    HW236072   2.689   2.087  11.219 -1.2810 -2.7857 -2.1882
 8205SOL     OW36073   3.537   0.785   1.575 -0.0954  0.1416 -0.3451
 8205SOL    HW136074   3.544   0.724   1.649 -2.2250  0.9030  0.5025
 8205SOL    HW236075   3.629   0.791   1.550  0.1827  1.4328  0.9708
 8206SOL     OW36076   0.520   3.386   7.581 -0.1059  0.3996  0.4029
 8206SOL    HW136077   0.576   3.373   7.504 -0.7070 -0.9620  0.1842
 8206SOL    HW236078   0.564   3.319   7.634  2.2657  1.2820 -0.4481
 8207SOL     OW36079   0.565   0.068   7.499 -0.0835  0.7927  0.6972
 8207SOL    HW136080   0.591   0.137   7.559  1.8554  0.8568 -0.2148
 8207SOL    HW236081   0.647   0.060   7.450 -0.0078  1.8018  0.6677
 8208SOL     OW36082   3.813   4.429   6.270  0.3737 -0.0318  0.6320
 8208SOL    HW136083   3.718   4.416   6.269  0.5143 -0.9786 -0.0356
 8208SOL    HW236084   3.843   4.340   6.288  1.9775  0.1937 -0.9072
 8209SOL     OW36085   0.282   3.915   3.326 -0.2744 -0.2879 -0.2817
 8209SOL    HW136086   0.377   3.907   3.335 -0.1283  1.2794 -0.4323
 8209SOL    HW236087   0.261   3.823   3.344 -1.9645  0.2980  0.6685
 8210SOL     OW36088   1.036   1.664   7.439 -0.0904  0.2627  0.1305
 8210SOL    HW136089   1.069   1.713   7.515 -0.1566  1.2357 -0.4687
 8210SOL    HW236090   1.015   1.745   7.392 -0.8691  0.0517  0.1076
 8211SOL     OW36091   2.818   3.373  12.134 -0.3678  0.1737  0.2089
 8211SOL    HW136092   2.753   3.347  12.200  0.6016 -1.9926  0.2960
 8211SOL    HW236093   2.828   3.467  12.147 -1.3490  0.2379  0.5393
 8212SOL     OW36094   3.640   1.471   3.889 -0.3955  0.4278 -0.4838
 8212SOL    HW136095   3.613   1.557   3.919  1.4957  1.5678 -1.9864
 8212SOL    HW236096   3.638   1.493   3.795  1.6083 -0.6273 -0.7973
 8213SOL     OW36097   2.795   0.531   4.626  0.3036  0.0577 -0.3119
 8213SOL    HW136098   2.861   0.485   4.678 -0.0737  0.8255  0.8403
 8213SOL    HW236099   2.795   0.614   4.673 -0.8371  0.1373 -0.4714
 8214SOL     OW36100   0.805   0.898  15.407  0.0697  0.3030  0.0670
 8214SOL    HW136101   0.753   0.832  15.452  0.7233  0.4405  1.0243
 8214SOL    HW236102   0.772   0.982  15.440 -0.5269 -0.4090  1.3104
 8215SOL     OW36103   1.548   0.133   4.293 -0.2642 -0.9340  0.7161
 8215SOL    HW136104   1.567   0.137   4.199  1.6280  0.5595  1.1748
 8215SOL    HW236105   1.490   0.209   4.302 -0.9310 -1.1841 -1.3250
 8216SOL     OW36106   1.140   3.514   9.440 -0.6618  0.5147 -0.6012
 8216SOL    HW136107   1.196   3.574   9.391 -0.7310 -0.3467 -1.7425
 8216SOL    HW236108   1.114   3.460   9.366 -2.5708 -0.4108  0.7287
 8217SOL     OW36109   2.600   1.316   5.080  0.4529  0.0451 -0.6431
 8217SOL    HW136110   2.522   1.336   5.133 -1.4688 -1.0302 -3.0672
 8217SOL    HW236111   2.625   1.236   5.126  1.2808 -0.0978 -1.3608
 8218SOL     OW36112   2.975   2.628   7.504  0.2581 -0.5687  0.5689
 8218SOL    HW136113   2.918   2.652   7.577  0.0558  1.3742 -0.2401
 8218SOL    HW236114   2.906   2.628   7.438  1.3043  0.8600 -0.5229
 8219SOL     OW36115   4.457   1.498   6.815  0.5880  0.1487 -0.2555
 8219SOL    HW136116   4.546   1.531   6.820  0.7465 -0.2244 -0.6209
 8219SOL    HW236117   4.476   1.410   6.784 -2.1709 -0.8513  0.8879
 8220SOL     OW36118   3.839   2.969   7.379  0.3586 -0.0631  0.1806
 8220SOL    HW136119   3.801   2.908   7.315  3.3798  1.1864 -2.7593
 8220SOL    HW236120   3.766   3.023   7.411 -0.5613  0.2058 -2.4065
 8221SOL     OW36121   2.354   2.659   1.184 -0.0983  0.2880  0.0307
 8221SOL    HW136122   2.320   2.701   1.105  0.7579  1.3977  0.2610
 8221SOL    HW236123   2.436   2.619   1.156 -1.3799 -1.9320 -0.5498
 8222SOL     OW36124   4.226   1.516   4.877 -0.0120 -0.4458 -0.1537
 8222SOL    HW136125   4.312   1.482   4.901  0.5695  0.6337 -0.7107
 8222SOL    HW236126   4.177   1.434   4.882 -1.6087  0.3598 -2.7136
 8223SOL     OW36127   4.016   0.687   6.224  0.4184 -0.2550 -0.3156
 8223SOL    HW136128   4.069   0.608   6.237 -0.1708 -0.8949 -1.9101
 8223SOL    HW236129   3.934   0.648   6.256  2.1514 -4.3649 -0.8322
 8224SOL     OW36130   1.073   1.768   0.250 -0.5342 -0.3480 -0.2743
 8224SOL    HW136131   1.163   1.741   0.233 -1.1440 -2.6043  0.1673
 8224SOL    HW236132   1.083   1.794   0.341 -1.3136  0.4678 -0.4096
 8225SOL     OW36133   2.310   2.449   8.177  0.0360  0.2203  0.3322
 8225SOL    HW136134   2.294   2.540   8.151 -2.7762  0.1477  1.8192
 8225SOL    HW236135   2.234   2.421   8.228 -0.4253  2.8325  1.0911
 8226SOL     OW36136   4.192   4.387   5.114  0.8641  0.5523 -0.8689
 8226SOL    HW136137   4.148   4.337   5.182  0.3557 -0.4043 -1.9119
 8226SOL    HW236138   4.119   4.425   5.066 -1.1429 -1.4835  0.6280
 8227SOL     OW36139   1.957   2.882   0.093  0.0990  0.1494  0.2300
 8227SOL    HW136140   2.001   2.815   0.041  0.5858  0.8956 -0.3179
 8227SOL    HW236141   1.938   2.843   0.178  1.8595 -1.6882 -0.2210
 8228SOL     OW36142   0.674   3.386   8.077  0.1765 -0.0307 -0.0935
 8228SOL    HW136143   0.633   3.454   8.130  1.4369  0.3089  0.4432
 8228SOL    HW236144   0.734   3.439   8.025  1.3054 -0.5880  0.6342
 8229SOL     OW36145   0.177   0.455   4.167 -0.8039 -0.0405 -0.3169
 8229SOL    HW136146   0.119   0.381   4.147 -1.2210  0.4303 -0.8200
 8229SOL    HW236147   0.154   0.518   4.100  0.3258  0.9841  0.2484
 8230SOL     OW36148   1.586   0.807   6.604 -0.0197 -0.4445 -0.5010
 8230SOL    HW136149   1.655   0.850   6.654  0.0988  1.5961 -2.4098
 8230SOL    HW236150   1.566   0.743   6.672  2.3367  0.2640  0.8512
 8231SOL     OW36151   1.557   1.011   5.811  0.5981  0.3391  0.0737
 8231SOL    HW136152   1.612   1.058   5.748 -1.0201  1.2416 -0.6845
 8231SOL    HW236153   1.519   0.944   5.753  0.9835  1.2899 -1.2648
 8232SOL     OW36154   0.354   1.724   5.972 -0.0425 -0.2899  0.3234
 8232SOL    HW136155   0.446   1.751   5.971 -0.2160  0.4640  2.9264
 8232SOL    HW236156   0.375   1.635   6.002 -0.9997 -0.3782  0.7265
 8233SOL     OW36157   1.101   1.505   7.785  0.0602 -0.4114  0.0674
 8233SOL    HW136158   1.015   1.479   7.817 -1.3018  1.2641 -2.2517
 8233SOL    HW236159   1.101   1.600   7.783 -0.6950 -0.4277 -0.9608
 8234SOL     OW36160   3.595   1.889   5.106  0.0004  0.5911  0.3011
 8234SOL    HW136161   3.532   1.816   5.105 -0.0929  0.6480  1.5625
 8234SOL    HW236162   3.629   1.895   5.017 -1.0440 -0.4696 -0.1714
 8235SOL     OW36163   2.876   3.645   5.416  0.1621 -0.0897 -0.1355
 8235SOL    HW136164   2.825   3.717   5.453  0.5079  0.7616 -1.2874
 8235SOL    HW236165   2.942   3.684   5.358 -1.3554  0.2607 -1.6524
 8236SOL     OW36166   3.042   0.582   7.569 -0.3488 -0.1370 -0.0580
 8236SOL    HW136167   3.103   0.606   7.639 -0.1384 -3.5398  0.8953
 8236SOL    HW236168   2.967   0.606   7.624  0.1377 -2.7226  1.7214
 8237SOL     OW36169   3.647   0.671   2.124  0.0401 -0.6072  0.1006
 8237SOL    HW136170   3.727   0.698   2.168  1.0277 -0.9485 -1.5074
 8237SOL    HW236171   3.602   0.619   2.191  0.4212 -0.0333  0.8038
 8238SOL     OW36172   0.020   1.218   8.521  0.1894  0.4659  0.1138
 8238SOL    HW136173   4.659   1.210   8.475  0.2711  1.1283 -0.1541
 8238SOL    HW236174   0.075   1.157   8.472  1.8671 -0.4852  3.1806
 8239SOL     OW36175   4.406   4.192   3.159  1.2407  0.0855 -0.5032
 8239SOL    HW136176   4.433   4.140   3.084 -0.0221 -1.0181 -0.1843
 8239SOL    HW236177   4.311   4.188   3.149  1.1188  0.1082  0.5543
 8240SOL     OW36178   0.312   1.297  17.508 -0.1338  0.1772 -0.1829
 8240SOL    HW136179   0.345   1.219  17.463  1.5751 -0.1125  1.5545
 8240SOL    HW236180   0.354   1.294  17.594 -1.7403  1.0146  0.6199
 8241SOL     OW36181   1.091   3.556   5.845  0.4541 -0.0906  0.0105
 8241SOL    HW136182   1.022   3.584   5.785  1.0897  2.2611  0.3833
 8241SOL    HW236183   1.099   3.625   5.911 -2.3855  1.1586 -0.9622
 8242SOL     OW36184   3.664   1.288   6.589  0.0750 -0.4173 -0.1585
 8242SOL    HW136185   3.589   1.342   6.564  2.1490  1.8381 -1.5561
 8242SOL    HW236186   3.707   1.297   6.504  2.7583 -1.8457  1.0445
 8243SOL     OW36187   4.607   1.116   5.061 -0.1638 -0.6607 -0.3589
 8243SOL    HW136188   4.667   1.063   5.008 -0.9693  0.0078 -1.9455
 8243SOL    HW236189   4.638   1.086   5.146 -1.5686 -0.5474  0.1872
 8244SOL     OW36190   2.003   1.841   1.904  0.2717 -0.2851 -0.0879
 8244SOL    HW136191   1.987   1.799   1.989  2.3183 -1.5428 -0.3123
 8244SOL    HW236192   2.093   1.815   1.886  1.1478  3.3568 -1.0059
 8245SOL     OW36193   3.259   1.823  15.087 -0.2006  0.6328  0.1669
 8245SOL    HW136194   3.267   1.746  15.144  0.5504  0.7304  0.1936
 8245SOL    HW236195   3.336   1.807  15.034 -0.7859  0.8409 -0.7429
 8246SOL     OW36196   0.485   0.157   2.551 -0.5042  0.1251 -0.4511
 8246SOL    HW136197   0.558   0.199   2.507 -0.4772  1.6983  1.0829
 8246SOL    HW236198   0.520   0.071   2.576 -0.2115 -0.0841 -1.6276
 8247SOL     OW36199   3.085   4.662   8.502  0.3583  0.1527 -0.5022
 8247SOL    HW136200   3.077   0.023   8.549 -0.5780  0.2588 -0.8594
 8247SOL    HW236201   3.132   4.677   8.420  2.5228 -0.7180  0.5901
 8248SOL     OW36202   1.407   2.500   9.263 -0.0842 -0.1118 -0.2142
 8248SOL    HW136203   1.465   2.547   9.204  1.9850  0.0300  1.9275
 8248SOL    HW236204   1.371   2.441   9.197 -0.9367  1.4234 -1.1310
 8249SOL     OW36205   2.837   2.301   4.124  0.3810  0.2405  0.1123
 8249SOL    HW136206   2.916   2.321   4.075 -0.2014  3.1114  0.3754
 8249SOL    HW236207   2.868   2.224   4.172 -1.2636 -0.5189 -0.0320
 8250SOL     OW36208   0.751   0.613   9.259 -0.2932 -0.6229 -0.0161
 8250SOL    HW136209   0.763   0.661   9.341  1.2328  0.5036 -0.8873
 8250SOL    HW236210   0.663   0.642   9.232 -0.5384 -1.2861  0.0736
 8251SOL     OW36211   3.208   2.399  15.664 -0.4910 -0.1916 -0.0709
 8251SOL    HW136212   3.130   2.449  15.688 -0.5759 -0.5219  0.3250
 8251SOL    HW236213   3.198   2.394  15.569  0.9003 -0.9899 -0.1733
 8252SOL     OW36214   3.393   3.773   1.398 -0.1393  0.4849 -0.3078
 8252SOL    HW136215   3.453   3.698   1.403 -1.5269 -0.6134 -0.1234
 8252SOL    HW236216   3.440   3.843   1.354  0.8704 -0.9539 -1.5278
 8253SOL     OW36217   1.683   3.900  14.936 -0.0914  0.3771  0.3669
 8253SOL    HW136218   1.759   3.883  14.880  0.4218 -1.4391  1.5947
 8253SOL    HW236219   1.621   3.848  14.885  0.5481  2.5952 -2.6758
 8254SOL     OW36220   3.633   3.728   0.960  0.0259 -0.5028 -0.1584
 8254SOL    HW136221   3.728   3.726   0.950 -0.0562  0.8407 -1.3176
 8254SOL    HW236222   3.625   3.823   0.972  1.1024 -0.5573  0.9895
 8255SOL     OW36223   4.058   3.900   3.094 -0.4335  0.0434  0.0772
 8255SOL    HW136224   3.990   3.930   3.035 -0.7703  2.8329  1.8998
 8255SOL    HW236225   4.131   3.948   3.055 -0.3457 -1.4164 -1.5300
 8256SOL     OW36226   4.096   2.053  16.543 -0.3104  0.2376 -0.1426
 8256SOL    HW136227   4.164   1.998  16.582 -0.3193 -0.1693 -0.6872
 8256SOL    HW236228   4.092   2.129  16.600  0.8357 -0.2886  0.6207
 8257SOL     OW36229   1.745   2.001  10.069 -0.1499  0.0425 -0.1106
 8257SOL    HW136230   1.663   2.042  10.096 -0.9624 -0.4630 -1.7846
 8257SOL    HW236231   1.773   2.062  10.001  0.2237 -0.1403 -0.1228
 8258SOL     OW36232   2.497   1.726  11.907 -0.3826  0.7170 -0.4855
 8258SOL    HW136233   2.523   1.817  11.894 -4.6798  1.7563 -1.7656
 8258SOL    HW236234   2.417   1.718  11.853 -0.3714 -0.4424 -0.3261
 8259SOL     OW36235   3.429   1.634   1.314  0.1419 -0.4614 -0.5748
 8259SOL    HW136236   3.357   1.573   1.299  0.1003 -0.8275  1.0822
 8259SOL    HW236237   3.495   1.571   1.343 -0.2486  0.0373  1.4393
 8260SOL     OW36238   0.266   1.362   8.543 -0.0160 -0.2967  0.5613
 8260SOL    HW136239   0.287   1.400   8.629  2.2171  0.2988 -0.2741
 8260SOL    HW236240   0.172   1.349   8.559  0.0373 -1.4885 -0.1080
 8261SOL     OW36241   4.013   2.583   0.310 -0.3457  0.4435  0.3099
 8261SOL    HW136242   4.061   2.651   0.359  1.1975  0.3586 -1.0750
 8261SOL    HW236243   3.946   2.592   0.378  1.1459  4.1297  1.3316
 8262SOL     OW36244   1.841   2.356   6.306 -0.0386  0.4884 -0.2321
 8262SOL    HW136245   1.774   2.290   6.285 -0.7397  1.1538 -0.0839
 8262SOL    HW236246   1.891   2.317   6.378  1.5637  2.0068 -0.5413
 8263SOL     OW36247   2.013   4.638   6.833  0.0537 -0.6107 -0.2710
 8263SOL    HW136248   1.977   4.706   6.776  0.6928 -1.6115 -1.8418
 8263SOL    HW236249   1.976   4.563   6.786  0.2331 -0.7875 -0.1309
 8264SOL     OW36250   0.912   3.731  16.173 -0.4051  0.2644  0.3154
 8264SOL    HW136251   0.867   3.649  16.189 -0.4304 -0.0813 -1.6161
 8264SOL    HW236252   0.983   3.698  16.118  0.5032  1.4296  0.7852
 8265SOL     OW36253   3.466   4.365  17.646  0.4592 -0.5532 -0.3455
 8265SOL    HW136254   3.551   4.407  17.636  1.4626 -2.3087  0.7943
 8265SOL    HW236255   3.486   4.273  17.662 -0.7348 -0.3016  2.7302
 8266SOL     OW36256   1.794   3.713  16.842  0.1728  0.4905  0.1480
 8266SOL    HW136257   1.850   3.662  16.901  0.5372  1.3738  0.5592
 8266SOL    HW236258   1.754   3.767  16.909  0.3654  2.5764 -1.4145
 8267SOL     OW36259   4.152   0.897   4.008  1.1923 -0.0099  0.0405
 8267SOL    HW136260   4.230   0.898   4.064 -0.2948 -0.1900  2.1095
 8267SOL    HW236261   4.202   0.903   3.926 -0.4419  0.6318 -0.8997
 8268SOL     OW36262   2.829   2.853   4.444  0.0050  0.4012  0.2471
 8268SOL    HW136263   2.779   2.930   4.472 -1.7090 -0.7523  0.3720
 8268SOL    HW236264   2.836   2.865   4.349  0.7497 -1.0041  0.1300
 8269SOL     OW36265   0.542   0.489   0.305 -0.8527 -0.5656 -0.2969
 8269SOL    HW136266   0.504   0.520   0.387  2.1735  1.2764  0.4235
 8269SOL    HW236267   0.502   0.559   0.254  0.7853 -0.1522 -1.0263
 8270SOL     OW36268   3.507   3.905   3.296 -0.1970  0.6040  0.5151
 8270SOL    HW136269   3.579   3.948   3.251 -1.0704 -0.8920 -2.3160
 8270SOL    HW236270   3.547   3.822   3.324 -0.9892  0.1785  0.4058
 8271SOL     OW36271   0.726   0.083  13.435 -0.1002 -0.2682 -0.6094
 8271SOL    HW136272   0.779   0.016  13.392  1.1945  0.2278  0.2184
 8271SOL    HW236273   0.655   0.092  13.371 -0.2055  0.4160 -0.3954
 8272SOL     OW36274   1.411   2.375   2.955 -0.4352  0.2960  0.0441
 8272SOL    HW136275   1.316   2.371   2.967 -0.5138 -1.4659 -1.0354
 8272SOL    HW236276   1.436   2.387   3.046 -2.5327 -1.7869  0.8873
 8273SOL     OW36277   3.327   0.792   7.216 -0.6255 -0.5274 -0.0447
 8273SOL    HW136278   3.256   0.756   7.268 -1.4401  1.5955  0.2756
 8273SOL    HW236279   3.275   0.801   7.136 -3.0034  1.8062  1.7840
 8274SOL     OW36280   0.425   3.089   3.318  0.3804 -0.2268 -0.0956
 8274SOL    HW136281   0.446   3.029   3.246  0.1376 -1.0611  0.5209
 8274SOL    HW236282   0.366   3.035   3.371  1.0059 -1.6550 -0.8614
 8275SOL     OW36283   1.087   0.698  12.664  0.0746 -0.3009  0.0007
 8275SOL    HW136284   1.178   0.725  12.650  0.1480 -0.6401 -0.1756
 8275SOL    HW236285   1.110   0.617  12.710 -0.6454  0.7491  2.2027
 8276SOL     OW36286   1.652   0.655   4.934 -0.2724 -0.6652  0.5456
 8276SOL    HW136287   1.560   0.678   4.947  0.0664  1.3076 -0.5297
 8276SOL    HW236288   1.642   0.600   4.856 -2.3040  1.1499 -0.4651
 8277SOL     OW36289   1.916   2.603  16.842  0.3700  0.2510  0.1157
 8277SOL    HW136290   1.865   2.575  16.918  0.1399 -1.1064 -0.5365
 8277SOL    HW236291   2.003   2.571  16.868  0.3324  0.2201  0.2025
 8278SOL     OW36292   0.170   4.575   5.703  0.0250 -0.5660  0.3361
 8278SOL    HW136293   0.126   4.515   5.643  3.3003 -1.8504 -0.7981
 8278SOL    HW236294   0.208   4.640   5.644 -0.3715  0.0236  0.7325
 8279SOL     OW36295   4.367   4.033   5.950  0.1643  0.0734  0.0737
 8279SOL    HW136296   4.288   4.044   5.897 -0.1240  0.8855  0.6667
 8279SOL    HW236297   4.416   3.978   5.889  0.0026 -1.1050  1.0154
 8280SOL     OW36298   1.534   2.554   2.279 -0.4024 -0.4181  0.6350
 8280SOL    HW136299   1.551   2.607   2.357 -2.0995  2.6526 -1.0446
 8280SOL    HW236300   1.514   2.621   2.213  0.3574 -0.5064  0.3218
 8281SOL     OW36301   1.401   4.571   8.072 -0.1705 -0.3279 -0.2354
 8281SOL    HW136302   1.345   4.511   8.122 -1.7516  0.8824 -0.5683
 8281SOL    HW236303   1.389   4.648   8.127 -0.3466  1.4661 -2.7849
 8282SOL     OW36304   0.180   4.633   2.433 -0.0079 -0.0686 -0.0443
 8282SOL    HW136305   0.184   4.686   2.512 -1.6430  1.5037 -1.0062
 8282SOL    HW236306   0.264   4.588   2.442 -0.1734 -0.5528 -0.8961
 8283SOL     OW36307   0.718   1.322   3.363  0.8184  0.5455 -0.0018
 8283SOL    HW136308   0.715   1.379   3.439 -0.3037  0.0141  0.3589
 8283SOL    HW236309   0.703   1.378   3.287  2.0880  1.8894  0.7491
 8284SOL     OW36310   3.737   3.843   0.359  0.3787 -0.8316 -0.2149
 8284SOL    HW136311   3.669   3.884   0.305  0.9706  1.4578  0.8219
 8284SOL    HW236312   3.691   3.783   0.418  1.3437 -0.1315  1.2406
 8285SOL     OW36313   1.446   4.329   3.900  0.4475  0.1349  0.2136
 8285SOL    HW136314   1.477   4.352   3.987 -1.1024  2.3562  0.1782
 8285SOL    HW236315   1.520   4.367   3.852  0.5067 -0.5853 -0.2682
 8286SOL     OW36316   2.177   1.440   2.916  0.0757 -0.2481  0.0178
 8286SOL    HW136317   2.113   1.400   2.975  1.1182 -2.7053 -0.5284
 8286SOL    HW236318   2.117   1.508   2.883 -1.5589 -1.3385  0.7189
 8287SOL     OW36319   4.609   3.931  13.065 -0.2069  0.4885  0.2401
 8287SOL    HW136320   4.591   3.839  13.082  1.2128  0.3069  0.8233
 8287SOL    HW236321   4.654   3.939  13.149 -0.2181  0.1986  0.2728
 8288SOL     OW36322   1.917   1.658   3.509  0.1627  0.1538 -0.2667
 8288SOL    HW136323   1.973   1.586   3.479 -0.4410 -1.1652  1.8535
 8288SOL    HW236324   1.836   1.608   3.517 -0.0645  0.5070 -0.3433
 8289SOL     OW36325   4.693   2.931   3.898 -0.0182  0.4800  0.0397
 8289SOL    HW136326   0.031   3.005   3.898  1.9925 -1.1922 -0.9525
 8289SOL    HW236327   4.658   2.919   3.986 -1.0534  1.2049 -0.2597
 8290SOL     OW36328   3.194   0.099  17.497  0.2382  0.6353 -0.2766
 8290SOL    HW136329   3.114   0.060  17.462  1.3392 -1.1857 -0.8250
 8290SOL    HW236330   3.250   0.107  17.420 -1.4477  1.0417 -1.4423
 8291SOL     OW36331   1.096   2.406   2.999  0.1748 -0.1853 -0.3055
 8291SOL    HW136332   1.072   2.359   2.918  3.8538  1.6641 -2.4811
 8291SOL    HW236333   1.012   2.439   3.030  1.9888  1.9948  2.1809
 8292SOL     OW36334   2.546   2.999   2.428  0.5603  0.1746  0.0536
 8292SOL    HW136335   2.527   2.911   2.396 -0.3133  1.0606 -1.8335
 8292SOL    HW236336   2.639   3.008   2.404  0.9560  2.2974  2.3781
 8293SOL     OW36337   2.542   0.649   0.714 -0.5057 -0.1443 -0.0021
 8293SOL    HW136338   2.599   0.721   0.740  0.6835 -1.1615  0.1673
 8293SOL    HW236339   2.455   0.689   0.724 -2.4369 -4.5980  0.9160
 8294SOL     OW36340   0.674   2.547   2.245 -0.0460 -0.0161  0.3794
 8294SOL    HW136341   0.735   2.612   2.211  1.0920 -1.5823 -0.6164
 8294SOL    HW236342   0.620   2.541   2.166 -1.0529  2.5496  0.8934
 8295SOL     OW36343   2.683   3.306  16.767 -1.1746 -0.0007 -0.2566
 8295SOL    HW136344   2.675   3.301  16.863 -4.0145 -1.9035 -0.6159
 8295SOL    HW236345   2.605   3.361  16.754 -1.9381 -1.1089 -0.3269
 8296SOL     OW36346   0.190   3.077   7.743  0.7623  0.0914 -0.1636
 8296SOL    HW136347   0.162   3.037   7.825  0.0850  0.3689 -0.2574
 8296SOL    HW236348   0.104   3.116   7.730  0.4521 -0.6529 -0.3689
 8297SOL     OW36349   3.522   0.635  17.411  0.1165  0.1854  0.0237
 8297SOL    HW136350   3.447   0.692  17.398  1.1443  1.6671  0.5159
 8297SOL    HW236351   3.484   0.580  17.479  1.2207 -0.7172 -0.0896
 8298SOL     OW36352   0.947   3.747  15.767  0.2108  0.0068  0.4203
 8298SOL    HW136353   0.987   3.781  15.848  0.6997 -0.5006  0.3940
 8298SOL    HW236354   1.013   3.685  15.735  0.4546  1.9000 -2.7219
 8299SOL     OW36355   1.122   3.409  13.492 -0.2250  0.0459  0.1040
 8299SOL    HW136356   1.152   3.322  13.518  0.8779  0.0026 -1.3761
 8299SOL    HW236357   1.164   3.430  13.409 -0.5863 -2.4263 -0.6990
 8300SOL     OW36358   3.329   1.853  10.326 -0.2274 -0.5716  0.5127
 8300SOL    HW136359   3.343   1.948  10.334  3.7559 -1.0550 -1.1324
 8300SOL    HW236360   3.370   1.824  10.245 -1.1781 -1.8226  0.4836
 8301SOL     OW36361   3.139   3.656   8.665 -0.1137 -0.0286  0.4727
 8301SOL    HW136362   3.175   3.580   8.620 -0.5194 -0.5884  1.1150
 8301SOL    HW236363   3.098   3.612   8.739 -0.1916 -3.7212 -1.7812
 8302SOL     OW36364   2.281   3.561   7.005 -0.0863 -0.1042 -0.3118
 8302SOL    HW136365   2.246   3.545   6.918  0.4326  1.0241 -0.7252
 8302SOL    HW236366   2.359   3.505   6.998 -0.5785 -0.7146 -0.8922
 8303SOL     OW36367   4.328   0.148   7.304 -0.3255  0.2389  0.6195
 8303SOL    HW136368   4.398   0.128   7.242 -1.0870 -0.0078 -0.1643
 8303SOL    HW236369   4.382   0.182   7.375  0.6675 -2.5212  1.1935
 8304SOL     OW36370   0.795   0.555   8.725 -0.1040  0.0386 -0.0936
 8304SOL    HW136371   0.800   0.505   8.806 -0.2764 -0.2397 -0.2578
 8304SOL    HW236372   0.705   0.590   8.726 -1.3960 -3.3258 -0.6786
 8305SOL     OW36373   2.476   1.567   2.289 -0.5485  0.0689  0.1114
 8305SOL    HW136374   2.539   1.618   2.237 -1.4606  1.0227 -0.0676
 8305SOL    HW236375   2.529   1.534   2.362 -0.2563  1.2195  0.4330
 8306SOL     OW36376   4.255   2.183   4.115 -0.2665 -0.5580 -0.1758
 8306SOL    HW136377   4.255   2.230   4.199 -0.5605 -0.4685 -0.2241
 8306SOL    HW236378   4.159   2.179   4.110 -0.3158 -0.4395  0.6555
 8307SOL     OW36379   4.100   0.317   7.293 -0.4690  0.0034  0.0410
 8307SOL    HW136380   4.175   0.260   7.304  0.8250  1.9860  1.4415
 8307SOL    HW236381   4.087   0.307   7.198 -0.8725 -0.8437  0.1868
 8308SOL     OW36382   2.631   3.834   8.048  0.0367  0.6108  0.3771
 8308SOL    HW136383   2.725   3.835   8.027  0.4780  1.6811  2.4297
 8308SOL    HW236384   2.594   3.856   7.963 -1.1044 -0.0174  0.7132
 8309SOL     OW36385   3.758   3.251   8.692  0.0117  0.5469  0.5149
 8309SOL    HW136386   3.784   3.168   8.733 -0.8733 -0.4186 -0.8426
 8309SOL    HW236387   3.846   3.271   8.659  0.3914 -1.6640  0.1278
 8310SOL     OW36388   1.961   0.518  15.417  0.1777 -0.1826 -0.0437
 8310SOL    HW136389   2.001   0.561  15.493 -1.9637  0.5027  0.6835
 8310SOL    HW236390   1.897   0.578  15.381 -0.5021 -1.7864 -1.4924
 8311SOL     OW36391   3.248   0.316   3.550  0.3151  0.1646 -0.6263
 8311SOL    HW136392   3.178   0.374   3.581  1.0729 -0.4322  2.0951
 8311SOL    HW236393   3.283   0.283   3.632 -1.1917  0.1139 -0.0018
 8312SOL     OW36394   1.448   3.653   7.145 -0.0770 -0.3665 -0.3536
 8312SOL    HW136395   1.495   3.582   7.188 -1.2848 -0.4257  0.8978
 8312SOL    HW236396   1.365   3.609   7.124 -0.6644  0.1136  0.9358
 8313SOL     OW36397   1.794   0.774   6.396 -0.0028  0.1994  0.0604
 8313SOL    HW136398   1.805   0.865   6.366  0.1788 -0.4448 -1.8378
 8313SOL    HW236399   1.725   0.789   6.461  0.6436 -1.6423  1.1684
 8314SOL     OW36400   4.517   2.439   4.751  0.3018 -0.1654  0.4153
 8314SOL    HW136401   4.599   2.461   4.795  0.7472 -2.2425  0.5755
 8314SOL    HW236402   4.505   2.346   4.768 -0.3395  0.1190  1.6167
 8315SOL     OW36403   2.217   1.383  16.203  0.0068 -0.1804  0.1912
 8315SOL    HW136404   2.161   1.437  16.258  1.2285  1.4123 -0.1296
 8315SOL    HW236405   2.238   1.315  16.266 -2.7115  0.8019  2.1598
 8316SOL     OW36406   2.778   2.043   4.888  0.2091  0.4426  0.1136
 8316SOL    HW136407   2.749   2.053   4.798 -1.1717 -1.7424  0.3194
 8316SOL    HW236408   2.704   2.083   4.934  0.7991 -1.2841  2.5845
 8317SOL     OW36409   3.960   2.957   8.615  0.1761  0.3707 -0.2514
 8317SOL    HW136410   3.991   2.930   8.701 -1.6946  0.5246  0.4543
 8317SOL    HW236411   3.876   2.912   8.608  0.5763 -0.9086  3.1503
 8318SOL     OW36412   0.080   1.570  10.709 -0.0867  0.0222 -0.2528
 8318SOL    HW136413   0.065   1.631  10.781 -1.3276 -0.8424  0.2175
 8318SOL    HW236414   0.004   1.574  10.651 -1.8515  2.1022  2.2293
 8319SOL     OW36415   1.692   1.849   7.589 -0.2881 -0.8360 -0.0853
 8319SOL    HW136416   1.667   1.862   7.681  0.0918 -0.1252 -0.0823
 8319SOL    HW236417   1.721   1.758   7.598  2.2028 -0.0920 -0.5612
 8320SOL     OW36418   3.338   3.421   8.687 -0.2385  0.3306  0.1358
 8320SOL    HW136419   3.373   3.338   8.720 -0.3275  0.7792  1.3799
 8320SOL    HW236420   3.420   3.469   8.693  0.8006 -1.4339  0.1308
 8321SOL     OW36421   4.131   1.027   1.683 -0.2585  0.5603  0.1774
 8321SOL    HW136422   4.095   1.001   1.599  0.9044 -0.0307 -0.1330
 8321SOL    HW236423   4.052   1.070   1.718 -0.0067  1.9310 -0.9145
 8322SOL     OW36424   4.105   2.062  11.745  0.3805 -0.1636 -0.7750
 8322SOL    HW136425   4.022   2.097  11.711 -0.5664 -1.9928 -0.3517
 8322SOL    HW236426   4.072   2.005  11.815 -0.0577  1.0444 -0.0023
 8323SOL     OW36427   2.842   0.040  11.118  0.5033 -0.2295 -0.4093
 8323SOL    HW136428   2.924   0.038  11.167  0.0176  0.6951  0.4237
 8323SOL    HW236429   2.873   0.038  11.027 -0.9888  0.8458 -0.9356
 8324SOL     OW36430   3.767   2.297   0.383  0.9396 -1.0394  0.0393
 8324SOL    HW136431   3.794   2.233   0.450  0.4798 -3.1032 -1.7709
 8324SOL    HW236432   3.754   2.364   0.451 -0.1728 -0.9916 -0.2231
 8325SOL     OW36433   1.437   0.806   2.466 -0.4324 -0.4767 -0.4047
 8325SOL    HW136434   1.477   0.764   2.542  0.9011 -1.2460 -1.5474
 8325SOL    HW236435   1.499   0.878   2.455  2.1339 -2.8062 -1.1129
 8326SOL     OW36436   2.849   1.505   4.235  0.0223 -0.1982 -0.5759
 8326SOL    HW136437   2.756   1.529   4.238 -0.3492 -1.5441 -1.0301
 8326SOL    HW236438   2.884   1.592   4.253 -0.7814  0.1248 -0.5814
 8327SOL     OW36439   2.263   2.588   4.115 -0.4420  0.0942 -0.1780
 8327SOL    HW136440   2.323   2.526   4.157  1.0360 -0.8597 -3.6580
 8327SOL    HW236441   2.277   2.659   4.177  0.0113  0.8060 -1.0984
 8328SOL     OW36442   2.593   1.037   4.674 -0.1162 -0.1039  0.0941
 8328SOL    HW136443   2.613   1.034   4.768  0.2220 -1.4119 -0.0241
 8328SOL    HW236444   2.527   1.106   4.675  1.2615  1.2506 -1.1761
 8329SOL     OW36445   3.546   1.847  12.169 -0.1485 -0.2872 -0.0986
 8329SOL    HW136446   3.629   1.877  12.205 -1.0281  0.5934  1.1912
 8329SOL    HW236447   3.502   1.827  12.251 -1.2618  0.4175 -0.5244
 8330SOL     OW36448   1.483   3.027   7.962  0.1787  0.1301 -0.2473
 8330SOL    HW136449   1.577   3.008   7.958 -0.0621 -1.0947 -0.1404
 8330SOL    HW236450   1.456   2.943   7.999 -1.5704  0.9482  0.3395
 8331SOL     OW36451   1.521   0.455   7.037  0.4879 -0.6785  0.2324
 8331SOL    HW136452   1.552   0.507   7.111 -0.9406 -3.7579  2.9562
 8331SOL    HW236453   1.529   0.363   7.063  1.6951 -0.1073  1.9132
 8332SOL     OW36454   3.440   2.318   2.327 -0.4366 -0.2758  0.1673
 8332SOL    HW136455   3.430   2.318   2.232  0.6342  1.1027  0.0654
 8332SOL    HW236456   3.535   2.326   2.335 -0.4282 -0.3334  0.1231
 8333SOL     OW36457   3.135   4.558   4.143  0.3504 -0.2586  0.6476
 8333SOL    HW136458   3.194   4.484   4.126  0.7960 -0.0809  1.4457
 8333SOL    HW236459   3.185   4.606   4.209 -1.6098  2.9869 -0.2315
 8334SOL     OW36460   4.110   3.649   8.375 -0.2698 -0.0223  0.0426
 8334SOL    HW136461   4.023   3.667   8.409  0.7604  2.1641  1.4734
 8334SOL    HW236462   4.164   3.698   8.437  1.1001  0.0002 -1.1721
 8335SOL     OW36463   1.158   0.198  14.436 -0.4264 -0.2379 -0.0826
 8335SOL    HW136464   1.185   0.286  14.411  1.5368 -0.2505  1.9302
 8335SOL    HW236465   1.177   0.150  14.356  4.4088  0.7600  0.4784
 8336SOL     OW36466   0.921   3.438   4.488 -0.3756  0.1566  0.1488
 8336SOL    HW136467   0.852   3.371   4.485 -0.0635 -0.0113 -2.8712
 8336SOL    HW236468   0.939   3.461   4.397  2.5831  0.4528  0.8331
 8337SOL     OW36469   4.469   3.950   2.417 -0.5720  0.2167  0.2499
 8337SOL    HW136470   4.450   3.886   2.349 -0.0991 -0.5221  0.8067
 8337SOL    HW236471   4.563   3.935   2.423 -0.6562 -0.4371 -0.0818
 8338SOL     OW36472   0.059   0.439   2.871  0.1625  0.6883  0.6587
 8338SOL    HW136473   0.070   0.528   2.838  3.9389 -0.5861 -1.5755
 8338SOL    HW236474   0.023   0.407   2.788 -0.3900  1.5969  0.5575
 8339SOL     OW36475   3.539   4.286   5.524  0.5677 -0.0800  0.3175
 8339SOL    HW136476   3.561   4.326   5.608 -0.9979 -1.4215  1.3679
 8339SOL    HW236477   3.498   4.365   5.488 -0.7336 -2.1563 -2.7979
 8340SOL     OW36478   4.484   0.963  12.685  0.5783  0.4879 -0.1877
 8340SOL    HW136479   4.571   0.944  12.720 -0.6875 -1.7895  1.6901
 8340SOL    HW236480   4.422   0.965  12.759  0.0343 -1.0300 -0.6064
 8341SOL     OW36481   0.131   4.514   4.117  0.1079 -0.1270  0.4824
 8341SOL    HW136482   0.168   4.594   4.154 -1.9372  0.0006  2.2926
 8341SOL    HW236483   0.182   4.521   4.037 -0.8982  2.0975  0.0284
 8342SOL     OW36484   3.160   0.569   8.587 -0.2064  0.0711 -0.2984
 8342SOL    HW136485   3.131   0.660   8.576 -1.8195 -0.4804 -0.6001
 8342SOL    HW236486   3.202   0.575   8.672  1.7679  0.4046 -1.3099
 8343SOL     OW36487   1.924   2.298  11.472 -0.2587  0.3501  0.0284
 8343SOL    HW136488   1.983   2.373  11.473  0.2809 -0.0764 -0.0115
 8343SOL    HW236489   1.846   2.344  11.504 -0.7936 -1.4663  1.3366
 8344SOL     OW36490   4.485   0.282   7.491 -0.3167  0.0659  0.0814
 8344SOL    HW136491   4.568   0.239   7.511 -1.2449 -1.3675  0.8743
 8344SOL    HW236492   4.507   0.375   7.487 -2.0319  0.5301  1.4660
 8345SOL     OW36493   2.244   4.717   7.794 -0.3302  0.0847 -0.6924
 8345SOL    HW136494   2.295   4.666   7.731  0.7230 -0.7555  0.8516
 8345SOL    HW236495   2.153   4.689   7.791 -0.8775  1.6126  1.7972
 8346SOL     OW36496   2.565   0.852  14.539  0.0527  0.0496  0.1575
 8346SOL    HW136497   2.470   0.860  14.536 -0.1226 -0.1395  4.1519
 8346SOL    HW236498   2.574   0.881  14.449 -2.7099  1.1336  0.2315
 8347SOL     OW36499   3.858   2.791   6.694  0.2118 -0.3120  0.1959
 8347SOL    HW136500   3.919   2.862   6.707 -0.5173  0.7636 -2.2127
 8347SOL    HW236501   3.845   2.799   6.599 -0.5209  2.1381  0.5124
 8348SOL     OW36502   0.168   3.350  11.900  0.1047 -0.5184  0.2645
 8348SOL    HW136503   0.140   3.440  11.881  0.3604 -0.7321 -1.1536
 8348SOL    HW236504   0.238   3.357  11.965  0.5258 -1.0076 -0.1369
 8349SOL     OW36505   3.978   0.519   8.160 -0.5753 -0.1402  0.2850
 8349SOL    HW136506   3.996   0.541   8.068  0.8569  0.2578  0.6563
 8349SOL    HW236507   4.019   0.594   8.202 -1.5778  0.8018 -0.4200
 8350SOL     OW36508   0.608   4.587   2.171  0.5412 -0.0368  0.1903
 8350SOL    HW136509   0.527   4.536   2.163  0.6766  0.1541 -2.2593
 8350SOL    HW236510   0.611   4.607   2.265 -1.8428 -0.1693  0.3045
 8351SOL     OW36511   0.277   0.869   5.508 -0.3156 -0.4670 -0.3118
 8351SOL    HW136512   0.191   0.826   5.519 -0.4874 -0.4714 -1.6830
 8351SOL    HW236513   0.328   0.810   5.563  0.6483 -0.4344 -1.1692
 8352SOL     OW36514   1.160   4.510   7.053  0.1329 -1.1617 -0.2391
 8352SOL    HW136515   1.076   4.511   7.098  0.1201  0.0862 -0.2840
 8352SOL    HW236516   1.211   4.497   7.133 -1.5093  0.1432  1.0178
 8353SOL     OW36517   1.201   0.506   0.648 -0.1764 -0.1403  0.2325
 8353SOL    HW136518   1.124   0.449   0.655 -0.6493  0.2034 -2.1886
 8353SOL    HW236519   1.244   0.459   0.576  1.0974  0.8945  0.3262
 8354SOL     OW36520   0.512   3.738  14.649 -0.1126 -0.0127  0.1888
 8354SOL    HW136521   0.455   3.804  14.609  0.6336 -0.8746 -2.2868
 8354SOL    HW236522   0.579   3.799  14.679 -0.6041  0.2092  0.8512
 8355SOL     OW36523   0.436   3.595   7.928 -0.4865 -0.0962 -0.3273
 8355SOL    HW136524   0.529   3.603   7.950 -0.8557  0.1382  1.1553
 8355SOL    HW236525   0.409   3.678   7.967 -0.9489 -1.0076  1.2927
 8356SOL     OW36526   0.162   3.615  11.524  0.1221  0.4225  0.3460
 8356SOL    HW136527   0.253   3.595  11.501  0.1877 -0.5603  1.4397
 8356SOL    HW236528   0.124   3.530  11.501  1.8000  0.2365 -1.7879
 8357SOL     OW36529   0.207   3.452   6.818  0.2481  0.0886 -0.1210
 8357SOL    HW136530   0.247   3.506   6.750  3.3424 -1.9178  0.1003
 8357SOL    HW236531   0.133   3.507   6.843 -0.4181 -1.8698  2.2596
 8358SOL     OW36532   2.559   3.347   3.363 -0.0085 -0.2122 -0.4994
 8358SOL    HW136533   2.491   3.310   3.308  1.9088 -1.8156 -1.8051
 8358SOL    HW236534   2.629   3.293   3.326  0.1473  0.4767 -1.1952
 8359SOL     OW36535   1.088   1.778   0.511  0.1919 -0.0902 -0.6260
 8359SOL    HW136536   1.010   1.726   0.533 -1.1290  1.9688 -0.4190
 8359SOL    HW236537   1.073   1.858   0.562 -1.3937 -1.7426  1.5021
 8360SOL     OW36538   3.149   0.482   5.555 -0.0124  0.2247 -0.4883
 8360SOL    HW136539   3.232   0.507   5.514  0.7827 -1.7821 -0.1182
 8360SOL    HW236540   3.101   0.564   5.556  1.7351  1.2321  0.8232
 8361SOL     OW36541   2.392   3.225   6.811  0.5788 -0.1919 -0.1873
 8361SOL    HW136542   2.433   3.177   6.739  1.2339  1.5197 -0.9699
 8361SOL    HW236543   2.304   3.233   6.775  1.4293 -0.7453 -2.4150
 8362SOL     OW36544   0.566   3.506   5.435 -0.1369 -0.4570 -0.0135
 8362SOL    HW136545   0.569   3.534   5.526 -1.7847 -2.9709  0.8165
 8362SOL    HW236546   0.659   3.485   5.428  0.0476  0.7867 -1.4048
 8363SOL     OW36547   1.395   2.800   4.118  0.3241 -0.3556 -0.1420
 8363SOL    HW136548   1.367   2.877   4.167  2.6351  1.3356 -1.4671
 8363SOL    HW236549   1.342   2.737   4.168  2.2243 -0.0867  2.1979
 8364SOL     OW36550   0.527   1.630   2.362 -0.0812  0.1767 -0.6802
 8364SOL    HW136551   0.603   1.611   2.307  0.1137 -0.8420 -0.0675
 8364SOL    HW236552   0.507   1.724   2.366 -1.1003 -0.0330 -0.8213
 8365SOL     OW36553   2.022   0.183   1.988 -0.5882  0.3405  0.2598
 8365SOL    HW136554   2.015   0.107   1.931 -0.7340  2.7098 -2.8866
 8365SOL    HW236555   2.008   0.251   1.922 -0.7380  1.1307  1.0927
 8366SOL     OW36556   2.102   0.453   5.547  0.0239  0.5514  0.2242
 8366SOL    HW136557   2.061   0.462   5.461  1.3510  0.1040 -0.4549
 8366SOL    HW236558   2.099   0.544   5.576 -0.6002  1.0449 -1.3886
 8367SOL     OW36559   3.196   0.200   9.298 -0.4546 -0.2529  0.6718
 8367SOL    HW136560   3.245   0.123   9.325 -1.5471 -1.0345  0.4420
 8367SOL    HW236561   3.180   0.158   9.213 -1.2826 -1.4098  1.4167
 8368SOL     OW36562   0.173   3.131   3.880  0.0815  0.4480  0.1777
 8368SOL    HW136563   0.242   3.066   3.864  0.1006  0.9133 -1.6684
 8368SOL    HW236564   0.210   3.182   3.952 -1.6765  0.8824  0.7833
 8369SOL     OW36565   2.127   2.444   2.391  0.6862  0.1920 -0.2543
 8369SOL    HW136566   2.058   2.507   2.371 -1.8427 -2.3302  0.3563
 8369SOL    HW236567   2.084   2.363   2.362 -2.0140  1.4530  0.2469
 8370SOL     OW36568   1.362   3.202   4.790  0.7189 -0.2976  0.0672
 8370SOL    HW136569   1.366   3.260   4.714 -1.5308  0.5891  0.6399
 8370SOL    HW236570   1.408   3.259   4.852 -0.9564  0.8136  0.2654
 8371SOL     OW36571   1.420   4.333   5.109 -0.2744  0.1146  0.3560
 8371SOL    HW136572   1.439   4.288   5.027  0.5691 -1.6158  1.5071
 8371SOL    HW236573   1.474   4.283   5.169  0.1503 -0.3354 -0.4068
 8372SOL     OW36574   2.791   3.717   9.530  0.7000 -0.0057  0.1927
 8372SOL    HW136575   2.751   3.630   9.536  1.6437 -0.4688 -0.3147
 8372SOL    HW236576   2.801   3.735   9.624  0.2168 -0.8447  0.4108
 8373SOL     OW36577   1.207   0.683   5.241 -0.5093 -0.0220  0.6369
 8373SOL    HW136578   1.214   0.712   5.332 -1.3577 -1.0788  1.0426
 8373SOL    HW236579   1.133   0.737   5.217 -1.9774 -0.9415  3.0562
 8374SOL     OW36580   1.989   1.474   5.409  0.2602  0.2397  0.1003
 8374SOL    HW136581   2.078   1.444   5.431 -0.3505 -1.1237  0.7555
 8374SOL    HW236582   1.944   1.453   5.491  2.0059  0.5903  1.1393
 8375SOL     OW36583   4.234   3.780   3.664 -0.7341 -0.1785 -0.8513
 8375SOL    HW136584   4.294   3.705   3.661 -1.3564 -0.9221  4.7375
 8375SOL    HW236585   4.302   3.848   3.662 -0.2993 -0.5895  0.1773
 8376SOL     OW36586   3.984   3.656   4.691 -0.6618 -0.3436  0.3408
 8376SOL    HW136587   3.951   3.620   4.773  2.2982  1.0104  2.1193
 8376SOL    HW236588   3.932   3.735   4.677  0.0465  0.2202  0.9115
 8377SOL     OW36589   3.854   4.137   5.680  0.4503  0.7010 -0.7932
 8377SOL    HW136590   3.903   4.210   5.717 -1.7854  1.1648  1.2492
 8377SOL    HW236591   3.776   4.161   5.729  0.7179 -1.9448  0.9185
 8378SOL     OW36592   0.915   0.206   8.776  0.1188 -0.7169  0.0103
 8378SOL    HW136593   0.881   0.248   8.697 -2.0979 -0.3508  1.1651
 8378SOL    HW236594   1.006   0.233   8.760 -0.4679 -0.2744 -2.6743
 8379SOL     OW36595   4.705   0.473  16.558 -0.1022  0.3260 -0.1408
 8379SOL    HW136596   0.076   0.484  16.540  0.1873 -0.6026  0.7575
 8379SOL    HW236597   4.702   0.478  16.654 -0.5553  1.8041 -0.2364
 8380SOL     OW36598   2.182   1.428   9.627 -0.0696 -0.6072 -0.0779
 8380SOL    HW136599   2.133   1.500   9.666  1.1453  0.6454 -0.8556
 8380SOL    HW236600   2.187   1.365   9.698  1.7438 -0.6966 -0.2680
 8381SOL     OW36601   2.510   2.115   7.028 -0.2101  1.1425 -0.7075
 8381SOL    HW136602   2.457   2.044   7.066  0.9089  0.7076  0.0291
 8381SOL    HW236603   2.555   2.142   7.108 -1.8177  1.7825 -0.0043
 8382SOL     OW36604   4.078   3.477   5.048  0.6493 -0.2204  0.6531
 8382SOL    HW136605   4.054   3.565   5.021 -1.9332 -0.9755  0.5031
 8382SOL    HW236606   4.040   3.423   4.979 -0.9354  1.4358  0.2400
 8383SOL     OW36607   2.970   0.157   6.812  0.1295  0.2344 -0.4195
 8383SOL    HW136608   2.981   0.226   6.747 -0.7004  2.2011  1.5071
 8383SOL    HW236609   2.883   0.121   6.795  0.9981 -1.3905 -1.4268
 8384SOL     OW36610   4.569   4.003   7.737  0.3739  0.2669 -0.2494
 8384SOL    HW136611   4.481   3.983   7.770  1.3664 -1.9068  1.1493
 8384SOL    HW236612   4.625   3.943   7.787 -1.5204 -0.6731  0.7664
 8385SOL     OW36613   3.589   2.243   4.129 -0.3480 -0.2456 -0.1325
 8385SOL    HW136614   3.665   2.276   4.081 -0.0205 -1.0090 -0.1392
 8385SOL    HW236615   3.622   2.169   4.180 -0.4469  0.1079  0.4455
 8386SOL     OW36616   1.006   2.425   9.370  0.5607 -0.1904  0.1496
 8386SOL    HW136617   1.038   2.423   9.460 -2.0457 -0.8256  1.0704
 8386SOL    HW236618   1.058   2.350   9.340 -1.9695 -1.9391  0.0908
 8387SOL     OW36619   1.512   3.654   3.250 -0.2189 -0.0596 -0.9617
 8387SOL    HW136620   1.424   3.628   3.275  1.1983 -2.0600  2.0018
 8387SOL    HW236621   1.494   3.684   3.161  1.1406 -0.7082 -1.4546
 8388SOL     OW36622   2.316   3.463   8.728 -0.3446  0.0127  0.0198
 8388SOL    HW136623   2.295   3.463   8.822 -2.3190 -0.4129 -0.4309
 8388SOL    HW236624   2.305   3.372   8.703  0.8480 -0.3260  0.7159
 8389SOL     OW36625   4.435   0.970   6.626 -0.3315 -0.1214  0.2468
 8389SOL    HW136626   4.380   0.938   6.697  0.8942 -0.8731  0.8689
 8389SOL    HW236627   4.458   0.898   6.567 -1.9961 -0.5596  0.1435
 8390SOL     OW36628   2.946   1.960   6.777  0.0422 -0.3055  0.0182
 8390SOL    HW136629   2.912   1.872   6.787 -3.5986  1.0858 -0.3456
 8390SOL    HW236630   2.969   1.963   6.870 -0.7979  0.9191  0.1883
 8391SOL     OW36631   2.697   0.163   9.697  0.1617  0.4747 -0.1022
 8391SOL    HW136632   2.704   0.093   9.761 -1.3655  0.0356 -0.4066
 8391SOL    HW236633   2.635   0.122   9.636 -1.7127  2.1272  0.6700
 8392SOL     OW36634   0.482   2.868   3.154 -0.2445  0.2529  0.2440
 8392SOL    HW136635   0.456   2.781   3.183 -0.1008 -0.6220 -2.2448
 8392SOL    HW236636   0.441   2.870   3.067  1.3712 -1.5353 -0.5584
 8393SOL     OW36637   3.358   0.282   7.375  0.0093 -0.1514  0.5788
 8393SOL    HW136638   3.309   0.230   7.439 -1.8063  1.0533  0.1632
 8393SOL    HW236639   3.395   0.350   7.430 -0.8248  0.6859  0.1002
 8394SOL     OW36640   1.480   0.122   7.424 -0.3283  0.3044 -0.5092
 8394SOL    HW136641   1.549   0.188   7.426  1.4552 -1.5377 -0.5663
 8394SOL    HW236642   1.461   0.115   7.518 -0.9179  2.7162 -0.4515
 8395SOL     OW36643   2.458   0.668   4.065  0.5942  0.1658  0.0100
 8395SOL    HW136644   2.486   0.720   3.990  0.2121 -1.3138 -1.1581
 8395SOL    HW236645   2.524   0.599   4.056  0.3513 -0.2205  1.2554
 8396SOL     OW36646   4.573   1.523   1.703  0.2250 -0.2589  0.0101
 8396SOL    HW136647   4.518   1.468   1.647 -0.2257  1.7713 -1.5387
 8396SOL    HW236648   4.643   1.527   1.638  0.6326  2.8389  0.6290
 8397SOL     OW36649   1.782   2.081  11.413 -0.8090  0.1545  0.6463
 8397SOL    HW136650   1.706   2.127  11.378 -0.8704  0.9829  1.8491
 8397SOL    HW236651   1.841   2.150  11.445 -0.6669  0.3387 -0.0161
 8398SOL     OW36652   2.375   3.619  14.483  0.5358 -0.2760 -0.1457
 8398SOL    HW136653   2.293   3.664  14.506  0.5834 -0.5190  0.4902
 8398SOL    HW236654   2.423   3.616  14.566 -1.4493  1.3667  1.0804
 8399SOL     OW36655   1.617   4.308  16.167  0.0186  0.8895  0.1344
 8399SOL    HW136656   1.613   4.403  16.159  0.6170  0.7752 -1.5376
 8399SOL    HW236657   1.523   4.288  16.168  0.6616 -2.1877  0.1182
 8400SOL     OW36658   4.489   1.557   4.394 -0.1751  0.7102 -0.3372
 8400SOL    HW136659   4.452   1.570   4.307 -2.1258 -1.4812  0.1558
 8400SOL    HW236660   4.463   1.635   4.442 -1.2368  0.9648 -1.3300
 8401SOL     OW36661   2.021   2.475   4.237 -0.5076 -0.4096 -0.4874
 8401SOL    HW136662   2.000   2.433   4.153 -1.9847 -0.0308 -0.3126
 8401SOL    HW236663   2.109   2.508   4.221 -1.1545  2.5498  2.0709
 8402SOL     OW36664   3.615   4.354   2.310  0.3117 -0.2468  0.3462
 8402SOL    HW136665   3.700   4.310   2.314 -1.3512 -3.6505 -1.4559
 8402SOL    HW236666   3.638   4.438   2.349  0.9948 -0.6064  0.7208
 8403SOL     OW36667   0.031   3.885   8.399  0.5802  0.4637  0.5837
 8403SOL    HW136668   4.715   3.955   8.453 -0.4355 -0.2067  0.7337
 8403SOL    HW236669   0.122   3.884   8.430  0.0331 -0.2600  2.1788
 8404SOL     OW36670   3.998   3.996   3.727 -0.6102  0.4756 -0.1521
 8404SOL    HW136671   4.064   3.962   3.788  1.1449  1.2744 -1.6015
 8404SOL    HW236672   4.054   4.027   3.655 -2.2927  2.0886 -0.7586
 8405SOL     OW36673   2.902   1.604   6.690 -0.3408  0.8446 -0.1662
 8405SOL    HW136674   2.989   1.638   6.708  0.1457 -0.6212  0.2746
 8405SOL    HW236675   2.885   1.624   6.597 -1.3448  0.6570 -0.0268
 8406SOL     OW36676   1.498   2.657  17.581 -0.0717 -0.4320  0.2932
 8406SOL    HW136677   1.434   2.635  17.649  0.2334 -1.4418  0.2453
 8406SOL    HW236678   1.455   2.598  17.520 -2.4518  1.0086  0.5821
 8407SOL     OW36679   0.237   4.450  11.097 -0.4147  0.0260 -0.3708
 8407SOL    HW136680   0.299   4.461  11.026 -0.1141 -2.7967 -0.5632
 8407SOL    HW236681   0.229   4.355  11.087 -0.0170 -0.2560  1.8743
 8408SOL     OW36682   0.541   1.876   0.363 -0.1363 -0.2454  0.0665
 8408SOL    HW136683   0.522   1.901   0.454  1.2440  0.4040  0.1821
 8408SOL    HW236684   0.499   1.948   0.316 -2.4433 -1.4037  0.3310
 8409SOL     OW36685   2.850   1.535   1.151 -0.3708 -0.0949  0.2586
 8409SOL    HW136686   2.873   1.624   1.178  0.9243  0.0799 -1.3972
 8409SOL    HW236687   2.762   1.559   1.123  0.3070 -0.7172 -2.4160
 8410SOL     OW36688   3.208   2.066  11.952  0.1005 -0.2192 -0.2203
 8410SOL    HW136689   3.219   1.971  11.966  2.3455  0.1370  0.4294
 8410SOL    HW236690   3.135   2.057  11.891 -0.4383 -1.7223  0.6405
 8411SOL     OW36691   3.373   0.922   5.830 -0.6110  0.1232 -0.1587
 8411SOL    HW136692   3.369   0.830   5.855  0.0624 -0.6466 -2.8305
 8411SOL    HW236693   3.360   0.928   5.735 -1.4117 -0.9072 -0.1049
 8412SOL     OW36694   2.493   4.484   2.480 -0.2082  0.1715 -0.2341
 8412SOL    HW136695   2.558   4.416   2.464  0.5334  1.1848 -1.5362
 8412SOL    HW236696   2.411   4.444   2.510  0.2237  0.4620  1.3662
 8413SOL     OW36697   1.755   2.626  11.954  0.3069 -0.3618 -1.0931
 8413SOL    HW136698   1.755   2.539  11.995 -0.4833  0.4670  0.6514
 8413SOL    HW236699   1.848   2.639  11.937  0.3206 -0.3671 -1.0190
 8414SOL     OW36700   3.455   0.048   0.009  0.0800  0.2875  0.8140
 8414SOL    HW136701   3.530   0.020   0.062 -0.3757 -1.5155  0.4975
 8414SOL    HW236702   3.499   0.099  17.633 -1.2158  0.4955  0.1315
 8415SOL     OW36703   3.038   0.259   5.631  0.1964 -0.1377 -0.2378
 8415SOL    HW136704   3.079   0.343   5.612 -1.6414  1.0777  1.1170
 8415SOL    HW236705   2.947   0.281   5.653 -0.4030 -3.4097  0.4809
 8416SOL     OW36706   3.548   1.429   7.889  0.2907  0.0908  0.9091
 8416SOL    HW136707   3.456   1.419   7.864  0.1152  3.8270  0.0899
 8416SOL    HW236708   3.536   1.457   7.980 -0.5624  0.3588  0.7120
 8417SOL     OW36709   3.538   4.717   8.732 -0.8129  0.6852  0.3518
 8417SOL    HW136710   3.566   0.085   8.747  2.0126 -0.4472  1.9174
 8417SOL    HW236711   3.456   0.028   8.696  0.5878  2.5030 -1.1619
 8418SOL     OW36712   0.229   4.414  14.049  0.3227 -0.0967  0.0444
 8418SOL    HW136713   0.214   4.483  13.984  1.4098  0.1603  0.0635
 8418SOL    HW236714   0.167   4.440  14.117 -0.5598  0.8017 -1.1139
 8419SOL     OW36715   2.926   0.479   2.677 -0.4111  0.0357 -0.4807
 8419SOL    HW136716   2.832   0.477   2.658 -0.3864 -0.7431 -0.5422
 8419SOL    HW236717   2.927   0.568   2.712 -2.0854  0.5775 -1.7757
 8420SOL     OW36718   1.611   1.437   1.615  0.4264  0.1443 -1.0033
 8420SOL    HW136719   1.636   1.386   1.538  1.9764  0.2008 -0.5328
 8420SOL    HW236720   1.519   1.452   1.595 -0.0287 -0.9199  0.3276
 8421SOL     OW36721   0.600   2.410   3.079  0.2021 -0.1377 -0.5068
 8421SOL    HW136722   0.518   2.388   3.123 -0.3845 -0.5395 -1.8063
 8421SOL    HW236723   0.563   2.451   3.000 -0.8076 -0.3319 -0.1368
 8422SOL     OW36724   3.195   3.541   2.679 -0.6927 -0.4344  0.0679
 8422SOL    HW136725   3.141   3.610   2.639 -1.0458 -1.0096 -0.4556
 8422SOL    HW236726   3.238   3.502   2.603 -2.1528 -0.9018 -0.5196
 8423SOL     OW36727   4.072   1.255   6.526  0.6392 -0.2156  0.5870
 8423SOL    HW136728   4.091   1.271   6.619  1.1282  0.3387  0.3965
 8423SOL    HW236729   4.128   1.328   6.499 -0.8696  0.8490  0.3473
 8424SOL     OW36730   0.779   1.425   3.637 -0.2964  0.3736  0.0485
 8424SOL    HW136731   0.709   1.412   3.701  1.7837 -1.9514  1.8771
 8424SOL    HW236732   0.838   1.353   3.659 -1.5065 -1.0422 -1.4037
 8425SOL     OW36733   0.992   1.220   8.866 -0.0345 -0.3580 -0.1359
 8425SOL    HW136734   0.956   1.188   8.948 -0.6195 -0.7223 -0.5356
 8425SOL    HW236735   0.929   1.193   8.800  0.1536 -0.8548 -0.1157
 8426SOL     OW36736   3.923   0.113   3.160 -0.3495  0.7946 -1.1540
 8426SOL    HW136737   3.838   0.079   3.130  0.5904 -1.2663 -1.4806
 8426SOL    HW236738   3.900   0.169   3.234  1.1588  0.0484 -0.1275
 8427SOL     OW36739   0.633   4.623  15.152 -0.3843 -0.1517  0.0532
 8427SOL    HW136740   0.564   4.558  15.142 -1.0585  0.5611  0.1085
 8427SOL    HW236741   0.605   4.704  15.109 -1.9972 -0.9780 -0.4440
 8428SOL     OW36742   3.476   4.382   6.583 -0.3189 -0.3076 -0.6959
 8428SOL    HW136743   3.454   4.301   6.629 -0.4870  0.8449  1.2309
 8428SOL    HW236744   3.392   4.427   6.588 -0.2959 -0.3245 -0.2121
 8429SOL     OW36745   4.427   3.563   6.839  0.3484 -0.0292  0.0357
 8429SOL    HW136746   4.344   3.595   6.804 -0.5959 -0.3967  1.9124
 8429SOL    HW236747   4.446   3.615   6.917  1.5821 -0.4909  0.0400
 8430SOL     OW36748   1.669   3.792   8.460 -0.3521 -0.2615 -0.0182
 8430SOL    HW136749   1.681   3.848   8.383  1.7328 -1.2687 -0.4031
 8430SOL    HW236750   1.729   3.721   8.441 -0.3125  0.9661 -4.5368
 8431SOL     OW36751   4.165   0.066   5.106 -0.4963  0.2846  0.0890
 8431SOL    HW136752   4.173   0.084   5.013 -0.7620 -2.5049 -0.4684
 8431SOL    HW236753   4.241   0.009   5.115 -2.3312 -2.1014  0.5560
 8432SOL     OW36754   0.929   0.980   4.685 -0.6801  0.0631  0.3901
 8432SOL    HW136755   0.974   0.940   4.760 -1.5045  0.4217  1.0850
 8432SOL    HW236756   0.967   0.930   4.613  2.8702  0.8499  1.7312
 8433SOL     OW36757   1.577   1.664  15.719  0.3848  0.1040 -0.2466
 8433SOL    HW136758   1.562   1.730  15.652 -0.0227 -1.5742 -1.8164
 8433SOL    HW236759   1.514   1.597  15.691 -1.0482  1.0605  0.6585
 8434SOL     OW36760   4.503   0.898   3.034 -0.5110 -0.2176  0.4557
 8434SOL    HW136761   4.537   0.958   2.967 -0.9271 -1.4703 -0.8609
 8434SOL    HW236762   4.535   0.816   2.997 -2.5281 -0.1362 -1.4461
 8435SOL     OW36763   0.952   4.581   3.304 -0.1098  0.1108 -0.4271
 8435SOL    HW136764   0.859   4.558   3.303  0.5412 -2.5223 -0.7192
 8435SOL    HW236765   0.997   4.535   3.374  1.0115  1.4849 -0.2483
 8436SOL     OW36766   2.677   3.655  11.895  0.0396 -0.4228 -0.5563
 8436SOL    HW136767   2.622   3.685  11.822 -0.4767  1.5694  0.6410
 8436SOL    HW236768   2.665   3.561  11.882  1.6938 -0.5612 -1.0558
 8437SOL     OW36769   0.117   4.641  13.214  0.0583  0.1477 -0.2233
 8437SOL    HW136770   0.187   4.681  13.265 -0.8676  1.1092  0.3017
 8437SOL    HW236771   0.164   4.611  13.136 -2.5541 -1.9015 -1.0394
 8438SOL     OW36772   4.169   3.043   0.343  0.3293 -0.5689  0.6299
 8438SOL    HW136773   4.258   3.028   0.310  0.4227 -1.7425  1.4384
 8438SOL    HW236774   4.200   3.053   0.433  1.8593 -0.2092  0.0669
 8439SOL     OW36775   3.272   4.706   7.001 -0.2620  0.2207  0.3787
 8439SOL    HW136776   3.258   0.059   7.057 -0.4402 -0.3510  1.1042
 8439SOL    HW236777   3.268   0.028   6.916 -0.9401 -0.3450  0.1154
 8440SOL     OW36778   3.524   1.066   7.568  0.0371 -0.5059  0.2591
 8440SOL    HW136779   3.533   0.992   7.509  1.6695 -1.4984  1.7351
 8440SOL    HW236780   3.571   1.139   7.527  2.6598  0.0744  4.2084
 8441SOL     OW36781   2.554   2.448   2.121 -0.3462  0.2905 -0.0491
 8441SOL    HW136782   2.595   2.532   2.098  0.5307  0.3943  1.8927
 8441SOL    HW236783   2.470   2.478   2.157  0.9349  0.3366  2.8758
 8442SOL     OW36784   2.793   4.615   3.800  0.2970  0.1025  0.5158
 8442SOL    HW136785   2.845   4.640   3.876  2.1747 -1.7060 -0.1558
 8442SOL    HW236786   2.775   4.526   3.830 -1.0252  0.8780  2.0066
 8443SOL     OW36787   4.465   4.372  13.171  0.0143  0.0150  0.4043
 8443SOL    HW136788   4.508   4.350  13.088 -1.4189 -1.5999  0.0905
 8443SOL    HW236789   4.411   4.294  13.169 -1.7735  1.2633 -0.0848
 8444SOL     OW36790   4.544   1.792  17.689 -0.4388  0.0168 -0.1568
 8444SOL    HW136791   4.466   1.757  17.646  0.8092 -1.9605 -0.8372
 8444SOL    HW236792   4.587   1.843  17.621 -0.9833 -0.1528 -0.6255
 8445SOL     OW36793   4.371   2.382   2.941 -0.2092 -0.7516 -0.0273
 8445SOL    HW136794   4.361   2.454   3.003  0.3260 -1.7785  1.2562
 8445SOL    HW236795   4.449   2.339   2.976  0.4968  1.6443  1.3093
 8446SOL     OW36796   4.136   3.694   9.250  0.2815 -0.5391  0.2282
 8446SOL    HW136797   4.163   3.741   9.329 -1.5927 -0.7335  1.0027
 8446SOL    HW236798   4.056   3.658   9.288  0.6503 -0.4497  1.0753
 8447SOL     OW36799   2.878   0.300   3.424  0.1134 -0.6340  0.0788
 8447SOL    HW136800   2.943   0.259   3.368  0.8321  0.4386  0.1248
 8447SOL    HW236801   2.905   0.392   3.423  1.6509 -1.0948  0.9274
 8448SOL     OW36802   1.306   0.311   1.008 -0.2179  0.0563  0.3025
 8448SOL    HW136803   1.234   0.313   0.945  1.1584 -3.8742 -1.3812
 8448SOL    HW236804   1.360   0.382   0.974  2.9874 -2.1638  0.7488
 8449SOL     OW36805   2.688   0.217   3.577 -0.8140  0.5481 -0.4224
 8449SOL    HW136806   2.683   0.284   3.645  0.3087  1.5233 -1.3035
 8449SOL    HW236807   2.753   0.258   3.519  0.5807 -1.0076  0.0466
 8450SOL     OW36808   3.694   0.117   4.011  0.0303  0.1428  0.1669
 8450SOL    HW136809   3.651   0.202   4.018 -1.9703 -0.8583 -0.1296
 8450SOL    HW236810   3.693   0.088   4.102  1.1286  1.0968  0.4834
 8451SOL     OW36811   1.416   0.084   3.432 -0.7486 -0.2769  0.0762
 8451SOL    HW136812   1.436   0.097   3.339 -0.6887 -0.7102  0.0319
 8451SOL    HW236813   1.505   0.099   3.464 -0.2091 -0.8091 -1.1644
 8452SOL     OW36814   3.927   4.553   5.159 -0.6814 -0.2015 -0.0239
 8452SOL    HW136815   3.910   4.554   5.253  2.5463 -0.8375  0.5507
 8452SOL    HW236816   3.970   4.635   5.136 -0.8424 -0.0368  0.2506
 8453SOL     OW36817   0.739   4.557   0.938 -0.0246 -0.5596 -0.2093
 8453SOL    HW136818   0.744   4.478   0.885 -1.0922 -0.2413 -0.7786
 8453SOL    HW236819   0.644   4.566   0.948 -0.0954 -1.8343  0.2482
 8454SOL     OW36820   1.546   0.139   7.094 -0.0492  0.5436  0.2796
 8454SOL    HW136821   1.576   0.127   7.003 -1.1524 -0.0100 -0.0136
 8454SOL    HW236822   1.611   0.096   7.150 -0.3981  0.2065  0.4209
 8455SOL     OW36823   3.063   3.398   6.643 -0.0886 -0.8846 -0.1518
 8455SOL    HW136824   3.023   3.343   6.575 -0.3803 -1.1405  0.2266
 8455SOL    HW236825   3.112   3.329   6.687 -0.8018 -1.7715 -0.7365
 8456SOL     OW36826   0.205   3.981   4.834  0.3773  0.5607 -0.4627
 8456SOL    HW136827   0.215   3.988   4.928  1.9268  1.1380 -0.6733
 8456SOL    HW236828   0.122   3.933   4.832 -1.1550  3.1501  0.8153
 8457SOL     OW36829   3.726   2.889   7.875  0.3724  0.4823  0.0263
 8457SOL    HW136830   3.762   2.815   7.826 -0.6447 -2.3214  3.4774
 8457SOL    HW236831   3.808   2.925   7.910  0.5006  1.2269 -1.0163
 8458SOL     OW36832   1.278   3.882   8.345 -0.8738 -0.0852 -0.0114
 8458SOL    HW136833   1.292   3.818   8.275  1.0547  0.0154  0.2596
 8458SOL    HW236834   1.315   3.956   8.297  0.4409  0.5956  2.0346
 8459SOL     OW36835   3.647   2.469   0.538  0.5280 -0.0184 -0.5683
 8459SOL    HW136836   3.677   2.497   0.625  0.7543  0.8864 -0.9367
 8459SOL    HW236837   3.560   2.434   0.552  1.0857 -0.0570  2.8683
 8460SOL     OW36838   1.890   3.116   7.394 -0.7634 -0.0953  0.5087
 8460SOL    HW136839   1.957   3.181   7.414  1.4215 -2.5618  1.2317
 8460SOL    HW236840   1.867   3.079   7.479  0.8238 -0.6532  0.6936
 8461SOL     OW36841   3.118   1.035   7.331  0.1658  0.1292  0.0277
 8461SOL    HW136842   3.125   0.940   7.329  2.1641  0.2771 -0.3852
 8461SOL    HW236843   3.024   1.052   7.338 -0.0737 -1.0917 -0.2082
 8462SOL     OW36844   2.584   2.821   5.368  0.4601  0.0498  0.0310
 8462SOL    HW136845   2.538   2.799   5.449  1.9436  1.6869  1.3258
 8462SOL    HW236846   2.676   2.835   5.392  0.8929 -4.0307  0.6227
 8463SOL     OW36847   1.911   2.353  16.207 -0.4622 -0.2357 -0.1215
 8463SOL    HW136848   1.879   2.428  16.256  0.5923  0.2214 -0.1261
 8463SOL    HW236849   1.954   2.300  16.274 -0.2644 -2.0832 -1.7124
 8464SOL     OW36850   3.361   4.305  11.456  0.2960 -0.8097 -1.1863
 8464SOL    HW136851   3.455   4.299  11.473  0.2037  0.3998 -0.2611
 8464SOL    HW236852   3.344   4.399  11.458  0.9757 -0.6799 -1.3909
 8465SOL     OW36853   3.037   0.744   2.116  0.6925  1.2251 -0.7245
 8465SOL    HW136854   3.039   0.745   2.020 -0.2674 -0.8470 -0.7591
 8465SOL    HW236855   2.945   0.727   2.134  0.7619  2.7984  1.0787
 8466SOL     OW36856   0.093   3.648   8.702 -0.2207 -0.5084  0.4344
 8466SOL    HW136857   0.065   3.629   8.792  0.8811  0.6235  1.0123
 8466SOL    HW236858   0.029   3.713   8.674  0.3466  0.7920  2.1335
 8467SOL     OW36859   1.528   4.502   7.719 -0.3182 -0.0733  0.1103
 8467SOL    HW136860   1.497   4.423   7.674  1.0219 -0.9377  0.7094
 8467SOL    HW236861   1.539   4.464   7.806 -0.3458  0.6651  0.4315
 8468SOL     OW36862   3.725   2.010  16.087  0.6009 -0.5871 -0.4109
 8468SOL    HW136863   3.761   1.966  16.164 -0.4481  1.4885  1.2787
 8468SOL    HW236864   3.806   2.014  16.035  1.2111 -1.0564  0.5023
 8469SOL     OW36865   0.776   0.198   4.740 -0.3367  0.4529  0.5004
 8469SOL    HW136866   0.821   0.231   4.818 -1.4433 -1.1314  1.7949
 8469SOL    HW236867   0.750   0.283   4.703  1.3346  2.0154  2.8925
 8470SOL     OW36868   1.461   0.663   9.889  0.4239  0.5269  0.3134
 8470SOL    HW136869   1.458   0.597   9.819 -1.4528  1.0613 -0.1328
 8470SOL    HW236870   1.402   0.613   9.946  0.2390 -1.1061 -1.3146
 8471SOL     OW36871   1.944   2.420  14.287 -0.7208  0.2906  0.3850
 8471SOL    HW136872   1.853   2.446  14.270 -1.1189  0.0846  2.0943
 8471SOL    HW236873   1.936   2.400  14.381 -0.9259  0.5309  0.4183
 8472SOL     OW36874   4.500   4.208  16.935  0.2443  0.3477 -0.1911
 8472SOL    HW136875   4.551   4.170  17.007  1.0037  0.4234 -0.6912
 8472SOL    HW236876   4.413   4.170  16.948  1.1272 -2.0954 -1.4416
 8473SOL     OW36877   3.714   4.094   1.896 -0.2909 -0.1660  0.3478
 8473SOL    HW136878   3.790   4.127   1.848 -0.7729  1.3580  0.6241
 8473SOL    HW236879   3.733   4.000   1.895  1.0056  0.0920  0.2546
 8474SOL     OW36880   3.363   4.091   3.952 -1.1325  0.1397  0.5128
 8474SOL    HW136881   3.390   4.006   3.917 -0.4998  1.2531 -1.7442
 8474SOL    HW236882   3.449   4.131   3.960 -0.6930 -0.8427  0.7203
 8475SOL     OW36883   1.563   1.312   0.608 -0.0771 -0.4952 -0.8390
 8475SOL    HW136884   1.568   1.356   0.523  2.7694  0.4105 -0.2101
 8475SOL    HW236885   1.521   1.380   0.660 -3.2131 -2.5098 -0.7386
 8476SOL     OW36886   0.467   0.749   9.191  0.5701  0.0186  0.1145
 8476SOL    HW136887   0.460   0.765   9.097  0.7679 -4.4826 -0.6706
 8476SOL    HW236888   0.424   0.665   9.207  0.8946  0.0550  1.2033
 8477SOL     OW36889   2.812   3.911  12.227  0.4322  0.2276 -0.0642
 8477SOL    HW136890   2.721   3.930  12.248  0.2206 -0.9266  0.0785
 8477SOL    HW236891   2.831   3.986  12.172  0.0712 -0.5617 -1.2640
 8478SOL     OW36892   1.500   2.749   0.906 -0.3851 -0.4687  0.0061
 8478SOL    HW136893   1.496   2.759   0.811  2.0058  3.7004  0.3516
 8478SOL    HW236894   1.429   2.805   0.938  0.6046  1.6172 -1.4789
 8479SOL     OW36895   1.434   3.059   5.046 -0.1978 -0.2164  0.4350
 8479SOL    HW136896   1.524   3.070   5.013 -1.0173 -1.3564 -2.1961
 8479SOL    HW236897   1.394   3.029   4.964 -0.5775  3.3403 -0.6542
 8480SOL     OW36898   3.299   3.145   6.930 -0.0160  0.3895  0.3448
 8480SOL    HW136899   3.321   3.206   7.001  0.2525  0.0905  0.5201
 8480SOL    HW236900   3.204   3.144   6.919  0.1024  2.2593 -0.8360
 8481SOL     OW36901   4.327   1.144   2.539  0.0877  0.5214  0.2258
 8481SOL    HW136902   4.376   1.095   2.473 -1.2135  1.7915 -1.6881
 8481SOL    HW236903   4.394   1.187   2.591 -1.2024  2.1162  0.5750
 8482SOL     OW36904   4.420   1.182  16.194  0.0699 -0.6874 -0.6350
 8482SOL    HW136905   4.358   1.122  16.233  0.6427 -1.2771 -0.6310
 8482SOL    HW236906   4.363   1.213  16.123 -0.8381 -0.1231  0.3496
 8483SOL     OW36907   4.128   3.844  14.143  0.0051  0.1888  0.2547
 8483SOL    HW136908   4.118   3.769  14.202  3.2962  0.2091  0.8747
 8483SOL    HW236909   4.156   3.907  14.210 -3.5373 -0.4783  2.3711
 8484SOL     OW36910   0.288   3.399   8.676  0.0838 -0.5950  0.2404
 8484SOL    HW136911   0.264   3.376   8.766  2.3532 -0.5540  0.8359
 8484SOL    HW236912   0.273   3.317   8.628  0.1264  0.3318 -1.3641
 8485SOL     OW36913   0.352   3.944   2.107  0.7801  0.0378 -0.6306
 8485SOL    HW136914   0.399   3.957   2.189  0.8743  0.3301 -0.7304
 8485SOL    HW236915   0.294   3.870   2.126  0.6719  0.0223 -1.0096
 8486SOL     OW36916   4.627   4.268   9.152  0.3389 -0.4044  0.0881
 8486SOL    HW136917   4.692   4.248   9.219 -0.8725  0.5008  1.5251
 8486SOL    HW236918   4.680   4.272   9.072 -1.7713  0.2670 -1.2963
 8487SOL     OW36919   0.604   1.555   4.576  0.3624  0.2462  0.1265
 8487SOL    HW136920   0.660   1.537   4.651 -1.0531  1.4911  1.4830
 8487SOL    HW236921   0.578   1.467   4.548  1.6309  0.2172 -0.9432
 8488SOL     OW36922   0.871   3.100   3.398  0.2618 -0.8502 -0.0171
 8488SOL    HW136923   0.791   3.070   3.442  0.1452  1.7108  1.4924
 8488SOL    HW236924   0.907   3.012   3.390  0.6858 -0.6648 -0.1655
 8489SOL     OW36925   1.041   1.614   1.917  0.9488  0.0046 -0.2021
 8489SOL    HW136926   1.022   1.559   1.841 -1.3631 -0.9034  1.0179
 8489SOL    HW236927   0.975   1.683   1.914  1.7517  0.6739 -2.0501
 8490SOL     OW36928   3.190   2.397   8.734 -0.9024  0.2267 -0.4359
 8490SOL    HW136929   3.116   2.457   8.739 -1.8135 -0.8414 -1.0536
 8490SOL    HW236930   3.215   2.379   8.825 -0.7920 -0.1005 -0.5286
 8491SOL     OW36931   3.247   1.122   4.522  0.3743 -0.1714 -0.3951
 8491SOL    HW136932   3.276   1.112   4.432  1.6723 -0.2034  0.0325
 8491SOL    HW236933   3.210   1.210   4.522 -0.4931 -0.5341 -0.2425
 8492SOL     OW36934   1.573   1.479   0.396  0.2873 -0.2277 -0.0792
 8492SOL    HW136935   1.639   1.547   0.381  2.2501 -2.0628  0.2461
 8492SOL    HW236936   1.498   1.531   0.424  1.0194  1.1250 -0.6624
 8493SOL     OW36937   2.514   0.769   6.456 -0.0347 -0.3949 -0.1951
 8493SOL    HW136938   2.428   0.800   6.428 -0.9718 -0.9321  2.1689
 8493SOL    HW236939   2.503   0.769   6.551 -1.0570  2.0552 -0.3289
 8494SOL     OW36940   4.088   2.528  14.712  0.5277 -0.4865  0.3975
 8494SOL    HW136941   4.029   2.598  14.741  2.3518  1.4219 -0.4902
 8494SOL    HW236942   4.170   2.570  14.687 -0.7833  0.9010 -1.4924
 8495SOL     OW36943   1.090   0.334  12.268  0.4899  0.4665  0.1177
 8495SOL    HW136944   1.135   0.278  12.331  0.1650  1.1114  0.9262
 8495SOL    HW236945   1.034   0.378  12.332  1.4457  4.0519 -1.4763
 8496SOL     OW36946   2.350   1.282   7.011  0.0053  0.2526  0.5298
 8496SOL    HW136947   2.291   1.341   7.057  0.2658  1.6387 -0.9396
 8496SOL    HW236948   2.349   1.218   7.082  0.4654 -0.2901  0.0524
 8497SOL     OW36949   1.029   1.304   3.350  0.6249 -0.1429  0.0768
 8497SOL    HW136950   1.052   1.379   3.406  0.9937 -0.1686 -0.0424
 8497SOL    HW236951   0.987   1.351   3.277  0.5316  2.7939  1.9890
 8498SOL     OW36952   3.586   3.441   8.423 -0.7924 -0.4558 -0.1926
 8498SOL    HW136953   3.665   3.495   8.431 -2.2879  1.7629 -0.2181
 8498SOL    HW236954   3.595   3.383   8.499  1.9242 -0.2536 -0.3667
 8499SOL     OW36955   2.975   2.824   0.997  0.8123  0.5538 -0.1998
 8499SOL    HW136956   2.937   2.909   0.971  2.3881  1.2274 -0.2792
 8499SOL    HW236957   2.929   2.750   0.957  1.7056 -1.1834  2.0185
 8500SOL     OW36958   1.790   3.277   7.925  0.0855 -0.6125 -0.6170
 8500SOL    HW136959   1.883   3.259   7.938 -0.0694 -0.7028  0.3865
 8500SOL    HW236960   1.744   3.233   7.997  1.3371 -1.3939 -0.2947
 8501SOL     OW36961   2.047   0.057   0.691  0.2962  0.5318 -0.3265
 8501SOL    HW136962   2.132   0.058   0.648  1.5695  0.0742  2.1582
 8501SOL    HW236963   1.995   0.105   0.627  1.5013  0.4728 -1.3444
 8502SOL     OW36964   0.083   1.235   4.394  0.0142  0.0576 -0.7269
 8502SOL    HW136965   0.071   1.326   4.366 -2.4114  0.1613  0.5959
 8502SOL    HW236966   0.174   1.217   4.372 -0.0463  0.9057 -1.6859
 8503SOL     OW36967   1.164   3.076  12.239  0.0840  0.4194  0.1972
 8503SOL    HW136968   1.223   3.142  12.202 -0.9435  1.0298 -0.3505
 8503SOL    HW236969   1.084   3.119  12.210  1.2038  1.5383 -1.2305
 8504SOL     OW36970   2.391   1.709   3.539  0.4133  0.1139  0.2289
 8504SOL    HW136971   2.430   1.628   3.506 -0.4902 -0.2441  0.0257
 8504SOL    HW236972   2.306   1.676   3.570  0.8709 -3.3563 -2.1916
 8505SOL     OW36973   1.855   4.434   2.509 -0.7084  0.2964  0.4464
 8505SOL    HW136974   1.893   4.426   2.421 -1.7934 -0.2222  0.0241
 8505SOL    HW236975   1.912   4.503   2.542  0.1162  0.0586 -0.4666
 8506SOL     OW36976   2.117   1.407   1.263 -0.3805 -0.0562 -0.8443
 8506SOL    HW136977   2.211   1.392   1.269 -0.5680 -0.2206  1.6664
 8506SOL    HW236978   2.094   1.318   1.239 -0.2189  0.1822 -1.8672
 8507SOL     OW36979   4.412   3.769   3.002 -0.6430 -1.0029 -0.0781
 8507SOL    HW136980   4.354   3.721   2.944 -1.5477  0.3139 -0.2675
 8507SOL    HW236981   4.388   3.734   3.088 -0.5174  1.1602  0.8579
 8508SOL     OW36982   0.418   4.594  10.907  0.4993 -0.1152 -0.0683
 8508SOL    HW136983   0.387   4.671  10.955 -0.1115 -0.0725 -0.5440
 8508SOL    HW236984   0.511   4.618  10.902  0.9995 -1.9627  0.1629
 8509SOL     OW36985   4.167   3.443  16.567 -0.4527 -0.3143 -0.1423
 8509SOL    HW136986   4.072   3.436  16.579 -0.6420  0.8010 -1.0175
 8509SOL    HW236987   4.189   3.369  16.624 -0.3884 -1.0638 -1.1360
 8510SOL     OW36988   2.566   2.680   8.238 -0.0547 -0.5742  0.7027
 8510SOL    HW136989   2.586   2.592   8.270 -0.7236 -0.0023  2.6952
 8510SOL    HW236990   2.636   2.681   8.172 -1.2015  3.7614 -0.4065
 8511SOL     OW36991   2.254   2.461   7.024  0.5858  0.2591  0.0638
 8511SOL    HW136992   2.332   2.506   7.056  0.3862  1.8488 -1.6592
 8511SOL    HW236993   2.291   2.404   6.957 -0.2595  1.9908 -1.8907
 8512SOL     OW36994   1.336   4.452   2.655  0.0752 -0.0186  0.5857
 8512SOL    HW136995   1.339   4.537   2.698  1.2394  0.1595  0.1488
 8512SOL    HW236996   1.429   4.429   2.661 -0.5616 -2.6626  0.2848
 8513SOL     OW36997   0.623   3.709   7.240 -0.1531  0.0427  0.1022
 8513SOL    HW136998   0.557   3.645   7.213 -0.1108  0.5324 -1.1984
 8513SOL    HW236999   0.617   3.701   7.335  1.2483 -0.2840  0.1573
 8514SOL     OW37000   3.340   2.310   4.853  0.1448  0.0376  0.3798
 8514SOL    HW137001   3.378   2.239   4.906  0.1575 -1.0387 -1.0563
 8514SOL    HW237002   3.268   2.334   4.912 -0.9150 -1.3881 -0.3198
 8515SOL     OW37003   0.541   1.890   5.683  0.4674  1.2443 -0.1189
 8515SOL    HW137004   0.519   1.919   5.771 -1.5308  0.9349 -0.5058
 8515SOL    HW237005   0.455   1.913   5.647  0.1040 -1.7646 -1.2146
 8516SOL     OW37006   3.794   3.249   7.099 -0.8247  0.1939 -0.3478
 8516SOL    HW137007   3.821   3.340   7.082  3.0448 -0.2861  3.1612
 8516SOL    HW237008   3.875   3.209   7.131 -0.5340  0.0475 -1.2697
 8517SOL     OW37009   2.935   2.624   9.762 -0.3925 -0.0091 -0.0992
 8517SOL    HW137010   2.938   2.613   9.857  1.5897 -0.9983 -0.2820
 8517SOL    HW237011   2.864   2.567   9.732 -1.2327  0.0673  1.7486
 8518SOL     OW37012   0.403   0.482  12.753  0.5277 -0.1240 -0.1863
 8518SOL    HW137013   0.476   0.421  12.742  3.7881  3.6577  0.4198
 8518SOL    HW237014   0.361   0.453  12.672  1.5484 -0.3023 -0.6503
 8519SOL     OW37015   3.326   3.291   0.369 -0.2759  0.3033 -0.2249
 8519SOL    HW137016   3.359   3.338   0.446  0.2138  0.6961 -0.6721
 8519SOL    HW237017   3.362   3.351   0.303 -2.1886 -0.1099 -1.6263
 8520SOL     OW37018   0.255   3.570   5.777 -0.4257 -0.4667  0.4448
 8520SOL    HW137019   0.304   3.492   5.752 -1.3410  0.3647 -4.0255
 8520SOL    HW237020   0.219   3.596   5.692 -0.0493 -0.3897  0.3080
 8521SOL     OW37021   4.681   3.588  11.220  0.8198  0.2672 -0.3638
 8521SOL    HW137022   0.042   3.551  11.193  0.3594 -1.2409  0.2717
 8521SOL    HW237023   4.681   3.536  11.300  0.8259 -0.7916 -1.0604
 8522SOL     OW37024   1.425   3.243   0.993  0.6568  0.3594 -0.2933
 8522SOL    HW137025   1.401   3.332   0.968  1.0622  1.2180  2.4118
 8522SOL    HW237026   1.334   3.213   0.997  0.6799  0.2613 -0.5127
 8523SOL     OW37027   3.525   0.758   6.199  0.6088 -1.0087  0.5043
 8523SOL    HW137028   3.568   0.779   6.116 -0.5333  1.6137  0.5729
 8523SOL    HW237029   3.596   0.792   6.253 -0.6309 -2.2284  2.8647
 8524SOL     OW37030   3.940   2.020  15.656  0.2669  0.3698 -0.1443
 8524SOL    HW137031   3.848   2.006  15.634  0.8632 -1.8444 -1.2096
 8524SOL    HW237032   3.954   2.049  15.565  0.9382  0.8625  0.1173
 8525SOL     OW37033   1.573   1.839  15.506 -0.3844  0.0334  0.7609
 8525SOL    HW137034   1.529   1.922  15.487  0.3414  0.3479  0.4664
 8525SOL    HW237035   1.572   1.806  15.416  1.0078 -1.8448  1.4266
 8526SOL     OW37036   4.372   3.172   7.954  0.0691  0.0274 -0.6731
 8526SOL    HW137037   4.324   3.110   8.008 -0.7517 -0.1845 -1.6502
 8526SOL    HW237038   4.440   3.107   7.932  0.3757  0.2083 -0.2553
 8527SOL     OW37039   1.687   3.482  12.889 -0.4998  0.1777 -0.2294
 8527SOL    HW137040   1.658   3.573  12.886  0.5261  0.4434 -2.0712
 8527SOL    HW237041   1.772   3.502  12.929 -0.6839  0.7925 -0.1415
 8528SOL     OW37042   1.656   4.438   6.975  0.3123 -0.0214  0.5344
 8528SOL    HW137043   1.679   4.519   7.021  2.2052  0.8469 -1.9333
 8528SOL    HW237044   1.603   4.406   7.048  1.0044 -0.9027  0.6512
 8529SOL     OW37045   0.513   0.333   7.179  0.2431  0.0064  0.6669
 8529SOL    HW137046   0.503   0.309   7.271 -0.6711  1.0872  0.8519
 8529SOL    HW237047   0.536   0.425   7.179 -0.6356  0.2310  1.3361
 8530SOL     OW37048   1.604   2.277   5.184 -0.4144 -0.2526  0.6542
 8530SOL    HW137049   1.604   2.243   5.094 -2.0398  0.0738  0.5271
 8530SOL    HW237050   1.604   2.369   5.156 -0.5841 -0.2363  0.7038
 8531SOL     OW37051   1.051   3.396   2.458 -0.0337 -0.3657  0.6268
 8531SOL    HW137052   1.013   3.310   2.441 -1.9081  0.2591  1.6634
 8531SOL    HW237053   0.977   3.434   2.505  0.8829 -0.8667  2.4707
 8532SOL     OW37054   1.059   1.294   8.091 -0.0300  0.1703  0.3259
 8532SOL    HW137055   1.026   1.326   8.007 -1.0465  0.3461  0.7876
 8532SOL    HW237056   1.148   1.329   8.095  0.5216 -1.2154  0.2913
 8533SOL     OW37057   2.817   3.515   9.742  0.8564  0.4038 -0.5966
 8533SOL    HW137058   2.858   3.489   9.824 -3.1573 -0.3153  1.1610
 8533SOL    HW237059   2.726   3.530   9.767  0.4585 -0.6744 -1.4083
 8534SOL     OW37060   0.157   3.989   9.674 -0.6471  0.2549  0.3671
 8534SOL    HW137061   0.238   4.000   9.625 -0.9195 -1.7171 -0.5590
 8534SOL    HW237062   0.088   3.997   9.608 -0.1355 -0.1783 -0.2273
 8535SOL     OW37063   1.969   0.296   1.358 -0.5610  0.0583 -0.1539
 8535SOL    HW137064   1.939   0.218   1.311 -2.0847 -0.6132  1.9166
 8535SOL    HW237065   1.935   0.275   1.445 -0.9347  3.6599  0.5678
 8536SOL     OW37066   3.722   2.931   1.894  0.5623 -0.0201 -0.2689
 8536SOL    HW137067   3.681   2.929   1.807  2.2321  2.1515 -1.1120
 8536SOL    HW237068   3.673   3.000   1.938 -0.8664 -1.3408  0.1824
 8537SOL     OW37069   2.877   4.476   3.369 -0.6670 -0.0226 -0.3140
 8537SOL    HW137070   2.850   4.546   3.427 -1.4356  1.9620 -3.0781
 8537SOL    HW237071   2.971   4.492   3.362 -0.8116  1.5703  1.5357
 8538SOL     OW37072   4.015   2.534   3.743  0.3989 -0.0053  0.8622
 8538SOL    HW137073   4.041   2.449   3.706  1.3313  1.3035 -1.4209
 8538SOL    HW237074   4.022   2.504   3.834 -0.5997 -0.0577  0.9176
 8539SOL     OW37075   1.058   0.015   1.261 -0.3207 -0.2911 -0.5878
 8539SOL    HW137076   1.117   4.701   1.326 -0.3769  0.9091  0.1375
 8539SOL    HW237077   1.090   4.698   1.180 -1.2820  0.1233 -1.1731
 8540SOL     OW37078   4.100   1.704  10.770  0.0548  0.2353 -0.0252
 8540SOL    HW137079   4.020   1.734  10.813 -0.4124 -0.8241 -0.1525
 8540SOL    HW237080   4.048   1.648  10.711  1.2158 -1.5177  0.6119
 8541SOL     OW37081   4.231   2.308   8.451  0.0345 -0.0991  0.3851
 8541SOL    HW137082   4.179   2.229   8.466  0.7015 -0.9764 -1.9206
 8541SOL    HW237083   4.179   2.381   8.483  0.1065  0.7608 -1.4859
 8542SOL     OW37084   4.192   2.757   0.466 -0.3514  0.9174 -0.6689
 8542SOL    HW137085   4.287   2.764   0.479 -0.3531 -0.8015  0.2790
 8542SOL    HW237086   4.171   2.850   0.475 -1.2422  0.6741 -0.2874
 8543SOL     OW37087   3.562   4.002   5.458  0.2189  0.0447  0.3087
 8543SOL    HW137088   3.471   3.975   5.469  0.4204 -1.4807 -1.5972
 8543SOL    HW237089   3.561   4.087   5.501 -0.8783 -0.8294  2.0331
 8544SOL     OW37090   0.089   0.963  14.662 -0.0210  0.3315  0.0347
 8544SOL    HW137091   0.037   0.971  14.741  0.9853  1.9868  0.5394
 8544SOL    HW237092   0.034   1.009  14.598 -2.1616  1.0112  2.3746
 8545SOL     OW37093   2.536   0.231   8.531 -0.3880  0.0069 -0.3632
 8545SOL    HW137094   2.611   0.267   8.484 -0.0782  2.0821  1.6758
 8545SOL    HW237095   2.546   0.139   8.507  1.5897 -0.0989  0.9131
 8546SOL     OW37096   4.298   3.122   6.862  0.0078 -0.1210 -0.2887
 8546SOL    HW137097   4.311   3.043   6.916 -0.1234  0.7661  1.0484
 8546SOL    HW237098   4.205   3.128   6.843 -0.0684  0.4787  0.2585
 8547SOL     OW37099   1.550   0.483   0.994  0.1097 -0.3887 -0.1196
 8547SOL    HW137100   1.630   0.437   1.019  0.4011  0.2796  0.1783
 8547SOL    HW237101   1.555   0.547   1.064  3.3915  0.1010 -0.7868
 8548SOL     OW37102   2.176   3.082  16.146 -0.2726  0.0054  0.2734
 8548SOL    HW137103   2.240   3.012  16.160 -0.5572 -0.2044  0.4908
 8548SOL    HW237104   2.183   3.128  16.229  0.2011 -2.0445  1.3708
 8549SOL     OW37105   0.783   1.899   2.340  0.0182 -0.2219 -0.3154
 8549SOL    HW137106   0.771   1.882   2.433  0.1063  0.8340 -0.1064
 8549SOL    HW237107   0.693   1.881   2.313  0.0987  0.9624 -1.3985
 8550SOL     OW37108   0.787   1.827   2.614  0.1025 -0.1155  0.3986
 8550SOL    HW137109   0.763   1.862   2.699 -1.1259  1.4380 -0.5961
 8550SOL    HW237110   0.816   1.743   2.651 -1.2571 -0.9216 -0.3750
 8551SOL     OW37111   0.262   2.457  11.992 -0.4876  0.6374  0.0455
 8551SOL    HW137112   0.311   2.527  11.947  0.9654  0.3555  1.2018
 8551SOL    HW237113   0.185   2.442  11.938 -0.6215  2.2160 -0.1992
 8552SOL     OW37114   0.463   0.886   6.256 -0.3301 -0.7719 -0.0639
 8552SOL    HW137115   0.474   0.802   6.212  2.0715  0.6439 -2.1450
 8552SOL    HW237116   0.368   0.895   6.262 -0.0846  1.8123 -0.1164
 8553SOL     OW37117   3.863   4.406  16.122  0.1526  0.2008 -0.3412
 8553SOL    HW137118   3.806   4.482  16.107 -0.4198  0.0463  1.1180
 8553SOL    HW237119   3.948   4.445  16.140  0.1607  0.3778 -0.7467
 8554SOL     OW37120   2.898   2.551   2.697 -0.4249 -0.2142 -0.2867
 8554SOL    HW137121   2.918   2.460   2.719  0.2430  0.2205  0.8799
 8554SOL    HW237122   2.863   2.547   2.608 -0.5775  0.9905 -0.2712
 8555SOL     OW37123   4.341   3.305   6.562  0.0224  0.2071  0.9095
 8555SOL    HW137124   4.435   3.291   6.574  0.0283 -0.2064  0.3677
 8555SOL    HW237125   4.315   3.220   6.526 -1.7578  1.0213  0.2464
 8556SOL     OW37126   4.572   2.138  10.096 -0.2482  0.1679  0.2210
 8556SOL    HW137127   4.514   2.062  10.106  0.1885  0.1051  2.4152
 8556SOL    HW237128   4.561   2.176  10.183 -1.4624  0.4259 -0.0355
 8557SOL     OW37129   2.780   0.361  13.383  0.4802  0.4079 -0.2773
 8557SOL    HW137130   2.720   0.333  13.451 -0.1784  0.3699 -0.8773
 8557SOL    HW237131   2.730   0.440  13.361  1.3100  0.0863 -3.2596
 8558SOL     OW37132   0.543   1.584   2.644 -0.0466 -0.2047  0.3025
 8558SOL    HW137133   0.548   1.663   2.590 -1.3448 -0.0161  0.4507
 8558SOL    HW237134   0.458   1.600   2.684 -1.5363 -1.9005 -2.1718
 8559SOL     OW37135   3.028   0.808   8.659 -0.2564 -0.3200  0.2522
 8559SOL    HW137136   2.999   0.862   8.586 -2.2134 -0.7332  0.7155
 8559SOL    HW237137   3.057   0.873   8.723  1.9886  0.0627 -1.1575
 8560SOL     OW37138   4.060   2.251   0.460  0.7765 -0.6864 -0.4509
 8560SOL    HW137139   4.019   2.322   0.508  1.5854  1.5316 -3.0412
 8560SOL    HW237140   4.087   2.187   0.526 -0.3306 -0.0516  0.6085
 8561SOL     OW37141   4.338   3.022   7.675 -0.0363 -0.7383  0.4874
 8561SOL    HW137142   4.254   2.978   7.660  0.0402 -1.7554  3.1488
 8561SOL    HW237143   4.387   2.993   7.598 -0.1991 -1.4506  0.6539
 8562SOL     OW37144   1.157   3.403  16.456  0.0979 -0.0741  0.1226
 8562SOL    HW137145   1.159   3.377  16.364 -1.7057  1.3927 -0.3301
 8562SOL    HW237146   1.064   3.400  16.478 -0.0933  0.0291 -0.6650
 8563SOL     OW37147   4.004   2.825   2.625  0.3053 -0.1621  0.3577
 8563SOL    HW137148   3.982   2.857   2.538 -1.5054  1.0956  1.2855
 8563SOL    HW237149   4.081   2.777   2.592 -0.7905 -2.4558  1.1486
 8564SOL     OW37150   1.402   3.517  12.158 -0.0350 -0.4758 -0.0029
 8564SOL    HW137151   1.475   3.527  12.220 -1.4585  3.4286  1.0535
 8564SOL    HW237152   1.430   3.575  12.086 -0.3711  0.8033  0.8853
 8565SOL     OW37153   4.340   2.663  10.497 -0.9405  0.1131 -0.6336
 8565SOL    HW137154   4.420   2.691  10.543 -0.7144 -2.0159  0.2635
 8565SOL    HW237155   4.304   2.607  10.566 -3.2150  2.9703  0.4676
 8566SOL     OW37156   1.286   4.259   7.917  0.3324 -0.2840  0.6913
 8566SOL    HW137157   1.281   4.167   7.892 -3.4790 -0.5335  2.3011
 8566SOL    HW237158   1.245   4.246   8.003  1.7262  0.6269  1.4864
 8567SOL     OW37159   1.020   2.355   7.191 -0.2814  0.1193  0.0638
 8567SOL    HW137160   1.078   2.414   7.238  0.5330  0.3594 -1.2551
 8567SOL    HW237161   1.060   2.353   7.104 -0.4298  1.2600 -0.0247
 8568SOL     OW37162   2.876   3.635   3.310 -0.3953  0.3557 -0.3562
 8568SOL    HW137163   2.952   3.689   3.328 -0.7366  0.3159  1.1962
 8568SOL    HW237164   2.918   3.550   3.295  0.2201  0.6099 -0.0720
 8569SOL     OW37165   0.841   1.905   6.142  0.2438  0.1808 -0.0494
 8569SOL    HW137166   0.772   1.919   6.206  0.0944 -1.6686  0.1985
 8569SOL    HW237167   0.901   1.843   6.184 -0.0639  0.1322  0.3109
 8570SOL     OW37168   3.558   3.272   8.030  0.1103  0.6515  0.3689
 8570SOL    HW137169   3.495   3.228   7.972  1.6577 -1.6054  0.3905
 8570SOL    HW237170   3.641   3.228   8.013 -0.1535  1.0450 -1.8477
 8571SOL     OW37171   0.491   4.567   5.516  0.3584 -0.8768 -0.2460
 8571SOL    HW137172   0.407   4.612   5.510  0.1354 -1.2883 -0.1409
 8571SOL    HW237173   0.523   4.596   5.602  0.4279 -1.0707 -0.2073
 8572SOL     OW37174   3.386   3.673   5.512 -0.2440  0.0371 -0.0100
 8572SOL    HW137175   3.402   3.702   5.422  2.5016 -1.4099  0.0438
 8572SOL    HW237176   3.462   3.722   5.543  0.4923 -2.1749  1.6486
 8573SOL     OW37177   0.386   3.561  10.784  0.2483  0.5401  0.5264
 8573SOL    HW137178   0.481   3.561  10.795  0.0890  1.6328  1.9656
 8573SOL    HW237179   0.365   3.506  10.859 -1.5348  1.1613  0.4907
 8574SOL     OW37180   1.703   2.733   2.583 -0.1628 -0.0867 -0.4140
 8574SOL    HW137181   1.695   2.773   2.669  0.5559  0.0150 -0.3895
 8574SOL    HW237182   1.699   2.642   2.613  0.8988  0.3186  1.0052
 8575SOL     OW37183   1.885   0.440  10.428  0.6333 -0.3693 -0.0070
 8575SOL    HW137184   1.979   0.455  10.439  0.7159 -0.2942 -0.8527
 8575SOL    HW237185   1.843   0.525  10.439 -0.9502 -1.0493 -0.7933
 8576SOL     OW37186   1.150   1.808   5.511 -0.0587  0.2254 -0.6194
 8576SOL    HW137187   1.202   1.800   5.431  0.3933  0.2298 -0.3268
 8576SOL    HW237188   1.215   1.865   5.551  1.1794 -1.2217 -0.5430
 8577SOL     OW37189   2.848   2.358  14.397 -0.0171  0.3675  0.7514
 8577SOL    HW137190   2.786   2.308  14.450  1.2693 -3.9071 -1.7167
 8577SOL    HW237191   2.913   2.391  14.459  1.5628 -2.1647  0.4657
 8578SOL     OW37192   0.580   3.159  15.500  0.2838 -0.0091 -0.3135
 8578SOL    HW137193   0.529   3.089  15.458  3.1916 -2.1693 -0.2193
 8578SOL    HW237194   0.579   3.225  15.430 -1.1762  1.3725  0.9903
 8579SOL     OW37195   1.598   3.879   5.974 -0.6737  0.0237  0.2822
 8579SOL    HW137196   1.687   3.906   5.948 -1.5694  2.2464 -0.4769
 8579SOL    HW237197   1.549   3.959   5.955 -1.1606 -0.2510  0.4049
 8580SOL     OW37198   1.540   1.429   5.043 -0.2919  0.3392 -0.0647
 8580SOL    HW137199   1.546   1.373   4.965 -1.6671  0.5102 -0.2958
 8580SOL    HW237200   1.603   1.387   5.101  0.2707  2.0675  0.5850
 8581SOL     OW37201   3.217   3.257  15.456 -0.1262  0.5391 -0.6174
 8581SOL    HW137202   3.282   3.191  15.479 -0.6979  0.1361 -0.1452
 8581SOL    HW237203   3.217   3.256  15.360 -3.7697  0.3857 -0.6379
 8582SOL     OW37204   2.008   2.149  11.729  0.4139  0.1077  0.1424
 8582SOL    HW137205   1.981   2.183  11.644 -0.1285 -2.1122 -0.5687
 8582SOL    HW237206   2.012   2.054  11.718  1.8686  0.0012  1.6585
 8583SOL     OW37207   0.706   1.296  10.757  0.2473 -0.1301 -0.0409
 8583SOL    HW137208   0.789   1.323  10.796  0.4497 -0.4791 -0.2276
 8583SOL    HW237209   0.673   1.382  10.730  0.5389  0.0925  0.3150
 8584SOL     OW37210   0.668   2.080  17.230 -0.1923  0.2615 -0.3705
 8584SOL    HW137211   0.708   2.088  17.144 -2.8667 -2.7073 -1.8553
 8584SOL    HW237212   0.684   2.168  17.264 -3.2688 -0.0624  1.9698
 8585SOL     OW37213   3.626   0.100   2.258  0.4294  0.1824 -0.0710
 8585SOL    HW137214   3.568   0.058   2.195 -0.8464  1.8905 -0.0654
 8585SOL    HW237215   3.643   0.038   2.329 -0.5840 -1.1600 -1.0042
 8586SOL     OW37216   3.615   2.382   4.406  0.1137  0.1131  0.2735
 8586SOL    HW137217   3.520   2.379   4.392  0.4946 -0.4226 -2.2276
 8586SOL    HW237218   3.626   2.474   4.381  1.2426  0.4974  2.2280
 8587SOL     OW37219   2.026   4.448   4.339  0.6597 -0.7255  0.3495
 8587SOL    HW137220   1.942   4.400   4.341 -0.6476  1.6188  1.3494
 8587SOL    HW237221   2.058   4.426   4.252 -0.0869  0.7300 -0.2897
 8588SOL     OW37222   4.110   3.961   6.658 -0.1417 -0.2107 -0.5362
 8588SOL    HW137223   4.072   3.963   6.570  0.5694  3.0738 -0.7401
 8588SOL    HW237224   4.194   4.005   6.648 -0.1420 -0.2759 -0.8333
 8589SOL     OW37225   3.220   1.581   8.268  0.8640 -0.1944 -0.2488
 8589SOL    HW137226   3.200   1.561   8.359  1.3192 -2.6526 -0.6781
 8589SOL    HW237227   3.151   1.647   8.256 -0.2203 -1.0449  1.2813
 8590SOL     OW37228   4.432   3.727  11.183 -0.1852 -0.3383  0.0136
 8590SOL    HW137229   4.514   3.684  11.209  0.1133 -0.1041 -0.5605
 8590SOL    HW237230   4.452   3.817  11.207  1.4762 -0.4305 -1.0132
 8591SOL     OW37231   2.546   4.424   8.767 -0.0957  0.2792 -0.3961
 8591SOL    HW137232   2.468   4.372   8.783 -2.0058  2.0765 -3.8819
 8591SOL    HW237233   2.512   4.513   8.758 -0.5078  0.2617  1.1095
 8592SOL     OW37234   2.926   2.785   6.222  0.2381  0.1878  0.2935
 8592SOL    HW137235   2.913   2.695   6.193  0.3499  0.4917 -0.7017
 8592SOL    HW237236   2.979   2.812   6.147 -1.9032 -1.2492 -1.7309
 8593SOL     OW37237   3.724   0.913   3.258  0.2045  0.5217 -0.0456
 8593SOL    HW137238   3.713   1.002   3.225 -0.8526 -0.2459 -1.7849
 8593SOL    HW237239   3.696   0.850   3.192 -0.8745  1.2724 -0.3063
 8594SOL     OW37240   3.622   2.177   8.505 -0.5184  0.3707  0.1249
 8594SOL    HW137241   3.636   2.255   8.452  2.2714  1.5355  2.6091
 8594SOL    HW237242   3.533   2.187   8.539  0.2397  0.3790  2.1298
 8595SOL     OW37243   2.682   1.859  12.438  0.1983  0.5184  0.1433
 8595SOL    HW137244   2.678   1.839  12.345 -0.1662  1.5129 -0.0438
 8595SOL    HW237245   2.627   1.937  12.447 -1.0007 -0.4158  1.0325
 8596SOL     OW37246   2.231   4.580   3.374  0.5571  0.4826 -0.0313
 8596SOL    HW137247   2.309   4.560   3.425  0.4815 -0.1656 -0.1615
 8596SOL    HW237248   2.279   4.593   3.292  0.0260 -3.1173 -0.9378
 8597SOL     OW37249   4.632   3.477   0.537  0.1346  0.1626 -0.8414
 8597SOL    HW137250   4.613   3.565   0.503 -2.3191 -0.5494 -1.2934
 8597SOL    HW237251   4.707   3.459   0.481 -0.8148  0.6384 -2.2568
 8598SOL     OW37252   3.622   2.594   9.238 -0.3334 -0.2310 -0.2157
 8598SOL    HW137253   3.615   2.566   9.329  1.2852  3.3924  1.0112
 8598SOL    HW237254   3.557   2.547   9.186  0.4469 -1.0904 -0.4080
 8599SOL     OW37255   4.343   3.538   8.236  0.1502 -0.5142  0.0432
 8599SOL    HW137256   4.266   3.576   8.277 -0.7317 -2.1783 -0.0615
 8599SOL    HW237257   4.328   3.446   8.256 -1.1704  0.2517  2.5487
 8600SOL     OW37258   0.760   0.301   3.450  0.3508  0.1197 -0.2791
 8600SOL    HW137259   0.801   0.217   3.426 -1.9192 -0.9146 -0.5456
 8600SOL    HW237260   0.834   0.359   3.435  1.3711 -0.7396  1.3569
 8601SOL     OW37261   2.010   2.671  11.925 -0.0342  0.3014 -0.3640
 8601SOL    HW137262   2.053   2.588  11.902 -1.0535 -0.3853  0.2316
 8601SOL    HW237263   2.048   2.699  12.009 -1.3698  0.4445  0.1873
 8602SOL     OW37264   3.862   4.162  14.436  0.0221 -0.2018 -0.2091
 8602SOL    HW137265   3.919   4.161  14.359 -0.9881 -1.1943 -0.9601
 8602SOL    HW237266   3.782   4.187  14.390  0.6634 -0.0036 -1.2157
 8603SOL     OW37267   0.995   2.666   3.601 -0.1767 -0.1892  0.0982
 8603SOL    HW137268   0.989   2.591   3.542 -0.1851  1.0919 -1.5220
 8603SOL    HW237269   0.979   2.629   3.688 -2.0968 -1.0936 -0.6230
 8604SOL     OW37270   1.260   1.439   6.774 -0.3722  0.7418 -0.3932
 8604SOL    HW137271   1.273   1.368   6.837 -1.6331  1.4040  0.6224
 8604SOL    HW237272   1.306   1.509   6.821  1.0157 -0.3388 -0.1461
 8605SOL     OW37273   4.498   0.779   0.282 -0.0057 -0.0605 -0.0695
 8605SOL    HW137274   4.459   0.807   0.199  0.7930  0.4333 -0.2765
 8605SOL    HW237275   4.418   0.734   0.309  0.4096  0.0551  1.3472
 8606SOL     OW37276   3.488   3.262   1.317 -0.9311 -0.3313  0.0934
 8606SOL    HW137277   3.402   3.302   1.332  0.4806  1.9677  2.1321
 8606SOL    HW237278   3.526   3.291   1.401 -0.5833 -2.5537  0.6867
 8607SOL     OW37279   0.982   3.908   7.501  0.1394 -0.3020 -0.3627
 8607SOL    HW137280   0.962   3.987   7.552 -2.1593 -0.2200 -1.4202
 8607SOL    HW237281   0.894   3.873   7.485  0.5734 -1.6719  0.1950
 8608SOL     OW37282   1.888   1.887   7.809  0.2065 -0.0375  0.3289
 8608SOL    HW137283   1.795   1.903   7.830 -0.2173 -0.1214 -1.4865
 8608SOL    HW237284   1.921   1.833   7.880 -1.2091 -0.7611  0.4467
 8609SOL     OW37285   3.361   3.600   6.275  0.0413 -0.2723 -0.7118
 8609SOL    HW137286   3.434   3.631   6.330  0.2201 -1.5552 -0.2135
 8609SOL    HW237287   3.292   3.603   6.341  0.5160  2.5114 -0.3590
 8610SOL     OW37288   4.683   3.706   3.009 -0.1272 -0.3395 -0.2487
 8610SOL    HW137289   4.594   3.736   3.025  0.0026 -0.3397  0.4970
 8610SOL    HW237290   0.003   3.780   2.965 -0.0861  1.3163  2.5157
 8611SOL     OW37291   0.961   0.915   9.629  0.1962 -0.2755  0.2787
 8611SOL    HW137292   1.036   0.896   9.685 -0.4514 -0.7207  0.9927
 8611SOL    HW237293   0.893   0.893   9.693  0.3893 -0.6672  0.3451
 8612SOL     OW37294   2.024   2.339   3.976  0.3190  0.5987  0.6484
 8612SOL    HW137295   2.105   2.382   3.948 -0.3581  0.3743 -1.6371
 8612SOL    HW237296   2.050   2.251   4.003 -0.0756  0.0071 -0.8738
 8613SOL     OW37297   2.396   0.051   3.116  0.3244  0.5540 -0.0111
 8613SOL    HW137298   2.464   0.079   3.177  2.5253 -0.8646 -1.7887
 8613SOL    HW237299   2.421   4.682   3.103 -2.3610 -0.0125 -1.2500
 8614SOL     OW37300   1.766   4.662   7.127 -0.9459 -0.0674 -0.4053
 8614SOL    HW137301   1.860   4.668   7.144 -1.3573 -0.7289  2.1922
 8614SOL    HW237302   1.732   4.642   7.215 -1.5773 -2.7539 -1.2454
 8615SOL     OW37303   2.956   0.426  15.363  0.4240  0.0858 -0.7844
 8615SOL    HW137304   3.017   0.355  15.344 -0.0139 -0.4594 -0.1495
 8615SOL    HW237305   2.872   0.393  15.393  0.8712 -1.1092 -0.8635
 8616SOL     OW37306   3.706   3.020   5.876 -0.4724 -0.2278  0.4141
 8616SOL    HW137307   3.800   3.010   5.863 -0.8533 -0.7535 -1.8688
 8616SOL    HW237308   3.709   3.076   5.954  1.4517 -1.6969  1.3882
 8617SOL     OW37309   3.714   3.632   2.435 -0.8065  0.1049  0.1177
 8617SOL    HW137310   3.695   3.725   2.423  0.1469  0.4452  1.2272
 8617SOL    HW237311   3.625   3.596   2.442 -1.0384  0.2163 -2.0875
 8618SOL     OW37312   4.239   3.394  10.896  0.0966 -0.0003  0.2691
 8618SOL    HW137313   4.260   3.315  10.947 -0.7933  0.5254  1.4610
 8618SOL    HW237314   4.278   3.468  10.943 -2.0605 -0.0970  2.2214
 8619SOL     OW37315   3.199   2.809   0.832 -0.1650  0.1303  0.0922
 8619SOL    HW137316   3.123   2.798   0.889  0.4840  0.0489  0.9428
 8619SOL    HW237317   3.210   2.904   0.824  1.6227 -0.1448 -0.7289
 8620SOL     OW37318   3.437   3.035   3.545  0.0260  0.2569 -0.1185
 8620SOL    HW137319   3.470   3.044   3.456 -0.3709  1.0707 -0.1823
 8620SOL    HW237320   3.393   3.119   3.562  1.3334  0.9253 -0.0585
 8621SOL     OW37321   4.445   2.451   8.579 -0.3912  0.1863  0.3157
 8621SOL    HW137322   4.396   2.393   8.522 -1.1141 -0.0440  1.1733
 8621SOL    HW237323   4.502   2.487   8.510 -1.0421 -1.4143 -1.0444
 8622SOL     OW37324   2.037   0.571  14.222 -0.2482 -0.1524 -0.5099
 8622SOL    HW137325   2.104   0.623  14.265 -0.1616 -2.5053  2.2137
 8622SOL    HW237326   2.084   0.564  14.139  0.1660  2.3710 -0.4855
 8623SOL     OW37327   1.272   2.139   7.745 -0.4454  0.1065  0.3351
 8623SOL    HW137328   1.278   2.116   7.838  1.6635 -0.2227  0.1032
 8623SOL    HW237329   1.280   2.053   7.704  0.1284  1.2522 -1.9312
 8624SOL     OW37330   4.105   4.533   4.874  0.1378  0.5249 -0.5727
 8624SOL    HW137331   4.141   4.519   4.786  1.0916  0.5736 -0.1980
 8624SOL    HW237332   4.089   4.627   4.876 -1.6509  0.2163 -1.0799
 8625SOL     OW37333   3.618   3.208   5.700 -0.4789 -0.0432  0.0325
 8625SOL    HW137334   3.570   3.268   5.756 -0.0828  0.0254  0.3028
 8625SOL    HW237335   3.660   3.153   5.766  1.3945  1.2292 -0.0808
 8626SOL     OW37336   3.226   3.981   1.014  0.4361 -0.5725  0.6390
 8626SOL    HW137337   3.161   4.050   1.030 -1.8471 -2.6874  0.4345
 8626SOL    HW237338   3.219   3.926   1.091 -0.3369  0.8031  1.5554
 8627SOL     OW37339   1.321   2.946   5.271 -0.8952 -0.2165  0.0294
 8627SOL    HW137340   1.241   2.907   5.236  0.1792 -0.6704 -1.8893
 8627SOL    HW237341   1.363   2.990   5.197  2.6605  0.2724  2.3448
 8628SOL     OW37342   3.003   3.140  13.339  0.6838 -0.1222  0.6534
 8628SOL    HW137343   2.919   3.155  13.297  0.8457  0.2695  0.4648
 8628SOL    HW237344   2.981   3.189  13.419  0.7245  0.3476  0.3744
 8629SOL     OW37345   3.195   4.171   6.285  0.2181  0.3910  0.9221
 8629SOL    HW137346   3.229   4.241   6.229  1.2807 -0.0042  1.0631
 8629SOL    HW237347   3.102   4.165   6.263  0.1536 -0.7295  1.5198
 8630SOL     OW37348   3.263   4.092  15.714  0.2018 -0.1704 -0.2187
 8630SOL    HW137349   3.301   4.062  15.631  0.0353 -2.6022  0.5886
 8630SOL    HW237350   3.295   4.029  15.779 -1.2849 -1.9579 -1.2398
 8631SOL     OW37351   0.226   2.227   9.347  0.4999  0.3538  0.1636
 8631SOL    HW137352   0.176   2.147   9.331  0.7745  0.2283 -0.0725
 8631SOL    HW237353   0.183   2.284   9.283  0.8025  0.0621 -0.2934
 8632SOL     OW37354   3.230   2.124   8.140  0.0544 -0.1960  0.2493
 8632SOL    HW137355   3.256   2.035   8.163 -0.8258 -1.0329 -2.0510
 8632SOL    HW237356   3.209   2.112   8.047 -3.2177  0.7590  0.8570
 8633SOL     OW37357   4.718   3.267   4.999 -0.6493  0.5020 -0.2368
 8633SOL    HW137358   0.005   3.268   4.904  0.1785  0.8324 -0.1521
 8633SOL    HW237359   4.642   3.210   5.009 -0.4376  0.3577  0.5423
 8634SOL     OW37360   0.600   2.139   6.617  0.3478 -0.7891  0.0151
 8634SOL    HW137361   0.603   2.232   6.640  0.7495 -0.3870 -1.6380
 8634SOL    HW237362   0.507   2.119   6.628  0.3958 -1.2516 -0.4388
 8635SOL     OW37363   4.102   4.592   1.581  0.2366  0.4228  0.4267
 8635SOL    HW137364   4.138   4.515   1.624  2.2678 -0.7106 -3.2734
 8635SOL    HW237365   4.091   4.655   1.652 -0.2015  2.0582 -1.0622
 8636SOL     OW37366   2.550   3.550  10.364 -0.4613 -0.5883 -0.0916
 8636SOL    HW137367   2.480   3.582  10.307  1.1077  1.1124 -1.0519
 8636SOL    HW237368   2.535   3.586  10.451 -1.7457  1.3258 -1.1085
 8637SOL     OW37369   3.915   3.545   4.058 -0.2938  0.2290  0.5034
 8637SOL    HW137370   3.834   3.588   4.087  1.2062  2.4471  1.4223
 8637SOL    HW237371   3.881   3.457   4.046 -1.2175  0.4581  1.3548
 8638SOL     OW37372   2.987   1.132  11.306 -0.3611 -0.4558 -0.1837
 8638SOL    HW137373   3.063   1.161  11.355 -0.3758  0.9863 -0.9982
 8638SOL    HW237374   3.020   1.122  11.217 -0.9749  0.0027 -0.4642
 8639SOL     OW37375   1.293   1.462   4.093 -0.1745 -0.4265 -0.1390
 8639SOL    HW137376   1.324   1.376   4.063 -3.0059 -1.6148  0.3761
 8639SOL    HW237377   1.319   1.521   4.022 -2.2818 -0.4660 -0.9421
 8640SOL     OW37378   3.849   1.504   7.972 -0.2789  0.2110 -0.1661
 8640SOL    HW137379   3.813   1.474   7.889  0.8750 -0.0723 -0.5576
 8640SOL    HW237380   3.802   1.458   8.041 -2.6116  0.9046 -1.3119
 8641SOL     OW37381   0.253   0.776   2.927  0.0655  0.0726  0.0096
 8641SOL    HW137382   0.337   0.730   2.929 -0.6313 -1.1339  1.0363
 8641SOL    HW237383   0.210   0.733   2.853  2.2103  1.7658 -2.2458
 8642SOL     OW37384   0.615   4.209  17.570 -0.2436 -0.1979  0.3673
 8642SOL    HW137385   0.681   4.234  17.506  1.0247 -0.0155  1.7403
 8642SOL    HW237386   0.543   4.268  17.550 -0.2852 -1.4669 -3.2475
 8643SOL     OW37387   1.645   3.103   3.403  0.6874 -0.0727 -0.2838
 8643SOL    HW137388   1.662   3.060   3.487  2.6218  0.6829 -0.2917
 8643SOL    HW237389   1.676   3.190   3.427  1.3552  0.3920 -2.9017
 8644SOL     OW37390   1.760   1.459   3.308  0.5659  0.2937 -0.1093
 8644SOL    HW137391   1.835   1.407   3.337 -1.1677 -2.1993 -0.0043
 8644SOL    HW237392   1.747   1.436   3.216  1.9284  0.7450 -0.4088
 8645SOL     OW37393   3.254   3.530   8.097 -0.3178  0.3530 -0.3149
 8645SOL    HW137394   3.219   3.530   8.187 -1.3736  0.6640 -0.7235
 8645SOL    HW237395   3.347   3.525   8.119 -0.2651 -0.4260 -0.7167
 8646SOL     OW37396   1.854   2.132  16.048 -0.8419  0.1495  0.3735
 8646SOL    HW137397   1.853   2.194  16.120 -0.9399 -2.1140  2.3332
 8646SOL    HW237398   1.783   2.069  16.064 -0.5482  0.5270  3.0610
 8647SOL     OW37399   1.609   2.945   3.132 -0.2464 -0.3244 -0.0793
 8647SOL    HW137400   1.611   2.849   3.126 -0.2787 -0.3545  0.3697
 8647SOL    HW237401   1.677   2.961   3.197  0.0139  0.6796 -0.6111
 8648SOL     OW37402   1.860   3.645   5.973  0.0900 -0.0734 -0.1620
 8648SOL    HW137403   1.893   3.642   5.883  0.8875  0.0273  0.1310
 8648SOL    HW237404   1.797   3.715   5.952  2.3638  2.0349  0.0530
 8649SOL     OW37405   1.757   1.706   4.929 -0.4299 -0.1929 -0.3012
 8649SOL    HW137406   1.733   1.614   4.914 -1.2804  0.0373 -0.3530
 8649SOL    HW237407   1.763   1.708   5.024  2.6106  0.1848 -0.4991
 8650SOL     OW37408   2.848   2.841   8.704  0.0033 -0.5290 -0.1802
 8650SOL    HW137409   2.849   2.770   8.640  1.0556 -0.5415 -0.1587
 8650SOL    HW237410   2.879   2.917   8.655 -1.1007 -0.3108 -0.5440
 8651SOL     OW37411   2.695   4.127   9.508  0.7564 -0.5087 -0.0082
 8651SOL    HW137412   2.766   4.188   9.526 -0.6375  0.5024  1.9856
 8651SOL    HW237413   2.742   4.058   9.461  0.9159 -1.1522  1.0957
 8652SOL     OW37414   1.486   3.525  10.531 -0.0242  0.3346 -0.6134
 8652SOL    HW137415   1.453   3.614  10.519 -1.4629 -0.0987  0.1429
 8652SOL    HW237416   1.449   3.495  10.615  1.5968 -2.1751 -0.8121
 8653SOL     OW37417   0.010   0.241  16.197 -0.2948  0.0394  0.1863
 8653SOL    HW137418   0.035   0.221  16.107 -1.3351 -2.2410  0.4226
 8653SOL    HW237419   0.092   0.250  16.245  0.2130  1.7330 -0.9761
 8654SOL     OW37420   3.785   2.663   3.218  0.2177 -0.1972 -0.0103
 8654SOL    HW137421   3.717   2.597   3.202 -0.8328  0.8259  0.2423
 8654SOL    HW237422   3.735   2.738   3.185  0.1015 -0.6428 -0.8567
 8655SOL     OW37423   3.991   3.345   8.608 -0.4255 -0.0769 -0.4759
 8655SOL    HW137424   4.079   3.383   8.616 -1.3172  2.0861 -0.8146
 8655SOL    HW237425   3.996   3.314   8.518 -0.1464 -1.7640  0.1144
 8656SOL     OW37426   3.119   4.308   8.341 -0.3368 -0.1976 -0.8033
 8656SOL    HW137427   3.180   4.344   8.276  0.5020  0.2370  0.2163
 8656SOL    HW237428   3.169   4.236   8.379 -2.1855 -0.3935  1.2190
 8657SOL     OW37429   1.540   1.718   5.513  0.0610  0.8227  0.2282
 8657SOL    HW137430   1.464   1.763   5.477 -0.6652 -1.2492 -0.8305
 8657SOL    HW237431   1.552   1.654   5.443  1.2081  0.6807  0.5438
 8658SOL     OW37432   1.956   4.624   4.551  0.6816 -0.0657 -0.0115
 8658SOL    HW137433   1.985   4.580   4.471  1.4698  0.0775  0.1984
 8658SOL    HW237434   1.915   4.555   4.603  0.2281 -0.0892 -0.4081
 8659SOL     OW37435   0.545   1.646  17.447 -0.0749  0.4804 -0.9958
 8659SOL    HW137436   0.473   1.686  17.400 -1.8588 -0.5571  0.8365
 8659SOL    HW237437   0.607   1.717  17.430  0.9008  0.1185  1.0321
 8660SOL     OW37438   0.431   4.091   1.266  0.1768  0.4389  0.2278
 8660SOL    HW137439   0.379   4.091   1.186 -1.7538 -1.4192  1.5064
 8660SOL    HW237440   0.430   4.184   1.291  2.0218  0.1566  1.3593
 8661SOL     OW37441   2.773   3.859   8.517  1.1506 -0.7592 -0.1117
 8661SOL    HW137442   2.853   3.823   8.479  1.4173  1.1792 -1.3592
 8661SOL    HW237443   2.708   3.788   8.516 -0.2712  0.5702 -1.7720
 8662SOL     OW37444   4.309   3.351   4.444 -0.5040  0.3826  0.6489
 8662SOL    HW137445   4.395   3.393   4.447 -0.9608  1.3663 -0.2873
 8662SOL    HW237446   4.321   3.277   4.384 -0.7241 -1.1579  2.4930
 8663SOL     OW37447   0.997   0.366  14.085 -0.3524 -0.4467 -0.5903
 8663SOL    HW137448   1.051   0.379  14.163 -1.5030  2.8327 -0.3365
 8663SOL    HW237449   1.021   0.439  14.027 -0.5191  0.0382 -0.0536
 8664SOL     OW37450   2.471   4.264   0.556  0.2784  0.2580  0.1057
 8664SOL    HW137451   2.538   4.200   0.579  0.3365  0.4324  0.4114
 8664SOL    HW237452   2.458   4.318   0.633 -0.6296  0.6750 -0.3492
 8665SOL     OW37453   0.287   1.534   2.750  0.8108 -0.3141 -0.0053
 8665SOL    HW137454   0.344   1.461   2.772  0.8584 -0.4953 -0.7457
 8665SOL    HW237455   0.289   1.528   2.655 -2.2390 -1.3982 -0.0174
 8666SOL     OW37456   3.893   4.326   3.064  0.5392 -0.3322 -0.5466
 8666SOL    HW137457   3.888   4.256   2.999 -1.3265 -0.6823 -0.0194
 8666SOL    HW237458   3.805   4.348   3.093 -0.4326 -1.6264 -2.5214
 8667SOL     OW37459   0.240   2.237   2.517  0.2337 -0.3825 -0.3179
 8667SOL    HW137460   0.216   2.313   2.570 -1.2315 -0.4787 -0.8382
 8667SOL    HW237461   0.209   2.163   2.569 -1.6417  1.9844  1.9089
 8668SOL     OW37462   3.906   2.549   2.785  0.2695  0.9798 -0.0920
 8668SOL    HW137463   3.970   2.561   2.855  1.0299 -0.9523 -0.4626
 8668SOL    HW237464   3.858   2.631   2.793 -2.3115 -0.5478 -0.1861
 8669SOL     OW37465   3.604   1.776   0.922 -0.6313 -0.4955  0.6553
 8669SOL    HW137466   3.635   1.782   0.831  0.1717 -1.8586  0.8345
 8669SOL    HW237467   3.625   1.685   0.940 -1.0156 -0.9332 -1.0290
 8670SOL     OW37468   0.468   4.212   3.093 -0.1735  0.4076  0.2045
 8670SOL    HW137469   0.523   4.249   3.163  0.7477  0.2835 -0.4586
 8670SOL    HW237470   0.529   4.209   3.020  0.2278 -3.0294  0.6590
 8671SOL     OW37471   3.034   1.812   4.008  0.0132 -0.6571 -0.2782
 8671SOL    HW137472   3.043   1.724   3.973 -0.3499 -1.0221  0.5653
 8671SOL    HW237473   2.972   1.852   3.947  0.7035  0.3367 -0.3445
 8672SOL     OW37474   2.455   0.254  15.454 -0.0275  0.2335 -0.2095
 8672SOL    HW137475   2.464   0.216  15.366  3.1514  0.5674 -0.0331
 8672SOL    HW237476   2.410   0.332  15.423  1.5262  0.8561 -0.9276
 8673SOL     OW37477   2.411   3.609  17.521  0.5073 -0.3606 -0.0561
 8673SOL    HW137478   2.474   3.679  17.508  0.4880 -0.2549  0.4094
 8673SOL    HW237479   2.330   3.648  17.554 -0.0695 -1.5831 -0.0301
 8674SOL     OW37480   0.317   2.805   9.516 -0.0114 -0.3239 -0.2250
 8674SOL    HW137481   0.339   2.793   9.423 -2.2146 -2.9835 -0.3728
 8674SOL    HW237482   0.222   2.807   9.510  0.0716  0.9747 -1.4210
 8675SOL     OW37483   2.646   1.513   7.704 -0.0954 -0.0983 -0.5242
 8675SOL    HW137484   2.574   1.505   7.641  1.2288 -2.2170 -1.7315
 8675SOL    HW237485   2.724   1.513   7.650  0.2130 -0.5357 -0.0837
 8676SOL     OW37486   4.070   2.437   0.950 -0.1960 -0.0352 -0.0778
 8676SOL    HW137487   4.057   2.490   0.871  0.9593 -1.8388 -1.5028
 8676SOL    HW237488   4.160   2.459   0.973  0.2513 -0.7629 -1.0639
 8677SOL     OW37489   0.817   3.556  11.149 -0.0213 -0.3325  0.4381
 8677SOL    HW137490   0.869   3.542  11.227  0.5892 -0.1891  0.0580
 8677SOL    HW237491   0.885   3.597  11.095 -2.4314  0.6168 -1.9074
 8678SOL     OW37492   1.551   0.949  11.895  0.0935 -0.1440  0.3675
 8678SOL    HW137493   1.597   0.923  11.815  2.7854 -0.2556  1.9403
 8678SOL    HW237494   1.463   0.966  11.860 -0.0591 -0.8956  0.3946
 8679SOL     OW37495   0.890   2.684   2.406  0.3153 -0.0249 -0.4874
 8679SOL    HW137496   0.932   2.752   2.459 -1.0272  0.4147  0.0231
 8679SOL    HW237497   0.798   2.704   2.425  0.4771 -1.0971  1.4146
 8680SOL     OW37498   0.526   3.194  15.837 -0.6196 -0.5715 -0.5045
 8680SOL    HW137499   0.512   3.164  15.926  0.5960  0.0207 -0.1151
 8680SOL    HW237500   0.443   3.177  15.792 -0.4268 -0.6998 -0.8061
 8681SOL     OW37501   0.088   3.511   1.200  0.1298 -0.4254 -0.1927
 8681SOL    HW137502   0.024   3.451   1.237 -0.7771  1.7406  1.7988
 8681SOL    HW237503   0.139   3.461   1.136 -2.0542 -3.6565  0.6304
 8682SOL     OW37504   2.290   1.646   6.705 -0.2900  0.3565  0.1096
 8682SOL    HW137505   2.384   1.651   6.723  0.0858 -2.5675 -1.0422
 8682SOL    HW237506   2.279   1.553   6.727 -0.6746  0.4919  0.4772
 8683SOL     OW37507   3.871   1.710   5.095 -0.2504  0.1308  0.3148
 8683SOL    HW137508   3.829   1.728   5.179 -3.0661 -0.7584 -0.8938
 8683SOL    HW237509   3.814   1.734   5.022 -0.7054 -0.4042  0.4927
 8684SOL     OW37510   2.935   0.848   2.488 -0.5503  0.1482 -0.2965
 8684SOL    HW137511   2.936   0.804   2.403  0.8882 -0.0658 -0.1671
 8684SOL    HW237512   3.018   0.821   2.526 -1.5186 -0.4286  1.4309
 8685SOL     OW37513   3.612   0.165   8.389 -0.8854 -0.2277 -0.5005
 8685SOL    HW137514   3.702   0.179   8.362 -0.8190 -0.5805 -0.4658
 8685SOL    HW237515   3.598   0.077   8.354  0.5849 -0.9679  0.8071
 8686SOL     OW37516   0.505   3.496   3.795 -0.2685  0.0301 -0.3558
 8686SOL    HW137517   0.546   3.510   3.881  1.5112 -0.4954 -1.1245
 8686SOL    HW237518   0.545   3.574   3.757  1.8122 -0.9784 -0.2490
 8687SOL     OW37519   3.185   1.359  15.963  0.3159 -0.7509 -0.4286
 8687SOL    HW137520   3.186   1.376  16.058 -1.0612  0.6232 -0.6646
 8687SOL    HW237521   3.257   1.295  15.960  0.6053 -0.5015  1.0534
 8688SOL     OW37522   3.552   0.189  10.456  0.0988 -0.2996 -0.0684
 8688SOL    HW137523   3.537   0.275  10.415  1.9437 -0.5868 -1.3050
 8688SOL    HW237524   3.489   0.131  10.412 -1.3178  1.4953 -0.4515
 8689SOL     OW37525   1.050   3.013  13.485 -0.1590 -0.6079 -0.6720
 8689SOL    HW137526   1.055   3.080  13.553 -0.6624  0.7795 -1.9916
 8689SOL    HW237527   1.072   3.075  13.415 -1.9388  1.2405  0.4240
 8690SOL     OW37528   2.305   0.337  13.571 -0.1521  0.5198  0.2243
 8690SOL    HW137529   2.390   0.378  13.553 -0.8612  1.7213 -0.3882
 8690SOL    HW237530   2.279   0.387  13.648 -0.6164 -0.6093  0.8015
 8691SOL     OW37531   0.568   0.760  10.404  0.5364  0.4170 -0.5723
 8691SOL    HW137532   0.575   0.743  10.310 -0.0615 -2.1504 -0.1510
 8691SOL    HW237533   0.478   0.728  10.406 -0.3873  2.9609 -1.2555
 8692SOL     OW37534   0.327   0.009   3.697  0.1729  0.1749 -0.5268
 8692SOL    HW137535   0.246   0.013   3.749  0.4899  0.1736 -0.0269
 8692SOL    HW237536   0.335   0.099   3.665 -1.4248  0.6824  0.4992
 8693SOL     OW37537   4.593   2.830   6.923  0.0193 -0.1739  0.6142
 8693SOL    HW137538   4.562   2.812   6.834  1.6598  0.8669 -0.1665
 8693SOL    HW237539   4.536   2.900   6.955  0.1673  0.1217  0.2362
 8694SOL     OW37540   0.273   4.708   5.455  0.0041 -0.1085 -0.1664
 8694SOL    HW137541   0.279   0.066   5.403  2.4137 -0.4075 -0.3334
 8694SOL    HW237542   0.211   4.658   5.402  0.4870 -1.6978  0.7933
 8695SOL     OW37543   3.909   0.256   8.643 -0.1641  0.3304 -0.0615
 8695SOL    HW137544   3.987   0.273   8.694 -1.3745 -0.5543  2.0890
 8695SOL    HW237545   3.871   0.192   8.704 -0.1301 -2.1117 -2.6160
 8696SOL     OW37546   2.471   0.860   8.676 -0.2375  0.3966  0.4384
 8696SOL    HW137547   2.463   0.796   8.746  3.1746 -0.0941  0.3431
 8696SOL    HW237548   2.500   0.795   8.613 -0.0003 -1.2746  2.3061
 8697SOL     OW37549   4.293   4.083  17.017  0.3581  0.5586 -0.1965
 8697SOL    HW137550   4.236   4.045  17.084  1.8295 -1.4435 -0.0782
 8697SOL    HW237551   4.279   4.015  16.952  1.4881  2.5129 -2.4820
 8698SOL     OW37552   4.643   2.692   5.623  0.8582 -0.1636  0.3052
 8698SOL    HW137553   4.583   2.629   5.583 -1.0319  1.5524  0.4436
 8698SOL    HW237554   4.704   2.704   5.551  2.4631 -1.6817  1.4097
 8699SOL     OW37555   2.660   3.455   9.061  0.5975 -0.4045 -0.2681
 8699SOL    HW137556   2.665   3.514   8.986  0.6587  0.9381  0.7908
 8699SOL    HW237557   2.616   3.379   9.025 -0.7641  0.6665 -0.8516
 8700SOL     OW37558   1.950   0.231  11.845 -0.1631  0.1506 -0.2909
 8700SOL    HW137559   1.881   0.165  11.838 -1.7938  1.9472 -1.0958
 8700SOL    HW237560   2.007   0.214  11.771 -0.4869 -0.9113 -0.2939
 8701SOL     OW37561   4.205   0.756  14.111 -0.4810 -0.4585  0.1235
 8701SOL    HW137562   4.127   0.807  14.090 -0.2742  0.3725  1.3553
 8701SOL    HW237563   4.242   0.748  14.023  3.7810  1.8394  1.6715
 8702SOL     OW37564   3.978   2.172   4.150 -0.6599  0.2096  0.5580
 8702SOL    HW137565   3.950   2.195   4.238  1.4549 -0.2695  1.3320
 8702SOL    HW237566   3.907   2.211   4.099 -0.8836  1.1762  1.6229
 8703SOL     OW37567   2.592   1.662   6.720 -0.3618  0.0098  0.2527
 8703SOL    HW137568   2.596   1.751   6.683  3.5305  0.2899  1.3095
 8703SOL    HW237569   2.666   1.662   6.781 -0.2343  2.7597  0.1338
 8704SOL     OW37570   2.690   3.379   7.687  0.1849  0.2720  0.1533
 8704SOL    HW137571   2.688   3.367   7.782 -0.0268  2.8009  0.4649
 8704SOL    HW237572   2.785   3.372   7.679  0.0196 -2.5338  0.6600
 8705SOL     OW37573   0.793   2.842   5.698 -0.0817 -0.1959 -0.0299
 8705SOL    HW137574   0.847   2.827   5.776 -1.1813  1.0463  0.9528
 8705SOL    HW237575   0.861   2.833   5.631 -1.3266 -1.2417 -1.1482
 8706SOL     OW37576   3.491   0.336   6.988 -0.1068 -0.0449  0.2901
 8706SOL    HW137577   3.478   0.431   6.982  2.4994  0.1149 -3.0949
 8706SOL    HW237578   3.400   0.309   7.004 -0.1502 -0.8029 -1.1669
 8707SOL     OW37579   0.068   2.238   6.690  0.5262 -0.2249  0.2600
 8707SOL    HW137580   0.090   2.306   6.626 -0.1453  0.8088  1.1201
 8707SOL    HW237581   0.106   2.158   6.654  1.0353 -0.5829  1.5762
 8708SOL     OW37582   1.656   3.163   3.721  0.1044  0.3419 -0.4051
 8708SOL    HW137583   1.567   3.199   3.725 -0.3301 -0.9416  1.7067
 8708SOL    HW237584   1.691   3.242   3.760  2.5009  0.3077 -2.4871
 8709SOL     OW37585   3.599   3.624   1.206 -0.0807  0.0308 -0.1187
 8709SOL    HW137586   3.642   3.691   1.261  0.5187  0.5640 -1.2357
 8709SOL    HW237587   3.607   3.659   1.118 -0.3747  1.2824  0.3489
 8710SOL     OW37588   4.388   4.147   4.642 -0.1643  0.0754 -0.1020
 8710SOL    HW137589   4.385   4.192   4.726 -0.1363 -1.4047  0.6957
 8710SOL    HW237590   4.390   4.225   4.587 -3.2089 -0.0725 -0.3958
 8711SOL     OW37591   2.667   0.800   5.059 -0.2487 -0.2515 -0.2601
 8711SOL    HW137592   2.604   0.758   5.000  1.9248 -1.0413 -1.9978
 8711SOL    HW237593   2.686   0.728   5.119  0.3737  0.0145 -0.1371
 8712SOL     OW37594   1.338   1.743   0.751  0.2862  0.1778 -0.0992
 8712SOL    HW137595   1.332   1.802   0.676  2.4576  2.8740  1.8365
 8712SOL    HW237596   1.256   1.770   0.792  0.0760 -0.8429  0.1477
 8713SOL     OW37597   2.990   3.025   2.702 -0.0636  0.6074  0.2711
 8713SOL    HW137598   3.000   3.119   2.683  0.7989  0.9789  2.5837
 8713SOL    HW237599   3.078   3.009   2.737 -0.6553  1.6617  2.2214
 8714SOL     OW37600   0.177   3.439  16.870 -0.5842  0.5201  0.3385
 8714SOL    HW137601   0.118   3.435  16.945 -1.4859 -1.9774 -0.4658
 8714SOL    HW237602   0.196   3.532  16.860  0.6086  0.5362  2.9989
 8715SOL     OW37603   4.397   2.870   6.261 -0.1702  0.1927 -0.4938
 8715SOL    HW137604   4.418   2.851   6.352 -0.3018  3.2782  0.1837
 8715SOL    HW237605   4.438   2.956   6.266 -2.0032  1.1167 -1.2485
 8716SOL     OW37606   2.585   0.559  14.547 -0.3689 -0.4513  0.2398
 8716SOL    HW137607   2.506   0.565  14.600 -0.1016  1.0048  0.4703
 8716SOL    HW237608   2.606   0.648  14.518  3.0784 -0.8877  1.3630
 8717SOL     OW37609   4.207   3.452  12.777 -0.3585 -0.7046  0.6340
 8717SOL    HW137610   4.117   3.475  12.755  0.0538  0.2925 -0.0003
 8717SOL    HW237611   4.203   3.357  12.772  2.1535 -0.7645 -0.3442
 8718SOL     OW37612   3.362   0.147   4.245 -0.4991  0.0734 -0.3713
 8718SOL    HW137613   3.366   0.218   4.309  0.3121 -0.5025  0.2189
 8718SOL    HW237614   3.365   0.199   4.165  2.5211 -0.1219 -0.3772
 8719SOL     OW37615   2.241   2.246   5.338 -0.2018  0.3611  0.5185
 8719SOL    HW137616   2.184   2.308   5.292 -0.0849  0.7852  0.9404
 8719SOL    HW237617   2.250   2.292   5.421  0.9928  0.5274  0.2910
 8720SOL     OW37618   3.931   2.407   0.623  0.6515  0.0143  0.1160
 8720SOL    HW137619   3.994   2.477   0.641  0.9006 -0.2728  0.3699
 8720SOL    HW237620   3.871   2.433   0.694 -2.5979 -1.9439 -1.9023
 8721SOL     OW37621   4.085   2.813   0.895  0.5731 -0.0967  0.2508
 8721SOL    HW137622   4.171   2.852   0.883 -0.2262  0.8192 -2.5159
 8721SOL    HW237623   4.040   2.884   0.942  1.8063  2.1470 -1.9598
 8722SOL     OW37624   0.336   1.778   4.931  0.1086 -0.3012  0.1970
 8722SOL    HW137625   0.282   1.703   4.956 -0.4450 -0.1280 -0.4738
 8722SOL    HW237626   0.379   1.807   5.011  0.6504 -1.0567  0.1846
 8723SOL     OW37627   2.285   2.717   8.128  0.2204 -0.1602  0.1954
 8723SOL    HW137628   2.365   2.766   8.149 -0.4217  1.7505 -1.8363
 8723SOL    HW237629   2.227   2.785   8.095  0.2769 -0.2657 -0.1132
 8724SOL     OW37630   0.127   3.647   4.261 -0.2093 -0.3756 -0.2884
 8724SOL    HW137631   0.052   3.635   4.202 -0.2554  0.1050 -0.3212
 8724SOL    HW237632   0.200   3.645   4.198  0.9039 -0.2095  1.0055
 8725SOL     OW37633   3.499   2.486   8.857  0.0387  0.0688  0.4253
 8725SOL    HW137634   3.458   2.494   8.771 -1.0107 -0.2106  0.9029
 8725SOL    HW237635   3.521   2.393   8.848 -1.7139 -0.4204  1.2694
 8726SOL     OW37636   2.716   1.598   3.505 -0.6638 -0.1299 -0.0136
 8726SOL    HW137637   2.623   1.575   3.511 -1.2471  1.8479 -1.7126
 8726SOL    HW237638   2.688   1.671   3.449 -0.6943 -1.6092 -1.9327
 8727SOL     OW37639   1.934   4.023   5.048 -0.2227  0.0831  0.2005
 8727SOL    HW137640   1.984   4.065   4.978 -1.3780 -1.0734 -1.3149
 8727SOL    HW237641   1.863   3.982   4.999 -2.6140  1.3441  2.6625
 8728SOL     OW37642   3.295   1.351  13.581  0.2392  0.4710 -0.2398
 8728SOL    HW137643   3.308   1.355  13.675 -0.0278  1.2086 -0.2287
 8728SOL    HW237644   3.231   1.419  13.559 -0.8905  0.8299  4.1468
 8729SOL     OW37645   2.836   0.908   6.301 -0.1636 -0.2199 -0.1287
 8729SOL    HW137646   2.806   0.938   6.387 -0.0821 -0.5287  0.0054
 8729SOL    HW237647   2.930   0.926   6.310 -0.0691 -0.6528 -0.2397
 8730SOL     OW37648   2.822   3.460   4.503 -0.3802  0.4754 -0.1349
 8730SOL    HW137649   2.811   3.508   4.585  1.5854 -1.9375  1.5413
 8730SOL    HW237650   2.908   3.485   4.470  0.5591 -1.1390  1.0781
 8731SOL     OW37651   3.797   2.842  10.418 -0.7296  0.0597 -0.1717
 8731SOL    HW137652   3.721   2.880  10.373  0.0369 -0.1149 -1.6092
 8731SOL    HW237653   3.763   2.754  10.432  2.4837 -0.9096  1.5555
 8732SOL     OW37654   1.049   0.649   7.699 -0.4412  0.5476 -0.0987
 8732SOL    HW137655   0.996   0.723   7.730 -0.2614  1.2616 -1.5334
 8732SOL    HW237656   1.121   0.698   7.661 -0.7099  0.4070 -0.8012
 8733SOL     OW37657   0.337   4.722  15.159  0.0387  0.1521 -0.0404
 8733SOL    HW137658   0.279   4.696  15.088  0.8501 -0.5600 -0.4383
 8733SOL    HW237659   0.362   4.637  15.195  1.3846 -0.3430 -2.1444
 8734SOL     OW37660   4.569   1.773  10.306  0.1471  0.5477 -0.0765
 8734SOL    HW137661   4.507   1.798  10.239 -1.4596 -1.4988  0.6545
 8734SOL    HW237662   4.646   1.751  10.254  0.2962 -0.7658  0.6697
 8735SOL     OW37663   1.228   2.567  14.951  0.8107  0.1670 -0.2058
 8735SOL    HW137664   1.256   2.658  14.943  0.9295 -0.1036 -2.6625
 8735SOL    HW237665   1.254   2.526  14.869 -1.6351 -1.9889  0.1036
 8736SOL     OW37666   3.336   4.022   9.180 -0.4818 -0.0668  0.0926
 8736SOL    HW137667   3.298   3.950   9.229 -1.0380 -0.2768 -0.6484
 8736SOL    HW237668   3.332   3.996   9.088  1.3396  0.2329 -0.0604
 8737SOL     OW37669   2.894   1.314   3.304 -0.3380  0.3705 -0.1842
 8737SOL    HW137670   2.809   1.316   3.259 -2.1638 -0.3764  3.1844
 8737SOL    HW237671   2.861   1.319   3.394  0.9168  0.7388  0.2475
 8738SOL     OW37672   1.703   3.400   3.846  0.8928 -0.1215 -0.2497
 8738SOL    HW137673   1.778   3.364   3.894 -0.5304 -1.5887  0.8714
 8738SOL    HW237674   1.637   3.414   3.914 -0.0079  0.3544 -1.2276
 8739SOL     OW37675   2.932   0.078   7.683  0.0209 -0.0998 -0.4976
 8739SOL    HW137676   2.902   0.097   7.594 -1.7887 -2.1866 -0.3177
 8739SOL    HW237677   2.868   0.129   7.733  2.7613  1.8632  1.0634
 8740SOL     OW37678   2.198   0.686   9.843  0.3038 -0.1694 -0.3418
 8740SOL    HW137679   2.127   0.733   9.799 -0.3374 -0.2891  0.5714
 8740SOL    HW237680   2.155   0.643   9.917 -0.9331  2.1844  0.3138
 8741SOL     OW37681   4.109   1.749  15.746  0.2538  0.4277 -0.2049
 8741SOL    HW137682   4.154   1.832  15.730  1.8381 -0.1249  1.2707
 8741SOL    HW237683   4.019   1.769  15.722 -0.2443 -0.8173  0.6019
 8742SOL     OW37684   0.288   2.548   4.697  0.4436 -0.0443  0.3531
 8742SOL    HW137685   0.234   2.618   4.731  0.5736 -1.1298  2.8429
 8742SOL    HW237686   0.291   2.560   4.602  0.3541  1.8020  0.5850
 8743SOL     OW37687   3.708   1.409   4.877  0.2653  0.1159  0.1878
 8743SOL    HW137688   3.669   1.351   4.811  0.6257  0.4122 -0.2818
 8743SOL    HW237689   3.745   1.476   4.821 -2.1902  1.4692  0.1753
 8744SOL     OW37690   3.389   4.083   6.489  0.3167  0.5973 -0.1278
 8744SOL    HW137691   3.338   4.039   6.557  1.6908 -1.7236 -0.5776
 8744SOL    HW237692   3.327   4.127   6.430 -1.7467 -1.6503  0.3671
 8745SOL     OW37693   1.332   2.590   1.103  0.6518  0.0019 -0.5624
 8745SOL    HW137694   1.389   2.580   1.180  0.3452 -2.3830 -0.6437
 8745SOL    HW237695   1.376   2.662   1.059  3.7619 -1.9178 -0.6125
 8746SOL     OW37696   3.580   4.126   3.741  0.5375 -0.2290 -0.4701
 8746SOL    HW137697   3.528   4.054   3.778 -0.1294  0.7722  0.5282
 8746SOL    HW237698   3.640   4.091   3.675 -0.5249 -1.0685 -1.0035
 8747SOL     OW37699   0.482   0.375  17.690 -0.4318  0.1374 -0.1384
 8747SOL    HW137700   0.393   0.381   0.034 -0.6859  0.8439 -0.8775
 8747SOL    HW237701   0.517   0.464  17.690  0.5153 -0.2186  2.9238
 8748SOL     OW37702   4.079   4.245   7.297  0.7179 -0.4931 -0.1623
 8748SOL    HW137703   3.993   4.208   7.313  0.9593 -1.1012 -0.2644
 8748SOL    HW237704   4.101   4.275   7.385 -3.3085  1.0858  0.2908
 8749SOL     OW37705   3.014   1.306   4.339 -0.3132  0.1122  0.2709
 8749SOL    HW137706   2.973   1.391   4.321  0.5950  0.5394  0.2466
 8749SOL    HW237707   2.944   1.245   4.314  0.9654 -0.6413 -1.4244
 8750SOL     OW37708   1.715   1.674   5.713  0.6716 -0.3390  0.1199
 8750SOL    HW137709   1.771   1.747   5.740 -1.8006  1.5246  0.2068
 8750SOL    HW237710   1.649   1.708   5.653 -1.5807 -0.5190  2.4563
 8751SOL     OW37711   3.295   4.385   6.137 -0.4952 -0.1417 -0.1009
 8751SOL    HW137712   3.263   4.380   6.047  1.3232 -0.9875 -0.6992
 8751SOL    HW237713   3.330   4.474   6.141 -2.4006  0.6238 -0.4439
 8752SOL     OW37714   1.211   2.894   0.485 -0.0423 -0.4562  0.7172
 8752SOL    HW137715   1.279   2.931   0.429 -0.0252 -2.4926 -0.5990
 8752SOL    HW237716   1.247   2.809   0.511  0.3866 -0.2735  0.7269
 8753SOL     OW37717   0.755   1.666   7.983  0.1690 -0.0092  0.0638
 8753SOL    HW137718   0.832   1.705   7.942 -0.4841  2.5563  1.3049
 8753SOL    HW237719   0.698   1.742   7.974  0.0907 -0.1430 -0.5550
 8754SOL     OW37720   0.755   4.087   4.422 -0.4841  0.2415  0.4881
 8754SOL    HW137721   0.732   4.063   4.332 -2.8868 -0.3505  1.2754
 8754SOL    HW237722   0.810   4.165   4.410 -1.7931  0.6237 -3.2277
 8755SOL     OW37723   4.289   0.888   7.438 -0.3884 -0.2761 -0.1686
 8755SOL    HW137724   4.378   0.922   7.434  0.3459 -2.0928  0.7874
 8755SOL    HW237725   4.272   0.835   7.361  2.3079 -0.4424 -0.6394
 8756SOL     OW37726   1.632   4.366   7.454  0.0504 -0.6099  0.2090
 8756SOL    HW137727   1.567   4.315   7.503  1.3902 -0.3786  2.2189
 8756SOL    HW237728   1.656   4.295   7.394 -1.0223 -0.9076  0.1331
 8757SOL     OW37729   4.081   2.311   5.551 -0.3150 -0.0188  0.1658
 8757SOL    HW137730   4.163   2.283   5.589  0.9631  1.6113 -1.3535
 8757SOL    HW237731   4.063   2.240   5.490 -0.1233  0.4853 -0.4829
 8758SOL     OW37732   2.338   2.290   2.450  0.7517 -0.2055  0.0360
 8758SOL    HW137733   2.283   2.237   2.507 -0.3007  1.4256  0.5266
 8758SOL    HW237734   2.284   2.368   2.454  0.2163 -0.4530 -2.1672
 8759SOL     OW37735   2.009   0.674   4.773  0.0810 -0.6122 -0.5966
 8759SOL    HW137736   2.011   0.642   4.863  1.0399  2.0943  0.3415
 8759SOL    HW237737   2.045   0.595   4.734 -0.4867 -0.9410 -0.4605
 8760SOL     OW37738   2.845   1.684   6.024  0.4383 -0.9412  0.0956
 8760SOL    HW137739   2.756   1.678   5.988 -0.2998  1.5184  1.5216
 8760SOL    HW237740   2.810   1.731   6.099 -1.0668 -0.6393 -0.7931
 8761SOL     OW37741   3.850   1.313  17.175 -0.5638 -0.8551  0.1322
 8761SOL    HW137742   3.913   1.351  17.238  0.6743  0.9196 -2.1907
 8761SOL    HW237743   3.806   1.249  17.231  0.1143 -1.8998 -0.5199
 8762SOL     OW37744   4.437   2.600   5.016  0.2460  0.0247  0.6842
 8762SOL    HW137745   4.406   2.663   4.952  1.4562 -0.8424 -0.7588
 8762SOL    HW237746   4.479   2.527   4.970 -0.1642  0.6965 -0.7515
 8763SOL     OW37747   4.461   3.195   2.372  0.2644  0.2755  0.7263
 8763SOL    HW137748   4.551   3.217   2.395  0.6737  0.1727 -0.7503
 8763SOL    HW237749   4.416   3.280   2.376 -0.0840  0.0554  1.3055
 8764SOL     OW37750   3.265   4.541   6.605  0.4656  0.0362 -0.1821
 8764SOL    HW137751   3.281   4.608   6.538  3.4800  0.3159  0.8209
 8764SOL    HW237752   3.253   4.597   6.681  1.7591  1.2710 -0.8881
 8765SOL     OW37753   1.047   3.613   7.601  0.0665  0.0151  0.2452
 8765SOL    HW137754   1.047   3.709   7.591  0.7759  0.1161  1.2972
 8765SOL    HW237755   0.991   3.576   7.533 -3.8668  1.4084  2.6936
 8766SOL     OW37756   0.667   0.604   4.281  0.1339  0.1161 -0.3317
 8766SOL    HW137757   0.661   0.509   4.285 -0.5446  0.3326  3.6492
 8766SOL    HW237758   0.631   0.630   4.366  1.8542  0.3105  0.3475
 8767SOL     OW37759   1.604   1.846   0.320 -0.1365 -0.1961  0.4475
 8767SOL    HW137760   1.666   1.838   0.247  0.1502 -0.5752  0.7319
 8767SOL    HW237761   1.657   1.879   0.393  0.4960  2.2765 -1.1200
 8768SOL     OW37762   2.460   3.748  16.783  0.5949  0.2317 -0.6611
 8768SOL    HW137763   2.531   3.757  16.847 -2.1791  0.7395  2.3355
 8768SOL    HW237764   2.406   3.683  16.828  0.4574  1.6403  1.2265
 8769SOL     OW37765   1.790   0.277   6.795  0.0339 -0.1851 -0.1627
 8769SOL    HW137766   1.882   0.277   6.767  0.1976  2.8087  0.3963
 8769SOL    HW237767   1.783   0.364   6.835 -1.7459  0.1013 -1.1064
 8770SOL     OW37768   0.887   1.965   8.116  0.4929  0.2485  0.3749
 8770SOL    HW137769   0.877   2.017   8.196 -1.0943  1.4065 -0.5603
 8770SOL    HW237770   0.833   2.019   8.058 -0.2939 -0.6146  0.2997
 8771SOL     OW37771   1.894   0.990  11.870  0.0564 -0.0973 -0.1102
 8771SOL    HW137772   1.969   1.050  11.866  0.1504 -0.0453  2.5292
 8771SOL    HW237773   1.846   1.007  11.788  3.3665  0.6793 -1.8916
 8772SOL     OW37774   1.187   3.792   6.050  0.4723  0.0105  0.0291
 8772SOL    HW137775   1.263   3.739   6.028 -0.5307 -0.7246 -1.6247
 8772SOL    HW237776   1.199   3.877   6.007 -2.2141  0.5570  0.3327
 8773SOL     OW37777   1.747   1.906   5.553  0.6116  0.5246  0.3446
 8773SOL    HW137778   1.709   1.950   5.629 -1.7805 -2.8106  1.0781
 8773SOL    HW237779   1.683   1.835   5.539 -2.2998  2.9826  1.2830
 8774SOL     OW37780   4.689   4.289   5.609 -0.5108 -0.0536  0.2487
 8774SOL    HW137781   4.711   4.359   5.548 -0.6163 -0.1307  0.1239
 8774SOL    HW237782   4.615   4.331   5.653 -0.9114  0.7457 -1.2038
 8775SOL     OW37783   2.430   0.937   5.111 -0.5773 -0.0368 -0.2204
 8775SOL    HW137784   2.512   0.897   5.080 -0.1664  0.6722 -0.0579
 8775SOL    HW237785   2.401   0.977   5.030  0.8227 -0.4283 -0.9207
 8776SOL     OW37786   0.942   3.208   6.884  0.1487 -0.3277 -0.1545
 8776SOL    HW137787   0.997   3.257   6.824 -1.0996  0.2026 -0.8693
 8776SOL    HW237788   0.992   3.127   6.870 -0.6925 -0.5626 -1.7851
 8777SOL     OW37789   4.610   0.881  16.014 -0.1749  0.2843  0.1257
 8777SOL    HW137790   4.570   0.799  15.982  2.0920 -1.0157  0.6727
 8777SOL    HW237791   4.585   0.869  16.106 -0.4277 -1.5912 -0.1813
 8778SOL     OW37792   3.814   1.293  17.613 -0.2906 -0.0599  0.1621
 8778SOL    HW137793   3.898   1.260  17.646  0.4641 -1.0880 -2.7654
 8778SOL    HW237794   3.784   1.313   0.009  1.8337  0.0372  0.8464
 8779SOL     OW37795   2.613   0.503   7.524  0.2613 -0.0252  0.2467
 8779SOL    HW137796   2.659   0.473   7.602 -1.3675 -0.6512  0.9675
 8779SOL    HW237797   2.651   0.446   7.458  1.2382  0.2241  0.5875
 8780SOL     OW37798   2.018   4.651   6.390 -0.2182 -0.9488 -0.5105
 8780SOL    HW137799   1.974   4.637   6.306 -0.8239 -1.0324 -0.1808
 8780SOL    HW237800   2.086   4.583   6.393  0.8846  0.1862  0.0970
 8781SOL     OW37801   2.661   0.415   8.734 -0.5220  0.1945  0.6608
 8781SOL    HW137802   2.596   0.358   8.694  0.2218 -1.9741  2.5722
 8781SOL    HW237803   2.696   0.462   8.657  1.4169  0.1296  1.4906
 8782SOL     OW37804   1.558   0.039   5.632 -0.7445  0.2526 -0.4014
 8782SOL    HW137805   1.467   0.041   5.603 -1.1475  2.7257  1.0097
 8782SOL    HW237806   1.577   0.131   5.655  0.5588 -0.0630 -0.1835
 8783SOL     OW37807   4.390   3.734   6.048  0.5134 -0.0063 -0.4676
 8783SOL    HW137808   4.314   3.764   6.097 -0.9510 -1.3547 -1.9184
 8783SOL    HW237809   4.361   3.728   5.957 -3.6593 -0.0075  0.8568
 8784SOL     OW37810   0.797   3.303  10.036 -0.1142 -0.2531 -0.2137
 8784SOL    HW137811   0.779   3.213  10.010 -1.8524 -0.5861  2.1265
 8784SOL    HW237812   0.834   3.302  10.125 -0.1129  0.2349 -0.2064
 8785SOL     OW37813   3.004   4.197  15.192  0.4654  0.0786  0.6147
 8785SOL    HW137814   3.074   4.134  15.177  0.3994 -0.1244  1.1435
 8785SOL    HW237815   2.978   4.229  15.106 -1.7128 -3.2966  0.0078
 8786SOL     OW37816   0.372   2.456   0.971 -0.0533  0.3820  0.2236
 8786SOL    HW137817   0.452   2.407   0.991 -0.2949 -0.1366 -0.0968
 8786SOL    HW237818   0.390   2.521   1.040 -1.3049 -0.8072  1.6441
 8787SOL     OW37819   2.790   0.534   3.023  0.4220 -0.6247  0.4298
 8787SOL    HW137820   2.759   0.450   2.991  3.3193 -2.1099  1.5050
 8787SOL    HW237821   2.764   0.591   2.951  0.0279  1.0935  1.9272
 8788SOL     OW37822   3.864   4.649   2.657  0.2662  0.1937  0.1756
 8788SOL    HW137823   3.878   4.566   2.704 -2.0276 -0.3188 -0.0565
 8788SOL    HW237824   3.796   4.689   2.712 -0.2562 -1.7267  0.9278
 8789SOL     OW37825   0.329   0.679  10.529 -0.3049 -0.0246  0.1753
 8789SOL    HW137826   0.235   0.697  10.538 -0.4349  0.4249 -1.9965
 8789SOL    HW237827   0.360   0.691  10.618 -0.3380  3.1105 -0.2196
 8790SOL     OW37828   3.726   2.753   6.938 -0.1706 -0.3400 -0.0729
 8790SOL    HW137829   3.795   2.699   6.976  1.3054  0.2945 -1.8136
 8790SOL    HW237830   3.770   2.788   6.860  0.2895 -0.0101  0.3303
 8791SOL     OW37831   1.578   3.889   3.410  0.5252  0.2195  0.4364
 8791SOL    HW137832   1.642   3.858   3.475 -0.1624  1.7640  1.8312
 8791SOL    HW237833   1.590   3.825   3.339 -0.0176 -0.3257  0.8391
 8792SOL     OW37834   4.531   1.491   6.468  0.0967 -0.3013 -0.0888
 8792SOL    HW137835   4.534   1.410   6.519  1.3072 -0.5722 -0.5806
 8792SOL    HW237836   4.622   1.503   6.439  0.1169 -3.4226 -1.3083
 8793SOL     OW37837   1.250   2.259   4.511  0.3400  0.0620  0.9221
 8793SOL    HW137838   1.231   2.329   4.573 -1.5320  1.6466 -1.4478
 8793SOL    HW237839   1.172   2.281   4.461  0.8153 -1.6653 -0.6020
 8794SOL     OW37840   1.372   3.239   8.495 -0.8703 -0.4340  0.2152
 8794SOL    HW137841   1.312   3.164   8.498 -0.2167 -0.9496  0.2505
 8794SOL    HW237842   1.360   3.267   8.586 -0.9302  0.2591 -0.0077
 8795SOL     OW37843   3.606   3.234   2.779  0.2305  0.0389  0.2802
 8795SOL    HW137844   3.573   3.323   2.779 -2.3484 -0.9300 -0.2555
 8795SOL    HW237845   3.647   3.228   2.693 -0.4040  0.4102 -0.0421
 8796SOL     OW37846   0.480   0.555   9.913  0.3559 -0.8952 -0.0700
 8796SOL    HW137847   0.572   0.550   9.888  0.1875 -0.5079 -0.7733
 8796SOL    HW237848   0.465   0.484   9.975  1.7899 -1.5687 -0.5037
 8797SOL     OW37849   2.125   0.932  17.620  0.1763  0.2737 -0.6763
 8797SOL    HW137850   2.095   1.022  17.629 -1.1100 -0.2246 -0.0665
 8797SOL    HW237851   2.109   0.902   0.017  0.2900 -0.4898 -0.9038
 8798SOL     OW37852   0.210   1.043   1.998 -0.4633  0.3121 -0.3231
 8798SOL    HW137853   0.146   1.113   1.997 -0.7524  0.0500  0.0021
 8798SOL    HW237854   0.293   1.088   2.013 -0.8622  0.7187  0.6208
 8799SOL     OW37855   3.384   2.635   2.336 -0.5689 -0.4643  0.0156
 8799SOL    HW137856   3.291   2.658   2.335 -0.7282 -1.1428 -0.7021
 8799SOL    HW237857   3.386   2.539   2.335 -2.2357 -0.5086  1.5122
 8800SOL     OW37858   1.410   3.728   5.816 -0.2283  0.1863  0.4352
 8800SOL    HW137859   1.485   3.772   5.857 -0.5587 -0.0078  1.2343
 8800SOL    HW237860   1.407   3.786   5.740 -1.5406 -0.6265 -0.1280
 8801SOL     OW37861   4.379   1.753  17.354 -0.3638  0.0210  0.0292
 8801SOL    HW137862   4.305   1.726  17.300  2.5365 -0.1454 -3.8522
 8801SOL    HW237863   4.390   1.846  17.336  3.4499  0.0147  2.2691
 8802SOL     OW37864   0.916   3.759   5.328  0.2055  0.5789  0.3415
 8802SOL    HW137865   0.918   3.791   5.418  0.2456 -0.4647  0.7022
 8802SOL    HW237866   0.836   3.807   5.304 -0.6462 -1.3595 -0.7026
 8803SOL     OW37867   1.181   4.083  12.169  0.0631 -0.1846  0.1561
 8803SOL    HW137868   1.110   4.019  12.171  0.6512 -0.7795  1.7219
 8803SOL    HW237869   1.250   4.023  12.139 -1.6696 -1.6277 -0.9799
 8804SOL     OW37870   0.441   0.923   6.921  0.5484 -0.3342  0.0495
 8804SOL    HW137871   0.430   0.828   6.926  0.0976 -0.3591 -1.5714
 8804SOL    HW237872   0.432   0.939   6.827 -1.7139  0.0562  0.3386
 8805SOL     OW37873   0.450   1.529   1.001 -0.5230  0.3620 -0.1220
 8805SOL    HW137874   0.372   1.585   1.004 -0.4266  0.4426  0.7281
 8805SOL    HW237875   0.420   1.468   0.933  0.8656 -0.8952  0.4005
 8806SOL     OW37876   2.674   4.544   0.596 -0.3069  0.6460  0.2596
 8806SOL    HW137877   2.715   4.594   0.667 -1.0467  1.5657  0.0482
 8806SOL    HW237878   2.612   4.490   0.646 -2.6118  2.7677 -0.2993
 8807SOL     OW37879   4.250   0.094   6.865 -0.2547 -0.0862  0.4495
 8807SOL    HW137880   4.198   0.058   6.936 -1.3078 -0.9005 -0.7357
 8807SOL    HW237881   4.267   0.182   6.899 -0.6316  0.3363 -0.4575
 8808SOL     OW37882   3.215   1.591   0.966 -0.1380  0.0767 -0.1121
 8808SOL    HW137883   3.240   1.663   0.907  0.7601  0.0135  0.1952
 8808SOL    HW237884   3.254   1.517   0.920 -0.5419 -0.5450  0.5515
 8809SOL     OW37885   3.239   4.480   3.824 -0.0652 -0.7115 -0.3215
 8809SOL    HW137886   3.307   4.414   3.812  0.1833 -0.2445 -1.5212
 8809SOL    HW237887   3.285   4.543   3.879 -1.4531 -1.0223  1.2020
 8810SOL     OW37888   1.609   4.594   8.364  0.0378 -0.3991  0.0312
 8810SOL    HW137889   1.671   4.663   8.340  1.2643 -1.9216 -1.2271
 8810SOL    HW237890   1.600   4.613   8.457  0.2815 -1.2187  0.2203
 8811SOL     OW37891   3.268   4.061   8.389  0.8164  0.0033  0.4684
 8811SOL    HW137892   3.315   3.996   8.441  1.3607  1.8177  2.2326
 8811SOL    HW237893   3.306   4.033   8.306  0.7565  1.9118 -0.1923
 8812SOL     OW37894   1.020   1.619  11.622 -0.6989  0.7037  0.2369
 8812SOL    HW137895   0.951   1.684  11.635 -2.3897 -0.9908 -0.2265
 8812SOL    HW237896   1.018   1.599  11.528 -0.9596  1.4915  0.0739
 8813SOL     OW37897   2.332   2.564   3.190  0.1506 -0.1729 -0.1050
 8813SOL    HW137898   2.374   2.617   3.123  1.2058  0.1605  0.8303
 8813SOL    HW237899   2.378   2.480   3.186  1.2954  0.5056 -0.9715
 8814SOL     OW37900   4.339   3.650   5.716 -0.0678  0.1710  0.3170
 8814SOL    HW137901   4.274   3.639   5.647  0.0502 -0.5093  0.3119
 8814SOL    HW237902   4.351   3.564   5.756  1.7797  0.0567 -0.4790
 8815SOL     OW37903   0.509   4.063   5.517  0.2894  0.4443  0.1942
 8815SOL    HW137904   0.421   4.101   5.519  0.4886  0.9242 -0.2922
 8815SOL    HW237905   0.562   4.120   5.573  1.0507 -0.9049  0.8495
 8816SOL     OW37906   0.125   1.035  12.615 -0.1192  0.5360 -0.3425
 8816SOL    HW137907   0.167   0.950  12.624 -4.2666 -1.6289 -1.5829
 8816SOL    HW237908   0.055   1.032  12.680 -0.7021  0.8159 -0.9637
 8817SOL     OW37909   2.568   4.614   7.241 -0.0673  0.2293  0.1549
 8817SOL    HW137910   2.615   4.565   7.309  0.8809 -3.0142 -2.7952
 8817SOL    HW237911   2.635   4.676   7.213 -0.4372  0.1565 -0.8681
 8818SOL     OW37912   0.945   0.147  15.721  0.8053 -0.2661 -0.0345
 8818SOL    HW137913   0.927   0.217  15.659  0.9928 -1.7729 -1.7957
 8818SOL    HW237914   0.978   0.196  15.797  0.3722 -0.5635  0.3432
 8819SOL     OW37915   3.201   1.381   2.685  0.6153  0.1029  0.6456
 8819SOL    HW137916   3.144   1.305   2.695  1.2096 -0.2038  1.7296
 8819SOL    HW237917   3.163   1.428   2.611  0.6732 -0.4227  0.2819
 8820SOL     OW37918   0.711   4.535   6.096  0.2082  0.0509 -0.1569
 8820SOL    HW137919   0.685   4.542   6.188  1.0079  1.9847 -0.0629
 8820SOL    HW237920   0.633   4.573   6.055  0.0158  0.6364  0.7430
 8821SOL     OW37921   3.832   1.524   2.842 -0.8327  0.0881  0.1786
 8821SOL    HW137922   3.772   1.465   2.795  1.5020 -1.3602 -0.9945
 8821SOL    HW237923   3.916   1.517   2.797 -0.2575 -0.3138  1.3132
 8822SOL     OW37924   3.019   3.554  14.148  0.0025  0.1838  0.1964
 8822SOL    HW137925   3.039   3.598  14.231 -0.5773 -0.5778  0.7378
 8822SOL    HW237926   2.923   3.555  14.152 -0.0592 -0.2007 -1.0864
 8823SOL     OW37927   1.170   0.457  14.297  0.4970  0.0497  0.2706
 8823SOL    HW137928   1.129   0.476  14.382 -0.5056 -1.9674  0.2224
 8823SOL    HW237929   1.182   0.549  14.271 -0.9910 -0.4485 -2.1506
 8824SOL     OW37930   2.587   1.590   7.439 -0.1628 -0.2552 -0.1427
 8824SOL    HW137931   2.556   1.591   7.348  0.0374  0.2714 -0.2062
 8824SOL    HW237932   2.597   1.681   7.467  1.1841 -0.2621 -0.6447
 8825SOL     OW37933   1.320   2.335   6.781  0.1614  0.3417  0.5191
 8825SOL    HW137934   1.400   2.386   6.796 -0.3635  0.9692  1.1957
 8825SOL    HW237935   1.296   2.357   6.691  0.3419  2.3356  0.9597
 8826SOL     OW37936   1.458   4.240  13.579 -0.3850 -0.1925  0.0735
 8826SOL    HW137937   1.498   4.271  13.660 -1.1942 -0.8146  0.7086
 8826SOL    HW237938   1.519   4.263  13.509 -0.1883 -2.0335 -0.3610
 8827SOL     OW37939   2.890   1.669  13.341  0.2929  0.2382 -0.0357
 8827SOL    HW137940   2.937   1.671  13.258  0.0740 -0.5246 -0.1774
 8827SOL    HW237941   2.799   1.660  13.311 -0.8309  4.4972  1.9979
 8828SOL     OW37942   3.394   1.934   6.328  0.1754 -0.8485 -0.2341
 8828SOL    HW137943   3.473   1.982   6.352 -0.0022 -1.5590  1.7904
 8828SOL    HW237944   3.323   1.994   6.348  0.0840 -0.6196 -1.2427
 8829SOL     OW37945   1.937   2.712   1.089 -0.0857 -0.6345 -0.2569
 8829SOL    HW137946   1.847   2.731   1.113  0.1157 -2.5089  2.0760
 8829SOL    HW237947   1.989   2.780   1.132 -0.7075  0.0314 -0.5739
 8830SOL     OW37948   1.955   1.703   7.634  0.2544 -0.1227  0.2236
 8830SOL    HW137949   1.933   1.630   7.693 -1.9334 -0.1788 -0.6712
 8830SOL    HW237950   1.920   1.777   7.684 -0.6370  0.6957 -1.6172
 8831SOL     OW37951   4.504   4.123  14.958 -0.7636 -0.0841 -0.8817
 8831SOL    HW137952   4.537   4.210  14.934  2.1985 -1.0644 -0.3971
 8831SOL    HW237953   4.415   4.142  14.929 -1.4371  0.0117  1.2650
 8832SOL     OW37954   2.844   3.935   9.410 -0.3301  0.2313  0.3963
 8832SOL    HW137955   2.816   3.865   9.470  0.5107  0.3383  0.9083
 8832SOL    HW237956   2.938   3.922   9.410 -0.5701 -1.5625 -0.3948
 8833SOL     OW37957   0.754   2.682  17.038  0.5714 -0.5749 -0.0161
 8833SOL    HW137958   0.712   2.596  17.028  0.6592 -0.5460 -0.6324
 8833SOL    HW237959   0.844   2.651  17.051  0.9480 -0.2337 -1.7385
 8834SOL     OW37960   4.117   2.599   0.708  0.1114 -0.2678 -0.4269
 8834SOL    HW137961   4.131   2.676   0.762  0.9303  0.5102 -1.7462
 8834SOL    HW237962   4.127   2.644   0.624  1.5804 -0.6315 -0.4338
 8835SOL     OW37963   3.216   4.261  10.333 -0.3585  0.0656  0.1801
 8835SOL    HW137964   3.159   4.333  10.306 -0.3325  1.0691  2.8758
 8835SOL    HW237965   3.154   4.203  10.377 -0.0671 -0.8577 -0.6136
 8836SOL     OW37966   1.084   2.961  12.484  0.4433  0.6293  0.4300
 8836SOL    HW137967   1.070   2.868  12.470  0.2794  0.8227 -0.6944
 8836SOL    HW237968   1.095   2.997  12.396  2.3216  0.8591  0.7638
 8837SOL     OW37969   1.666   3.521  14.816  0.2879  0.0517  0.2628
 8837SOL    HW137970   1.728   3.487  14.751 -0.8703  2.2124 -1.9664
 8837SOL    HW237971   1.717   3.518  14.897  0.9557 -2.4522 -0.2640
 8838SOL     OW37972   0.140   1.608   3.842  0.0532  0.5133  0.1279
 8838SOL    HW137973   0.214   1.661   3.873 -0.4330  0.9415  0.5422
 8838SOL    HW237974   0.080   1.628   3.913 -0.8077 -0.7263 -0.2639
 8839SOL     OW37975   2.269   4.334   2.529 -0.2532  0.5544  0.5665
 8839SOL    HW137976   2.210   4.376   2.466  1.8703 -0.1932 -1.9159
 8839SOL    HW237977   2.302   4.252   2.492  1.0146 -0.3426  3.7257
 8840SOL     OW37978   0.317   1.563   3.508  0.2139  0.7304  0.5352
 8840SOL    HW137979   0.358   1.649   3.495  0.0842  0.6545 -0.3690
 8840SOL    HW237980   0.371   1.498   3.463  0.5354 -0.2228  2.3251
 8841SOL     OW37981   3.302   1.416   7.827 -0.5468 -0.0478 -0.5569
 8841SOL    HW137982   3.269   1.385   7.912  0.3492 -0.0749 -0.2271
 8841SOL    HW237983   3.219   1.407   7.779 -0.0597 -0.9243 -1.2159
 8842SOL     OW37984   0.282   3.757  12.324 -0.2836 -0.5746 -0.0279
 8842SOL    HW137985   0.373   3.766  12.294 -0.1522 -0.2058  0.4766
 8842SOL    HW237986   0.239   3.695  12.266  1.3280 -0.6819 -1.1184
 8843SOL     OW37987   1.225   1.027   8.966  0.5626 -0.3698  0.2475
 8843SOL    HW137988   1.224   1.024   8.870 -0.8459 -1.3340  0.2941
 8843SOL    HW237989   1.169   0.952   8.986 -0.5761 -0.0655 -1.7984
 8844SOL     OW37990   4.248   1.484  11.608  0.5811  0.0834 -0.0227
 8844SOL    HW137991   4.308   1.486  11.534 -1.2025  3.5190 -1.3804
 8844SOL    HW237992   4.252   1.392  11.635  0.8409 -0.1161 -0.7223
 8845SOL     OW37993   1.147   2.672  15.906 -0.9328  0.4378  0.0723
 8845SOL    HW137994   1.161   2.598  15.966 -1.9277  0.7831  0.7293
 8845SOL    HW237995   1.051   2.673  15.905 -0.9517  1.3661  2.0983
 8846SOL     OW37996   2.704   1.061  15.701  0.3651 -0.5296  0.1867
 8846SOL    HW137997   2.675   1.115  15.627  0.7054  0.3966  0.7302
 8846SOL    HW237998   2.686   1.125  15.770 -0.8384 -0.9086  0.2313
 8847SOL     OW37999   1.579   1.275   4.823  0.0097  0.1246  0.2090
 8847SOL    HW138000   1.512   1.261   4.756  0.6013 -0.2767 -0.2977
 8847SOL    HW238001   1.655   1.244   4.774 -0.7900 -0.3900 -0.7241
 8848SOL     OW38002   2.299   1.293  13.645  0.1416  0.1775  0.0094
 8848SOL    HW138003   2.223   1.350  13.632 -0.1138 -0.4409 -1.1314
 8848SOL    HW238004   2.339   1.349  13.712  0.0376 -1.6009  1.5367
 8849SOL     OW38005   1.344   3.796   4.438  0.0091  0.0763 -0.1353
 8849SOL    HW138006   1.297   3.713   4.433 -0.2315  0.1566  0.6917
 8849SOL    HW238007   1.268   3.855   4.447 -1.3608 -1.5050 -1.4193
 8850SOL     OW38008   1.332   1.592  10.401 -0.0531  0.6081 -0.1494
 8850SOL    HW138009   1.238   1.575  10.413 -0.2563  0.9596 -1.3191
 8850SOL    HW238010   1.367   1.575  10.489 -0.0559  0.2518 -0.2178
 8851SOL     OW38011   3.789   2.667   2.489  0.0311  0.1437 -0.2990
 8851SOL    HW138012   3.766   2.658   2.396 -3.9739 -0.7025  0.7574
 8851SOL    HW238013   3.841   2.587   2.504  1.5033  1.2517  0.5066
 8852SOL     OW38014   3.331   3.893   4.558 -0.4811  0.6095  0.1213
 8852SOL    HW138015   3.351   3.821   4.618  1.0014  0.2893 -0.7436
 8852SOL    HW238016   3.327   3.857   4.469  2.5721 -0.8305  0.5816
 8853SOL     OW38017   0.440   1.946   2.890 -0.5022  0.0063 -0.2910
 8853SOL    HW138018   0.420   1.985   2.805 -0.8026  0.7592  0.1272
 8853SOL    HW238019   0.391   2.007   2.946  2.5279  0.9103  1.3767
 8854SOL     OW38020   0.746   1.375   2.071 -0.4516  0.4874 -0.4722
 8854SOL    HW138021   0.720   1.317   1.999 -2.3506  2.1162 -1.0936
 8854SOL    HW238022   0.736   1.314   2.144 -0.2976 -0.9118 -1.6043
 8855SOL     OW38023   2.091   0.425  15.207  0.0646 -0.7295 -0.1540
 8855SOL    HW138024   2.059   0.475  15.283 -2.3180 -3.1522  0.4474
 8855SOL    HW238025   2.090   0.340  15.252 -1.2072 -0.6646 -0.0424
 8856SOL     OW38026   0.446   2.046   0.576  0.3598 -0.2640 -0.1812
 8856SOL    HW138027   0.451   2.032   0.670  1.0809 -1.3315 -0.3736
 8856SOL    HW238028   0.505   2.122   0.578 -1.6044  1.2733 -1.1175
 8857SOL     OW38029   1.510   0.480   3.120 -0.2996  0.3122  0.6112
 8857SOL    HW138030   1.578   0.534   3.079 -1.2433  1.0205 -0.0200
 8857SOL    HW238031   1.451   0.482   3.044 -1.0388 -3.1961  1.1142
 8858SOL     OW38032   3.009   4.454  15.250  0.3547  0.9901 -0.5674
 8858SOL    HW138033   2.985   4.362  15.260 -0.1889  1.0724 -1.1200
 8858SOL    HW238034   3.074   4.467  15.320  1.1301 -1.2874 -0.8697
 8859SOL     OW38035   0.548   0.217  11.070 -0.1576  0.0707  0.2500
 8859SOL    HW138036   0.617   0.171  11.119 -0.5722 -2.8479 -1.8783
 8859SOL    HW238037   0.603   0.292  11.049 -1.7927  1.0935 -0.3241
 8860SOL     OW38038   3.710   4.066   3.182  0.1636  0.0331  0.0493
 8860SOL    HW138039   3.724   4.091   3.090 -2.6063  0.2713 -0.3159
 8860SOL    HW238040   3.644   4.131   3.207 -1.1236 -1.2642 -0.0521
 8861SOL     OW38041   2.063   0.516   4.334 -0.3561 -0.0403 -0.5807
 8861SOL    HW138042   1.984   0.503   4.282 -0.9941  2.2870 -0.2000
 8861SOL    HW238043   2.044   0.468   4.414 -0.2928  1.6879  0.4750
 8862SOL     OW38044   1.691   0.612  10.519 -0.1214  0.2308  0.5127
 8862SOL    HW138045   1.615   0.666  10.498  0.8840  0.1879 -3.3774
 8862SOL    HW238046   1.722   0.663  10.593 -1.3488  2.1025 -0.2789
 8863SOL     OW38047   1.143   2.422  16.818  0.2231 -0.1803 -0.2432
 8863SOL    HW138048   1.139   2.478  16.741 -3.0398 -0.7927 -0.5016
 8863SOL    HW238049   1.202   2.356  16.781 -0.3157 -0.0682 -1.2831
 8864SOL     OW38050   1.246   1.079   3.599 -0.2959 -0.1042  0.7317
 8864SOL    HW138051   1.303   1.148   3.566 -0.9686  0.9930  1.8853
 8864SOL    HW238052   1.189   1.061   3.524 -0.4236 -2.0212  1.2682
 8865SOL     OW38053   1.454   3.359  13.036 -0.7319 -0.0950 -0.4229
 8865SOL    HW138054   1.383   3.336  12.976 -0.9620  0.6770 -0.4399
 8865SOL    HW238055   1.531   3.352  12.979 -0.4178 -0.8824  0.0988
 8866SOL     OW38056   3.402   1.144  14.367 -0.2038  0.6508 -0.0484
 8866SOL    HW138057   3.390   1.071  14.428  0.6547 -0.2444 -0.9528
 8866SOL    HW238058   3.361   1.216  14.414  1.2923  1.0628  0.5976
 8867SOL     OW38059   4.438   3.984   3.422  0.0801  0.0165 -0.0762
 8867SOL    HW138060   4.417   4.036   3.344 -1.6831 -1.3262 -0.5155
 8867SOL    HW238061   4.505   3.923   3.391  0.4289  1.3883 -2.0724
 8868SOL     OW38062   2.940   0.471  13.085 -0.3118  0.0422 -0.1209
 8868SOL    HW138063   2.933   0.414  13.009  1.6616 -1.5150  0.8631
 8868SOL    HW238064   3.035   0.471  13.095 -0.0664 -1.0426 -2.6115
 8869SOL     OW38065   2.058   1.270  17.321  0.1057 -0.4476  0.1985
 8869SOL    HW138066   1.974   1.245  17.360 -0.3256  2.3847  1.0143
 8869SOL    HW238067   2.112   1.190  17.323 -1.1501 -1.3488 -2.1188
 8870SOL     OW38068   3.203   0.846  10.517 -0.0368 -0.4948  0.4934
 8870SOL    HW138069   3.171   0.757  10.530 -2.2324 -0.0241 -1.7506
 8870SOL    HW238070   3.212   0.857  10.612 -0.1453 -2.0831  0.6842
 8871SOL     OW38071   2.100   2.301  17.418  0.4424  0.0153 -0.3116
 8871SOL    HW138072   2.105   2.231  17.483 -1.4177  2.3456  2.4000
 8871SOL    HW238073   2.064   2.248  17.347 -2.6371  0.0332  1.2296
 8872SOL     OW38074   1.709   1.882   4.334 -0.3973 -0.1145 -0.1036
 8872SOL    HW138075   1.738   1.878   4.425  1.8785 -0.0416 -0.8047
 8872SOL    HW238076   1.793   1.907   4.295 -0.7671  0.6416 -0.4185
 8873SOL     OW38077   2.214   1.911   1.701 -0.1654  0.4182 -0.1092
 8873SOL    HW138078   2.258   1.862   1.770 -1.4905  1.9471  1.8193
 8873SOL    HW238079   2.152   1.842   1.677 -0.1527 -0.1353  1.4860
 8874SOL     OW38080   0.352   3.457   4.925 -0.1251  0.2051  0.0797
 8874SOL    HW138081   0.314   3.503   4.999 -0.0542  0.4352 -0.0250
 8874SOL    HW238082   0.439   3.498   4.932 -0.0653  0.1155 -0.1312
 8875SOL     OW38083   2.751   3.273   0.532  0.1745  0.1823  0.0925
 8875SOL    HW138084   2.760   3.339   0.463  3.0806  0.4690  0.7684
 8875SOL    HW238085   2.665   3.245   0.500 -1.2015  0.0660  3.8921
 8876SOL     OW38086   4.132   3.444   9.960  0.0571  0.0093 -0.3546
 8876SOL    HW138087   4.170   3.363   9.926 -0.6052 -0.2147 -0.5510
 8876SOL    HW238088   4.204   3.504   9.937 -1.8792  2.4406 -0.0685
 8877SOL     OW38089   0.594   3.010   5.727 -0.1259  0.0705 -0.0997
 8877SOL    HW138090   0.631   3.097   5.718 -0.3352 -0.0259 -2.0087
 8877SOL    HW238091   0.670   2.951   5.729 -0.1860 -0.0427 -1.1046
 8878SOL     OW38092   1.081   2.430   2.667  0.2654 -0.1722  0.6844
 8878SOL    HW138093   1.084   2.335   2.660  0.4479  0.0097 -1.6415
 8878SOL    HW238094   1.107   2.467   2.583 -2.0678 -1.2987 -0.5129
 8879SOL     OW38095   1.900   1.153   7.916  0.6438  0.2898 -0.2025
 8879SOL    HW138096   1.825   1.104   7.951  0.7354 -1.3487 -2.2918
 8879SOL    HW238097   1.923   1.211   7.988 -1.8274  0.6840  0.2731
 8880SOL     OW38098   3.019   1.906  15.055  0.3292 -0.0940 -0.2013
 8880SOL    HW138099   3.023   1.904  14.960  0.3353 -0.8046 -0.1891
 8880SOL    HW238100   3.104   1.866  15.073  0.3598  0.3223  0.5915
 8881SOL     OW38101   3.210   3.724  10.494  0.2579 -0.3185 -0.2238
 8881SOL    HW138102   3.142   3.722  10.562 -0.0030 -0.0464 -0.4804
 8881SOL    HW238103   3.178   3.785  10.428  0.1020 -0.7925 -0.5825
 8882SOL     OW38104   1.708   1.937   5.217 -0.3075  0.6502 -0.2057
 8882SOL    HW138105   1.802   1.954   5.229 -0.0331 -1.0809  0.0309
 8882SOL    HW238106   1.711   1.842   5.218  0.5940  0.6816  0.8012
 8883SOL     OW38107   3.180   3.266   2.932  0.2088 -0.5338  0.3084
 8883SOL    HW138108   3.133   3.317   2.866  0.7386 -0.7541 -0.2378
 8883SOL    HW238109   3.213   3.333   2.991  0.5154  1.2924 -1.9348
 8884SOL     OW38110   2.490   1.220   6.653 -0.7217  0.1936 -0.3079
 8884SOL    HW138111   2.514   1.311   6.639 -0.3612  0.4211  1.9013
 8884SOL    HW238112   2.520   1.198   6.741  0.1370  2.3301 -0.0832
 8885SOL     OW38113   0.058   2.360  15.915 -0.2287 -0.0406 -0.6883
 8885SOL    HW138114   0.062   2.453  15.890 -3.0947  0.1523 -0.4288
 8885SOL    HW238115   0.135   2.318  15.876 -0.3709 -0.1726 -0.8295
 8886SOL     OW38116   3.221   1.798  12.005  0.3068  0.0004 -0.4819
 8886SOL    HW138117   3.193   1.838  12.087  2.5693  1.6065 -0.5083
 8886SOL    HW238118   3.209   1.705  12.024  1.0599 -0.4418 -2.1950
 8887SOL     OW38119   3.579   4.463   8.615 -0.0932  0.3893  0.1050
 8887SOL    HW138120   3.584   4.550   8.656 -3.4965  1.1290 -1.0401
 8887SOL    HW238121   3.514   4.413   8.665  0.3734 -1.3741 -1.0680
 8888SOL     OW38122   2.158   2.545  10.998  0.3772 -1.3565 -0.1075
 8888SOL    HW138123   2.145   2.462  11.044  0.6190 -1.0499  0.5116
 8888SOL    HW238124   2.204   2.514  10.919 -0.8941 -1.5047 -0.7799
 8889SOL     OW38125   1.545   2.171  15.186 -0.0038 -0.1828 -0.9103
 8889SOL    HW138126   1.473   2.164  15.123 -0.1629  1.3319 -0.8957
 8889SOL    HW238127   1.575   2.261  15.180 -0.4238 -0.0790 -1.4318
 8890SOL     OW38128   3.572   2.158  11.350  0.0661 -0.1814  0.3426
 8890SOL    HW138129   3.510   2.085  11.345  1.1816 -1.1489  0.8797
 8890SOL    HW238130   3.537   2.211  11.277  0.1195 -0.8647 -0.1784
 8891SOL     OW38131   1.508   2.218   4.648  0.0894 -0.9759 -0.3671
 8891SOL    HW138132   1.588   2.248   4.606 -1.0131  1.8362 -0.4925
 8891SOL    HW238133   1.428   2.256   4.612 -0.1041 -0.4984  0.5496
 8892SOL     OW38134   4.255   2.049   6.198  0.1405  0.0179 -0.0060
 8892SOL    HW138135   4.209   2.021   6.278  0.6575 -2.2568 -0.5071
 8892SOL    HW238136   4.184   2.075   6.140  0.1486 -0.3850 -0.1981
 8893SOL     OW38137   1.979   4.223   1.990 -0.1994  0.6729  0.1915
 8893SOL    HW138138   1.904   4.225   1.931  0.6732 -0.3448 -0.9430
 8893SOL    HW238139   2.054   4.252   1.937 -0.3610 -1.1565 -1.0344
 8894SOL     OW38140   3.134   1.079   8.788 -0.1199  0.2058 -0.3513
 8894SOL    HW138141   3.204   1.014   8.798 -1.8981 -1.6849 -0.2703
 8894SOL    HW238142   3.098   1.104   8.873 -1.2329 -1.5175 -0.3263
 8895SOL     OW38143   1.258   0.875   4.493 -0.7647  0.5053 -0.1530
 8895SOL    HW138144   1.167   0.870   4.462 -1.3511  0.5169  1.5804
 8895SOL    HW238145   1.248   0.911   4.581 -0.7637 -2.6023  1.1150
 8896SOL     OW38146   3.600   4.487  12.862  0.1499  0.0290  0.0706
 8896SOL    HW138147   3.554   4.552  12.809  0.1051 -0.1884 -0.1580
 8896SOL    HW238148   3.544   4.483  12.939 -0.1031 -1.5035 -0.1911
 8897SOL     OW38149   2.163   3.344   3.270 -0.4075 -0.4367 -0.3353
 8897SOL    HW138150   2.073   3.345   3.303  0.0988 -0.9469  1.0671
 8897SOL    HW238151   2.163   3.419   3.211  0.8963  0.7836  1.2425
 8898SOL     OW38152   1.806   2.124   0.573  0.0243 -0.0519 -0.0481
 8898SOL    HW138153   1.726   2.116   0.624 -0.3853  1.4662 -0.4523
 8898SOL    HW238154   1.813   2.218   0.589 -1.0581  0.3641 -2.0464
 8899SOL     OW38155   4.649   2.018  11.158  0.0457 -0.1009 -0.7210
 8899SOL    HW138156   4.679   2.109  11.159 -0.7101  0.1643 -1.4939
 8899SOL    HW238157   4.719   1.971  11.113 -0.4802  0.3036 -1.9694
 8900SOL     OW38158   3.830   2.808   6.414  0.2138  0.0938 -0.4065
 8900SOL    HW138159   3.899   2.759   6.370  2.3403  0.8992  2.0314
 8900SOL    HW238160   3.849   2.891   6.370  0.5448  0.9345  1.2997
 8901SOL     OW38161   1.950   0.150  17.671 -0.3679  0.1041  0.2269
 8901SOL    HW138162   2.022   0.169   0.038 -0.7091 -1.2711  1.0909
 8901SOL    HW238163   1.928   0.240  17.647  2.6744  0.4904 -1.0905
 8902SOL     OW38164   0.413   0.218  16.829  0.2041  0.1280 -0.0563
 8902SOL    HW138165   0.363   0.196  16.908  0.3852  1.5420  0.4464
 8902SOL    HW238166   0.388   0.148  16.769 -1.1116  0.1632  0.4550
 8903SOL     OW38167   2.413   3.283   6.384 -0.0649  0.0833  0.2864
 8903SOL    HW138168   2.402   3.269   6.290  1.2823 -0.8639  0.2656
 8903SOL    HW238169   2.471   3.359   6.380  2.2398 -1.8508 -3.5932
 8904SOL     OW38170   1.377   2.562   8.539  0.1207  0.1533 -0.1089
 8904SOL    HW138171   1.440   2.588   8.472 -0.6322 -0.8133 -1.1911
 8904SOL    HW238172   1.302   2.522   8.494  1.0227 -0.1584 -1.3275
 8905SOL     OW38173   3.150   2.096   7.296  0.4617 -0.2955 -0.2662
 8905SOL    HW138174   3.192   2.151   7.230  1.4250 -0.2208  0.4021
 8905SOL    HW238175   3.057   2.094   7.274  1.0675  0.1256 -2.8459
 8906SOL     OW38176   2.671   1.435   9.548  0.4117  0.2931 -0.1578
 8906SOL    HW138177   2.740   1.456   9.611 -0.1927  2.0826 -0.0936
 8906SOL    HW238178   2.603   1.463   9.608 -0.6963 -0.7214 -0.9273
 8907SOL     OW38179   0.216   0.722   0.652 -0.4496  0.2428 -0.4735
 8907SOL    HW138180   0.209   0.657   0.722 -0.1097 -0.9375 -1.5398
 8907SOL    HW238181   0.187   0.802   0.696  0.2103 -0.0663  0.5392
 8908SOL     OW38182   0.296   2.908   8.662  0.1105 -0.4133 -0.0627
 8908SOL    HW138183   0.316   2.946   8.747  1.8241  0.3155 -0.8072
 8908SOL    HW238184   0.368   2.943   8.610 -0.6880  1.4051  0.0546
 8909SOL     OW38185   1.338   0.105   2.551 -0.1982  0.0253  0.5136
 8909SOL    HW138186   1.311   0.103   2.643  0.8371 -1.9561  0.7771
 8909SOL    HW238187   1.297   0.187   2.522 -0.3420 -0.4437 -0.5889
 8910SOL     OW38188   3.745   1.394  11.981  0.4695  0.1428  0.9958
 8910SOL    HW138189   3.739   1.360  12.070  0.4916  0.8520  1.2717
 8910SOL    HW238190   3.702   1.480  11.986 -2.7998 -1.3431 -1.5001
 8911SOL     OW38191   3.466   1.102   0.060 -0.0485  0.1328  0.4270
 8911SOL    HW138192   3.458   1.007   0.053  0.0278  0.1523  0.0809
 8911SOL    HW238193   3.486   1.126  17.662 -1.6557 -1.6516 -0.3991
 8912SOL     OW38194   3.579   4.208   8.112  0.2121  0.1516  0.2197
 8912SOL    HW138195   3.633   4.154   8.055 -1.5635 -0.1796 -1.1419
 8912SOL    HW238196   3.611   4.181   8.198 -0.7263 -1.3264  0.1007
 8913SOL     OW38197   4.083   1.382   0.153 -0.6262 -0.2297 -0.0787
 8913SOL    HW138198   4.060   1.314   0.089 -1.7551 -1.2687  1.4488
 8913SOL    HW238199   4.177   1.384   0.135 -0.5225 -2.1711  0.3045
 8914SOL     OW38200   0.862   1.374   7.900  0.0904  0.3513 -0.1249
 8914SOL    HW138201   0.827   1.312   7.964 -0.3343  0.0355 -0.6609
 8914SOL    HW238202   0.778   1.413   7.874  0.3721  1.7832  1.1001
 8915SOL     OW38203   3.621   0.191   9.012 -0.2419 -0.3181 -0.0009
 8915SOL    HW138204   3.619   0.102   9.049 -4.6216 -0.8248 -1.3966
 8915SOL    HW238205   3.653   0.243   9.086  0.5598  0.6925 -1.0687
 8916SOL     OW38206   4.249   0.768  16.302  0.1863  0.6624 -0.3308
 8916SOL    HW138207   4.223   0.736  16.388  3.1003  1.8234  0.9803
 8916SOL    HW238208   4.302   0.694  16.274  1.8997  0.9472  2.1948
 8917SOL     OW38209   1.672   2.037  11.695 -0.4298  0.1954 -0.0779
 8917SOL    HW138210   1.737   2.052  11.626 -1.3914  0.0482 -1.0228
 8917SOL    HW238211   1.595   2.053  11.641 -0.2249 -1.2135 -0.8016
 8918SOL     OW38212   0.970   3.677   6.196  0.1854 -0.0075  0.8925
 8918SOL    HW138213   1.013   3.669   6.281  2.9691 -0.2609 -0.5548
 8918SOL    HW238214   1.051   3.691   6.147 -0.8825 -3.0725 -1.7946
 8919SOL     OW38215   0.011   3.209   4.726  0.2059 -0.2312 -0.0476
 8919SOL    HW138216   0.002   3.287   4.673 -0.7201 -0.1590  0.2127
 8919SOL    HW238217   4.655   3.161   4.700  0.4571 -2.3379  2.9522
 8920SOL     OW38218   2.949   2.240   7.545  0.2823 -0.2969  0.3082
 8920SOL    HW138219   2.881   2.301   7.518 -0.5650 -0.4865  2.0495
 8920SOL    HW238220   2.959   2.278   7.632 -0.3190 -1.7424  1.0014
 8921SOL     OW38221   1.046   1.405   9.543  0.1785 -0.0103  0.2264
 8921SOL    HW138222   0.981   1.336   9.560 -0.3365  0.2438 -0.7545
 8921SOL    HW238223   1.028   1.465   9.615  0.8187  1.4255 -0.8079
 8922SOL     OW38224   0.882   2.822  15.636 -0.0967 -0.0417  0.1925
 8922SOL    HW138225   0.899   2.782  15.721 -3.4023 -0.4597  0.6841
 8922SOL    HW238226   0.937   2.772  15.576 -0.3031  0.2396 -0.2313
 8923SOL     OW38227   2.514   0.608  17.188  0.4252 -0.6917  0.3096
 8923SOL    HW138228   2.547   0.692  17.157 -2.9370  0.0114 -1.3143
 8923SOL    HW238229   2.568   0.593  17.266  3.3101  2.0841 -1.1281
 8924SOL     OW38230   3.897   3.009   0.306  0.2312  0.1822 -0.4685
 8924SOL    HW138231   3.886   3.048   0.393 -0.2588 -2.9100  0.8393
 8924SOL    HW238232   3.992   3.004   0.307  0.0746 -2.5731  1.4780
 8925SOL     OW38233   4.324   4.701   5.724  0.2793  0.6790  0.4250
 8925SOL    HW138234   4.302   0.038   5.796 -3.1160 -0.2622  0.1983
 8925SOL    HW238235   4.290   0.033   5.653  0.9556 -0.4762 -0.7777
 8926SOL     OW38236   3.651   1.460  11.413  0.2761 -0.4158  0.3616
 8926SOL    HW138237   3.584   1.490  11.350  2.4796  2.3819 -0.6608
 8926SOL    HW238238   3.599   1.457  11.493  0.3029 -0.6613  0.3700
 8927SOL     OW38239   0.467   2.819   2.888  0.0491  0.3756  0.4514
 8927SOL    HW138240   0.562   2.812   2.884 -0.0551 -1.8183  1.8538
 8927SOL    HW238241   0.456   2.889   2.823  0.4766  0.2235  0.2139
 8928SOL     OW38242   0.885   3.351   0.891  0.4358  0.5351  0.1159
 8928SOL    HW138243   0.923   3.414   0.830 -0.4289 -0.8127 -1.8225
 8928SOL    HW238244   0.830   3.413   0.938 -0.6479  0.4027 -0.9785
 8929SOL     OW38245   1.691   1.331   3.898 -0.5933  0.2149  0.0743
 8929SOL    HW138246   1.618   1.286   3.940  0.8278 -0.5962  1.6760
 8929SOL    HW238247   1.743   1.348   3.977 -1.9358  0.2741  0.9480
 8930SOL     OW38248   3.795   0.412   7.291 -0.7136  0.0874 -0.6063
 8930SOL    HW138249   3.878   0.440   7.252 -1.6675  1.8494 -1.3718
 8930SOL    HW238250   3.774   0.495   7.335 -1.4559 -0.7712  0.6334
 8931SOL     OW38251   1.534   2.789   3.762 -0.1813  0.0890  0.3549
 8931SOL    HW138252   1.574   2.728   3.700  1.7085 -0.3936  2.0470
 8931SOL    HW238253   1.460   2.735   3.790 -0.3571  0.0610 -0.1621
 8932SOL     OW38254   4.197   1.669   3.423 -0.4594 -0.1955 -0.3103
 8932SOL    HW138255   4.229   1.635   3.507  0.9852  2.1677  0.1097
 8932SOL    HW238256   4.184   1.599   3.359 -0.6100  0.1114 -0.6134
 8933SOL     OW38257   4.703   4.095   8.172 -0.0136 -0.0290 -0.0016
 8933SOL    HW138258   0.043   4.140   8.228  0.3319 -1.8869  1.1075
 8933SOL    HW238259   4.625   4.086   8.227 -0.8377  4.7906 -0.4348
 8934SOL     OW38260   0.151   4.232  14.283  0.0239 -0.1276  0.4887
 8934SOL    HW138261   0.103   4.220  14.364  0.0103 -2.3320  0.1483
 8934SOL    HW238262   0.161   4.328  14.287  0.8936 -0.2025  0.2672
 8935SOL     OW38263   2.451   3.759   5.910 -0.1322  0.2530  0.5989
 8935SOL    HW138264   2.541   3.789   5.902 -1.0344  2.3898 -1.4600
 8935SOL    HW238265   2.412   3.828   5.964  0.6446  0.9032  0.3320
 8936SOL     OW38266   2.091   3.433   6.270 -0.2496  0.4018 -0.1290
 8936SOL    HW138267   2.009   3.482   6.273 -0.3302  0.2595 -0.0139
 8936SOL    HW238268   2.114   3.446   6.178  2.4135  0.5569  0.5483
 8937SOL     OW38269   0.250   0.286   3.263 -0.0506 -0.3906  0.2905
 8937SOL    HW138270   0.177   0.245   3.216 -1.3620  2.1125  0.1853
 8937SOL    HW238271   0.229   0.378   3.275  3.1593  0.2320  1.1201
 8938SOL     OW38272   4.095   3.635  11.332 -0.4705  0.1307 -0.1081
 8938SOL    HW138273   4.123   3.715  11.378 -0.9456  0.3152 -0.1400
 8938SOL    HW238274   4.159   3.625  11.262  1.4676  2.7462  1.2653
 8939SOL     OW38275   0.652   0.192   8.247  0.1910 -0.2213  0.4418
 8939SOL    HW138276   0.700   0.218   8.169 -0.2635 -1.4166 -0.2437
 8939SOL    HW238277   0.724   0.174   8.308  0.1384  2.1058  1.1709
 8940SOL     OW38278   4.378   4.633   5.152 -0.5403  0.3053 -1.0353
 8940SOL    HW138279   4.356   4.542   5.138 -1.3874  0.4335 -0.5385
 8940SOL    HW238280   4.394   4.638   5.246 -1.7997 -0.9101 -0.7667
 8941SOL     OW38281   4.015   2.786   3.650  0.3693  0.0051  0.0525
 8941SOL    HW138282   4.007   2.715   3.714 -1.2698 -0.4812 -0.7027
 8941SOL    HW238283   3.928   2.787   3.610 -0.3774 -0.3449  1.6380
 8942SOL     OW38284   3.545   0.819   1.926  0.2627 -0.1895  0.6274
 8942SOL    HW138285   3.607   0.841   1.856  0.7620  0.5762  1.3042
 8942SOL    HW238286   3.591   0.766   1.992  1.7977  0.4913  0.1029
 8943SOL     OW38287   3.938   0.257   1.800 -0.0091 -0.6219  0.3753
 8943SOL    HW138288   3.914   0.201   1.726  0.4653  0.8347 -0.8653
 8943SOL    HW238289   3.874   0.232   1.867 -0.0397  0.6372  0.8173
 8944SOL     OW38290   2.877   3.838   2.297 -0.3581 -0.3880 -0.0859
 8944SOL    HW138291   2.877   3.750   2.335 -0.5384  1.2320  3.6882
 8944SOL    HW238292   2.966   3.835   2.262 -0.4055  0.4057 -0.2719
 8945SOL     OW38293   0.963   2.831   6.328  0.3630  0.1054  0.0148
 8945SOL    HW138294   1.054   2.818   6.354 -0.4121 -1.4719  1.9315
 8945SOL    HW238295   0.971   2.918   6.290  1.2767  0.9396  2.0825
 8946SOL     OW38296   2.302   3.486  15.706 -0.6812 -0.1092 -0.0064
 8946SOL    HW138297   2.287   3.404  15.659  0.3016 -0.7863  0.8614
 8946SOL    HW238298   2.326   3.450  15.791  0.9302  2.9396  0.8426
 8947SOL     OW38299   4.637   0.004   7.855  0.6979 -0.0052 -0.3629
 8947SOL    HW138300   4.717   4.698   7.899 -0.2775 -1.1890  0.6512
 8947SOL    HW238301   4.580   4.654   7.879 -0.7897  1.5953  0.8930
 8948SOL     OW38302   3.945   0.934  15.036 -0.1612 -0.4435  0.0543
 8948SOL    HW138303   4.012   0.911  14.971  1.0250  0.9346  0.7892
 8948SOL    HW238304   3.871   0.891  14.993 -0.2514 -1.7051  1.4811
 8949SOL     OW38305   2.198   0.569   8.700  0.2610 -0.0184 -0.6230
 8949SOL    HW138306   2.265   0.611   8.755  0.6766  0.8139 -1.7670
 8949SOL    HW238307   2.240   0.486   8.674  0.9226 -0.1478  0.8696
 8950SOL     OW38308   3.187   1.539  11.773 -0.1822 -0.2983 -0.1571
 8950SOL    HW138309   3.237   1.613  11.808 -0.2990  0.2663 -1.1860
 8950SOL    HW238310   3.107   1.580  11.740 -0.4484 -1.5060 -0.9991
 8951SOL     OW38311   0.577   0.310  15.377  0.0683  0.2931 -0.0315
 8951SOL    HW138312   0.498   0.363  15.376  0.7121  1.2561 -0.1603
 8951SOL    HW238313   0.649   0.369  15.354  0.0888  0.6782  1.0070
 8952SOL     OW38314   1.775   1.730  11.754  0.3382 -0.2645  0.0176
 8952SOL    HW138315   1.783   1.637  11.732  0.2090 -0.0261 -1.0769
 8952SOL    HW238316   1.764   1.734  11.849 -0.7142 -0.9475 -0.0783
 8953SOL     OW38317   2.891   2.188   7.162  0.3780 -0.2229  0.3347
 8953SOL    HW138318   2.805   2.180   7.205  0.3830 -2.1859 -0.0056
 8953SOL    HW238319   2.897   2.283   7.166  1.4743 -0.3202  0.8078
 8954SOL     OW38320   2.160   4.115   7.947 -0.4004  0.5708  0.1769
 8954SOL    HW138321   2.248   4.154   7.949 -0.2410  0.3495 -2.1669
 8954SOL    HW238322   2.111   4.195   7.961 -1.6728  0.1801 -2.1597
 8955SOL     OW38323   4.158   1.616   5.777 -0.1723 -0.0713 -0.2521
 8955SOL    HW138324   4.068   1.584   5.774 -1.0647  2.5082 -0.9056
 8955SOL    HW238325   4.212   1.537   5.772  0.7042  0.5187 -0.1041
 8956SOL     OW38326   1.166   3.308   9.251 -0.0899  0.0482 -0.1478
 8956SOL    HW138327   1.110   3.262   9.313 -0.2768  0.6763  0.1449
 8956SOL    HW238328   1.196   3.238   9.193  0.4184  0.1174  0.0256
 8957SOL     OW38329   0.716   2.438  10.807 -0.0731  0.4215 -0.4534
 8957SOL    HW138330   0.781   2.506  10.823  0.1170  0.0496  0.3534
 8957SOL    HW238331   0.636   2.489  10.812 -1.0697 -0.9173 -2.5499
 8958SOL     OW38332   3.136   2.726   7.938 -0.1119 -0.1313 -0.7180
 8958SOL    HW138333   3.194   2.766   7.873  2.4230 -0.1584  1.5375
 8958SOL    HW238334   3.200   2.722   8.009 -2.0767 -0.5558  1.0421
 8959SOL     OW38335   1.641   4.066   6.785  0.3350 -0.5509  0.1191
 8959SOL    HW138336   1.625   4.071   6.879  1.4422  0.7018  0.2342
 8959SOL    HW238337   1.597   4.148   6.764  0.2464 -0.3411  1.1136
 8960SOL     OW38338   2.307   0.615   4.653 -0.5337 -0.3548 -0.4099
 8960SOL    HW138339   2.383   0.589   4.600 -0.1424 -1.0780  0.4982
 8960SOL    HW238340   2.248   0.540   4.653 -1.4269  0.3655 -2.5617
 8961SOL     OW38341   4.519   1.878  13.270 -0.4431 -0.1706 -0.3532
 8961SOL    HW138342   4.548   1.966  13.291  1.0296 -1.0134  1.1523
 8961SOL    HW238343   4.579   1.859  13.198  0.8352 -0.5898  0.8304
 8962SOL     OW38344   1.513   1.364   1.905 -0.4149  0.6160 -0.1817
 8962SOL    HW138345   1.436   1.408   1.871 -1.6100 -1.6174 -0.3821
 8962SOL    HW238346   1.569   1.363   1.827 -1.7381  1.4201 -1.1290
 8963SOL     OW38347   1.027   1.795   1.402 -0.0260  0.1249  0.6510
 8963SOL    HW138348   0.953   1.843   1.440 -0.2881 -0.3472  0.7289
 8963SOL    HW238349   1.018   1.820   1.310 -0.3201  0.4183  0.7580
 8964SOL     OW38350   3.056   0.888   0.649  0.4682 -0.3265  0.0661
 8964SOL    HW138351   3.067   0.811   0.704  0.8896  0.6518  1.3684
 8964SOL    HW238352   3.082   0.852   0.564 -0.1914 -1.3666  0.3080
 8965SOL     OW38353   3.138   0.180   3.339  0.1305 -0.1594  0.2803
 8965SOL    HW138354   3.166   0.220   3.421 -2.9096 -0.2037  1.3632
 8965SOL    HW238355   3.213   0.207   3.287  1.6726 -0.4632  2.3346
 8966SOL     OW38356   3.755   0.583   7.685 -0.0151  0.5026  0.1378
 8966SOL    HW138357   3.698   0.543   7.750  0.4606 -0.1623  0.1461
 8966SOL    HW238358   3.813   0.509   7.669  0.1784  0.7392 -0.2483
 8967SOL     OW38359   3.496   1.983   3.431 -0.1295 -0.6776  0.0204
 8967SOL    HW138360   3.562   2.043   3.397 -1.5118  0.6039 -0.4381
 8967SOL    HW238361   3.417   2.025   3.396  0.1904  0.5950  0.8272
 8968SOL     OW38362   3.002   1.616   3.837  0.1678  0.0310  0.2372
 8968SOL    HW138363   2.907   1.613   3.847  0.2235  1.3237  1.2080
 8968SOL    HW238364   3.014   1.615   3.742 -0.0821 -0.0832  0.2066
 8969SOL     OW38365   1.169   3.109   2.791 -0.2686 -0.0518  0.3850
 8969SOL    HW138366   1.122   3.040   2.837 -1.9730  1.2328  0.5574
 8969SOL    HW238367   1.191   3.164   2.867 -1.9762 -0.0051  0.8307
 8970SOL     OW38368   2.691   2.160   6.167 -0.0062  0.0299 -0.1790
 8970SOL    HW138369   2.668   2.139   6.077  0.2431 -1.8162  0.1784
 8970SOL    HW238370   2.701   2.255   6.160 -1.1083  0.3233  2.0540
 8971SOL     OW38371   1.213   4.386   9.044  0.4592 -0.5785 -0.0389
 8971SOL    HW138372   1.265   4.452   8.998  0.0523  1.2124  2.0728
 8971SOL    HW238373   1.262   4.308   9.020  0.7624 -0.9433  1.7744
 8972SOL     OW38374   0.472   0.747  10.147  0.0387  0.3931 -0.0993
 8972SOL    HW138375   0.388   0.716  10.116  0.0304  0.6981 -0.3747
 8972SOL    HW238376   0.520   0.711  10.073 -0.8886  1.0722 -1.0298
 8973SOL     OW38377   1.908   1.291   0.685 -0.4488 -0.3092 -0.3921
 8973SOL    HW138378   1.891   1.225   0.618 -0.1630  0.2692 -1.0280
 8973SOL    HW238379   1.846   1.360   0.663  0.1060 -0.0005 -0.9750
 8974SOL     OW38380   2.328   2.807   7.390 -0.1549  0.1906 -0.1076
 8974SOL    HW138381   2.347   2.816   7.484 -1.2517  0.9146  0.0505
 8974SOL    HW238382   2.242   2.763   7.388  0.6849 -1.4635  0.2359
 8975SOL     OW38383   2.337   4.314   6.306 -0.6221  0.0802  0.2223
 8975SOL    HW138384   2.301   4.258   6.237  1.9914  1.9736 -2.6604
 8975SOL    HW238385   2.255   4.332   6.352 -0.9204  0.4019 -0.4252
 8976SOL     OW38386   3.235   2.789   7.546 -0.0151  0.3125  0.2139
 8976SOL    HW138387   3.151   2.743   7.533  0.2259 -0.5505  1.7511
 8976SOL    HW238388   3.274   2.778   7.459  1.1288  1.3016  0.6133
 8977SOL     OW38389   1.013   3.915   3.393  0.2598 -0.3253 -0.0995
 8977SOL    HW138390   1.038   3.877   3.477 -0.6028 -1.7414 -0.4804
 8977SOL    HW238391   0.980   3.839   3.345  0.5775  1.1348 -2.6395
 8978SOL     OW38392   0.009   3.294   9.310 -0.2133  0.1431 -0.6187
 8978SOL    HW138393   4.638   3.282   9.290  0.2809 -1.6802 -1.8464
 8978SOL    HW238394   0.014   3.333   9.397  1.7089 -1.9578  0.2176
 8979SOL     OW38395   4.587   2.787  17.269 -0.0299 -0.3460 -0.1814
 8979SOL    HW138396   4.658   2.825  17.216  0.1846  1.5167  1.4499
 8979SOL    HW238397   4.513   2.822  17.220 -0.3959  0.0403  0.6520
 8980SOL     OW38398   2.086   1.802  17.467  0.0478  0.2164  0.5425
 8980SOL    HW138399   2.111   1.802  17.559  0.6526  0.1753  0.3754
 8980SOL    HW238400   2.024   1.728  17.466  0.1408  0.1524 -0.2644
 8981SOL     OW38401   1.537   2.937   6.623  0.4128 -0.1390 -0.4962
 8981SOL    HW138402   1.547   2.842   6.627 -1.8969 -0.2740  2.1909
 8981SOL    HW238403   1.541   2.947   6.528  0.2246  2.4423 -0.2330
 8982SOL     OW38404   0.427   1.438   4.094  0.0917 -0.2789 -0.3000
 8982SOL    HW138405   0.389   1.436   4.006  0.1922  1.0931 -0.3745
 8982SOL    HW238406   0.519   1.458   4.084 -0.0141  0.6533  0.6613
 8983SOL     OW38407   1.671   3.456   7.423  0.0144 -0.4976  0.6400
 8983SOL    HW138408   1.698   3.447   7.514 -0.7104 -3.2441  0.5570
 8983SOL    HW238409   1.579   3.476   7.437  0.0457  0.2754 -0.2227
 8984SOL     OW38410   4.179   2.784   7.202  0.2962  0.6327 -0.1184
 8984SOL    HW138411   4.154   2.733   7.279 -0.4973 -0.2759 -0.9788
 8984SOL    HW238412   4.179   2.710   7.141 -0.4296 -1.0576  1.9236
 8985SOL     OW38413   3.191   2.202  10.784  0.8188 -0.1693 -0.0403
 8985SOL    HW138414   3.140   2.279  10.808  0.8490 -0.2437  0.2759
 8985SOL    HW238415   3.272   2.252  10.786  0.8648 -0.2249 -0.5386
 8986SOL     OW38416   1.090   3.010   7.783 -0.9172  0.1752 -0.2818
 8986SOL    HW138417   1.184   3.025   7.768 -1.0692  1.3487 -0.1087
 8986SOL    HW238418   1.071   2.916   7.784  0.5254 -0.1109  0.2020
 8987SOL     OW38419   4.026   0.036   6.182 -0.1447 -0.1045  0.2841
 8987SOL    HW138420   3.952   0.048   6.122 -0.5836 -2.0849  0.4244
 8987SOL    HW238421   3.976   0.013   6.260 -0.6968 -1.5346 -0.4803
 8988SOL     OW38422   3.966   3.814  13.916 -0.5196 -0.1157 -0.1442
 8988SOL    HW138423   3.933   3.727  13.938  0.3784 -0.5590 -0.5414
 8988SOL    HW238424   3.990   3.833  14.006 -0.1860 -1.9380  0.1628
 8989SOL     OW38425   2.974   2.314   9.237 -0.7709 -0.3283  0.0406
 8989SOL    HW138426   2.966   2.399   9.279 -0.6143 -0.1529 -0.2904
 8989SOL    HW238427   2.945   2.349   9.153  2.1774 -1.5463 -1.4867
 8990SOL     OW38428   0.762   1.812   4.304  0.3844 -0.2318 -0.6467
 8990SOL    HW138429   0.762   1.802   4.209 -0.0095  0.4207 -0.7147
 8990SOL    HW238430   0.696   1.743   4.320  1.8772 -1.3049  0.9372
 8991SOL     OW38431   4.399   4.567   2.485 -0.4279  0.2223  0.2296
 8991SOL    HW138432   4.419   4.607   2.570 -0.8117  0.2795  0.2909
 8991SOL    HW238433   4.489   4.551   2.454 -1.4314 -1.8047 -1.6073
 8992SOL     OW38434   1.559   2.325  16.260  0.0284  0.5136  0.3007
 8992SOL    HW138435   1.521   2.280  16.185  1.2633  1.3005 -0.8125
 8992SOL    HW238436   1.629   2.380  16.225  1.3565 -0.7767  0.8885
 8993SOL     OW38437   0.949   3.746   8.244 -0.1105  0.3655  0.4304
 8993SOL    HW138438   0.977   3.664   8.285  0.6800 -0.1044 -1.0398
 8993SOL    HW238439   0.943   3.809   8.315  0.5633  1.7060 -0.7055
 8994SOL     OW38440   2.479   1.979   2.314 -0.4442  0.4840 -0.0017
 8994SOL    HW138441   2.474   1.907   2.252 -1.4538 -0.3710  1.0725
 8994SOL    HW238442   2.461   2.057   2.263  0.0440  1.1323  0.8091
 8995SOL     OW38443   1.394   2.245   0.542  0.0225 -0.2880 -0.3926
 8995SOL    HW138444   1.425   2.299   0.469 -0.5610  0.0328 -0.4066
 8995SOL    HW238445   1.363   2.308   0.608  1.2295  2.5806 -2.5483
 8996SOL     OW38446   2.853   4.276   6.792 -0.2175 -0.3132 -0.0750
 8996SOL    HW138447   2.946   4.278   6.769 -0.6294 -0.7120 -1.7978
 8996SOL    HW238448   2.855   4.185   6.821  1.3927 -0.3035 -0.1756
 8997SOL     OW38449   0.536   1.049   3.212  0.4834  0.0204 -0.2930
 8997SOL    HW138450   0.502   1.128   3.169  2.2080  1.5343  1.1405
 8997SOL    HW238451   0.629   1.032   3.197  1.3924  0.7957  4.4074
 8998SOL     OW38452   0.667   1.339   7.320  0.2415  0.1477 -0.3820
 8998SOL    HW138453   0.758   1.358   7.346  0.4111  0.0904 -0.9380
 8998SOL    HW238454   0.674   1.255   7.275 -0.4764 -1.2039  2.0483
 8999SOL     OW38455   1.974   4.111   3.685 -0.0366 -0.2824  0.2675
 8999SOL    HW138456   1.973   4.155   3.769  0.3762 -0.6936  0.4876
 8999SOL    HW238457   2.065   4.083   3.679 -0.1452 -0.3678 -1.1853
 9000SOL     OW38458   1.211   0.170  15.511  0.5191 -0.0633 -0.7212
 9000SOL    HW138459   1.141   0.233  15.527 -0.1728 -1.8787  3.4520
 9000SOL    HW238460   1.162   0.098  15.472 -3.4530  1.5421  1.3116
 9001SOL     OW38461   1.023   0.126  16.007 -0.2959 -0.4422  0.3437
 9001SOL    HW138462   0.978   0.197  16.054  1.4060  0.4498  0.6366
 9001SOL    HW238463   1.117   0.147  16.013 -0.5957  0.5428  1.8177
 9002SOL     OW38464   1.048   0.820   9.049 -0.4223 -0.2180  0.4535
 9002SOL    HW138465   0.967   0.864   9.023 -1.4725 -1.2979  1.8876
 9002SOL    HW238466   1.024   0.800   9.139 -3.8751  1.1675 -0.1467
 9003SOL     OW38467   0.601   3.552   4.961 -0.4323 -0.4863  0.0830
 9003SOL    HW138468   0.684   3.524   5.000 -0.7055 -0.0567  0.9776
 9003SOL    HW238469   0.618   3.514   4.874  2.2522  0.5225  0.1659
 9004SOL     OW38470   4.315   0.611   5.952  0.2779 -0.2924 -0.1632
 9004SOL    HW138471   4.315   0.628   6.046  2.0710  0.0039 -0.2277
 9004SOL    HW238472   4.409   0.614   5.933  0.9832  0.5823  3.4993
 9005SOL     OW38473   1.503   0.300   4.644 -0.0046  0.2251 -0.2340
 9005SOL    HW138474   1.573   0.267   4.701 -1.7892 -2.6585  0.3234
 9005SOL    HW238475   1.445   0.226   4.660  0.0525  1.0974  4.1887
 9006SOL     OW38476   2.719   3.217   4.982  0.2742 -0.3233  0.0091
 9006SOL    HW138477   2.742   3.225   4.890  0.0720  0.2898  0.0160
 9006SOL    HW238478   2.788   3.157   5.011  1.4006  1.1497  0.3537
 9007SOL     OW38479   3.646   4.018   6.917  0.3366 -0.2898 -0.0082
 9007SOL    HW138480   3.739   4.012   6.894  0.5368 -0.1408  0.7639
 9007SOL    HW238481   3.609   3.988   6.834 -0.2590  1.1953 -0.2748
 9008SOL     OW38482   2.891   3.848  11.873 -0.0796  0.3838 -0.2581
 9008SOL    HW138483   2.964   3.789  11.853 -0.1498  0.0924  0.3721
 9008SOL    HW238484   2.819   3.786  11.869  0.6927 -0.4788 -0.8058
 9009SOL     OW38485   3.873   3.399   1.658 -0.4724  0.6531 -0.1009
 9009SOL    HW138486   3.880   3.419   1.565 -0.6920  0.2851 -0.1962
 9009SOL    HW238487   3.845   3.307   1.655  0.3919  0.2968  2.0738
 9010SOL     OW38488   0.431   1.520   5.147 -0.0108 -0.4721  0.4580
 9010SOL    HW138489   0.369   1.447   5.154 -2.1390  1.3054  0.0074
 9010SOL    HW238490   0.433   1.535   5.053  1.6343 -1.2738  0.3597
 9011SOL     OW38491   1.268   3.547   3.517 -0.5815 -0.3912 -0.6236
 9011SOL    HW138492   1.223   3.549   3.432  3.5496  0.7081 -2.8015
 9011SOL    HW238493   1.236   3.476   3.572 -1.3116  0.2904 -0.1655
 9012SOL     OW38494   4.707   1.225  14.270  0.1971  0.0449 -0.1200
 9012SOL    HW138495   0.070   1.217  14.313 -0.4894  0.8996  1.4165
 9012SOL    HW238496   0.016   1.267  14.189 -1.2398  2.3714  0.5076
 9013SOL     OW38497   0.378   2.668  11.449 -0.0216 -0.2340 -0.3620
 9013SOL    HW138498   0.411   2.749  11.410  0.7319 -0.5068 -0.2953
 9013SOL    HW238499   0.289   2.688  11.480  0.8014  0.6234  1.4364
 9014SOL     OW38500   0.081   2.160   8.900  0.1288  0.0287 -0.3073
 9014SOL    HW138501   0.079   2.255   8.912 -0.6641  0.0606 -0.7351
 9014SOL    HW238502   4.710   2.141   8.902  0.1789 -0.3496 -1.4089
 9015SOL     OW38503   0.773   4.515   9.156 -0.3485  0.1242  0.0855
 9015SOL    HW138504   0.688   4.472   9.166  0.5858 -2.0003 -1.0930
 9015SOL    HW238505   0.753   4.594   9.107 -0.3475 -0.0624 -0.2128
 9016SOL     OW38506   4.668   3.457   0.819  0.3417 -0.1329 -0.7556
 9016SOL    HW138507   0.016   3.520   0.805  2.1297 -1.1683  3.7958
 9016SOL    HW238508   4.626   3.455   0.733  0.3203 -0.5727 -0.7372
 9017SOL     OW38509   0.113   4.570  12.454 -0.4982 -0.0458 -0.1446
 9017SOL    HW138510   0.202   4.547  12.479 -1.0941 -1.2611  0.8439
 9017SOL    HW238511   0.118   4.640  12.388  0.4483  0.6782  0.6996
 9018SOL     OW38512   3.990   3.732  17.653  0.0715  0.0568  0.0382
 9018SOL    HW138513   3.961   3.780   0.038 -0.0006  0.1449 -0.0436
 9018SOL    HW238514   3.909   3.700  17.614  1.6182 -1.1203 -2.1972
 9019SOL     OW38515   2.072   4.173   4.832 -0.8333 -0.1030 -0.3971
 9019SOL    HW138516   2.111   4.110   4.772  1.8723 -0.6884  1.9683
 9019SOL    HW238517   2.064   4.246   4.771 -0.5281  0.7470  0.5678
 9020SOL     OW38518   2.382   0.878   7.161  0.2327 -0.1014 -0.2699
 9020SOL    HW138519   2.378   0.847   7.252 -1.4399  0.6335 -0.0879
 9020SOL    HW238520   2.403   0.969   7.178 -1.7420  0.2738  0.2087
 9021SOL     OW38521   3.896   2.447   7.074 -0.0427 -0.2728  0.3553
 9021SOL    HW138522   3.931   2.375   7.022 -1.6378 -0.3030 -0.6796
 9021SOL    HW238523   3.975   2.500   7.076  0.1586 -0.5161 -1.6295
 9022SOL     OW38524   3.655   2.480  11.600  0.3703  0.3024 -0.2960
 9022SOL    HW138525   3.704   2.399  11.618  0.6631  0.3424 -0.8896
 9022SOL    HW238526   3.720   2.550  11.603 -0.8345  1.4544 -1.3100
 9023SOL     OW38527   1.892   2.435   6.710 -0.0943 -0.1146  0.2338
 9023SOL    HW138528   1.929   2.499   6.650  0.6688 -0.5471  0.2510
 9023SOL    HW238529   1.877   2.494   6.784  0.6708  1.0892 -0.5751
 9024SOL     OW38530   2.882   1.231   0.310 -0.7644  0.0783 -0.3545
 9024SOL    HW138531   2.899   1.326   0.307  1.7320 -0.3302  0.4573
 9024SOL    HW238532   2.925   1.193   0.234  0.9954 -0.8112  1.0758
 9025SOL     OW38533   0.768   2.381   3.445  0.3695  0.1929 -0.0997
 9025SOL    HW138534   0.831   2.353   3.511 -0.1856  2.7103  1.4480
 9025SOL    HW238535   0.706   2.437   3.491  1.2259  1.2163 -0.2217
 9026SOL     OW38536   1.973   1.886   5.261  0.3170 -0.2679  0.0089
 9026SOL    HW138537   1.991   1.812   5.203 -0.3938 -0.0874 -0.4501
 9026SOL    HW238538   1.993   1.857   5.350  0.5900 -0.9972 -0.2906
 9027SOL     OW38539   3.066   4.072  14.863 -0.2443  0.0492 -0.4187
 9027SOL    HW138540   2.985   4.064  14.913 -0.2105  1.4127 -0.1304
 9027SOL    HW238541   3.054   4.159  14.824 -2.0241  0.5546  1.2935
 9028SOL     OW38542   3.193   2.958  11.493 -0.1386 -0.0708  0.3142
 9028SOL    HW138543   3.199   2.864  11.508 -1.2158  0.2874  2.9408
 9028SOL    HW238544   3.207   2.999  11.578  0.5542  1.6079 -0.5851
 9029SOL     OW38545   3.228   3.421   9.789 -0.1242  0.4157  0.4161
 9029SOL    HW138546   3.215   3.433   9.883  0.4396  3.6540  0.0962
 9029SOL    HW238547   3.302   3.361   9.784 -0.8931 -0.4778 -0.2745
 9030SOL     OW38548   0.458   2.075   0.836 -0.4289  0.0267  0.4326
 9030SOL    HW138549   0.551   2.099   0.836 -0.6650  0.9378  1.1529
 9030SOL    HW238550   0.419   2.158   0.863 -1.6710  0.1646 -1.7712
 9031SOL     OW38551   1.076   0.590   6.928  0.0310 -0.3265  0.4026
 9031SOL    HW138552   1.150   0.539   6.962 -0.0064 -0.3777  0.4078
 9031SOL    HW238553   1.046   0.526   6.864  0.8904  1.0936 -1.4107
 9032SOL     OW38554   3.151   2.353  14.697 -0.1776 -0.2832 -0.4177
 9032SOL    HW138555   3.215   2.340  14.627  2.8607 -1.7785  2.6493
 9032SOL    HW238556   3.135   2.444  14.675  3.7723  0.5604  0.2421
 9033SOL     OW38557   1.262   1.317  12.679 -0.2078 -0.3666  0.5040
 9033SOL    HW138558   1.298   1.237  12.639  0.7841  0.1325  0.3828
 9033SOL    HW238559   1.171   1.322  12.651  0.4872 -0.7237 -1.8198
 9034SOL     OW38560   1.891   3.779  14.802  0.4749 -0.0933 -0.8382
 9034SOL    HW138561   1.866   3.769  14.710 -1.0060  1.8352 -0.6572
 9034SOL    HW238562   1.951   3.706  14.814  1.0254  0.4925 -0.0099
 9035SOL     OW38563   3.870   3.692   5.338  0.2108  0.5463  0.2926
 9035SOL    HW138564   3.850   3.775   5.381 -0.2275  1.0416 -0.8536
 9035SOL    HW238565   3.958   3.713   5.309  0.7272 -0.2673  1.2869
 9036SOL     OW38566   1.545   3.594  12.659 -0.5804 -0.0087  0.1278
 9036SOL    HW138567   1.574   3.635  12.741  0.6791 -0.6036 -0.0150
 9036SOL    HW238568   1.629   3.562  12.627 -0.0810 -0.7425  2.1754
 9037SOL     OW38569   0.956   2.533  13.937  0.4101  0.7447 -0.4136
 9037SOL    HW138570   0.862   2.535  13.955  0.4018  3.0638 -0.6915
 9037SOL    HW238571   0.998   2.496  14.014 -2.4701 -0.1321  0.7296
 9038SOL     OW38572   3.242   4.251   4.360  0.1505  0.3749 -0.4377
 9038SOL    HW138573   3.205   4.246   4.448 -1.2192  0.9533 -0.9796
 9038SOL    HW238574   3.328   4.287   4.382 -0.8456  2.6255 -0.1411
 9039SOL     OW38575   1.587   2.413   0.988 -0.4822  0.1309  0.6476
 9039SOL    HW138576   1.671   2.444   1.021  0.1061  1.0156 -1.6521
 9039SOL    HW238577   1.566   2.360   1.065 -0.6735  0.7262  1.0036
 9040SOL     OW38578   1.809   0.951   7.199 -0.7539 -0.7947 -0.3596
 9040SOL    HW138579   1.872   1.018   7.172 -0.4241 -1.7709 -2.0123
 9040SOL    HW238580   1.830   0.878   7.141  1.1159  0.6715 -1.5461
 9041SOL     OW38581   0.478   0.797   3.286 -0.4440  0.0418 -0.2588
 9041SOL    HW138582   0.483   0.890   3.267 -1.4912  0.0446 -0.5383
 9041SOL    HW238583   0.549   0.763   3.232  0.2420  1.5528 -0.3020
 9042SOL     OW38584   1.578   2.334   7.414 -0.0686  0.6386 -0.0439
 9042SOL    HW138585   1.658   2.302   7.455 -0.1132  3.1658  2.0172
 9042SOL    HW238586   1.577   2.279   7.336 -1.8578  2.2088 -1.1139
 9043SOL     OW38587   0.192   0.131   6.694  0.4479  0.0558 -0.4347
 9043SOL    HW138588   0.118   0.071   6.701  1.1267 -0.8248 -0.8221
 9043SOL    HW238589   0.230   0.117   6.607 -0.0443  1.7152 -0.9122
 9044SOL     OW38590   4.361   3.274   8.563  0.0343 -0.2283  0.2032
 9044SOL    HW138591   4.401   3.187   8.561 -0.0286 -0.2698  0.6693
 9044SOL    HW238592   4.367   3.297   8.471 -1.7651  0.6757  0.3196
 9045SOL     OW38593   0.136   0.959  10.352 -0.2805 -0.8491 -0.0733
 9045SOL    HW138594   0.107   0.919  10.435  0.2926 -2.8923 -0.8649
 9045SOL    HW238595   0.118   0.892  10.286  0.9505  0.3837 -1.6429
 9046SOL     OW38596   3.465   0.420  13.557 -0.2112 -0.4024 -0.4640
 9046SOL    HW138597   3.463   0.476  13.480  1.8316 -1.4788 -1.3073
 9046SOL    HW238598   3.553   0.425  13.594 -0.2224  2.1935 -0.7878
 9047SOL     OW38599   3.266   4.316   4.079 -0.1560  0.4857  0.5075
 9047SOL    HW138600   3.276   4.239   4.023 -1.4436  0.7123 -0.0143
 9047SOL    HW238601   3.281   4.291   4.171  0.1802 -0.7810  0.1149
 9048SOL     OW38602   0.079   4.441   3.664  0.8723 -0.1882 -0.0168
 9048SOL    HW138603   0.020   4.517   3.660  1.3342  0.0894 -1.5385
 9048SOL    HW238604   0.129   4.452   3.744 -0.2112  0.3686  0.5914
 9049SOL     OW38605   2.780   1.375   5.680  0.2154  0.3834  0.5642
 9049SOL    HW138606   2.865   1.418   5.691  0.1192 -0.3177  3.9550
 9049SOL    HW238607   2.812   1.285   5.684  0.9596  0.5914 -0.6198
 9050SOL     OW38608   2.259   0.421   6.545  0.6503 -0.0687 -0.5250
 9050SOL    HW138609   2.327   0.455   6.603  3.2330 -1.7030 -2.5977
 9050SOL    HW238610   2.318   0.386   6.478 -0.5333  1.0963 -2.1453
 9051SOL     OW38611   2.528   1.626   0.189  0.4562  0.2917  0.1720
 9051SOL    HW138612   2.519   1.644   0.283 -1.6098  0.0917  0.0090
 9051SOL    HW238613   2.441   1.603   0.157  0.0251  1.2111  0.6856
 9052SOL     OW38614   0.238   2.828   2.129  0.3066 -0.0252 -0.4002
 9052SOL    HW138615   0.221   2.747   2.080  1.1326 -0.4748  0.0429
 9052SOL    HW238616   0.298   2.793   2.195 -0.1636 -1.4163 -0.6983
 9053SOL     OW38617   0.530   0.645   8.706 -0.0841 -0.1834 -0.6673
 9053SOL    HW138618   0.546   0.723   8.760 -0.4166 -1.5294  1.4047
 9053SOL    HW238619   0.440   0.625   8.730 -0.2401  0.2050 -0.9324
 9054SOL     OW38620   2.029   0.964   4.961  0.7475  0.1821  0.1020
 9054SOL    HW138621   1.939   0.937   4.979  0.3967  0.8303 -0.7030
 9054SOL    HW238622   2.007   1.043   4.913 -0.4567 -0.4292 -0.3427
 9055SOL     OW38623   1.060   3.843   8.026 -0.4063  0.3768  0.0667
 9055SOL    HW138624   1.037   3.794   8.105 -0.8794  1.1712  0.4223
 9055SOL    HW238625   1.102   3.776   7.972  0.0955  0.2928  0.5754
 9056SOL     OW38626   2.287   2.693   1.444  0.1335  0.4294 -0.2724
 9056SOL    HW138627   2.316   2.682   1.354 -0.9930  1.1969 -0.7346
 9056SOL    HW238628   2.360   2.675   1.503  0.0102 -2.8753 -1.1153
 9057SOL     OW38629   3.699   2.838   0.193  0.5895 -0.1895  0.3501
 9057SOL    HW138630   3.763   2.876   0.253  0.5555  2.5640 -1.3717
 9057SOL    HW238631   3.736   2.751   0.176  2.6142  1.0998 -1.9696
 9058SOL     OW38632   1.079   4.078   8.208 -0.2747 -0.3345  0.1404
 9058SOL    HW138633   1.050   4.015   8.274 -0.1506  0.0749  0.5841
 9058SOL    HW238634   1.114   4.015   8.144 -0.5967 -0.2238 -0.1448
 9059SOL     OW38635   2.840   2.173  10.046  0.0225  0.1490 -0.2519
 9059SOL    HW138636   2.842   2.093  10.098 -2.8576  0.6805  0.7093
 9059SOL    HW238637   2.818   2.244  10.106  0.8391  0.7284 -0.6331
 9060SOL     OW38638   0.529   0.448   3.521 -0.0118  0.1250 -0.5274
 9060SOL    HW138639   0.615   0.424   3.486 -0.0952 -0.0469 -0.6173
 9060SOL    HW238640   0.537   0.538   3.553 -0.2258 -0.7587  2.0045
 9061SOL     OW38641   3.269   0.831   1.503  0.0828 -0.2048 -0.6801
 9061SOL    HW138642   3.222   0.772   1.561  2.2101 -0.4760  0.8074
 9061SOL    HW238643   3.359   0.815   1.533  0.6150 -1.6956 -3.1215
 9062SOL     OW38644   2.063   2.592   7.953 -0.1493  0.8942 -0.3215
 9062SOL    HW138645   2.010   2.512   7.953 -1.4440  1.7534 -0.7726
 9062SOL    HW238646   2.039   2.627   8.039 -2.4911 -0.2234 -0.5152
 9063SOL     OW38647   2.257   2.932   7.158 -0.1053 -0.0689 -0.9942
 9063SOL    HW138648   2.274   2.863   7.094  0.4942 -0.8946  0.0518
 9063SOL    HW238649   2.298   2.898   7.238  1.8203  1.5104 -1.2933
 9064SOL     OW38650   1.682   3.173   2.264  0.8107 -0.0948 -0.3836
 9064SOL    HW138651   1.642   3.255   2.234 -0.7250 -0.2687  1.1959
 9064SOL    HW238652   1.639   3.153   2.347  1.9301 -0.9292  0.0016
 9065SOL     OW38653   3.229   2.599  10.452 -0.0297 -0.0210 -0.2495
 9065SOL    HW138654   3.168   2.627  10.520 -1.8131  1.4418 -2.4364
 9065SOL    HW238655   3.287   2.674  10.446 -1.0977  0.9663  1.8022
 9066SOL     OW38656   2.145   4.281   4.162  0.0848  0.1273 -0.0376
 9066SOL    HW138657   2.173   4.205   4.111 -0.4573  0.2127 -0.4612
 9066SOL    HW238658   2.163   4.257   4.253  3.3546  0.4143 -0.5939
 9067SOL     OW38659   2.101   3.675   9.222 -0.5263  0.2318  0.3561
 9067SOL    HW138660   2.168   3.731   9.262 -0.4827  1.3661 -1.3170
 9067SOL    HW238661   2.018   3.718   9.243 -0.7638 -0.4200  0.7544
 9068SOL     OW38662   2.133   4.213   7.140  0.5550  0.5096 -0.0679
 9068SOL    HW138663   2.137   4.117   7.144  1.5807  0.5467 -0.0177
 9068SOL    HW238664   2.081   4.221   7.060 -1.0747 -1.6852  0.7834
 9069SOL     OW38665   0.391   2.907   6.624  0.1158  0.1828  0.1499
 9069SOL    HW138666   0.454   2.883   6.555 -2.1239  0.4279 -1.9800
 9069SOL    HW238667   0.411   2.854   6.701  2.2111  1.1662  0.3029
 9070SOL     OW38668   3.159   1.404   8.089  0.2408 -0.2358  0.2970
 9070SOL    HW138669   3.101   1.349   8.142 -3.2328  1.4139 -1.8477
 9070SOL    HW238670   3.197   1.468   8.150  0.5372 -0.5828  0.4771
 9071SOL     OW38671   2.920   3.993   4.986  0.0203  0.6568 -0.2353
 9071SOL    HW138672   2.913   4.077   4.939  2.3766 -0.4007 -2.5129
 9071SOL    HW238673   2.959   3.935   4.920  1.1445  0.2496  0.7739
 9072SOL     OW38674   0.192   2.457   7.635 -0.3389  0.7822 -0.0351
 9072SOL    HW138675   0.220   2.395   7.567 -1.0380  1.0516 -0.5640
 9072SOL    HW238676   0.098   2.444   7.623 -0.1080  1.5426 -2.6554
 9073SOL     OW38677   0.039   1.407   6.757  0.8042 -0.0512  0.2083
 9073SOL    HW138678   0.125   1.407   6.715  0.5892  2.8738 -0.2071
 9073SOL    HW238679   0.028   1.502   6.764  0.8769 -0.1582  1.7000
 9074SOL     OW38680   1.228   0.499  16.880  0.3422  0.5586 -0.2050
 9074SOL    HW138681   1.164   0.547  16.829 -0.5332  0.4496  0.7836
 9074SOL    HW238682   1.266   0.565  16.938  1.5783  0.1007 -0.4750
 9075SOL     OW38683   1.181   2.360   2.002 -0.5241 -0.4353  0.0642
 9075SOL    HW138684   1.136   2.416   2.064  1.1129  0.7052  0.2069
 9075SOL    HW238685   1.109   2.304   1.972 -2.0569  0.2848  2.4398
 9076SOL     OW38686   3.718   0.206   5.372  0.3508  0.0119 -0.4017
 9076SOL    HW138687   3.729   0.218   5.278 -1.3013  0.6983 -0.4920
 9076SOL    HW238688   3.803   0.164   5.390 -0.9391 -1.6718  1.7277
 9077SOL     OW38689   2.097   1.679   1.636 -0.2913  0.1084  0.0629
 9077SOL    HW138690   2.006   1.666   1.661 -0.2874  1.3786  0.7135
 9077SOL    HW238691   2.084   1.677   1.541 -0.9441  0.1261  0.1512
 9078SOL     OW38692   3.742   4.263   3.917  0.1747 -0.6129 -0.1875
 9078SOL    HW138693   3.679   4.212   3.866 -1.6073 -0.6576  2.0698
 9078SOL    HW238694   3.794   4.292   3.842  0.4645 -0.5457  0.0392
 9079SOL     OW38695   4.089   1.012   7.571 -0.1101 -0.6235 -0.4759
 9079SOL    HW138696   4.161   0.967   7.526 -0.0055  1.0109 -1.9201
 9079SOL    HW238697   4.068   1.085   7.513 -2.7256 -2.2347 -1.5393
 9080SOL     OW38698   2.479   3.698   7.418  0.3958 -0.0635  0.4752
 9080SOL    HW138699   2.401   3.663   7.377 -0.6988  1.3652  1.3244
 9080SOL    HW238700   2.509   3.631   7.480 -1.7798 -1.1222  0.3504
 9081SOL     OW38701   2.862   2.713   7.052 -0.0931  0.6204 -1.2374
 9081SOL    HW138702   2.797   2.772   7.014  1.3647  2.3111 -1.0911
 9081SOL    HW238703   2.934   2.728   6.991  0.7122  1.0367 -0.1899
 9082SOL     OW38704   1.175   0.190   3.458 -0.1648  0.2955 -0.1454
 9082SOL    HW138705   1.132   0.164   3.376 -0.4479  0.9495 -0.2021
 9082SOL    HW238706   1.246   0.127   3.468  0.2960  0.7569 -0.4905
 9083SOL     OW38707   1.666   4.248  17.139  0.3589 -0.0892  0.1127
 9083SOL    HW138708   1.684   4.327  17.089 -0.8281 -0.0916 -0.3229
 9083SOL    HW238709   1.739   4.249  17.201  0.9163 -0.1461 -0.5414
 9084SOL     OW38710   1.300   0.994   2.292  0.6533 -0.2879 -0.9816
 9084SOL    HW138711   1.341   1.079   2.307 -0.9709  0.3912 -0.3965
 9084SOL    HW238712   1.369   0.932   2.316  1.8107  1.1851 -0.4991
 9085SOL     OW38713   4.238   3.367   2.371 -0.1462 -0.5178 -0.1344
 9085SOL    HW138714   4.184   3.385   2.448  2.4742 -1.2843  1.8705
 9085SOL    HW238715   4.224   3.455   2.337  0.6431 -0.5639 -0.5667
 9086SOL     OW38716   1.290   1.509   1.839 -0.6043 -0.0107 -0.9820
 9086SOL    HW138717   1.215   1.553   1.878 -0.5414 -1.5545  0.8935
 9086SOL    HW238718   1.312   1.570   1.769 -0.3891  1.4172  0.3397
 9087SOL     OW38719   0.404   3.767   9.788  0.4319  0.3593 -0.0804
 9087SOL    HW138720   0.430   3.742   9.877  1.8806  0.1424 -0.5485
 9087SOL    HW238721   0.310   3.762   9.803  0.3969 -1.7574 -0.9546
 9088SOL     OW38722   2.332   4.694   0.043  0.0215  0.7931 -0.2576
 9088SOL    HW138723   2.279   4.693  17.655 -0.7187  1.6590  0.2179
 9088SOL    HW238724   2.415   4.717   0.001 -0.7002  1.6992 -1.2249
 9089SOL     OW38725   2.806   1.400   7.481  0.1272  0.3106 -0.5606
 9089SOL    HW138726   2.891   1.442   7.470  1.0121 -0.7698  2.4066
 9089SOL    HW238727   2.745   1.472   7.460 -0.0706  0.6182  1.0651
 9090SOL     OW38728   2.031   2.337   4.972 -0.3638  0.0938 -0.3912
 9090SOL    HW138729   1.936   2.347   4.966 -0.4042  0.8585  1.6823
 9090SOL    HW238730   2.042   2.266   5.035  0.9334 -0.5797 -1.3724
 9091SOL     OW38731   3.842   1.145  13.332  0.0791  0.0434 -0.5982
 9091SOL    HW138732   3.850   1.222  13.388  0.4571 -1.3245  1.2447
 9091SOL    HW238733   3.932   1.136  13.301  0.5934  0.4190  0.7929
 9092SOL     OW38734   4.499   3.417   2.527 -0.2182 -0.3242  0.9030
 9092SOL    HW138735   4.446   3.451   2.599  0.5203  0.5900  1.0124
 9092SOL    HW238736   4.572   3.378   2.574 -0.1279 -1.6513 -0.3208
 9093SOL     OW38737   1.882   1.305   6.693  0.0259 -0.1786  0.3189
 9093SOL    HW138738   1.920   1.381   6.737 -0.6900  0.7423 -0.6705
 9093SOL    HW238739   1.792   1.318   6.724  0.0904  1.2675 -0.1072
 9094SOL     OW38740   3.045   4.355   6.475  0.3702  0.1968  0.0510
 9094SOL    HW138741   3.113   4.327   6.538 -0.5929 -1.1334  0.4945
 9094SOL    HW238742   3.035   4.277   6.421  0.8109 -0.9724  1.6536
 9095SOL     OW38743   0.253   2.418   7.058 -0.2402 -0.6580  0.3759
 9095SOL    HW138744   0.180   2.417   7.120  0.1813  1.3751  0.9030
 9095SOL    HW238745   0.219   2.464   6.981  1.7090  0.3240  0.1139
 9096SOL     OW38746   2.160   4.344   6.497  0.5106  0.5237 -0.2917
 9096SOL    HW138747   2.116   4.291   6.563 -1.0144  0.8944 -1.0208
 9096SOL    HW238748   2.208   4.407   6.551  1.4172 -0.6589  0.2927
 9097SOL     OW38749   2.731   2.256   3.135 -0.5129 -0.4131  0.8779
 9097SOL    HW138750   2.734   2.344   3.172  1.2332 -1.2102  2.6443
 9097SOL    HW238751   2.677   2.262   3.056  0.0965 -0.1402  0.4856
 9098SOL     OW38752   0.711   1.205   8.104  0.7235 -0.3814  0.4382
 9098SOL    HW138753   0.618   1.221   8.087  1.1642  0.5548 -1.1432
 9098SOL    HW238754   0.720   1.236   8.194  1.9341  0.3462  0.0682
 9099SOL     OW38755   3.928   4.247   1.880  0.3309  0.2280 -0.1738
 9099SOL    HW138756   3.927   4.341   1.896  0.9672  0.0894  0.6922
 9099SOL    HW238757   4.022   4.229   1.878 -0.0677 -1.8954  0.4153
 9100SOL     OW38758   4.094   2.536   7.852 -0.3519  0.2601  0.3686
 9100SOL    HW138759   4.165   2.516   7.914 -0.1361  0.7127  0.2688
 9100SOL    HW238760   4.055   2.451   7.831  0.4909 -0.1585  0.4730
 9101SOL     OW38761   1.363   3.617   5.549 -0.2680  0.0713  0.2589
 9101SOL    HW138762   1.344   3.695   5.497  1.9179  1.4249  1.5277
 9101SOL    HW238763   1.300   3.623   5.621  0.3586 -0.3020  0.8303
 9102SOL     OW38764   1.926   3.089   3.174 -0.4508  0.0026 -0.3371
 9102SOL    HW138765   1.841   3.133   3.182 -0.3268  0.0186  0.8502
 9102SOL    HW238766   1.993   3.149   3.205  2.7242 -2.8453 -1.6155
 9103SOL     OW38767   0.152   3.684  17.306  0.7946 -0.1147 -0.0540
 9103SOL    HW138768   0.110   3.616  17.254  2.0891 -0.2522 -0.9292
 9103SOL    HW238769   0.233   3.698  17.256  1.6376 -3.1981  0.4518
 9104SOL     OW38770   2.059   1.352  15.907  0.5981  0.6917 -0.1564
 9104SOL    HW138771   2.046   1.399  15.824 -1.2405  1.4499  0.5700
 9104SOL    HW238772   1.973   1.343  15.948  0.0266 -0.2172 -1.5426
 9105SOL     OW38773   2.675   1.092   5.483  0.0855  0.0900 -0.0487
 9105SOL    HW138774   2.625   1.010   5.483 -0.6927  0.5751  1.0258
 9105SOL    HW238775   2.731   1.093   5.560 -0.7703  1.9126  0.5480
 9106SOL     OW38776   1.716   3.303   5.604  0.0965  0.9258 -0.1675
 9106SOL    HW138777   1.653   3.341   5.665  1.1960  2.1572  0.1960
 9106SOL    HW238778   1.663   3.267   5.533  0.1396 -0.1906  0.3712
 9107SOL     OW38779   3.689   1.232  11.579 -0.5178 -0.3046 -0.2549
 9107SOL    HW138780   3.712   1.321  11.603 -1.1346 -0.1242 -0.3299
 9107SOL    HW238781   3.701   1.191  11.665  3.3364  0.9060 -0.2408
 9108SOL     OW38782   1.572   1.331  13.996  0.3469  0.2833 -0.0617
 9108SOL    HW138783   1.624   1.316  13.917 -1.0860  0.6789 -1.0910
 9108SOL    HW238784   1.548   1.423  13.987  1.5670  0.5089 -0.9651
 9109SOL     OW38785   3.351   0.464  12.958 -0.0243 -0.6720 -0.3454
 9109SOL    HW138786   3.395   0.406  12.896 -1.5964 -3.0477  0.7164
 9109SOL    HW238787   3.277   0.405  12.975  2.3243 -3.8580 -1.1086
 9110SOL     OW38788   0.805   3.669   9.861  0.2845  0.4937 -0.1106
 9110SOL    HW138789   0.810   3.579   9.892  0.2900  1.7270  3.3913
 9110SOL    HW238790   0.811   3.718   9.943  0.9887  0.6461 -0.2541
 9111SOL     OW38791   3.214   1.407   5.247  0.3828 -0.0985  0.0577
 9111SOL    HW138792   3.198   1.411   5.153 -2.2249 -1.1545  0.4476
 9111SOL    HW238793   3.147   1.343   5.274  1.7887 -0.4868  2.5983
 9112SOL     OW38794   3.466   2.443  13.410 -0.1377  0.0505  0.1108
 9112SOL    HW138795   3.373   2.461  13.399  0.4585  2.6481 -0.7857
 9112SOL    HW238796   3.460   2.360  13.458  0.3833  1.3362  2.3884
 9113SOL     OW38797   0.233   4.079   1.072 -0.6840 -0.1055 -0.6881
 9113SOL    HW138798   0.186   3.995   1.074  0.8922 -0.8949  2.4994
 9113SOL    HW238799   0.317   4.055   1.033 -0.9444  0.8349 -1.8321
 9114SOL     OW38800   2.582   0.948   4.409  0.1520  0.1253  0.1068
 9114SOL    HW138801   2.498   0.937   4.365 -0.4670 -1.7744  1.7148
 9114SOL    HW238802   2.573   0.961   4.504  0.1851 -1.8992  0.4013
 9115SOL     OW38803   3.807   0.698   8.483  0.5835 -0.0437  0.6969
 9115SOL    HW138804   3.848   0.704   8.570  2.7198  2.2451 -0.4640
 9115SOL    HW238805   3.794   0.603   8.481  0.6955 -0.0248 -0.5651
 9116SOL     OW38806   0.135   3.785  14.248 -0.0271  0.3226 -0.4690
 9116SOL    HW138807   0.074   3.857  14.230 -1.2150 -0.5802 -0.1126
 9116SOL    HW238808   0.080   3.710  14.225 -0.6463  1.0834 -1.4254
 9117SOL     OW38809   0.984   2.237   4.328 -0.0550  0.1524 -0.5014
 9117SOL    HW138810   0.982   2.144   4.352  3.5176  0.6199  1.7396
 9117SOL    HW238811   0.895   2.265   4.348  0.8364  2.1013  0.7591
 9118SOL     OW38812   4.270   2.155   9.782  0.6149 -0.1733 -0.3125
 9118SOL    HW138813   4.344   2.096   9.772  0.9306  0.0395  0.8241
 9118SOL    HW238814   4.315   2.227   9.826  0.0810  1.8540 -3.0058
 9119SOL     OW38815   3.333   3.385  13.320 -0.7165 -0.2730 -0.6215
 9119SOL    HW138816   3.396   3.452  13.349  2.3922 -2.6620 -1.8039
 9119SOL    HW238817   3.257   3.421  13.364 -0.5483 -0.5384 -0.1178
 9120SOL     OW38818   3.928   1.380  11.460  0.0381 -0.2128 -0.1911
 9120SOL    HW138819   3.834   1.387  11.471  0.2570  1.3329  0.7442
 9120SOL    HW238820   3.943   1.376  11.366  1.1080  0.2393 -0.0512
 9121SOL     OW38821   3.392   4.288   3.212 -0.2554 -0.1866 -0.4860
 9121SOL    HW138822   3.365   4.337   3.290  3.0970 -0.6871  1.0107
 9121SOL    HW238823   3.320   4.225   3.200 -0.2964 -0.0984 -0.6921
 9122SOL     OW38824   2.977   4.381  10.250 -0.0878  0.3221  0.2858
 9122SOL    HW138825   2.886   4.351  10.253  0.5004 -1.5826 -0.5671
 9122SOL    HW238826   2.966   4.476  10.242 -1.4932  0.0016 -1.5818
 9123SOL     OW38827   0.558   4.547   3.770  0.0230  0.2955  0.3928
 9123SOL    HW138828   0.648   4.579   3.760 -0.3875  1.3312  0.0327
 9123SOL    HW238829   0.514   4.627   3.743 -0.2614 -0.6547 -1.9598
 9124SOL     OW38830   1.482   1.103   1.053 -0.1079  0.1776 -0.2118
 9124SOL    HW138831   1.549   1.039   1.030 -1.8819 -2.5584  2.2714
 9124SOL    HW238832   1.412   1.043   1.080 -1.3535  1.9705  0.5431
 9125SOL     OW38833   2.430   0.794   6.706  0.0468 -0.3095  0.2246
 9125SOL    HW138834   2.359   0.789   6.769 -1.6807  0.3493 -1.6831
 9125SOL    HW238835   2.484   0.859   6.751  1.5229  0.4398 -2.5985
 9126SOL     OW38836   1.454   1.037   6.439 -0.0585 -0.1085 -0.1325
 9126SOL    HW138837   1.504   1.102   6.489 -2.1636  0.9205  0.6288
 9126SOL    HW238838   1.416   0.990   6.514  1.7941  0.8186  1.4041
 9127SOL     OW38839   0.986   0.800   9.340  0.0019 -0.2834 -0.5301
 9127SOL    HW138840   1.040   0.849   9.402 -1.6107  0.1252  0.5492
 9127SOL    HW238841   0.902   0.845   9.337 -0.8014 -1.7682 -0.1379
 9128SOL     OW38842   4.242   1.448   3.292 -0.0195 -0.4747  0.1752
 9128SOL    HW138843   4.312   1.449   3.226 -0.9361  0.6470 -0.7779
 9128SOL    HW238844   4.286   1.391   3.355  0.0258 -0.2876  0.3084
 9129SOL     OW38845   2.557   1.399  10.988 -0.2809 -0.3280  0.2617
 9129SOL    HW138846   2.469   1.401  11.027 -0.1000 -0.2669  0.6665
 9129SOL    HW238847   2.608   1.389  11.068  1.7070 -0.3358 -1.0032
 9130SOL     OW38848   0.280   0.606   8.798  0.3962  0.0596  0.5519
 9130SOL    HW138849   0.213   0.601   8.729  1.0005  1.4160 -0.1437
 9130SOL    HW238850   0.225   0.645   8.866 -1.0640 -2.0735  0.6084
 9131SOL     OW38851   4.697   2.203   0.385 -0.3015  0.4811  0.4109
 9131SOL    HW138852   0.054   2.181   0.433  0.7761  0.8802 -1.2083
 9131SOL    HW238853   4.648   2.128   0.419 -0.3631  0.1102 -0.4793
 9132SOL     OW38854   2.383   4.597  12.805  0.4956  0.2456  0.3708
 9132SOL    HW138855   2.354   4.656  12.875 -0.0206 -0.4455  0.7402
 9132SOL    HW238856   2.474   4.571  12.818  0.7559  1.0425  0.1404
 9133SOL     OW38857   1.522   3.241  10.277 -0.1066  0.0314  0.2078
 9133SOL    HW138858   1.549   3.327  10.245  0.3072 -0.9205 -1.9931
 9133SOL    HW238859   1.510   3.189  10.197 -1.8771 -0.4549  0.7938
 9134SOL     OW38860   4.510   3.897  13.350 -0.3208  0.1788 -0.0254
 9134SOL    HW138861   4.490   3.805  13.369 -0.1939  0.2616  0.5095
 9134SOL    HW238862   4.544   3.924  13.436  1.1248 -0.3643 -0.4272
 9135SOL     OW38863   4.568   4.704   5.471  0.4214  0.8104 -0.5315
 9135SOL    HW138864   4.606   0.024   5.547  2.3993 -0.1123 -1.0094
 9135SOL    HW238865   4.514   0.054   5.440 -0.2597  1.1469  1.4719
 9136SOL     OW38866   3.530   1.180   0.333  0.1826  0.1635 -0.1909
 9136SOL    HW138867   3.622   1.207   0.333  1.1763 -3.1019 -1.2037
 9136SOL    HW238868   3.519   1.141   0.246 -1.1231  2.2038 -0.9456
 9137SOL     OW38869   3.798   1.534  12.626 -0.8801 -0.3090  0.1059
 9137SOL    HW138870   3.810   1.512  12.719  0.1690 -0.0695  0.0184
 9137SOL    HW238871   3.748   1.458  12.596 -1.0124 -0.5494  0.9234
 9138SOL     OW38872   0.803   1.841   3.455 -0.0486 -0.2730  0.2271
 9138SOL    HW138873   0.882   1.893   3.451 -1.1714  1.4629  0.6664
 9138SOL    HW238874   0.823   1.769   3.395  2.1989  1.5085 -1.1478
 9139SOL     OW38875   3.006   2.412  10.796  0.1790 -0.2243 -0.5848
 9139SOL    HW138876   3.014   2.500  10.760 -2.0009  1.0292  1.9851
 9139SOL    HW238877   3.035   2.441  10.882 -1.1496 -1.8377  0.4113
 9140SOL     OW38878   2.560   0.977   3.244  0.0057  0.0345  0.2523
 9140SOL    HW138879   2.587   0.923   3.319  0.0546  0.6159  0.6595
 9140SOL    HW238880   2.616   0.936   3.178  1.0331  0.2101  1.0078
 9141SOL     OW38881   3.946   1.142  16.960 -0.2948 -0.5173 -0.1992
 9141SOL    HW138882   4.025   1.121  17.011 -1.6388 -1.1104  1.6471
 9141SOL    HW238883   3.903   1.203  17.020  1.0984  0.1028  0.1758
 9142SOL     OW38884   0.851   0.867   5.747  0.0787 -0.2075  0.6571
 9142SOL    HW138885   0.941   0.894   5.729 -0.0954 -1.7495 -2.3782
 9142SOL    HW238886   0.827   0.821   5.667  0.8765 -1.8578  1.3678
 9143SOL     OW38887   1.145   3.945   9.083 -0.0046 -0.4267  0.5493
 9143SOL    HW138888   1.082   3.889   9.129 -1.1946  1.0501  0.7131
 9143SOL    HW238889   1.093   3.998   9.023  2.9631  1.6170 -0.2006
 9144SOL     OW38890   2.777   0.761  10.584 -0.0825  0.1929 -0.5789
 9144SOL    HW138891   2.712   0.691  10.584 -0.4894  0.5742 -0.3581
 9144SOL    HW238892   2.839   0.724  10.520 -0.6632  0.2331 -1.1651
 9145SOL     OW38893   3.924   3.351   4.836  0.0749  0.1982 -0.3833
 9145SOL    HW138894   3.922   3.255   4.834 -0.2600  0.2221 -0.9845
 9145SOL    HW238895   3.989   3.366   4.768  1.2818  1.3246  1.0255
 9146SOL     OW38896   1.577   0.584   3.731  0.2105 -0.2719  0.0548
 9146SOL    HW138897   1.644   0.546   3.675 -0.1858  1.4772 -1.6278
 9146SOL    HW238898   1.624   0.607   3.811 -0.1634  1.0099 -0.0914
 9147SOL     OW38899   4.256   3.616  16.146 -0.1908 -0.2792  0.1139
 9147SOL    HW138900   4.256   3.656  16.233  0.9347  1.3196 -0.6048
 9147SOL    HW238901   4.255   3.696  16.093 -1.2085 -1.3746 -1.4996
 9148SOL     OW38902   3.475   0.709  13.317  0.4048  0.1328  0.1289
 9148SOL    HW138903   3.535   0.765  13.266 -0.9248  1.3410 -0.1115
 9148SOL    HW238904   3.427   0.767  13.376 -2.1114 -2.3853  0.5442
 9149SOL     OW38905   0.613   1.767   0.733 -0.1173 -0.0805 -0.2272
 9149SOL    HW138906   0.660   1.689   0.762 -1.0419 -0.2096  0.9148
 9149SOL    HW238907   0.685   1.827   0.713  0.9736 -1.3960 -0.2497
 9150SOL     OW38908   2.745   1.922   3.154  0.2631  0.2363  0.2394
 9150SOL    HW138909   2.784   1.912   3.067  1.3629  1.0910  0.6482
 9150SOL    HW238910   2.674   1.985   3.150  0.3795  0.3462 -0.0649
 9151SOL     OW38911   0.213   3.174   9.682 -0.0958  0.0867 -0.4535
 9151SOL    HW138912   0.286   3.157   9.623  1.8052  2.9417  1.0447
 9151SOL    HW238913   0.247   3.222   9.758  0.1240 -0.7224 -0.0463
 9152SOL     OW38914   2.723   0.781   3.132  0.3926 -0.2027 -0.0643
 9152SOL    HW138915   2.732   0.687   3.117  0.6361 -0.0499 -0.8566
 9152SOL    HW238916   2.805   0.815   3.094  0.9770 -1.4638  0.0755
 9153SOL     OW38917   4.126   4.282   2.507  0.1883  0.1766 -0.4161
 9153SOL    HW138918   4.132   4.342   2.432 -0.6699 -0.5977 -1.1063
 9153SOL    HW238919   4.053   4.226   2.479 -0.6214  0.4055  1.2656
 9154SOL     OW38920   0.787   0.620   3.305 -0.3822 -0.0108 -0.3658
 9154SOL    HW138921   0.732   0.587   3.234 -1.3541  0.5637  0.1241
 9154SOL    HW238922   0.865   0.565   3.294 -0.3895 -0.0391 -0.2718
 9155SOL     OW38923   1.723   0.363   3.269 -0.3320  0.3472  0.1983
 9155SOL    HW138924   1.794   0.427   3.274  0.0517  0.1371 -2.4487
 9155SOL    HW238925   1.654   0.425   3.244  0.0994  0.0434 -1.7464
 9156SOL     OW38926   1.707   0.096  11.926  0.2582 -0.4326 -0.4019
 9156SOL    HW138927   1.702   0.111  12.021  0.3281  2.2658 -0.8124
 9156SOL    HW238928   1.634   0.151  11.898 -0.2591 -0.6151  0.5646
 9157SOL     OW38929   3.964   0.464   2.251 -0.4835 -0.0423 -0.3826
 9157SOL    HW138930   3.884   0.421   2.282 -1.7196  1.7399 -1.0701
 9157SOL    HW238931   4.029   0.401   2.282 -1.2426 -0.5171  0.2817
 9158SOL     OW38932   3.551   2.574  10.680  0.1830 -0.7074  0.4616
 9158SOL    HW138933   3.595   2.566  10.595 -1.3518 -0.4948 -0.3634
 9158SOL    HW238934   3.621   2.629  10.714  1.3930 -1.7203 -0.3916
 9159SOL     OW38935   3.148   1.407   8.795  0.2577 -0.2554  0.1107
 9159SOL    HW138936   3.143   1.384   8.888  0.0239 -1.6501 -0.2525
 9159SOL    HW238937   3.239   1.382   8.778  0.3793 -0.2156  0.7119
 9160SOL     OW38938   3.352   4.619   4.309 -0.0580 -0.2180 -0.0328
 9160SOL    HW138939   3.362   4.710   4.281 -0.5332  0.2534  1.3201
 9160SOL    HW238940   3.341   4.623   4.404 -2.0872 -0.5541 -0.2638
 9161SOL     OW38941   2.239   2.997   6.454  0.5409  0.0300  0.1013
 9161SOL    HW138942   2.214   2.953   6.373 -0.2842 -1.2193  1.0253
 9161SOL    HW238943   2.178   3.071   6.453 -2.8028 -2.6828  2.7430
 9162SOL     OW38944   0.882   3.110  15.596  0.1246 -0.0444  0.0228
 9162SOL    HW138945   0.971   3.133  15.568 -0.3159  1.5842  0.0084
 9162SOL    HW238946   0.902   3.017  15.582  0.0677  0.3430 -2.5272
 9163SOL     OW38947   0.485   2.123   2.651 -0.7995 -0.0796 -0.4940
 9163SOL    HW138948   0.563   2.170   2.621 -2.2834  2.0000 -1.1047
 9163SOL    HW238949   0.425   2.144   2.580 -0.1322  1.6213 -0.5588
 9164SOL     OW38950   4.715   3.801   7.171 -0.4980 -0.0794  0.1502
 9164SOL    HW138951   4.663   3.791   7.251  0.7411  0.8244  1.0671
 9164SOL    HW238952   0.060   3.860   7.205  0.9183  0.3663 -3.4234
 9165SOL     OW38953   0.695   1.846   7.306  0.5673  0.3056  0.7736
 9165SOL    HW138954   0.656   1.917   7.255 -0.7196 -0.8332  0.1759
 9165SOL    HW238955   0.676   1.766   7.257  0.0918  0.0145  1.4317
 9166SOL     OW38956   2.308   3.485   9.940 -0.5356 -0.3122 -0.0280
 9166SOL    HW138957   2.222   3.450   9.917 -0.2274 -0.1486 -1.4423
 9166SOL    HW238958   2.361   3.444   9.871  0.6751 -0.9171  1.2445
 9167SOL     OW38959   3.254   3.869  11.554 -0.3775 -0.0715 -0.2355
 9167SOL    HW138960   3.302   3.914  11.623 -0.1335 -1.5323  0.5486
 9167SOL    HW238961   3.200   3.939  11.517 -1.1539 -1.3965 -1.6566
 9168SOL     OW38962   2.142   2.004   2.124 -0.0563  0.7006 -0.0351
 9168SOL    HW138963   2.078   1.985   2.056  1.9133 -0.7953 -1.4787
 9168SOL    HW238964   2.101   2.063   2.188  1.9731 -2.5305  4.2586
 9169SOL     OW38965   3.350   1.845   8.212 -0.0991  0.1843  0.1824
 9169SOL    HW138966   3.416   1.871   8.148 -1.0092 -0.7014 -1.0976
 9169SOL    HW238967   3.286   1.809   8.151 -0.7325  2.3750 -0.4572
 9170SOL     OW38968   0.027   0.716   2.743  0.5705  0.6680  0.4122
 9170SOL    HW138969   4.674   0.706   2.800  1.2602  1.2453  1.4358
 9170SOL    HW238970   4.705   0.778   2.685 -1.3082  0.7889  1.9802
 9171SOL     OW38971   3.589   1.265   2.421 -0.3118  0.4972 -0.7576
 9171SOL    HW138972   3.496   1.281   2.436 -0.4659 -2.5136  1.5313
 9171SOL    HW238973   3.601   1.170   2.412 -0.1088  0.5420 -0.9891
 9172SOL     OW38974   2.550   1.654  12.903  0.2278 -0.1544  0.1948
 9172SOL    HW138975   2.610   1.592  12.861  0.5022 -0.2079  0.6648
 9172SOL    HW238976   2.462   1.622  12.884  0.6427 -0.6417 -0.8644
 9173SOL     OW38977   2.099   0.851   3.919  1.0357 -0.2667 -0.3271
 9173SOL    HW138978   2.139   0.877   4.002 -0.7916 -1.3270  0.8858
 9173SOL    HW238979   2.006   0.861   3.940  1.0357  0.9980 -0.9557
 9174SOL     OW38980   2.024   4.382  15.775 -0.1384  0.4581  0.5826
 9174SOL    HW138981   2.111   4.377  15.735 -0.2688  2.1040  0.1064
 9174SOL    HW238982   1.988   4.299  15.743 -0.0305 -0.1602  2.0670
 9175SOL     OW38983   0.919   3.096   6.121 -0.3528 -0.4939  0.4340
 9175SOL    HW138984   0.881   3.155   6.056  2.3553  0.1083 -0.6241
 9175SOL    HW238985   0.846   3.092   6.183  0.8386  1.4000  1.9794
 9176SOL     OW38986   0.583   4.461   6.653  0.3167 -0.2213  0.2722
 9176SOL    HW138987   0.520   4.531   6.639  0.4270 -0.0477  0.6445
 9176SOL    HW238988   0.528   4.402   6.704 -1.4716  0.3096 -1.0369
 9177SOL     OW38989   1.368   3.699   8.841  0.0051 -0.0097 -0.3020
 9177SOL    HW138990   1.376   3.760   8.767 -1.1360  1.1284  0.5159
 9177SOL    HW238991   1.286   3.723   8.884 -0.7993 -2.6971 -0.3856
 9178SOL     OW38992   1.226   1.228   1.369  0.7596 -0.2142  0.0314
 9178SOL    HW138993   1.140   1.194   1.394  0.8664 -0.4414  0.0941
 9178SOL    HW238994   1.222   1.318   1.399 -0.4428 -0.5628  0.8888
 9179SOL     OW38995   4.531   2.070   8.691  0.2850  0.3163 -0.7984
 9179SOL    HW138996   4.558   1.985   8.727 -0.7439 -0.2410 -1.3459
 9179SOL    HW238997   4.438   2.055   8.681  0.4139 -1.5833  0.8422
 9180SOL     OW38998   0.438   2.585  16.413 -0.2339  0.7587 -0.2030
 9180SOL    HW138999   0.459   2.493  16.426 -0.3732  0.7849  0.2078
 9180SOL    HW239000   0.381   2.607  16.487 -0.9746  0.4695 -0.6862
 9181SOL     OW39001   3.593   2.210   8.772  0.6127  0.8521 -0.5767
 9181SOL    HW139002   3.635   2.160   8.702 -0.6993 -0.8191 -0.1545
 9181SOL    HW239003   3.508   2.167   8.765  2.0631 -2.2254  0.5645
 9182SOL     OW39004   0.488   1.396   5.375 -0.2272 -0.3757 -0.2784
 9182SOL    HW139005   0.467   1.438   5.292  1.2036  1.9670  0.5433
 9182SOL    HW239006   0.471   1.477   5.423  0.7415  0.8245 -1.9547
 9183SOL     OW39007   0.329   3.348  10.946 -0.9240 -0.1723  0.0554
 9183SOL    HW139008   0.288   3.283  11.003 -1.9905 -0.0462 -0.5760
 9183SOL    HW239009   0.355   3.288  10.876  1.4876  2.1543 -1.0602
 9184SOL     OW39010   2.059   3.546   7.435  0.0340  0.9244  0.0724
 9184SOL    HW139011   2.014   3.481   7.489 -0.0307 -0.3545 -1.4970
 9184SOL    HW239012   2.102   3.597   7.503 -0.8054 -0.6994  1.8254
 9185SOL     OW39013   1.598   1.863   3.910 -0.1814  0.3531 -0.1427
 9185SOL    HW139014   1.604   1.946   3.863 -3.8997  1.2452  1.0188
 9185SOL    HW239015   1.656   1.800   3.867 -1.5835 -1.2066  0.2697
 9186SOL     OW39016   2.029   0.160   3.124  0.2205  0.3005 -0.0194
 9186SOL    HW139017   1.986   0.169   3.039 -0.0472  0.5920  0.1495
 9186SOL    HW239018   2.090   0.089   3.102  2.6564  1.7688  2.0935
 9187SOL     OW39019   0.989   3.555  16.666 -0.3458  0.4444 -0.2647
 9187SOL    HW139020   0.991   3.641  16.623 -0.6022  0.4862 -0.1907
 9187SOL    HW239021   0.953   3.497  16.598 -0.6356 -1.6086  1.6593
 9188SOL     OW39022   0.863   4.619   3.751  0.1242 -0.2148 -0.2276
 9188SOL    HW139023   0.909   4.552   3.701  0.6224  0.6869 -0.9620
 9188SOL    HW239024   0.874   4.696   3.696 -1.5548  0.5739  0.5227
 9189SOL     OW39025   0.724   4.581   6.366  0.0899 -0.4112  0.2281
 9189SOL    HW139026   0.817   4.589   6.345 -0.2665  0.9015 -0.8100
 9189SOL    HW239027   0.722   4.495   6.409  1.5028  0.8177  2.7629
 9190SOL     OW39028   1.002   1.438   1.087  0.5793  0.0448  0.4080
 9190SOL    HW139029   0.981   1.426   0.995  1.5269 -1.0841  0.3382
 9190SOL    HW239030   1.093   1.409   1.079  0.0822 -0.7691 -2.2705
 9191SOL     OW39031   0.454   2.724   4.947 -0.2096  0.1230 -0.4710
 9191SOL    HW139032   0.511   2.794   4.981  1.4811 -1.4063 -0.1663
 9191SOL    HW239033   0.368   2.764   4.939  0.2179  0.9125 -1.1495
 9192SOL     OW39034   4.436   1.047   5.518 -0.1685  0.3433 -0.5416
 9192SOL    HW139035   4.404   1.111   5.455  1.7939  0.5824 -1.2947
 9192SOL    HW239036   4.456   1.105   5.592  1.8052 -2.2246  0.9377
 9193SOL     OW39037   2.707   1.349   4.828 -0.0927 -0.5280 -0.4972
 9193SOL    HW139038   2.658   1.335   4.909 -1.2745 -0.3174 -1.1887
 9193SOL    HW239039   2.790   1.374   4.868 -1.4781  2.3521  0.5554
 9194SOL     OW39040   1.101   3.796  11.955  0.2640 -0.3276  0.2611
 9194SOL    HW139041   1.070   3.810  12.044  2.2751  1.4934  0.6751
 9194SOL    HW239042   1.190   3.822  11.979  0.4415  1.6609 -2.5359
 9195SOL     OW39043   4.317   2.666   9.743 -0.8493  0.2442 -0.0027
 9195SOL    HW139044   4.238   2.681   9.691 -1.3069 -0.9592  0.3687
 9195SOL    HW239045   4.366   2.605   9.688  0.2031  2.4562 -1.5551
 9196SOL     OW39046   2.359   1.758   3.029 -0.2833  0.0937  0.0585
 9196SOL    HW139047   2.297   1.713   3.085 -1.8213 -0.9466 -2.4682
 9196SOL    HW239048   2.367   1.827   3.095  0.1335 -0.5376  0.6767
 9197SOL     OW39049   3.091   4.370  16.783  0.1394 -0.5331 -0.1257
 9197SOL    HW139050   3.061   4.434  16.847 -2.9601 -2.4093  0.2959
 9197SOL    HW239051   3.135   4.430  16.724  0.3387 -0.9120 -0.3658
 9198SOL     OW39052   3.521   4.029   2.662  0.3662 -0.1035  0.2330
 9198SOL    HW139053   3.492   3.984   2.741 -1.6762  0.4704 -0.1981
 9198SOL    HW239054   3.488   4.118   2.673 -3.7809 -1.5517 -0.6113
 9199SOL     OW39055   1.361   1.430   0.126  0.2403 -0.3924  0.0185
 9199SOL    HW139056   1.293   1.452   0.063  0.1943 -0.7785 -0.0705
 9199SOL    HW239057   1.326   1.436   0.215  1.8991  0.5224  0.6100
 9200SOL     OW39058   4.505   4.511   2.793  0.2321 -0.0308 -0.4872
 9200SOL    HW139059   4.427   4.456   2.790 -0.5442  0.9354  2.1515
 9200SOL    HW239060   4.555   4.456   2.854 -0.8528 -0.4042  0.0487
 9201SOL     OW39061   0.297   2.147   4.318  0.3420 -0.3124  0.2264
 9201SOL    HW139062   0.345   2.064   4.320  0.8788  0.0123  0.9594
 9201SOL    HW239063   0.334   2.185   4.398 -1.2913 -1.0477  1.3416
 9202SOL     OW39064   1.587   2.129   3.819  0.3883 -0.2350 -0.2030
 9202SOL    HW139065   1.601   2.192   3.749 -1.0592 -0.9239 -1.1117
 9202SOL    HW239066   1.665   2.148   3.871 -0.1597  0.9098  0.2032
 9203SOL     OW39067   0.723   1.669   6.792 -0.0415 -0.3977  0.0077
 9203SOL    HW139068   0.812   1.647   6.819  0.9069  0.9012 -2.1518
 9203SOL    HW239069   0.726   1.761   6.768 -1.1347 -0.6785 -1.2089
 9204SOL     OW39070   4.550   4.661  11.518  0.2509 -0.4876 -0.3706
 9204SOL    HW139071   4.580   0.012  11.464  0.7292 -1.3121 -1.2310
 9204SOL    HW239072   4.625   4.602  11.530  1.9952  1.9006  0.5246
 9205SOL     OW39073   2.777   3.557   7.078 -0.0696 -0.1145  0.0436
 9205SOL    HW139074   2.766   3.462   7.076  1.4337 -0.2832  0.1857
 9205SOL    HW239075   2.799   3.565   6.986  0.0779 -1.5698 -0.0454
 9206SOL     OW39076   3.026   1.183   1.256  0.1201 -0.5754  0.2964
 9206SOL    HW139077   3.043   1.094   1.286  1.0012 -0.4217  0.2471
 9206SOL    HW239078   3.076   1.220   1.329  1.7708  0.6826 -1.4446
 9207SOL     OW39079   4.186   2.813   5.541 -0.0694 -0.0125 -0.9452
 9207SOL    HW139080   4.158   2.750   5.474  0.8482 -1.2181 -0.1995
 9207SOL    HW239081   4.213   2.753   5.610  1.8116  1.6912 -0.1789
 9208SOL     OW39082   4.706   3.233   7.724  0.5341 -0.3482 -0.4291
 9208SOL    HW139083   0.053   3.300   7.722  2.2940 -2.2553 -2.3555
 9208SOL    HW239084   4.650   3.267   7.794  2.7340  1.9672  0.2496
 9209SOL     OW39085   4.697   3.842   5.376  0.3655 -0.6625  0.4249
 9209SOL    HW139086   4.704   3.891   5.294  0.2019  0.6199  1.1846
 9209SOL    HW239087   4.663   3.908   5.436  1.9471 -0.3398  0.9701
 9210SOL     OW39088   2.306   1.642  15.034 -0.3110  0.4240 -0.6613
 9210SOL    HW139089   2.283   1.687  15.116 -2.6230 -0.1467 -1.0087
 9210SOL    HW239090   2.241   1.572  15.033  0.1264 -0.0061  0.5895
 9211SOL     OW39091   2.517   1.194   2.607 -0.2873 -0.2178  0.5271
 9211SOL    HW139092   2.464   1.124   2.645  0.3279 -1.9300 -1.7883
 9211SOL    HW239093   2.551   1.156   2.526 -1.1914 -2.4253  1.1930
 9212SOL     OW39094   4.157   0.819   2.312 -0.6907  0.0878 -0.0710
 9212SOL    HW139095   4.087   0.868   2.355 -0.9932 -1.2240  0.9159
 9212SOL    HW239096   4.161   0.856   2.223 -0.5720  0.5745  0.1340
 9213SOL     OW39097   4.128   0.581   0.132  0.2380 -0.1262 -0.3592
 9213SOL    HW139098   4.056   0.558   0.192  0.2227  0.8326 -0.0190
 9213SOL    HW239099   4.153   0.496   0.096  0.1941 -0.3224  0.0700
 9214SOL     OW39100   1.900   2.710   8.135 -0.0698 -0.2452 -0.4015
 9214SOL    HW139101   1.837   2.735   8.203  0.5909  1.3251 -0.3634
 9214SOL    HW239102   1.860   2.625   8.118  1.0171 -1.0611  1.0817
 9215SOL     OW39103   3.561   2.433   3.366 -0.1096 -0.0581 -0.0277
 9215SOL    HW139104   3.473   2.411   3.396 -0.8714 -0.4868 -2.5963
 9215SOL    HW239105   3.587   2.517   3.404  0.1882 -0.4123  0.5514
 9216SOL     OW39106   1.108   0.436   8.763  0.2472  0.0860  0.3341
 9216SOL    HW139107   1.111   0.395   8.850  0.3747  0.0141  0.2966
 9216SOL    HW239108   1.157   0.366   8.719  1.7902  2.7632 -2.1817
 9217SOL     OW39109   1.907   0.574   1.566 -0.3825 -0.0728 -0.1438
 9217SOL    HW139110   1.836   0.519   1.600  0.2335 -0.9556 -0.3253
 9217SOL    HW239111   1.893   0.584   1.472 -0.9159 -1.0764 -0.1674
 9218SOL     OW39112   0.389   4.717   6.274  0.0267  0.0290  0.4686
 9218SOL    HW139113   0.371   4.637   6.225  0.0700  0.2212  0.1405
 9218SOL    HW239114   0.367   4.691   6.364 -1.4093  3.4029  1.1009
 9219SOL     OW39115   3.808   2.288   2.835 -0.4418 -0.1687  0.2620
 9219SOL    HW139116   3.880   2.250   2.886 -1.2117  0.7435  2.0271
 9219SOL    HW239117   3.844   2.373   2.809 -1.9291  0.3921  0.0447
 9220SOL     OW39118   3.610   1.104   6.333  0.2857  0.6624  0.0299
 9220SOL    HW139119   3.629   1.011   6.344 -1.4748  0.2236 -0.6326
 9220SOL    HW239120   3.685   1.152   6.367 -0.5011  1.1726  1.0272
 9221SOL     OW39121   0.393   1.267   0.285  0.4586  0.4883  0.1687
 9221SOL    HW139122   0.370   1.323   0.359  0.8622  0.5936  0.2133
 9221SOL    HW239123   0.308   1.239   0.250  0.4801  0.5934  0.0318
 9222SOL     OW39124   4.164   4.085   2.875  0.0971 -0.2809  0.0724
 9222SOL    HW139125   4.120   4.080   2.790  1.0293  3.2661 -0.6293
 9222SOL    HW239126   4.256   4.070   2.854 -0.4297 -1.2188 -1.5041
 9223SOL     OW39127   0.483   0.971   7.922  0.4425  0.1519  0.0916
 9223SOL    HW139128   0.419   1.021   7.972  0.4588 -0.0076  0.2687
 9223SOL    HW239129   0.531   1.035   7.868  1.5248 -0.6985  0.0373
 9224SOL     OW39130   0.711   2.272   8.627  0.1388 -0.5662 -0.1911
 9224SOL    HW139131   0.787   2.216   8.612 -1.6418 -3.0204 -0.0244
 9224SOL    HW239132   0.714   2.323   8.547  1.1404  0.3874  0.4460
 9225SOL     OW39133   0.322   2.965   5.400 -0.1112 -0.4612 -0.1833
 9225SOL    HW139134   0.322   2.958   5.305 -1.6899 -0.9109 -0.1511
 9225SOL    HW239135   0.391   2.905   5.430 -0.0687 -1.3119 -1.9977
 9226SOL     OW39136   3.602   2.663   2.171  0.4163 -0.2714 -0.0222
 9226SOL    HW139137   3.541   2.671   2.245  0.0934  1.8814 -0.5274
 9226SOL    HW239138   3.673   2.606   2.202 -0.3599 -0.3532  1.5794
 9227SOL     OW39139   3.857   2.531   1.148 -1.2461 -0.0326 -0.2885
 9227SOL    HW139140   3.771   2.489   1.153 -1.3033  0.0797 -0.3295
 9227SOL    HW239141   3.902   2.483   1.079 -4.2307 -1.4857 -1.1707
 9228SOL     OW39142   1.178   2.472   4.935  0.0139  0.4340  0.0916
 9228SOL    HW139143   1.091   2.466   4.975 -0.3927  0.7160 -0.7562
 9228SOL    HW239144   1.225   2.402   4.981  2.0352  2.1516  0.6248
 9229SOL     OW39145   0.647   4.011   7.410  0.6349 -0.0203  0.2366
 9229SOL    HW139146   0.565   3.981   7.371  0.4317 -1.2152  1.5796
 9229SOL    HW239147   0.648   3.956   7.488 -1.8786 -1.6285 -0.8661
 9230SOL     OW39148   2.613   2.079   5.901  0.1656 -0.7251  0.3746
 9230SOL    HW139149   2.682   2.014   5.887 -1.4735 -1.7703 -3.1152
 9230SOL    HW239150   2.536   2.026   5.877  0.0898  0.0554 -1.1392
 9231SOL     OW39151   0.395   3.363   3.346 -0.4621  0.2234 -0.2975
 9231SOL    HW139152   0.382   3.356   3.441  1.9212 -2.0785 -0.1471
 9231SOL    HW239153   0.394   3.270   3.322 -1.1203  0.3838 -0.8978
 9232SOL     OW39154   1.660   2.515   0.505 -0.0731  0.1272 -0.1083
 9232SOL    HW139155   1.581   2.513   0.450 -0.4577  2.1483  0.3872
 9232SOL    HW239156   1.736   2.524   0.448  0.4744 -2.3861  0.2178
 9233SOL     OW39157   2.487   2.163   5.257 -0.2190 -0.3097  0.0494
 9233SOL    HW139158   2.395   2.168   5.284 -0.0511  0.2041  0.5308
 9233SOL    HW239159   2.510   2.255   5.273 -0.0887 -0.0983 -1.3469
 9234SOL     OW39160   0.230   2.807  15.477 -0.3728 -0.1602 -0.5242
 9234SOL    HW139161   0.142   2.842  15.491  0.4013  2.1131 -1.3512
 9234SOL    HW239162   0.250   2.756  15.556 -2.2867 -2.0035 -1.2538
 9235SOL     OW39163   1.148   2.696   7.933 -0.1046 -0.3077 -0.1592
 9235SOL    HW139164   1.160   2.754   8.008 -0.9407 -1.3925  0.8217
 9235SOL    HW239165   1.206   2.625   7.959  0.5405 -0.7340 -2.8008
 9236SOL     OW39166   3.508   2.730  14.774  0.3838 -0.0878  0.2284
 9236SOL    HW139167   3.481   2.673  14.702  0.1130 -1.5302  1.4703
 9236SOL    HW239168   3.465   2.812  14.750  0.3129  0.4963  2.3466
 9237SOL     OW39169   2.980   4.492   2.348 -0.3869  0.4383 -0.3359
 9237SOL    HW139170   2.909   4.540   2.390 -2.9370 -3.9000  0.3544
 9237SOL    HW239171   3.009   4.553   2.280 -2.0248 -0.6005 -1.9724
 9238SOL     OW39172   0.605   2.857  13.381 -0.7169 -0.3261  0.1780
 9238SOL    HW139173   0.622   2.780  13.328 -0.4869 -0.6949  0.7876
 9238SOL    HW239174   0.583   2.816  13.465 -1.2063 -0.0286  0.1924
 9239SOL     OW39175   0.046   1.634  13.989  0.1935 -0.7051  0.3640
 9239SOL    HW139176   0.052   1.701  14.057 -1.2169  0.0462 -0.2337
 9239SOL    HW239177   0.109   1.679  13.933  0.5148 -0.5595  0.8451
 9240SOL     OW39178   2.943   0.020  16.765 -0.4113 -0.2136 -0.3037
 9240SOL    HW139179   2.888   0.021  16.687 -0.2728  0.2676 -0.3976
 9240SOL    HW239180   2.917   4.659  16.802  0.8883  0.0888  1.3213
 9241SOL     OW39181   3.950   2.880  13.519 -0.1648 -0.3661 -0.2064
 9241SOL    HW139182   3.936   2.975  13.522  1.5215 -0.1871  1.9718
 9241SOL    HW239183   3.888   2.852  13.587 -0.9523  1.7646 -0.0498
 9242SOL     OW39184   0.907   2.819   7.308  0.2134 -0.4248  0.6220
 9242SOL    HW139185   0.989   2.846   7.349 -1.3776  2.9378  1.6192
 9242SOL    HW239186   0.921   2.734   7.266 -0.1028 -0.2869  0.2262
 9243SOL     OW39187   0.248   0.322   8.812 -0.1727  0.4441  0.0822
 9243SOL    HW139188   0.313   0.252   8.805 -0.9251 -0.0899 -1.8170
 9243SOL    HW239189   0.300   0.401   8.799  0.2264  0.0630 -0.6777
 9244SOL     OW39190   3.716   3.401   3.405  0.5109 -0.7571 -0.5203
 9244SOL    HW139191   3.759   3.385   3.489  4.5258 -0.8653 -2.5593
 9244SOL    HW239192   3.792   3.385   3.349  0.7702  0.0747 -0.4035
 9245SOL     OW39193   1.679   4.584   6.641 -0.2372  0.0929 -0.2477
 9245SOL    HW139194   1.649   4.647   6.706 -0.7026 -0.1523 -0.2208
 9245SOL    HW239195   1.644   4.627   6.563  2.5579 -0.2901 -1.7253
 9246SOL     OW39196   0.419   1.206   4.697  0.3379  0.2136 -0.2895
 9246SOL    HW139197   0.395   1.287   4.742  1.0924  0.2116  0.1210
 9246SOL    HW239198   0.416   1.148   4.773 -0.4908  0.4825 -0.1147
 9247SOL     OW39199   1.608   1.362   5.579 -0.6751  0.7155  0.1897
 9247SOL    HW139200   1.698   1.393   5.583 -0.0006 -1.1434 -0.5440
 9247SOL    HW239201   1.619   1.270   5.557  0.4321  0.2436  2.7680
 9248SOL     OW39202   0.272   1.889   0.075 -0.0101  0.6078  0.3851
 9248SOL    HW139203   0.270   1.908   0.168 -1.5022  1.0996  0.2456
 9248SOL    HW239204   0.341   1.823   0.064 -0.1765  0.3860  0.6632
 9249SOL     OW39205   1.512   3.626   2.860  0.1500  0.1022  0.5991
 9249SOL    HW139206   1.539   3.718   2.862  0.0625  0.1024  1.6416
 9249SOL    HW239207   1.421   3.618   2.887 -0.6106  1.4811 -1.5797
 9250SOL     OW39208   3.553   2.646   7.690  0.4387  0.4453 -0.1694
 9250SOL    HW139209   3.638   2.634   7.731 -0.4300  1.0751  1.8247
 9250SOL    HW239210   3.502   2.578   7.735  1.9665  0.7938  2.0527
 9251SOL     OW39211   0.844   2.073  13.352 -0.5251  0.0374 -0.7164
 9251SOL    HW139212   0.758   2.114  13.347  0.1662  1.3582 -1.8243
 9251SOL    HW239213   0.854   2.010  13.280  1.9004  0.0704 -0.3984
 9252SOL     OW39214   4.020   0.129   2.807 -0.2447  0.4734 -0.1529
 9252SOL    HW139215   4.013   0.044   2.764  2.5750  1.0216 -1.6648
 9252SOL    HW239216   3.930   0.135   2.839 -0.4230 -1.1545 -0.3507
 9253SOL     OW39217   4.011   4.417   6.447 -0.0980 -0.6702 -0.2879
 9253SOL    HW139218   3.953   4.477   6.401 -1.7485 -0.2337  2.3471
 9253SOL    HW239219   3.948   4.372   6.504 -1.6619  0.6578 -0.9611
 9254SOL     OW39220   0.497   1.516   6.669  0.1073 -0.5203  0.0989
 9254SOL    HW139221   0.557   1.441   6.673  0.6287 -0.1323 -0.5454
 9254SOL    HW239222   0.558   1.586   6.691 -2.1911  1.3122  0.5928
 9255SOL     OW39223   0.715   4.631   8.317  0.0639  0.1918  0.2465
 9255SOL    HW139224   0.769   4.706   8.345 -0.3189  0.2681  0.7940
 9255SOL    HW239225   0.712   4.654   8.224  4.5416  0.7000  0.2237
 9256SOL     OW39226   4.076   0.935  15.990  0.0866 -0.7699  0.3712
 9256SOL    HW139227   3.985   0.945  16.018 -0.4867 -0.0426 -1.7134
 9256SOL    HW239228   4.120   0.952  16.073 -1.4331 -1.1488  1.2436
 9257SOL     OW39229   0.662   4.635   7.094 -0.5222  0.4419 -0.6925
 9257SOL    HW139230   0.691   4.594   7.176  1.8683  0.0017 -1.7381
 9257SOL    HW239231   0.683   4.574   7.023  1.6887  1.8401 -1.2330
 9258SOL     OW39232   4.673   1.104  16.419 -0.3730 -0.1762  0.5880
 9258SOL    HW139233   4.660   1.170  16.350  2.5679 -0.1630  0.0569
 9258SOL    HW239234   4.632   1.030  16.375 -0.6439  0.1253  0.3288
 9259SOL     OW39235   2.887   0.765   6.639  0.2933  0.4248  0.9336
 9259SOL    HW139236   2.971   0.774   6.594 -0.2461 -1.2908 -0.3930
 9259SOL    HW239237   2.851   0.681   6.611 -0.5840  0.8197  0.8661
 9260SOL     OW39238   0.151   0.045   6.084  0.0738  0.0712  0.4171
 9260SOL    HW139239   0.207   4.689   6.084 -0.9685 -0.6769  0.5102
 9260SOL    HW239240   0.088   0.021   6.153  0.7741 -0.2926  0.9347
 9261SOL     OW39241   2.947   4.107   6.163  0.0454 -0.3458  0.3374
 9261SOL    HW139242   2.917   4.122   6.073  0.3998 -3.1316 -0.2591
 9261SOL    HW239243   2.968   4.013   6.156 -2.2413 -0.8967  0.7161
 9262SOL     OW39244   0.723   0.320  13.904 -0.4394  0.1335 -0.3575
 9262SOL    HW139245   0.695   0.290  13.990  0.1960  0.5938  0.0154
 9262SOL    HW239246   0.791   0.256  13.881  0.2105  1.8607 -3.2383
 9263SOL     OW39247   3.286   1.972   7.802  0.5046 -0.2435 -0.1405
 9263SOL    HW139248   3.284   1.994   7.710 -0.1709  0.0402 -0.0547
 9263SOL    HW239249   3.193   1.983   7.820  0.4105  1.0167 -1.4954
 9264SOL     OW39250   1.562   2.550  11.243  0.0347  0.0616 -0.2214
 9264SOL    HW139251   1.516   2.585  11.320 -0.4487 -2.8975  0.8201
 9264SOL    HW239252   1.485   2.548  11.187 -0.3143  3.8703  0.1029
 9265SOL     OW39253   3.506   4.477   2.664 -0.0140 -0.2691 -0.3935
 9265SOL    HW139254   3.574   4.459   2.729 -0.2853  0.2153  0.0215
 9265SOL    HW239255   3.502   4.403   2.604 -0.9472 -1.0215  0.5934
 9266SOL     OW39256   1.269   3.657   2.206 -0.1381  0.8524  0.2072
 9266SOL    HW139257   1.322   3.737   2.205 -2.1066  2.1539 -0.1417
 9266SOL    HW239258   1.203   3.670   2.138  0.0279  0.2365 -0.0692
 9267SOL     OW39259   2.982   3.885  12.975 -0.3524 -0.5433  0.0047
 9267SOL    HW139260   2.962   3.973  13.007  2.7967 -0.2238  1.1194
 9267SOL    HW239261   2.914   3.866  12.911 -0.8764  3.8178 -0.7017
 9268SOL     OW39262   3.945   2.860   8.941 -0.1109 -0.4974 -0.2473
 9268SOL    HW139263   3.993   2.807   9.005 -2.2940 -1.2631  0.7593
 9268SOL    HW239264   3.880   2.806   8.895 -0.9006  1.7152 -1.7404
 9269SOL     OW39265   1.608   4.115   2.575  0.2446 -0.1539  0.6613
 9269SOL    HW139266   1.575   4.170   2.505  1.1095  0.9357  1.1108
 9269SOL    HW239267   1.686   4.070   2.543  0.7863  1.7577 -0.6449
 9270SOL     OW39268   4.296   4.317   5.587  0.7334  0.1462 -0.7938
 9270SOL    HW139269   4.355   4.271   5.527  0.9253 -0.7302  0.0605
 9270SOL    HW239270   4.354   4.388   5.615 -1.8617  2.0263 -0.1686
 9271SOL     OW39271   1.954   1.972   3.826  0.2148 -0.2416 -0.2218
 9271SOL    HW139272   2.005   2.033   3.880  0.7458  0.1539 -1.1513
 9271SOL    HW239273   1.959   1.892   3.878 -0.9111 -0.2895 -0.1868
 9272SOL     OW39274   0.035   3.558   2.053  0.1081 -0.2501 -0.5226
 9272SOL    HW139275   4.680   3.517   2.014 -0.8443  0.9623  0.1241
 9272SOL    HW239276   0.003   3.580   2.140 -0.1576 -1.4763 -0.3100
 9273SOL     OW39277   1.006   3.763   3.904 -0.0076  0.1147  0.3844
 9273SOL    HW139278   0.994   3.819   3.980 -0.2878 -1.7789  1.7533
 9273SOL    HW239279   1.082   3.709   3.926 -0.4402  0.7291  3.3364
 9274SOL     OW39280   3.499   4.112   8.895  0.4391 -0.4032  0.1345
 9274SOL    HW139281   3.484   4.018   8.903  0.0828 -0.2219  1.6482
 9274SOL    HW239282   3.592   4.105   8.917  0.8229  0.0601 -1.3873
 9275SOL     OW39283   2.618   0.037  13.464 -0.1811  0.1010  0.0785
 9275SOL    HW139284   2.673   0.085  13.526 -0.1397  0.8905 -0.5583
 9275SOL    HW239285   2.678   0.029  13.389 -0.4517  2.2111 -0.3774
 9276SOL     OW39286   2.727   1.535  10.854 -1.1491 -0.5783  0.3365
 9276SOL    HW139287   2.694   1.609  10.904 -3.7032 -1.8975  0.6173
 9276SOL    HW239288   2.671   1.466  10.889 -0.3792 -0.9165  0.9090
 9277SOL     OW39289   1.469   4.374   4.159 -0.2954 -0.1666  0.3657
 9277SOL    HW139290   1.498   4.436   4.226 -0.7228 -0.5969  0.9411
 9277SOL    HW239291   1.452   4.298   4.214  2.6102 -2.4646 -1.8722
 9278SOL     OW39292   3.006   2.881   2.479  0.6714 -0.3647 -0.2524
 9278SOL    HW139293   3.010   2.935   2.558 -1.3018 -0.3130 -0.1869
 9278SOL    HW239294   2.924   2.910   2.441  0.3648  0.4531  1.0456
 9279SOL     OW39295   2.030   0.700  16.808  0.4145 -0.3444 -0.0335
 9279SOL    HW139296   2.093   0.766  16.836 -0.7686  1.4622 -1.6646
 9279SOL    HW239297   1.943   0.727  16.838 -0.0034 -1.4772 -0.2202
 9280SOL     OW39298   4.130   0.315   7.921  1.0954 -0.0633 -0.3970
 9280SOL    HW139299   4.040   0.282   7.926  0.8736  0.4444 -0.9951
 9280SOL    HW239300   4.151   0.333   8.013  2.8292  2.2914 -1.2552
 9281SOL     OW39301   1.076   2.792  12.842  0.2048  0.5657  0.9877
 9281SOL    HW139302   1.007   2.730  12.866 -0.8464  1.0824 -0.7315
 9281SOL    HW239303   1.140   2.738  12.796  0.9769  0.2041  2.4738
 9282SOL     OW39304   0.139   0.609   6.385 -0.7492 -0.8282 -0.3195
 9282SOL    HW139305   0.074   0.566   6.440 -0.0633 -0.7622  0.5349
 9282SOL    HW239306   0.212   0.558   6.420  0.8465  2.3173  0.8569
 9283SOL     OW39307   3.206   0.659   2.914  0.1766 -0.7907  0.0718
 9283SOL    HW139308   3.219   0.564   2.915  1.2210 -0.6698 -1.4351
 9283SOL    HW239309   3.281   0.677   2.970  0.2027  0.6565 -0.4269
 9284SOL     OW39310   3.421   3.525  12.236 -0.3180  0.2508 -0.1835
 9284SOL    HW139311   3.468   3.515  12.318 -1.7951  0.8358  0.7463
 9284SOL    HW239312   3.400   3.617  12.219  0.9497  0.7818  1.2143
 9285SOL     OW39313   4.077   1.180   2.439  0.3062  0.8916 -0.8065
 9285SOL    HW139314   4.066   1.259   2.492 -3.5948  2.4478 -3.9488
 9285SOL    HW239315   4.154   1.151   2.489  1.6424  0.7604 -2.9178
 9286SOL     OW39316   2.059   2.754   2.705 -0.0390  0.5374  0.0016
 9286SOL    HW139317   2.004   2.678   2.725  1.8087 -0.4633  1.2414
 9286SOL    HW239318   2.046   2.806   2.784  1.1621  0.6324  0.1296
 9287SOL     OW39319   4.515   2.514   9.603 -0.1179  0.2249  0.1388
 9287SOL    HW139320   4.513   2.506   9.507 -0.0504  0.2867  0.1328
 9287SOL    HW239321   4.570   2.437   9.618 -2.2186 -2.0299 -3.5137
 9288SOL     OW39322   0.275   3.006   5.687  0.3870 -0.6095  0.1295
 9288SOL    HW139323   0.300   2.984   5.597  0.9143  1.5276 -0.2508
 9288SOL    HW239324   0.364   3.024   5.716  0.3311  0.4513 -0.3498
 9289SOL     OW39325   2.295   4.332   9.574 -0.6403  0.8528 -0.3692
 9289SOL    HW139326   2.217   4.369   9.532 -1.7683 -1.0714  0.0221
 9289SOL    HW239327   2.311   4.398   9.640 -0.5232 -1.2727  1.7295
 9290SOL     OW39328   0.300   3.691   1.030  0.5092  0.3562  0.3415
 9290SOL    HW139329   0.268   3.634   1.100 -1.8985  0.0057 -1.0242
 9290SOL    HW239330   0.249   3.665   0.954 -0.1697 -1.7039  1.4953
 9291SOL     OW39331   4.275   3.235   3.176 -0.3028  0.6473 -0.2508
 9291SOL    HW139332   4.233   3.272   3.098 -1.3572 -0.9721 -0.4475
 9291SOL    HW239333   4.255   3.142   3.164  0.2026  0.4614  0.3687
 9292SOL     OW39334   3.757   2.531   6.754 -0.0160  0.5019  0.1973
 9292SOL    HW139335   3.799   2.613   6.728  1.2622 -0.2214  0.0189
 9292SOL    HW239336   3.810   2.498   6.827  0.1603  0.0509 -0.1365
 9293SOL     OW39337   0.217   4.158  14.634  0.0449  0.0032  0.2856
 9293SOL    HW139338   0.124   4.179  14.630  0.3893  1.5596  0.3788
 9293SOL    HW239339   0.252   4.245  14.617 -2.1584  1.0182  0.9612
 9294SOL     OW39340   1.149   3.826   4.748 -0.4908  0.4424  0.4703
 9294SOL    HW139341   1.194   3.744   4.768  0.7886  0.7346 -1.3179
 9294SOL    HW239342   1.071   3.794   4.703 -0.4169  0.7690  0.1130
 9295SOL     OW39343   3.297   4.364  15.826 -0.1918 -0.3553 -0.5251
 9295SOL    HW139344   3.282   4.275  15.793 -3.2825  0.7374 -2.0996
 9295SOL    HW239345   3.392   4.355  15.825 -0.1389  0.5654 -2.8695
 9296SOL     OW39346   0.182   0.654   3.691 -0.5330  0.3020 -0.1021
 9296SOL    HW139347   0.272   0.687   3.689 -1.4100  2.6223 -0.1524
 9296SOL    HW239348   0.146   0.690   3.610  0.3465  2.7515  0.5958
 9297SOL     OW39349   1.662   4.140   4.465 -0.0521 -0.2821  0.0977
 9297SOL    HW139350   1.654   4.227   4.504  0.4761  1.4563 -3.7257
 9297SOL    HW239351   1.635   4.089   4.542 -1.8787 -3.4100 -2.5896
 9298SOL     OW39352   3.436   3.260   9.736  0.2766  0.0118 -0.4164
 9298SOL    HW139353   3.504   3.256   9.669 -0.1489 -0.7487 -0.8083
 9298SOL    HW239354   3.488   3.251   9.815 -0.9851  1.7525  0.5956
 9299SOL     OW39355   2.804   2.383   6.313  0.2065 -0.0476 -0.2174
 9299SOL    HW139356   2.882   2.419   6.271 -0.8834  0.7833 -1.5325
 9299SOL    HW239357   2.838   2.313   6.368  0.1809  1.2826  1.5267
 9300SOL     OW39358   3.765   3.230   9.743 -0.2982 -0.3607  0.7772
 9300SOL    HW139359   3.741   3.184   9.824  0.3694 -1.0351  0.5815
 9300SOL    HW239360   3.710   3.190   9.676 -1.9044  2.9081  0.1599
 9301SOL     OW39361   0.445   3.502   7.206  0.5459  0.2841 -0.4697
 9301SOL    HW139362   0.424   3.435   7.141 -0.9872 -1.2632  1.6053
 9301SOL    HW239363   0.365   3.499   7.260  0.6877 -0.1992 -0.2891
 9302SOL     OW39364   4.030   1.798   2.575  0.2616 -0.3129 -0.4507
 9302SOL    HW139365   4.107   1.849   2.550  0.1500  0.6235  1.1255
 9302SOL    HW239366   4.041   1.756   2.661  2.0096 -0.0999 -0.5703
 9303SOL     OW39367   1.880   2.202   6.574  0.1311  0.4727 -0.4483
 9303SOL    HW139368   1.904   2.283   6.620 -1.5061  1.4016 -1.2363
 9303SOL    HW239369   1.962   2.154   6.564 -0.7615 -1.1527  0.0259
 9304SOL     OW39370   2.930   4.142   3.067  0.5674  0.5569  0.5794
 9304SOL    HW139371   2.865   4.098   3.122  0.0932 -1.8602 -1.8908
 9304SOL    HW239372   2.957   4.218   3.118  3.3135  0.9056 -1.4262
 9305SOL     OW39373   1.218   2.502   7.408 -0.2584 -0.0413  0.3852
 9305SOL    HW139374   1.146   2.530   7.464 -0.8715 -0.5312 -0.1615
 9305SOL    HW239375   1.236   2.413   7.439 -1.3304  0.4820  2.5102
 9306SOL     OW39376   0.005   2.433   8.936 -0.8560  0.2034  0.5016
 9306SOL    HW139377   0.005   2.417   8.842  0.7083 -1.1763  0.7244
 9306SOL    HW239378   4.646   2.484   8.942 -1.5214 -0.8834  0.7820
 9307SOL     OW39379   3.442   1.798  12.404  0.4210  0.3476  0.1150
 9307SOL    HW139380   3.455   1.849  12.484 -0.3039 -0.4041  0.6950
 9307SOL    HW239381   3.430   1.710  12.439  0.4815  0.2068 -0.2162
 9308SOL     OW39382   1.223   3.902   2.774  0.2516 -0.7208 -0.8203
 9308SOL    HW139383   1.255   3.901   2.684  2.7269  1.6919  0.0440
 9308SOL    HW239384   1.282   3.970   2.805  0.0724 -0.9498  0.0215
 9309SOL     OW39385   3.230   2.898   2.762 -0.4393 -0.2820 -0.5040
 9309SOL    HW139386   3.301   2.912   2.699  0.3309 -2.2510 -0.0646
 9309SOL    HW239387   3.184   2.820   2.731 -0.8874  0.0499 -0.6716
 9310SOL     OW39388   0.061   0.690   1.309 -0.2194 -0.1944  0.0175
 9310SOL    HW139389   0.076   0.686   1.215  2.5379  0.1903  0.4199
 9310SOL    HW239390   4.721   0.762   1.306 -1.7038 -1.5818 -1.8717
 9311SOL     OW39391   3.695   1.023   3.706 -0.8231  0.2344  0.1870
 9311SOL    HW139392   3.692   1.008   3.801 -2.0212  1.5678  0.3550
 9311SOL    HW239393   3.723   1.114   3.712 -0.8898  0.2652  0.0201
 9312SOL     OW39394   3.693   2.165   9.019 -0.2513 -0.3522  0.1069
 9312SOL    HW139395   3.667   2.176   8.927 -0.4122 -1.9725 -0.0396
 9312SOL    HW239396   3.725   2.253   9.040  2.2279 -1.2469  0.1131
 9313SOL     OW39397   2.782   2.412   7.453 -0.0368 -0.1725 -0.4694
 9313SOL    HW139398   2.689   2.398   7.434 -0.4081  2.4325 -0.5720
 9313SOL    HW239399   2.800   2.481   7.389  0.1506  0.3515  0.1538
 9314SOL     OW39400   2.818   3.164  10.873  0.0829  0.1548 -0.0247
 9314SOL    HW139401   2.771   3.207  10.945 -2.2347  0.8875 -1.9930
 9314SOL    HW239402   2.762   3.180  10.798 -1.3380  0.2481  1.0476
 9315SOL     OW39403   1.771   2.960  16.644 -0.6907  0.2257  0.5264
 9315SOL    HW139404   1.853   3.005  16.661 -0.6938  0.3274  0.2825
 9315SOL    HW239405   1.741   3.014  16.571 -5.6473 -1.4941  1.2971
 9316SOL     OW39406   2.215   2.455  17.203  0.3298 -0.4416  0.5947
 9316SOL    HW139407   2.276   2.509  17.253 -0.3829  0.0391  0.9494
 9316SOL    HW239408   2.204   2.386  17.268 -0.2824  0.1510  1.1257
 9317SOL     OW39409   4.082   1.456   4.174  0.2300 -0.2910 -0.3126
 9317SOL    HW139410   3.995   1.482   4.145  0.9426 -1.1193 -3.1896
 9317SOL    HW239411   4.070   1.461   4.269  1.2545  2.3460 -0.3197
 9318SOL     OW39412   1.714   2.567   1.968  0.4947  0.1141  0.0106
 9318SOL    HW139413   1.665   2.488   1.989  2.5655 -1.1831  0.0194
 9318SOL    HW239414   1.764   2.590   2.046 -0.3459  2.4452 -0.1221
 9319SOL     OW39415   4.245   1.492   9.112 -0.8703 -0.2207 -0.0820
 9319SOL    HW139416   4.211   1.570   9.067  0.9285 -0.3521 -1.6724
 9319SOL    HW239417   4.246   1.531   9.200  1.9553  0.1630 -0.2805
 9320SOL     OW39418   3.135   2.495   2.085  0.5102  0.0890 -0.0221
 9320SOL    HW139419   3.187   2.480   2.006  1.0513  0.6359  0.2316
 9320SOL    HW239420   3.157   2.586   2.106  1.0483  0.0017 -0.2202
 9321SOL     OW39421   0.369   0.507  13.822 -0.8979  0.0394 -0.2175
 9321SOL    HW139422   0.370   0.578  13.758 -0.4214 -0.4967 -0.8158
 9321SOL    HW239423   0.327   0.547  13.898 -0.4055  0.4744 -0.1757
 9322SOL     OW39424   2.302   3.147   2.305 -0.4715 -0.0555 -0.3562
 9322SOL    HW139425   2.337   3.211   2.243 -0.3553  2.0412  1.8805
 9322SOL    HW239426   2.371   3.080   2.305 -0.2677  0.1612  0.2984
 9323SOL     OW39427   0.448   1.479   4.875 -0.2024  0.2185  0.1945
 9323SOL    HW139428   0.352   1.480   4.875 -0.2322 -2.5508 -1.3145
 9323SOL    HW239429   0.468   1.555   4.820  0.5706 -0.1299  0.0007
 9324SOL     OW39430   1.176   1.005  16.233  0.2808  0.4742 -0.5761
 9324SOL    HW139431   1.239   1.021  16.304  0.1944  0.3211 -0.4645
 9324SOL    HW239432   1.089   1.026  16.267  0.3489  0.1709 -0.1986
 9325SOL     OW39433   2.573   0.830   5.416 -0.1099  0.0892  0.2587
 9325SOL    HW139434   2.620   0.773   5.356  0.7855  2.1333 -0.9695
 9325SOL    HW239435   2.507   0.768   5.448 -1.7274  1.7219  0.1377
 9326SOL     OW39436   0.578   1.196   5.556 -0.0779  0.7886  0.1329
 9326SOL    HW139437   0.593   1.262   5.624 -1.3496  2.5433 -1.3074
 9326SOL    HW239438   0.525   1.251   5.498 -1.3433 -0.7024 -0.1170
 9327SOL     OW39439   2.818   3.627  12.130  0.7398  0.3220 -0.5926
 9327SOL    HW139440   2.832   3.718  12.156  0.3694 -0.2035  1.4424
 9327SOL    HW239441   2.792   3.630  12.039 -2.0026  0.7773  0.2178
 9328SOL     OW39442   2.534   0.194   6.906  0.8569  0.2438  0.6099
 9328SOL    HW139443   2.463   0.133   6.887  3.2365 -2.3098 -0.0456
 9328SOL    HW239444   2.509   0.231   6.991 -1.0898  0.1172  0.0797
 9329SOL     OW39445   1.626   1.696  13.353 -0.0430  0.2824  0.0680
 9329SOL    HW139446   1.604   1.784  13.382  1.4229  0.1523  1.5434
 9329SOL    HW239447   1.576   1.694  13.271  1.0223 -0.3842 -0.5665
 9330SOL     OW39448   0.024   0.964   4.418 -0.9713  0.2053 -0.3849
 9330SOL    HW139449   4.681   0.948   4.350 -1.1768 -2.4001  0.4059
 9330SOL    HW239450   0.054   1.054   4.407 -3.3925  1.2128  1.1049
 9331SOL     OW39451   3.552   4.086   8.574 -0.6643  0.3692  0.1728
 9331SOL    HW139452   3.528   4.178   8.583 -1.1414  0.2926 -0.3498
 9331SOL    HW239453   3.468   4.045   8.556 -0.7012  1.0531 -1.2028
 9332SOL     OW39454   2.925   1.502   0.033  0.4219  0.0228  0.4089
 9332SOL    HW139455   2.927   1.516   0.128 -0.7635 -2.5894  0.8006
 9332SOL    HW239456   3.003   1.446   0.027  0.8329  0.8285 -1.6172
 9333SOL     OW39457   0.633   0.454   5.621 -0.4490  0.0631 -0.0374
 9333SOL    HW139458   0.597   0.466   5.709  2.3101 -0.5909  1.1601
 9333SOL    HW239459   0.727   0.450   5.635 -0.4847 -0.3092  0.0855
 9334SOL     OW39460   3.467   1.198   9.265 -0.4672  0.1267 -0.2267
 9334SOL    HW139461   3.453   1.264   9.333 -1.6591  0.7015 -1.0177
 9334SOL    HW239462   3.374   1.177   9.250 -0.7240  0.2937  1.1418
 9335SOL     OW39463   0.620   1.447   7.857  0.6037  0.5073  0.2527
 9335SOL    HW139464   0.547   1.468   7.798  0.8826  2.1342  0.5034
 9335SOL    HW239465   0.616   1.523   7.915  1.3874  0.2972  0.5723
 9336SOL     OW39466   0.673   3.872   8.487 -0.1469  0.3424  0.0166
 9336SOL    HW139467   0.667   3.805   8.555  0.5183 -0.5551 -0.8228
 9336SOL    HW239468   0.625   3.823   8.421 -1.6743  2.4497 -0.4271
 9337SOL     OW39469   2.749   4.657  12.931  0.3150 -0.4505 -0.0749
 9337SOL    HW139470   2.714   4.607  12.857  1.0980  0.7748 -1.2834
 9337SOL    HW239471   2.836   4.664  12.890  1.1206 -2.1202  1.3388
 9338SOL     OW39472   0.621   1.973  11.626 -0.6254 -0.7754 -0.1550
 9338SOL    HW139473   0.544   1.976  11.683  0.1834  0.7994  0.8638
 9338SOL    HW239474   0.657   1.887  11.650  0.0006 -1.1811 -2.5895
 9339SOL     OW39475   3.584   4.082   0.739  0.0057 -0.1811  0.1150
 9339SOL    HW139476   3.609   4.165   0.697  0.2706  0.0436  0.7283
 9339SOL    HW239477   3.511   4.114   0.793 -0.1221 -0.6669  0.2282
 9340SOL     OW39478   1.853   0.880  11.352 -0.1577  0.7054 -0.5579
 9340SOL    HW139479   1.802   0.920  11.282  0.7636 -0.3389 -1.8368
 9340SOL    HW239480   1.813   0.794  11.366  0.7103  0.9348  3.3124
 9341SOL     OW39481   2.205   2.935   3.288 -0.2868  0.2638 -0.2625
 9341SOL    HW139482   2.179   2.987   3.364 -0.8987  1.1185 -1.0752
 9341SOL    HW239483   2.202   2.851   3.334 -0.3416  0.1438 -0.4844
 9342SOL     OW39484   2.664   3.913   5.108 -0.2955  0.0081 -0.6985
 9342SOL    HW139485   2.744   3.936   5.061  0.2620 -1.0797 -0.2787
 9342SOL    HW239486   2.644   3.829   5.068 -0.8465  0.0058 -0.4097
 9343SOL     OW39487   1.373   2.499  11.822 -0.5442  0.6885 -0.1912
 9343SOL    HW139488   1.312   2.461  11.759 -0.3103 -0.3310  0.1877
 9343SOL    HW239489   1.366   2.441  11.898 -0.4748  0.5329 -0.3030
 9344SOL     OW39490   4.258   2.905  17.531  0.1722  0.3299  0.4355
 9344SOL    HW139491   4.228   2.880  17.618 -0.4947  0.8086  0.3499
 9344SOL    HW239492   4.333   2.846  17.530  2.4161  3.1508  1.1609
 9345SOL     OW39493   0.820   2.550   7.187  0.3272  0.3895  0.5277
 9345SOL    HW139494   0.866   2.469   7.208  0.9882  0.0942 -2.0035
 9345SOL    HW239495   0.796   2.531   7.096  0.7529  2.4655 -0.0333
 9346SOL     OW39496   0.521   0.443   8.192  0.6654  0.0774 -1.2770
 9346SOL    HW139497   0.602   0.455   8.142  1.0289  1.2212 -0.3990
 9346SOL    HW239498   0.554   0.430   8.280 -0.2209 -0.1707 -0.9789
 9347SOL     OW39499   1.980   1.919  10.453 -0.0371 -0.1963 -0.2628
 9347SOL    HW139500   1.987   1.824  10.459  0.5742 -0.0597  1.3089
 9347SOL    HW239501   1.997   1.953  10.541  0.6299 -1.3655  0.0495
 9348SOL     OW39502   0.828   0.981   6.765 -1.0942  0.3739 -0.1155
 9348SOL    HW139503   0.780   1.049   6.813  0.8271  0.1735  2.0969
 9348SOL    HW239504   0.804   1.004   6.675  0.4277  0.3819 -0.5256
 9349SOL     OW39505   3.687   1.525   1.059 -0.1170  0.4288  0.0074
 9349SOL    HW139506   3.641   1.487   0.985 -1.0061  0.6074  0.4645
 9349SOL    HW239507   3.776   1.493   1.044  0.1437  0.3567  1.6945
 9350SOL     OW39508   0.628   4.605   1.779  0.0104 -0.2842  0.3320
 9350SOL    HW139509   0.615   4.526   1.831 -0.5247 -0.7756 -0.5617
 9350SOL    HW239510   0.717   4.630   1.805  0.0833 -0.1643 -0.0409
 9351SOL     OW39511   2.817   1.903   5.843  0.3556 -0.3164  0.4050
 9351SOL    HW139512   2.879   1.830   5.853 -1.4344 -1.5479  2.5232
 9351SOL    HW239513   2.772   1.871   5.764  0.8508 -0.8255  0.3235
 9352SOL     OW39514   4.592   0.993  13.045  0.0121 -0.3573  0.0832
 9352SOL    HW139515   4.676   1.016  13.085 -0.8981  1.6226  0.9196
 9352SOL    HW239516   4.618   0.929  12.980 -0.9536 -1.1342  0.4606
 9353SOL     OW39517   3.839   2.561   2.203  0.4403  0.0754 -0.0880
 9353SOL    HW139518   3.857   2.530   2.114  0.5488  1.1646 -0.4400
 9353SOL    HW239519   3.930   2.567   2.232 -0.0340 -1.3903  1.6746
 9354SOL     OW39520   2.013   0.511  17.627 -0.0943 -0.5051 -0.7055
 9354SOL    HW139521   1.932   0.467  17.603 -0.9550  0.7680 -0.1539
 9354SOL    HW239522   2.009   0.540   0.025 -2.1789 -0.9524 -0.6629
 9355SOL     OW39523   1.593   2.581   5.504  0.4392 -0.1867  0.3151
 9355SOL    HW139524   1.680   2.560   5.469  0.4451  0.6835 -0.1970
 9355SOL    HW239525   1.555   2.644   5.442 -1.4930  0.8378  2.5367
 9356SOL     OW39526   4.162   0.598   7.688  0.0516  0.1993  0.0350
 9356SOL    HW139527   4.127   0.610   7.600  0.7986  0.8825 -0.1722
 9356SOL    HW239528   4.158   0.502   7.684 -0.5341  0.1464  1.9357
 9357SOL     OW39529   1.705   4.520   2.177  0.1192 -0.0346 -0.4436
 9357SOL    HW139530   1.650   4.455   2.134 -1.3034  0.3736  0.7640
 9357SOL    HW239531   1.644   4.590   2.202  0.5280 -0.2453  1.1377
 9358SOL     OW39532   0.353   1.058   0.789  0.5550  0.2459 -0.5017
 9358SOL    HW139533   0.355   1.027   0.880  1.3660  0.9858 -0.2660
 9358SOL    HW239534   0.356   1.151   0.809 -0.2243 -0.1448  1.4975
 9359SOL     OW39535   3.840   3.432  10.900  0.5145  0.3733 -0.9168
 9359SOL    HW139536   3.886   3.350  10.883  0.9576  0.6505 -1.0546
 9359SOL    HW239537   3.866   3.451  10.990  0.1478  2.7433 -1.3132
 9360SOL     OW39538   1.903   3.690  13.658 -0.2613  0.1795 -0.1690
 9360SOL    HW139539   1.980   3.729  13.617  0.4669  0.0670  1.0939
 9360SOL    HW239540   1.859   3.637  13.591  0.3746 -0.3113 -0.1998
 9361SOL     OW39541   3.708   4.713   0.134  0.2993  0.1077 -0.4929
 9361SOL    HW139542   3.781   0.046   0.105 -0.0214  2.1477  2.6296
 9361SOL    HW239543   3.725   4.705   0.228 -0.4684  1.2085 -0.2669
 9362SOL     OW39544   2.252   1.793   1.182  0.0874  0.5353 -0.0550
 9362SOL    HW139545   2.324   1.855   1.196 -0.4929  1.2248 -0.1429
 9362SOL    HW239546   2.204   1.811   1.263 -0.0069 -0.1672  0.0430
 9363SOL     OW39547   3.705   2.045   7.660 -0.7496 -0.0368 -0.3854
 9363SOL    HW139548   3.744   2.051   7.747 -0.6850 -1.3794 -0.3291
 9363SOL    HW239549   3.639   2.115   7.667 -0.3789  0.2786 -0.0570
 9364SOL     OW39550   4.091   1.373   5.251  0.1053 -0.1694  0.1172
 9364SOL    HW139551   4.095   1.469   5.251  0.7272 -0.1888 -0.8993
 9364SOL    HW239552   4.163   1.342   5.306 -1.2577 -1.8544  0.9315
 9365SOL     OW39553   3.525   3.956   4.244 -0.4567 -0.1695  0.1443
 9365SOL    HW139554   3.591   3.944   4.313 -0.4746 -1.1246 -0.0015
 9365SOL    HW239555   3.565   3.924   4.163  0.6368  0.8503  0.2755
 9366SOL     OW39556   0.443   2.778   6.844  0.3589  0.1622 -0.3198
 9366SOL    HW139557   0.505   2.820   6.904 -2.3837  0.3129  2.3666
 9366SOL    HW239558   0.451   2.686   6.869  0.4125  0.4731  0.7700
 9367SOL     OW39559   2.243   1.633   3.251 -0.1611  0.1858  0.5094
 9367SOL    HW139560   2.315   1.622   3.313  1.8682  2.0804 -1.4828
 9367SOL    HW239561   2.222   1.541   3.235  0.7389  0.1578 -0.5029
 9368SOL     OW39562   2.986   3.260   5.753 -0.2299 -0.9487  0.4097
 9368SOL    HW139563   3.034   3.205   5.692  2.4577  0.9043  0.8602
 9368SOL    HW239564   3.050   3.290   5.818 -0.3918  0.8068 -0.2595
 9369SOL     OW39565   4.655   4.123   6.758  0.5022  0.2516 -0.0385
 9369SOL    HW139566   4.709   4.194   6.725  1.7260  0.1776  1.7740
 9369SOL    HW239567   4.682   4.120   6.850 -0.3948 -1.8727  0.1598
 9370SOL     OW39568   3.286   3.252   1.040  0.0837 -0.0445 -0.4416
 9370SOL    HW139569   3.287   3.346   1.059  2.0610  0.0877 -1.2055
 9370SOL    HW239570   3.261   3.215   1.125  1.4415 -1.3250 -0.5996
 9371SOL     OW39571   2.721   4.687  14.759 -0.1212  0.0368 -0.0664
 9371SOL    HW139572   2.792   4.703  14.697  1.0616 -0.5370  1.1257
 9371SOL    HW239573   2.752   4.608  14.803 -0.7380  0.8353  1.8138
 9372SOL     OW39574   2.114   0.530   1.279  0.2654  0.0240  0.5151
 9372SOL    HW139575   2.045   0.464   1.269 -0.8404  1.3585 -0.7420
 9372SOL    HW239576   2.153   0.504   1.362 -0.0557  1.1734  1.0198
 9373SOL     OW39577   0.839   0.196   7.990 -0.2899  0.1901 -0.0224
 9373SOL    HW139578   0.930   0.193   7.962 -0.6784  1.4650 -1.4284
 9373SOL    HW239579   0.812   0.287   7.983  0.8885  0.4607 -0.9161
 9374SOL     OW39580   1.793   0.868   2.234  0.0340 -0.9988 -0.1990
 9374SOL    HW139581   1.846   0.820   2.299 -1.9644 -0.7864  1.5871
 9374SOL    HW239582   1.851   0.890   2.162 -0.8502  0.3430 -0.4890
 9375SOL     OW39583   3.402   2.285  11.181  0.7342 -0.1450  0.1378
 9375SOL    HW139584   3.380   2.356  11.120  3.0187 -0.4588 -1.0633
 9375SOL    HW239585   3.393   2.313  11.272  0.6791 -1.0767  0.4189
 9376SOL     OW39586   2.325   1.694  16.292  0.3830 -0.3996 -0.0462
 9376SOL    HW139587   2.238   1.658  16.278 -0.6462  1.9496  0.4109
 9376SOL    HW239588   2.373   1.679  16.210 -1.5745  2.9302 -1.7828
 9377SOL     OW39589   2.632   2.398  12.002  0.5663  0.1676  0.4838
 9377SOL    HW139590   2.680   2.359  12.075  0.6774  3.1068  1.9641
 9377SOL    HW239591   2.704   2.414  11.940 -0.2811 -0.2519 -0.6121
 9378SOL     OW39592   0.222   4.106   6.836  0.3267  0.1541  0.4117
 9378SOL    HW139593   0.289   4.127   6.771 -0.4654 -0.0106 -0.4583
 9378SOL    HW239594   0.219   4.010   6.841  0.1604  0.0629 -1.5061
 9379SOL     OW39595   1.387   3.595   6.782 -0.2064  0.1134  0.1688
 9379SOL    HW139596   1.326   3.663   6.810 -0.1677  0.1242  0.2258
 9379SOL    HW239597   1.378   3.613   6.688 -0.7051  0.8067  0.3512
 9380SOL     OW39598   3.210   3.642   4.837 -0.3755 -0.8380 -0.1986
 9380SOL    HW139599   3.261   3.608   4.911  3.0353  0.5686 -1.9261
 9380SOL    HW239600   3.286   3.658   4.781  1.1380 -4.3448  0.8560
 9381SOL     OW39601   2.495   0.236  15.725  0.4791 -0.1806  0.1067
 9381SOL    HW139602   2.510   0.330  15.717 -0.5263  0.0720  1.1068
 9381SOL    HW239603   2.467   0.207  15.638 -0.8674 -0.9713  0.7941
 9382SOL     OW39604   3.814   2.455  13.702  0.5745 -0.1065  0.0626
 9382SOL    HW139605   3.785   2.426  13.788 -0.5936 -0.1294 -0.3422
 9382SOL    HW239606   3.825   2.546  13.730 -2.0450  0.5414 -1.0127
 9383SOL     OW39607   2.005   3.770   6.909 -0.2741 -0.2813 -0.3106
 9383SOL    HW139608   2.006   3.791   6.816 -1.1476 -0.1867 -0.3022
 9383SOL    HW239609   2.084   3.718   6.926  0.1252  2.1659  5.4925
 9384SOL     OW39610   3.487   3.275  12.171  0.2739  1.5031  0.0919
 9384SOL    HW139611   3.473   3.240  12.258 -0.7778  1.1742 -0.2147
 9384SOL    HW239612   3.467   3.368  12.174 -0.3839  1.3804 -0.3326
 9385SOL     OW39613   4.575   2.570   9.893  0.0794  0.4147  0.5202
 9385SOL    HW139614   4.648   2.613   9.848  1.0960 -2.0395 -0.1681
 9385SOL    HW239615   4.538   2.525   9.817 -0.7047  2.4358 -0.2989
 9386SOL     OW39616   2.417   3.643   3.708 -0.1870  0.0806 -0.1255
 9386SOL    HW139617   2.470   3.605   3.638  2.0059  0.8554  1.1125
 9386SOL    HW239618   2.396   3.572   3.768  2.8015 -0.1035  0.7203
 9387SOL     OW39619   0.642   0.642   4.966 -0.0740 -0.0545 -0.4294
 9387SOL    HW139620   0.549   0.636   4.945  0.6496  0.0576 -3.7183
 9387SOL    HW239621   0.641   0.647   5.061 -0.3431  1.8529 -0.5219
 9388SOL     OW39622   3.357   4.664   8.008  0.2709  0.1094 -0.1448
 9388SOL    HW139623   3.368   4.578   7.967 -0.3875  0.5728 -1.2835
 9388SOL    HW239624   3.307   4.712   7.942  0.8056  1.5385  0.4783
 9389SOL     OW39625   1.824   3.967   4.787 -0.0567 -0.0171 -0.5327
 9389SOL    HW139626   1.796   3.876   4.781 -0.6656 -0.0095  2.1071
 9389SOL    HW239627   1.914   3.962   4.753 -0.5055  0.0868 -1.7132
 9390SOL     OW39628   4.522   2.879   9.716  0.5400 -0.2632 -0.3182
 9390SOL    HW139629   4.456   2.822   9.757  0.9945  0.0245  0.8272
 9390SOL    HW239630   4.598   2.895   9.772 -1.6516  1.2745  2.2423
 9391SOL     OW39631   0.721   4.678   8.050 -0.3993 -0.4066  0.2119
 9391SOL    HW139632   0.762   0.039   8.029 -1.5131  0.1976  0.4460
 9391SOL    HW239633   0.650   4.688   7.986  0.1757  0.3229 -0.3076
 9392SOL     OW39634   3.177   4.195   8.620 -0.0265 -0.4082  0.2286
 9392SOL    HW139635   3.123   4.141   8.677 -1.2789  1.0823  0.4422
 9392SOL    HW239636   3.199   4.130   8.553  2.4288 -0.5764  1.1874
 9393SOL     OW39637   2.576   2.434   3.858 -0.2819 -0.0085 -0.3068
 9393SOL    HW139638   2.640   2.457   3.791  0.3749  1.5276  0.8495
 9393SOL    HW239639   2.608   2.494   3.925  2.9674  0.8850 -2.6405
 9394SOL     OW39640   2.760   3.646   7.629 -0.3679 -0.7415 -0.8701
 9394SOL    HW139641   2.813   3.676   7.703  1.1762 -1.2860 -1.7335
 9394SOL    HW239642   2.786   3.554   7.633 -1.2099 -0.9088  0.7493
 9395SOL     OW39643   1.509   0.300  10.577  0.4006 -0.6993  0.1760
 9395SOL    HW139644   1.498   0.367  10.510 -2.1685  1.7937  3.0834
 9395SOL    HW239645   1.600   0.317  10.603  0.1293  2.2858 -0.8188
 9396SOL     OW39646   3.672   2.170   9.329  0.0080 -0.3380  0.4333
 9396SOL    HW139647   3.683   2.210   9.243 -0.9171 -2.2420 -0.5653
 9396SOL    HW239648   3.758   2.155   9.370 -0.3694 -1.7684  0.7077
 9397SOL     OW39649   3.788   1.947   6.577 -0.2359 -0.1891  0.2408
 9397SOL    HW139650   3.817   1.955   6.668 -1.4484  1.6998  0.4599
 9397SOL    HW239651   3.773   1.853   6.567  2.2498 -0.6519  0.8493
 9398SOL     OW39652   2.897   2.044   5.340  0.6005  0.1267  0.8113
 9398SOL    HW139653   2.967   1.985   5.314 -0.5360 -0.5890 -0.5786
 9398SOL    HW239654   2.931   2.125   5.302  1.6072 -0.8321 -0.3099
 9399SOL     OW39655   3.113   2.594  12.622 -0.5733  0.0331  0.4820
 9399SOL    HW139656   3.028   2.589  12.578 -1.5354 -2.0848  2.5689
 9399SOL    HW239657   3.098   2.544  12.703 -0.0164  0.4055  0.8162
 9400SOL     OW39658   0.407   0.172   8.056 -1.0129 -0.1597  0.1569
 9400SOL    HW139659   0.335   0.197   8.114 -0.4531  1.4919  0.1562
 9400SOL    HW239660   0.470   0.232   8.098  0.6903 -3.1477  1.8884
 9401SOL     OW39661   0.019   4.615  11.098  0.1991  0.4046 -0.4380
 9401SOL    HW139662   0.087   4.556  11.129 -2.4270 -1.5173  1.6219
 9401SOL    HW239663   0.026   4.592  11.005 -0.1816  0.5383 -0.4986
 9402SOL     OW39664   2.001   3.598   5.463 -0.0301 -0.0880  0.0663
 9402SOL    HW139665   1.906   3.608   5.465 -0.0924 -0.6370 -0.0592
 9402SOL    HW239666   2.021   3.546   5.385 -1.6522  2.7638 -2.2472
 9403SOL     OW39667   0.882   4.600   1.900 -0.5970  0.2902  0.6779
 9403SOL    HW139668   0.902   4.546   1.977 -1.7820 -0.6366  0.3256
 9403SOL    HW239669   0.928   4.679   1.929 -0.5531  1.2394 -2.0149
 9404SOL     OW39670   0.232   1.003   2.392 -0.9148  0.1252  0.5533
 9404SOL    HW139671   0.251   1.057   2.469  0.2357  1.2652 -0.5406
 9404SOL    HW239672   0.313   0.953   2.390 -1.6413 -1.1215  1.8591
 9405SOL     OW39673   0.901   1.090   2.379  0.0277 -0.4520  0.7581
 9405SOL    HW139674   0.933   1.177   2.358  1.7884 -2.0143 -3.0539
 9405SOL    HW239675   0.815   1.097   2.337  0.8731 -0.0050 -0.9001
 9406SOL     OW39676   3.846   1.238   6.387 -0.5285  0.0244  0.3143
 9406SOL    HW139677   3.915   1.243   6.453 -0.6158  1.1114  0.3200
 9406SOL    HW239678   3.903   1.268   6.316 -1.9775 -1.0528 -1.3165
 9407SOL     OW39679   0.220   2.887   3.414 -0.7405 -0.4700  0.3406
 9407SOL    HW139680   0.228   2.857   3.504  2.7723 -2.3193 -0.5743
 9407SOL    HW239681   0.191   2.813   3.360  0.2952 -0.5480 -0.1078
 9408SOL     OW39682   3.786   4.699  17.447 -0.1686  0.4834  0.3593
 9408SOL    HW139683   3.874   4.661  17.446 -0.6616 -0.6229 -1.9432
 9408SOL    HW239684   3.811   0.066  17.425  2.7350 -0.6825 -1.1717
 9409SOL     OW39685   3.160   3.454   3.719  0.5644 -0.3770  0.3065
 9409SOL    HW139686   3.144   3.490   3.631  0.1467  0.3493  0.6759
 9409SOL    HW239687   3.071   3.456   3.752  1.2477  0.6057  2.0735
 9410SOL     OW39688   3.447   1.761  14.910 -0.2213  0.9396 -0.2410
 9410SOL    HW139689   3.488   1.804  14.836  0.9209 -0.3513 -0.3636
 9410SOL    HW239690   3.482   1.673  14.892  0.8139  1.3446 -0.2405
 9411SOL     OW39691   1.409   1.090   3.811  0.1467 -0.5542 -0.2093
 9411SOL    HW139692   1.422   0.997   3.833  1.7936 -0.5711 -1.2619
 9411SOL    HW239693   1.348   1.091   3.736  2.3508  0.7190 -1.9847
 9412SOL     OW39694   0.516   3.819   5.121 -0.1841  0.1149 -0.0186
 9412SOL    HW139695   0.539   3.820   5.028 -0.7354 -2.4686 -0.1800
 9412SOL    HW239696   0.516   3.725   5.140  0.6043  0.3578  1.2272
 9413SOL     OW39697   0.308   1.404   3.761 -0.5760 -0.0161  0.0146
 9413SOL    HW139698   0.330   1.462   3.688  3.2204  0.2803  1.4240
 9413SOL    HW239699   0.229   1.453   3.784  0.2397  0.5757  1.5696
 9414SOL     OW39700   3.523   3.592  16.457 -0.1258  0.2756 -0.1476
 9414SOL    HW139701   3.574   3.646  16.516  0.3020 -1.1016  0.7459
 9414SOL    HW239702   3.540   3.633  16.372 -1.4401 -0.4044 -0.7434
 9415SOL     OW39703   1.152   4.474   3.826 -0.3844  0.0505  0.6520
 9415SOL    HW139704   1.143   4.448   3.918  1.2384  2.1494  1.4106
 9415SOL    HW239705   1.243   4.447   3.809 -1.1882 -0.8726 -2.2125
 9416SOL     OW39706   1.802   1.615   2.546 -0.3525 -0.0932  0.0702
 9416SOL    HW139707   1.836   1.559   2.476  1.5744  2.0333 -0.6933
 9416SOL    HW239708   1.709   1.604   2.523 -0.2692 -1.9275  0.6498
 9417SOL     OW39709   2.799   1.724  14.067 -0.3895 -0.3227  0.4905
 9417SOL    HW139710   2.810   1.818  14.080  0.7736 -0.2859 -0.6791
 9417SOL    HW239711   2.806   1.684  14.154  1.0372  0.7874  0.8797
 9418SOL     OW39712   3.511   4.014   1.321 -0.4749  0.2104 -0.2046
 9418SOL    HW139713   3.588   3.991   1.269 -0.0787  0.5582  0.2277
 9418SOL    HW239714   3.543   4.075   1.388  0.7922 -0.7534  0.0749
 9419SOL     OW39715   3.209   0.747   0.437 -0.4981 -0.3690 -0.0905
 9419SOL    HW139716   3.258   0.765   0.357  1.9788  0.0590  1.5130
 9419SOL    HW239717   3.286   0.760   0.492 -0.4145  0.3980 -0.3887
 9420SOL     OW39718   3.157   3.197   3.346 -0.1336  0.7059 -0.7567
 9420SOL    HW139719   3.205   3.221   3.425 -1.6486 -2.5039  1.1367
 9420SOL    HW239720   3.223   3.221   3.281 -1.0696  1.7424 -1.3252
 9421SOL     OW39721   2.604   3.962   6.699 -0.2693 -0.3149 -0.1259
 9421SOL    HW139722   2.650   4.010   6.631  1.5192  0.8142  1.8968
 9421SOL    HW239723   2.556   3.896   6.648 -4.9614  1.0503  2.4821
 9422SOL     OW39724   1.105   0.846   1.461 -0.2643 -0.3002  0.2272
 9422SOL    HW139725   1.044   0.907   1.419  2.2194  0.2165 -2.6273
 9422SOL    HW239726   1.124   0.894   1.541  1.0405  0.1045 -0.3355
 9423SOL     OW39727   0.911   1.635   4.558  0.1000  0.0657  0.4468
 9423SOL    HW139728   0.925   1.549   4.520  0.8856  0.0107  0.8650
 9423SOL    HW239729   0.832   1.654   4.506  0.2065 -2.0626 -0.4605
 9424SOL     OW39730   1.153   4.271  13.002 -0.3700 -0.9050 -0.1277
 9424SOL    HW139731   1.206   4.284  13.080  0.0630 -1.4746 -0.3265
 9424SOL    HW239732   1.162   4.360  12.965  1.4429 -0.5471  1.1710
 9425SOL     OW39733   2.955   1.576   8.749  0.4027  0.4001  0.0829
 9425SOL    HW139734   3.034   1.525   8.768  1.3653  2.7158  2.3753
 9425SOL    HW239735   2.968   1.640   8.820  0.5078 -1.3420  1.6342
 9426SOL     OW39736   4.309   3.122   7.391  0.6308 -0.6257 -0.2029
 9426SOL    HW139737   4.400   3.135   7.363  0.2124  1.3932 -0.6306
 9426SOL    HW239738   4.268   3.155   7.311 -0.6696  0.5721  0.9653
 9427SOL     OW39739   1.496   2.525   4.697  0.2561 -0.3450  0.2759
 9427SOL    HW139740   1.493   2.516   4.602 -0.7091  0.7103  0.2019
 9427SOL    HW239741   1.411   2.490   4.723 -0.1883  0.3627 -0.2095
 9428SOL     OW39742   2.166   2.199   5.990  0.1426 -0.4728 -0.3377
 9428SOL    HW139743   2.189   2.264   6.056 -0.7803  0.6492 -1.1134
 9428SOL    HW239744   2.248   2.178   5.946  2.2007 -1.0635  3.8246
 9429SOL     OW39745   1.767   0.358  10.674 -0.2745  0.0395 -0.3904
 9429SOL    HW139746   1.822   0.430  10.642  1.3884 -0.4604  1.3628
 9429SOL    HW239747   1.812   0.287  10.630 -0.9569 -0.3199 -0.5004
 9430SOL     OW39748   4.350   0.880   3.417 -0.1348  0.5122 -0.4844
 9430SOL    HW139749   4.301   0.848   3.492 -0.3503 -1.0403 -1.2853
 9430SOL    HW239750   4.285   0.942   3.382  1.3642  1.5784 -1.3921
 9431SOL     OW39751   0.541   2.552  11.629  0.0853  0.3288  0.0954
 9431SOL    HW139752   0.499   2.596  11.555 -1.0283 -4.3695 -2.0530
 9431SOL    HW239753   0.539   2.463  11.595  0.1945  0.0998  0.6873
 9432SOL     OW39754   0.682   3.974   1.856 -0.2447  0.0711  0.2672
 9432SOL    HW139755   0.720   3.964   1.769  0.2838 -1.4507  0.6797
 9432SOL    HW239756   0.587   3.964   1.848 -0.0669  0.1336 -1.8980
 9433SOL     OW39757   3.621   4.199  13.001 -0.0688 -0.3366  0.2467
 9433SOL    HW139758   3.543   4.232  13.046  0.2075  1.3969 -0.5643
 9433SOL    HW239759   3.665   4.186  13.085  0.6513  0.5938  0.0109
 9434SOL     OW39760   2.410   2.143   8.108  0.4112  0.1107  0.0836
 9434SOL    HW139761   2.461   2.224   8.102  0.4668  0.1615  1.3111
 9434SOL    HW239762   2.335   2.176   8.158  1.2676  1.2426  0.6208
 9435SOL     OW39763   2.349   4.272  11.193 -0.2406  0.6937 -0.5821
 9435SOL    HW139764   2.254   4.287  11.192 -0.0739  1.6489 -1.6395
 9435SOL    HW239765   2.377   4.272  11.284  1.4974  0.5714 -1.1165
 9436SOL     OW39766   0.208   3.572   3.030 -0.2179  0.0191 -0.4142
 9436SOL    HW139767   0.238   3.569   3.120 -0.4687 -1.9324 -0.4004
 9436SOL    HW239768   0.125   3.618   3.039 -0.4800 -0.5588  0.0956
 9437SOL     OW39769   3.097   3.257  13.095  0.3608  0.1483 -0.0966
 9437SOL    HW139770   3.110   3.228  13.185  0.0666  1.5266  0.3815
 9437SOL    HW239771   3.115   3.176  13.046  1.0646  0.0612  0.3059
 9438SOL     OW39772   2.980   4.534   1.607 -0.0534 -0.3214 -0.1837
 9438SOL    HW139773   3.054   4.522   1.548  0.9589  2.2020  0.5980
 9438SOL    HW239774   2.921   4.578   1.546 -0.5369 -0.6162  0.0699
 9439SOL     OW39775   4.409   1.905   4.920 -0.0111  0.4528  0.3672
 9439SOL    HW139776   4.488   1.854   4.902 -0.5166 -0.2584  0.1333
 9439SOL    HW239777   4.458   1.961   4.980  0.7477 -1.8176  1.8649
 9440SOL     OW39778   2.428   3.315   7.930 -0.2971 -0.3371 -0.7097
 9440SOL    HW139779   2.522   3.324   7.945 -0.7914  1.0837  1.6490
 9440SOL    HW239780   2.395   3.336   8.018  1.7362  0.8484 -0.2257
 9441SOL     OW39781   2.688   1.959   5.515  0.1796  0.3466  0.3529
 9441SOL    HW139782   2.753   1.991   5.452  0.7059  0.4342  0.9432
 9441SOL    HW239783   2.621   1.929   5.453  0.3717 -1.5818  1.1071
 9442SOL     OW39784   0.893   1.172   1.571 -0.1875 -0.0693  0.7047
 9442SOL    HW139785   0.932   1.223   1.641 -0.6194  1.3107 -0.0701
 9442SOL    HW239786   0.813   1.217   1.545 -0.4387 -2.4025 -2.6475
 9443SOL     OW39787   1.571   0.192   5.166 -0.1095 -1.1935  0.1115
 9443SOL    HW139788   1.538   0.149   5.087 -1.5399  1.4752 -0.7478
 9443SOL    HW239789   1.593   0.115   5.218  1.7777 -1.7240 -1.4328
 9444SOL     OW39790   2.010   0.287   3.921 -0.5069  0.5261  0.1780
 9444SOL    HW139791   1.948   0.244   3.981 -1.4621  0.7084 -0.6735
 9444SOL    HW239792   2.021   0.220   3.853 -0.1796 -0.2302  0.9670
 9445SOL     OW39793   2.536   2.620   4.869  0.3270  0.2782  0.1343
 9445SOL    HW139794   2.459   2.676   4.856  1.5016  1.8266 -0.0438
 9445SOL    HW239795   2.597   2.689   4.894 -0.9192  1.0188  1.1725
 9446SOL     OW39796   3.667   2.911  17.603 -0.4593  0.1098  0.0650
 9446SOL    HW139797   3.667   2.880   0.000 -1.4515 -3.2774 -1.1272
 9446SOL    HW239798   3.748   2.872  17.568 -0.4174 -0.6842  1.0787
 9447SOL     OW39799   2.766   3.376   7.402 -0.4646 -0.2713 -0.9761
 9447SOL    HW139800   2.722   3.424   7.472 -2.1321 -0.1233 -2.1214
 9447SOL    HW239801   2.702   3.385   7.332 -0.3153 -0.0754 -1.0856
 9448SOL     OW39802   1.360   4.582   8.920  0.0180  0.6614  0.1350
 9448SOL    HW139803   1.339   4.673   8.898 -0.6774  0.8863  1.7365
 9448SOL    HW239804   1.454   4.586   8.903 -0.1943  0.8090 -1.0241
 9449SOL     OW39805   2.134   0.723  11.391  0.3604 -0.0889  0.3457
 9449SOL    HW139806   2.177   0.806  11.373 -0.8060  0.5239  0.4265
 9449SOL    HW239807   2.058   0.719  11.333  0.6532  1.8692 -0.1681
 9450SOL     OW39808   0.042   1.176   9.088  0.4300 -0.1600 -0.5526
 9450SOL    HW139809   0.001   1.104   9.040 -1.0174  1.0440 -1.1050
 9450SOL    HW239810   0.095   1.133   9.156 -1.1491 -0.2782  0.6076
 9451SOL     OW39811   0.057   0.142   3.103 -0.4086 -0.2692  0.0263
 9451SOL    HW139812   0.040   0.065   3.049 -0.8149 -0.1436 -0.0243
 9451SOL    HW239813   4.688   0.143   3.130 -0.8579 -1.4218 -1.4733
 9452SOL     OW39814   3.109   4.340   3.198  0.0598 -0.1272  0.7427
 9452SOL    HW139815   3.097   4.386   3.115  1.5348  0.3225  0.7695
 9452SOL    HW239816   3.118   4.412   3.260  1.1355  0.7856 -0.4596
 9453SOL     OW39817   0.694   2.262   2.102  0.2008  0.8583 -0.0755
 9453SOL    HW139818   0.628   2.326   2.073  0.7528  1.3158 -0.3233
 9453SOL    HW239819   0.641   2.183   2.111 -0.5308  1.0124 -2.9248
 9454SOL     OW39820   1.417   4.082   8.223 -0.8352  0.2306 -0.1200
 9454SOL    HW139821   1.480   4.140   8.267 -3.0785  2.7577 -0.2422
 9454SOL    HW239822   1.339   4.138   8.220 -0.9381  0.1189  0.3737
 9455SOL     OW39823   0.569   1.951   7.790 -0.6013 -0.4958 -0.3750
 9455SOL    HW139824   0.614   2.011   7.849 -2.4607  1.0081 -0.4983
 9455SOL    HW239825   0.634   1.934   7.722  0.4177  2.0935 -0.0386
 9456SOL     OW39826   4.056   0.004   7.920  0.0407  0.2713 -0.9160
 9456SOL    HW139827   4.020   0.026   7.834  0.3949 -1.5708 -1.5384
 9456SOL    HW239828   4.148   0.031   7.921  0.5292 -1.4651  0.1214
 9457SOL     OW39829   0.556   0.734   4.516  0.1414 -0.0179  0.1002
 9457SOL    HW139830   0.602   0.814   4.541  0.5179 -0.7910  1.8682
 9457SOL    HW239831   0.470   0.768   4.494  0.0353 -0.0458  0.4671
 9458SOL     OW39832   0.538   0.988  11.628  0.2297 -0.0257 -0.0799
 9458SOL    HW139833   0.594   0.965  11.555 -0.2402 -1.3125 -0.0315
 9458SOL    HW239834   0.474   0.921  11.605 -0.7147  0.5096  0.9613
 9459SOL     OW39835   4.606   0.791   8.350  0.4308 -0.0195  0.3390
 9459SOL    HW139836   4.664   0.726   8.390  0.7318 -0.7138 -1.2295
 9459SOL    HW239837   4.627   0.780   8.257 -1.1985  1.4995 -0.2055
 9460SOL     OW39838   0.641   0.386  16.937 -0.1645  0.1895  0.1782
 9460SOL    HW139839   0.586   0.319  16.896 -0.0071  0.3531 -0.2976
 9460SOL    HW239840   0.642   0.449  16.865  0.4432  0.4987  0.4601
 9461SOL     OW39841   2.444   3.591   8.348  0.0897 -0.3180 -0.0921
 9461SOL    HW139842   2.448   3.613   8.441 -0.3848  0.9833 -0.3750
 9461SOL    HW239843   2.358   3.555   8.368  0.4172 -0.5258  0.9782
 9462SOL     OW39844   3.924   2.434   2.548 -0.7582  0.3836 -0.1483
 9462SOL    HW139845   3.907   2.455   2.639  1.9200 -1.1806  0.7169
 9462SOL    HW239846   3.998   2.374   2.558 -1.3256 -0.2932  0.0234
 9463SOL     OW39847   2.211   3.261   5.474 -0.4514  0.0223  0.0673
 9463SOL    HW139848   2.160   3.270   5.394  0.7727 -1.2506 -0.8451
 9463SOL    HW239849   2.177   3.331   5.530  2.5864  0.5021  1.2957
 9464SOL     OW39850   1.544   2.872  12.072 -0.0309 -0.4998 -0.2155
 9464SOL    HW139851   1.530   2.823  11.990  0.6852  1.4570 -1.4985
 9464SOL    HW239852   1.615   2.933  12.053 -0.6749  1.0848  2.4869
 9465SOL     OW39853   0.940   3.259   8.837  0.0645  0.3415  0.4571
 9465SOL    HW139854   0.861   3.210   8.858 -1.7734  1.8769 -3.0367
 9465SOL    HW239855   0.909   3.344   8.867  2.9754  1.4231  0.4171
 9466SOL     OW39856   2.391   2.969   4.939  0.1584 -0.0321  0.0952
 9466SOL    HW139857   2.434   3.044   4.980 -2.4312  1.5079 -0.0025
 9466SOL    HW239858   2.389   2.914   5.017  0.7806  1.8600  1.4555
 9467SOL     OW39859   3.727   4.647   4.259  0.2043 -0.2882 -0.2724
 9467SOL    HW139860   3.751   4.571   4.206  1.9708 -0.6269  0.9915
 9467SOL    HW239861   3.810   4.694   4.271  0.1003 -0.0987 -0.3016
 9468SOL     OW39862   4.006   3.624   2.534 -0.1767 -0.5961 -0.1411
 9468SOL    HW139863   4.025   3.531   2.546 -0.0775 -0.5454  0.0974
 9468SOL    HW239864   3.916   3.626   2.500  0.2514 -1.7539 -1.3457
 9469SOL     OW39865   1.576   1.980   1.158 -0.3072 -0.7465  0.4639
 9469SOL    HW139866   1.518   2.051   1.187 -1.3822 -0.7678 -1.6380
 9469SOL    HW239867   1.631   1.977   1.237  1.9823  1.7154 -1.0336
 9470SOL     OW39868   1.462   4.658   1.929 -0.0086 -0.2493 -0.5375
 9470SOL    HW139869   1.474   4.683   2.020  0.3382  0.1593 -0.6935
 9470SOL    HW239870   1.371   4.630   1.940  0.7343 -1.6135  1.9803
 9471SOL     OW39871   0.382   2.852  15.769  0.0733  0.0352  0.0480
 9471SOL    HW139872   0.322   2.831  15.840  2.7205 -0.9529  2.0211
 9471SOL    HW239873   0.399   2.762  15.741 -1.8783 -0.9719  2.1825
 9472SOL     OW39874   3.323   3.493   1.124  0.3405 -0.0369  0.1474
 9472SOL    HW139875   3.299   3.463   1.212 -0.2223  2.0561  0.6932
 9472SOL    HW239876   3.410   3.522   1.148  0.9452 -1.2057 -0.6311
 9473SOL     OW39877   4.690   4.718   9.033  0.5756 -0.2246 -0.1931
 9473SOL    HW139878   4.672   0.082   8.999 -0.4044 -0.3294  0.0770
 9473SOL    HW239879   4.653   0.002   9.120 -1.4634  0.9424 -1.1652
 9474SOL     OW39880   4.441   4.259   6.347 -0.3500  0.1895  0.0570
 9474SOL    HW139881   4.471   4.324   6.284 -1.7972  2.0060  1.2407
 9474SOL    HW239882   4.522   4.241   6.395 -0.0746  1.8228  0.1905
 9475SOL     OW39883   4.511   3.874   4.288  0.2541  0.7735  0.0813
 9475SOL    HW139884   4.429   3.852   4.333  1.1258 -2.1076  0.3053
 9475SOL    HW239885   4.560   3.793   4.305 -1.3138 -0.5892 -1.8925
 9476SOL     OW39886   4.441   0.992   9.956  0.5954 -0.4305 -0.4728
 9476SOL    HW139887   4.485   0.928  10.011  0.3640 -0.6513 -0.5463
 9476SOL    HW239888   4.372   0.947   9.908  1.4825 -1.5107 -0.7217
 9477SOL     OW39889   2.623   0.340   2.851 -0.5569 -0.3563 -0.1541
 9477SOL    HW139890   2.636   0.393   2.772 -1.7741 -0.2851 -0.2980
 9477SOL    HW239891   2.664   0.256   2.831 -1.9633 -0.3373 -3.0597
 9478SOL     OW39892   3.693   3.226   0.119  0.0855 -0.2736 -0.1110
 9478SOL    HW139893   3.614   3.176   0.099 -1.0897  1.5830 -0.0820
 9478SOL    HW239894   3.764   3.171   0.085  0.7038  0.6887 -0.3859
 9479SOL     OW39895   0.809   0.315   8.551  0.2299  0.3498 -0.1471
 9479SOL    HW139896   0.749   0.376   8.594 -0.1967  0.2841 -0.6565
 9479SOL    HW239897   0.839   0.375   8.483  0.9884 -0.1626 -0.2561
 9480SOL     OW39898   1.304   4.485   1.178 -0.2398  0.4571 -0.2203
 9480SOL    HW139899   1.317   4.489   1.084 -0.2621  0.4894 -0.2223
 9480SOL    HW239900   1.363   4.557   1.203  0.5599  0.1021 -1.1223
 9481SOL     OW39901   1.442   1.529   9.299  0.0465 -0.0521 -0.2133
 9481SOL    HW139902   1.466   1.477   9.223 -0.3034 -0.0120 -0.3503
 9481SOL    HW239903   1.347   1.519   9.293  0.4612 -2.0745 -2.9742
 9482SOL     OW39904   3.184   0.133  11.557 -0.1033 -0.3694  0.2257
 9482SOL    HW139905   3.247   0.184  11.505 -0.2625  1.4540  1.8428
 9482SOL    HW239906   3.237   0.054  11.559  1.6970  0.7812 -1.3361
 9483SOL     OW39907   0.738   2.293  12.648  0.1918  0.4100 -0.0200
 9483SOL    HW139908   0.801   2.222  12.632 -0.1598 -0.2591  1.5456
 9483SOL    HW239909   0.676   2.274  12.577  3.1232 -0.8924 -2.2591
 9484SOL     OW39910   4.340   0.153   7.864 -0.5099 -0.0247  0.3659
 9484SOL    HW139911   4.288   0.228   7.894 -0.1507  0.4405 -0.1714
 9484SOL    HW239912   4.395   0.136   7.941  1.9811 -1.0042 -1.6515
 9485SOL     OW39913   3.767   0.979   8.074 -0.2368 -0.0682  0.1645
 9485SOL    HW139914   3.819   0.950   8.149 -1.0847 -1.8712  0.0497
 9485SOL    HW239915   3.762   0.900   8.019 -0.2265  1.0292 -1.4330
 9486SOL     OW39916   1.368   0.630  11.857 -0.2160  0.0472 -0.0622
 9486SOL    HW139917   1.376   0.688  11.781 -0.7062  0.8743  0.5292
 9486SOL    HW239918   1.279   0.595  11.851 -0.4304  0.2787  1.8951
 9487SOL     OW39919   4.339   3.764   9.835  0.8167  0.0018  0.5799
 9487SOL    HW139920   4.282   3.774   9.911  0.3144  1.3915  0.0091
 9487SOL    HW239921   4.361   3.671   9.840 -1.9564 -0.7352 -0.5929
 9488SOL     OW39922   4.212   2.226   6.996  0.0820 -0.3812 -0.2235
 9488SOL    HW139923   4.210   2.130   6.995  1.2220 -0.3696 -2.1989
 9488SOL    HW239924   4.125   2.233   6.956 -0.3339 -0.6550  0.6202
 9489SOL     OW39925   4.253   1.382   1.531 -0.3262 -0.0026 -0.4237
 9489SOL    HW139926   4.264   1.410   1.621  0.8086  0.1558 -0.6084
 9489SOL    HW239927   4.343   1.353   1.519 -1.0364 -2.8772  1.3521
 9490SOL     OW39928   4.478   2.752  17.523  0.1079 -0.0070 -0.5187
 9490SOL    HW139929   4.535   2.763  17.599  0.3480 -0.4572 -0.6329
 9490SOL    HW239930   4.527   2.774  17.444  1.0522 -1.9082 -0.4502
 9491SOL     OW39931   2.816   0.326  10.980  0.2478  0.2745 -0.2936
 9491SOL    HW139932   2.870   0.356  11.053 -0.2180  0.9308 -0.2254
 9491SOL    HW239933   2.746   0.277  11.024  0.6378  0.4386  0.5010
 9492SOL     OW39934   3.679   0.056   7.951  0.3153  0.1260 -0.2985
 9492SOL    HW139935   3.652   4.694   7.988  0.3491  0.0379 -0.4739
 9492SOL    HW239936   3.674   0.026   7.860  0.1597  0.4793 -0.4049
 9493SOL     OW39937   1.374   2.079   1.568  0.4931 -0.3079  0.1131
 9493SOL    HW139938   1.317   2.156   1.562  0.1415 -0.5444  0.4104
 9493SOL    HW239939   1.458   2.120   1.549 -0.7982  3.1352  1.7300
 9494SOL     OW39940   4.394   1.612  13.837  0.0544 -0.0216  0.0400
 9494SOL    HW139941   4.389   1.638  13.929 -0.8133  0.7418 -0.2219
 9494SOL    HW239942   4.326   1.671  13.806  0.4540  0.5095  0.1643
 9495SOL     OW39943   3.655   2.165   3.306  0.1694  0.5509 -0.3030
 9495SOL    HW139944   3.749   2.158   3.322 -0.0640 -0.9631  0.4019
 9495SOL    HW239945   3.629   2.255   3.324 -0.7043  0.3640 -0.6436
 9496SOL     OW39946   0.001   0.760   4.178  0.4167 -0.0895  0.0293
 9496SOL    HW139947   4.697   0.794   4.093  1.3038  2.3211  0.7210
 9496SOL    HW239948   0.024   0.674   4.145  0.3861 -0.7704  1.7882
 9497SOL     OW39949   0.185   4.058  13.172 -0.2420 -0.4268 -0.7870
 9497SOL    HW139950   0.105   4.089  13.215 -0.5570 -1.1326 -0.8632
 9497SOL    HW239951   0.232   4.141  13.160  1.3328 -1.3776 -1.1994
 9498SOL     OW39952   0.636   4.128   0.794 -0.5875 -1.0359 -0.6450
 9498SOL    HW139953   0.700   4.198   0.784  2.1907 -3.4221  0.5100
 9498SOL    HW239954   0.676   4.070   0.858  0.1089  0.3834  0.1899
 9499SOL     OW39955   1.330   1.260   6.316 -0.6344  0.1333  0.4766
 9499SOL    HW139956   1.406   1.317   6.303 -1.3769  0.8650 -0.6379
 9499SOL    HW239957   1.369   1.174   6.329 -1.2526 -0.1768  0.2712
 9500SOL     OW39958   0.238   1.989   0.351  0.3749 -0.2103 -0.1904
 9500SOL    HW139959   0.286   2.041   0.415  0.4450  0.7104 -1.0102
 9500SOL    HW239960   0.209   1.919   0.410  0.8124 -1.1576 -1.1017
 9501SOL     OW39961   0.262   2.318   3.860 -0.3618  0.7320 -0.2937
 9501SOL    HW139962   0.209   2.393   3.833 -1.1620  0.4036  0.3472
 9501SOL    HW239963   0.348   2.350   3.886 -1.1121  2.5082 -0.0174
 9502SOL     OW39964   0.572   2.695  10.620 -0.2315 -0.2550  0.3980
 9502SOL    HW139965   0.574   2.615  10.567 -1.7218  0.8287 -1.2864
 9502SOL    HW239966   0.529   2.667  10.700  1.1787 -1.7697  0.6381
 9503SOL     OW39967   2.262   3.111   8.408 -0.1070  0.0642  0.0657
 9503SOL    HW139968   2.247   3.121   8.314 -1.4592 -0.3265  0.2506
 9503SOL    HW239969   2.317   3.033   8.400  0.6730  0.7034 -0.8338
 9504SOL     OW39970   2.689   3.375   7.957  0.0862 -0.3045  0.2803
 9504SOL    HW139971   2.763   3.335   8.002  0.5305 -0.8381 -0.9213
 9504SOL    HW239972   2.650   3.437   8.019  1.7922  1.8530 -0.7999
 9505SOL     OW39973   4.570   0.488  13.491 -0.3065  0.5177  0.4975
 9505SOL    HW139974   4.646   0.456  13.442 -0.3432 -0.5211  1.1168
 9505SOL    HW239975   4.498   0.448  13.442  0.8625  0.9061 -1.5259
 9506SOL     OW39976   2.618   4.668   7.579 -0.3622  0.2814 -0.3763
 9506SOL    HW139977   2.663   4.602   7.632 -1.3305  0.5258  0.7540
 9506SOL    HW239978   2.532   4.627   7.577 -1.5974  2.7836  0.8705
 9507SOL     OW39979   4.051   4.663  17.670 -0.2471 -0.1529 -0.0613
 9507SOL    HW139980   4.057   4.600   0.049  2.3399  1.4563  1.1143
 9507SOL    HW239981   4.002   0.012   0.018 -0.0018 -0.8010  1.3702
 9508SOL     OW39982   1.436   0.825  10.253 -0.8760 -0.1896  0.4331
 9508SOL    HW139983   1.477   0.792  10.333 -0.1933  1.1070  0.6247
 9508SOL    HW239984   1.446   0.914  10.287  0.6021 -0.7250  1.3859
 9509SOL     OW39985   2.054   0.758   0.560  0.2471  0.5964  0.0121
 9509SOL    HW139986   1.978   0.767   0.502 -1.0364  0.8502  1.7375
 9509SOL    HW239987   2.054   0.665   0.583  1.2599  0.2465 -1.4123
 9510SOL     OW39988   2.119   0.153   5.363 -0.6926  0.3902 -0.0761
 9510SOL    HW139989   2.162   0.068   5.363  1.3328  1.4365  1.7656
 9510SOL    HW239990   2.185   0.207   5.319 -2.3609  1.3447 -1.4081
 9511SOL     OW39991   4.172   2.800   7.778 -0.0036 -0.6098 -0.0282
 9511SOL    HW139992   4.135   2.826   7.694 -0.5851 -0.8107  0.1672
 9511SOL    HW239993   4.131   2.715   7.794  1.0237 -1.4747 -1.9581
 9512SOL     OW39994   1.738   0.393   9.028  0.1965  0.1732  0.5705
 9512SOL    HW139995   1.701   0.481   9.014  2.0559  0.8855  0.2002
 9512SOL    HW239996   1.719   0.374   9.120 -0.4659  1.8536  0.7795
 9513SOL     OW39997   2.965   3.199   4.362 -0.4649 -0.1686 -0.0917
 9513SOL    HW139998   2.919   3.260   4.421 -1.0247  1.1540 -1.9218
 9513SOL    HW239999   3.049   3.192   4.407 -0.2617  0.3643 -0.3899
 9514SOL     OW40000   3.036   1.900   3.678 -0.6336  0.2986 -0.1141
 9514SOL    HW140001   2.968   1.904   3.745 -1.1297 -3.5621 -0.3860
 9514SOL    HW240002   3.004   1.823   3.631  0.1534  0.4203 -0.8649
 9515SOL     OW40003   4.522   1.792   1.828  0.6622 -0.0447  0.0962
 9515SOL    HW140004   4.609   1.823   1.804 -1.1315  3.4313 -1.8464
 9515SOL    HW240005   4.518   1.716   1.770 -0.0823 -0.8844  1.2325
 9516SOL     OW40006   3.965   4.523   1.904 -0.0938  0.0276  0.0368
 9516SOL    HW140007   3.983   4.610   1.941  0.6354 -0.3070  0.4682
 9516SOL    HW240008   4.059   4.503   1.906  0.1660  1.3294  1.0442
 9517SOL     OW40009   0.276   1.915   7.752 -0.4152 -0.0181  0.0050
 9517SOL    HW140010   0.232   1.998   7.774 -1.2882 -0.2756 -0.7907
 9517SOL    HW240011   0.363   1.952   7.734 -0.0591 -1.3046 -0.8771
 9518SOL     OW40012   4.062   3.810  14.986  0.7394  0.2209  0.8234
 9518SOL    HW140013   3.997   3.827  15.054  0.1377 -0.7248  0.4845
 9518SOL    HW240014   4.013   3.788  14.907 -2.5589 -1.2684  3.2601
 9519SOL     OW40015   3.465   3.925  10.261  0.4596  0.0341 -0.7073
 9519SOL    HW140016   3.472   3.865  10.187  1.6574  1.9818 -2.1656
 9519SOL    HW240017   3.503   4.002  10.219 -1.7555  0.0758 -2.6106
 9520SOL     OW40018   2.287   1.622  15.997  0.7095  0.4284 -0.4066
 9520SOL    HW140019   2.218   1.676  15.957  0.9727  1.3006  0.3241
 9520SOL    HW240020   2.348   1.692  16.021 -0.9476  1.7253  0.0511
 9521SOL     OW40021   4.625   2.757   4.635 -0.3529  0.1719 -0.4627
 9521SOL    HW140022   4.644   2.685   4.575 -0.9242 -1.5585  1.4492
 9521SOL    HW240023   4.535   2.738   4.662 -0.4637  0.3970 -0.6758
 9522SOL     OW40024   4.003   3.619   3.547 -0.0181 -0.0237  0.9027
 9522SOL    HW140025   4.068   3.595   3.482 -0.6460  1.8494 -0.4310
 9522SOL    HW240026   4.055   3.685   3.593  0.0818  0.3292  0.2895
 9523SOL     OW40027   2.561   3.886   3.472  0.0061 -1.1541 -0.3901
 9523SOL    HW140028   2.556   3.794   3.444 -2.3317 -0.9059 -0.7729
 9523SOL    HW240029   2.533   3.939   3.397  1.2530  1.0633  0.7197
 9524SOL     OW40030   0.133   2.969   8.917  0.4297  0.0850 -0.6482
 9524SOL    HW140031   0.106   2.999   9.004  0.8513  0.6080 -0.7020
 9524SOL    HW240032   0.078   3.022   8.859 -0.7585 -0.2162  0.2061
 9525SOL     OW40033   0.720   0.972   4.260  0.4396 -0.0867 -0.6750
 9525SOL    HW140034   0.744   0.959   4.351  1.4136  0.2919 -0.8740
 9525SOL    HW240035   0.753   0.888   4.227  1.7863  0.5390 -0.9149
 9526SOL     OW40036   2.534   0.202  12.890 -0.1227  0.6395 -0.6102
 9526SOL    HW140037   2.456   0.156  12.920  2.1719 -3.1952 -0.6090
 9526SOL    HW240038   2.598   0.175  12.955  0.1015 -2.9400 -2.3671
 9527SOL     OW40039   4.585   0.955   3.312 -0.5234  0.0301 -0.2424
 9527SOL    HW140040   4.572   0.953   3.217  2.5383  0.0288 -0.6826
 9527SOL    HW240041   4.501   0.917   3.338 -0.5350  0.7233  0.7126
 9528SOL     OW40042   2.325   3.658  16.522 -0.0453  0.3141 -0.1871
 9528SOL    HW140043   2.269   3.680  16.447 -1.1607 -0.4671  0.4148
 9528SOL    HW240044   2.260   3.597  16.557 -2.4122  1.1314 -3.0251
 9529SOL     OW40045   2.721   1.043   4.959 -0.0056  0.3026 -0.7125
 9529SOL    HW140046   2.710   0.950   4.976 -1.1004  0.0434 -2.8486
 9529SOL    HW240047   2.709   1.070   5.050  2.0072  0.9673 -0.6521
 9530SOL     OW40048   0.511   0.195  17.496 -0.2168  0.4637 -0.2747
 9530SOL    HW140049   0.510   0.264  17.562  1.3466  0.0241  0.2178
 9530SOL    HW240050   0.476   0.240  17.419 -0.4760 -0.0949 -0.4827
 9531SOL     OW40051   2.824   3.675   3.598 -0.1771 -0.4424 -0.0132
 9531SOL    HW140052   2.815   3.689   3.503 -0.2736  0.7404  0.1714
 9531SOL    HW240053   2.863   3.760   3.615 -0.3368  0.1540 -2.5707
 9532SOL     OW40054   2.923   3.665   7.411  0.2594 -0.1819 -0.2705
 9532SOL    HW140055   2.860   3.662   7.483 -0.0404  1.0486 -0.4820
 9532SOL    HW240056   3.001   3.627   7.450  1.5897  0.3768 -2.4334
 9533SOL     OW40057   2.967   1.357   0.579  0.2297 -0.2738  0.1092
 9533SOL    HW140058   2.937   1.405   0.502  0.6623 -0.8757 -0.4352
 9533SOL    HW240059   3.037   1.297   0.553  1.3742  0.2085  2.0508
 9534SOL     OW40060   4.068   1.791   4.061 -0.4746 -0.1862  0.0713
 9534SOL    HW140061   4.105   1.833   4.139  0.0058  2.0869 -1.3847
 9534SOL    HW240062   4.060   1.866   4.002 -0.4566  0.5985  1.0743
 9535SOL     OW40063   0.307   3.866  11.356  0.7692  0.5816  0.0512
 9535SOL    HW140064   0.277   3.844  11.268  0.6220  1.6791 -0.1699
 9535SOL    HW240065   0.379   3.804  11.356  1.7669  1.7326 -1.0470
 9536SOL     OW40066   2.073   1.482   7.981  0.1283 -0.4387  0.2633
 9536SOL    HW140067   2.044   1.412   8.039 -2.0760 -0.4243 -0.8227
 9536SOL    HW240068   2.030   1.453   7.900 -0.4512  1.5121 -0.1097
 9537SOL     OW40069   0.213   2.671  10.349  0.8471  0.4467  0.4892
 9537SOL    HW140070   0.186   2.623  10.428  0.9186  1.6336  1.2484
 9537SOL    HW240071   0.267   2.607  10.303  0.1056  0.1149  0.0867
 9538SOL     OW40072   3.584   0.576   8.707 -0.3871 -0.1490  0.6914
 9538SOL    HW140073   3.584   0.670   8.693  2.8731 -0.4911 -1.6988
 9538SOL    HW240074   3.639   0.554   8.631 -1.1260 -0.4290  0.2347
 9539SOL     OW40075   4.419   4.382  13.521 -0.3289 -0.0895  0.9867
 9539SOL    HW140076   4.490   4.392  13.584 -0.0611 -0.6377  0.7694
 9539SOL    HW240077   4.383   4.296  13.545  1.3986 -0.6604  1.4789
 9540SOL     OW40078   3.609   3.600  10.182  0.1105 -0.1786  0.2529
 9540SOL    HW140079   3.584   3.656  10.109  1.0567 -2.2453 -1.6701
 9540SOL    HW240080   3.680   3.649  10.225  0.8843  0.5177 -1.7926
 9541SOL     OW40081   1.804   3.801  10.507 -0.1872  0.8272 -0.0444
 9541SOL    HW140082   1.897   3.811  10.490 -0.1412  0.5041  0.0229
 9541SOL    HW240083   1.799   3.817  10.602 -4.1492 -1.4453  0.1403
 9542SOL     OW40084   3.426   3.192  10.200 -0.1704  0.0691 -0.0820
 9542SOL    HW140085   3.384   3.265  10.245  2.2111  1.2931  0.1852
 9542SOL    HW240086   3.360   3.124  10.190  0.7492 -1.0525  1.5209
 9543SOL     OW40087   4.249   2.283   6.579 -0.2171  0.2776 -0.3331
 9543SOL    HW140088   4.310   2.314   6.645 -1.0256  0.2062  0.4430
 9543SOL    HW240089   4.241   2.364   6.528 -1.6009  0.5824  0.3564
 9544SOL     OW40090   4.493   1.440  10.937  0.2024 -0.6988 -0.4159
 9544SOL    HW140091   4.461   1.377  10.872 -3.3996 -0.5457  1.2662
 9544SOL    HW240092   4.501   1.523  10.889  1.7524  0.5555  2.0364
 9545SOL     OW40093   0.126   2.496   8.293 -0.4194 -0.1138 -0.4401
 9545SOL    HW140094   0.220   2.493   8.277 -0.0367  0.8042  1.7462
 9545SOL    HW240095   0.122   2.455   8.379  1.7309 -1.0753 -0.7972
 9546SOL     OW40096   2.215   0.722  13.412  0.4679  0.6192  0.0517
 9546SOL    HW140097   2.159   0.766  13.475  0.0427  0.4488 -0.1992
 9546SOL    HW240098   2.158   0.737  13.336  0.0677 -1.4130 -0.0682
 9547SOL     OW40099   3.699   2.681  12.199 -0.1921  0.2741  0.4855
 9547SOL    HW140100   3.675   2.604  12.251 -0.7892  0.4184  0.4198
 9547SOL    HW240101   3.642   2.652  12.128  1.1711  0.5455 -0.7097
 9548SOL     OW40102   3.376   0.479   4.605 -0.3011  0.3178 -0.4803
 9548SOL    HW140103   3.406   0.515   4.688 -2.1496 -2.0153  1.2075
 9548SOL    HW240104   3.449   0.434   4.561  0.2929  1.3513 -0.5397
 9549SOL     OW40105   2.002   1.790   3.251 -0.0084 -0.4137 -0.3443
 9549SOL    HW140106   2.091   1.757   3.259 -0.2938 -1.2055 -0.4302
 9549SOL    HW240107   1.966   1.771   3.338  2.4288  1.8187  1.1403
 9550SOL     OW40108   3.254   3.263   4.559 -0.4243  0.3047 -0.3761
 9550SOL    HW140109   3.305   3.343   4.570 -0.3698  0.1176  0.7515
 9550SOL    HW240110   3.314   3.196   4.592  0.3736  0.8485 -0.7194
 9551SOL     OW40111   3.112   4.520   0.916  0.3222  0.0909  0.0077
 9551SOL    HW140112   3.169   4.563   0.980 -1.6801 -0.3424  2.0876
 9551SOL    HW240113   3.066   4.600   0.889  0.8136  0.5417  0.4915
 9552SOL     OW40114   0.578   3.615   4.599 -0.9737  0.4404  0.0255
 9552SOL    HW140115   0.537   3.616   4.513  1.3985 -1.8659 -1.1268
 9552SOL    HW240116   0.509   3.667   4.641 -1.0721  1.7140 -1.7473
 9553SOL     OW40117   1.190   1.843   6.425  0.2557  0.2562  0.4528
 9553SOL    HW140118   1.181   1.750   6.447 -0.5134  0.0116 -0.9101
 9553SOL    HW240119   1.195   1.845   6.330 -0.5939 -1.4117  0.3640
 9554SOL     OW40120   3.070   0.078   0.164 -0.2460  0.1878  0.6482
 9554SOL    HW140121   3.054   0.107   0.253 -0.9960  0.0014  0.5765
 9554SOL    HW240122   2.979   0.075   0.134  0.2493  0.2543 -0.8566
 9555SOL     OW40123   0.701   3.561  15.885 -0.8901  0.6972  0.3382
 9555SOL    HW140124   0.609   3.562  15.857 -0.6891 -1.1484 -0.4220
 9555SOL    HW240125   0.733   3.648  15.863 -0.8765  0.8112  0.8257
 9556SOL     OW40126   4.416   1.956   3.034 -0.0453 -0.0229  0.4381
 9556SOL    HW140127   4.491   1.977   2.978 -1.0275 -1.1665 -1.3268
 9556SOL    HW240128   4.453   1.926   3.117 -2.9758  0.0782  1.7915
 9557SOL     OW40129   0.895   3.719   1.051 -0.0581  0.3337  0.0309
 9557SOL    HW140130   0.970   3.683   1.004 -0.6851 -1.3045  0.2532
 9557SOL    HW240131   0.829   3.656   1.019  0.4862  0.9160 -2.2293
 9558SOL     OW40132   4.023   1.174   8.089 -0.4777  0.0375  0.0624
 9558SOL    HW140133   4.051   1.213   8.007  0.4380  0.0011  0.3508
 9558SOL    HW240134   3.930   1.195   8.093  0.3585  4.0758 -1.8466
 9559SOL     OW40135   4.066   1.230   2.168  0.3417  0.5746  0.7880
 9559SOL    HW140136   4.112   1.206   2.249 -1.0009  0.8822  1.6413
 9559SOL    HW240137   3.983   1.271   2.191  0.8181  1.6151  0.6309
 9560SOL     OW40138   0.279   4.629  11.295  0.4434 -0.0059 -0.4082
 9560SOL    HW140139   0.289   4.593  11.207  0.7138 -1.0408  0.0495
 9560SOL    HW240140   0.241   4.715  11.276  0.2864  0.0943  0.3590
 9561SOL     OW40141   4.405   2.522   3.488  0.4094 -0.5994 -0.9371
 9561SOL    HW140142   4.351   2.509   3.410 -2.0932 -1.3718  0.9082
 9561SOL    HW240143   4.428   2.614   3.473 -1.4140 -0.0092 -0.1425
 9562SOL     OW40144   0.113   1.297  14.039 -0.7140  0.3930  0.1513
 9562SOL    HW140145   0.132   1.386  14.012  0.9523  0.1767  0.6268
 9562SOL    HW240146   0.070   1.261  13.961  0.7616  3.0840 -1.9308
 9563SOL     OW40147   2.007   2.019   5.831 -0.2543  0.2740 -0.1450
 9563SOL    HW140148   2.068   2.056   5.895 -0.8035  0.9583 -0.0070
 9563SOL    HW240149   1.971   2.105   5.807 -0.8362  0.6812  2.1281
 9564SOL     OW40150   0.721   3.166  16.465  0.0532  0.3229  0.1636
 9564SOL    HW140151   0.719   3.079  16.505 -1.6351  0.4442  0.3479
 9564SOL    HW240152   0.649   3.154  16.402 -0.0731 -1.1557  0.5692
 9565SOL     OW40153   0.743   4.387   5.430 -0.2023 -0.1935  0.1541
 9565SOL    HW140154   0.664   4.441   5.428 -0.0741  0.0770  2.7168
 9565SOL    HW240155   0.719   4.316   5.489  2.7155  0.8658  2.6068
   4.72263   4.72263  17.69253
