Membrane in water
40155
    1TCq1    O1    1   2.281   1.864  10.940 -0.0144  0.5501  0.2358
    1TCq1    C1    2   2.225   1.963  11.014  0.5024  0.4086 -0.6917
    1TCq1    O2    3   2.108   1.993  11.026  0.0379 -0.4208  0.0471
    1TCq1    C2    4   2.327   1.985  11.123  0.1737  0.0652 -0.4706
    1TCq1    C3    5   2.463   1.970  11.090  0.1518 -0.2699 -0.3354
    1TCq1    C4    6   2.547   1.931  11.192 -0.4739  0.5172  0.0331
    1TCq1    C5    7   2.496   1.895  11.317 -0.2659  0.5249  0.6990
    1TCq1    C6    8   2.365   1.911  11.340 -0.5454  0.0954  0.1287
    1TCq1    C7    9   2.281   1.959  11.246 -0.0367  0.8338  0.3380
    1TCq1    C8   10   2.310   1.884  11.475  0.1537 -0.5153  0.1434
    1TCq1    O4   11   2.211   1.951  11.506  0.3417 -0.2799  0.5201
    1TCq1    C9   12   2.692   1.920  11.177 -0.8395  0.3545  0.0488
    1TCq1    O5   13   2.747   1.982  11.086 -0.3061  0.3978  0.5593
    1TCq1    O6   14   2.746   1.833  11.250 -0.2087  0.1814 -0.8891
    1TCq1    H1   15   2.377   1.855  10.959  0.5599  2.6889 -1.7616
    1TCq1    H2   16   2.501   1.981  10.988 -1.0513  1.7480 -0.5598
    1TCq1    H3   17   2.567   1.863  11.392  0.7165  1.3342  0.1250
    1TCq1    H4   18   2.174   1.951  11.259 -0.2321 -0.0946 -1.8087
    2MPD2     C   19   2.371   1.686  11.934  0.5612  0.2234  0.3440
    2MPD2    C1   20   2.279   1.784  11.899 -0.5670 -0.3768  0.2401
    2MPD2    C2   21   2.288   1.830  11.769 -0.2448 -1.0417  0.5816
    2MPD2    C3   22   2.380   1.770  11.684  0.3987 -0.6495 -0.0596
    2MPD2    C4   23   2.468   1.675  11.728 -1.3083 -0.3683 -0.2969
    2MPD2    C5   24   2.469   1.641  11.858 -0.1018 -0.8071  0.3719
    2MPD2     H   25   2.218   1.907  11.739  0.9464 -0.5801 -1.0124
    2MPD2    H1   26   2.548   1.641  11.663  0.6441 -0.9368  2.3802
    2MPD2    H2   27   2.372   1.651  12.037 -2.3757 -2.6311 -0.5896
    2MPD2    H3   28   2.534   1.560  11.887  0.9557 -0.8444 -2.1072
    2MPD2     N   29   2.391   1.808  11.549  0.0887 -0.1759  0.1884
    2MPD2    H5   30   2.458   1.754  11.495  0.5737 -0.5131  1.1221
    2MPD2    N1   31   2.194   1.849  11.989  0.4851  0.4050 -0.1641
    2MPD2    H7   32   2.130   1.914  11.943  1.7580  1.5142 -0.3660
    3TCq1    O1   33   1.885   3.695  10.367  0.2924  0.1110  0.0446
    3TCq1    C1   34   1.901   3.730  10.497 -0.2190  0.1930  0.3571
    3TCq1    O2   35   1.929   3.843  10.541 -0.2065  0.2145 -0.5429
    3TCq1    C2   36   1.892   3.613  10.579 -0.5217 -0.5356  0.6792
    3TCq1    C3   37   1.924   3.495  10.525  0.0994  0.1671  0.1324
    3TCq1    C4   38   1.900   3.381  10.601 -0.3781  0.3308 -0.3218
    3TCq1    C5   39   1.854   3.392  10.730 -0.1829  1.0597 -0.5696
    3TCq1    C6   40   1.823   3.516  10.783 -0.6813 -0.3410  0.5778
    3TCq1    C7   41   1.847   3.634  10.708 -0.0290  0.5079  0.0229
    3TCq1    C8   42   1.805   3.522  10.924  0.2300  0.4583 -0.1840
    3TCq1    O4   43   1.802   3.411  10.974 -0.5948  0.4245 -0.4654
    3TCq1    C9   44   1.936   3.253  10.545  0.6831  0.8013  0.1378
    3TCq1    O5   45   1.903   3.149  10.610 -0.0593 -0.3281  0.1350
    3TCq1    O6   46   1.984   3.265  10.428 -0.2834 -0.0759 -0.0632
    3TCq1    H1   47   1.837   3.610  10.353 -1.0474  0.7092  0.9910
    3TCq1    H2   48   1.976   3.495  10.430  2.1281  1.0051  1.2347
    3TCq1    H3   49   1.842   3.303  10.791  0.2868  0.7254 -0.9630
    3TCq1    H4   50   1.833   3.733  10.749 -2.9738  1.0461 -2.2779
    4MPD2     C   51   1.673   3.780  11.359 -0.0438 -0.1315 -0.2090
    4MPD2    C1   52   1.684   3.863  11.252  0.4162 -0.0555 -0.1334
    4MPD2    C2   53   1.725   3.819  11.131 -0.4714 -0.2306 -0.1706
    4MPD2    C3   54   1.749   3.687  11.104  0.6255 -0.1117 -0.0396
    4MPD2    C4   55   1.739   3.592  11.211 -0.1622  0.9123 -0.7427
    4MPD2    C5   56   1.680   3.647  11.325  0.0847 -0.6739 -0.6512
    4MPD2     H   57   1.723   3.894  11.052  1.3691 -0.7642 -0.7409
    4MPD2    H1   58   1.791   3.497  11.212 -2.0005 -0.0864  1.0807
    4MPD2    H2   59   1.622   3.807  11.451  0.8105 -0.4547  0.3695
    4MPD2    H3   60   1.671   3.579  11.409 -1.1063  3.2450  2.4085
    4MPD2     N   61   1.791   3.647  10.974  0.0472  0.2658  0.7356
    4MPD2    H5   62   1.800   3.725  10.910  1.9188 -0.2123  0.4055
    4MPD2    N1   63   1.664   4.003  11.262 -0.0293  0.1218 -0.2585
    4MPD2    H7   64   1.683   4.064  11.184 -2.0380  1.1510  0.0455
    5TCq1    O1   65   2.259   0.271  11.981  0.2497  0.0066 -0.3811
    5TCq1    C1   66   2.296   0.210  11.863 -0.0559 -0.0914 -0.1264
    5TCq1    O2   67   2.397   0.146  11.840  0.7823 -0.1696  0.0338
    5TCq1    C2   68   2.213   0.268  11.757 -0.2515 -1.1785 -0.5384
    5TCq1    C3   69   2.135   0.383  11.775 -0.0856  0.0067  0.3424
    5TCq1    C4   70   2.084   0.434  11.656 -0.1467  0.3089 -0.0873
    5TCq1    C5   71   2.096   0.379  11.531  0.0940 -0.4008  0.3427
    5TCq1    C6   72   2.180   0.275  11.523  0.2178 -0.0446  0.1400
    5TCq1    C7   73   2.233   0.215  11.633 -0.7204  0.2000 -0.1075
    5TCq1    C8   74   2.197   0.213  11.392  0.3235 -0.0023  0.5413
    5TCq1    O4   75   2.242   0.099  11.398  0.0974  0.0116  0.0552
    5TCq1    C9   76   2.008   0.548  11.663 -0.4342 -1.0869  0.7247
    5TCq1    O5   77   2.020   0.612  11.767  0.3198 -0.2573  0.1332
    5TCq1    O6   78   1.974   0.601  11.556  0.0782  0.8794 -0.6960
    5TCq1    H1   79   2.166   0.303  11.986  1.0652  2.3344 -0.3711
    5TCq1    H2   80   2.101   0.429  11.867 -0.1517  0.5695  0.0374
    5TCq1    H3   81   2.035   0.410  11.447 -0.3246  0.5054  0.9793
    5TCq1    H4   82   2.305   0.135  11.623 -2.0529 -0.9765 -0.1563
    6MPD2     C   83   2.221   0.400  11.090 -0.6169  0.5086 -0.0420
    6MPD2    C1   84   2.225   0.279  11.159  0.0079  0.6498 -0.1624
    6MPD2    C2   85   2.299   0.168  11.110 -0.1995 -0.0113 -0.3663
    6MPD2    C3   86   2.349   0.187  10.980  0.6156  0.2728  0.1718
    6MPD2    C4   87   2.338   0.308  10.910  0.1546 -0.1249  0.1967
    6MPD2    C5   88   2.272   0.417  10.968 -0.5695 -0.1321 -0.2709
    6MPD2     H   89   2.333   0.085  11.171  0.4616  1.4451  1.2208
    6MPD2    H1   90   2.395   0.318  10.819  0.1145 -1.3556  0.0383
    6MPD2    H2   91   2.174   0.488  11.132 -1.0693  0.0197  0.4828
    6MPD2    H3   92   2.287   0.512  10.919  3.6748  0.4493  2.1009
    6MPD2     N   93   2.432   0.083  10.925  0.2640 -0.0195 -0.1502
    6MPD2    H5   94   2.450   0.006  10.989  2.3933  0.2605 -0.4273
    6MPD2    N1   95   2.191   0.300  11.282  0.4845 -0.1933  0.1942
    6MPD2    H7   96   2.171   0.395  11.314 -0.1122 -0.2117 -0.1444
    7TCq1    O1   97   3.441   4.469  12.850  0.7254  0.0588 -0.1782
    7TCq1    C1   98   3.531   4.385  12.908 -0.1099  0.5413 -0.1734
    7TCq1    O2   99   3.528   4.264  12.891  0.1087 -0.4304 -0.3555
    7TCq1    C2  100   3.597   4.458  13.006 -0.1838 -0.2447  0.0166
    7TCq1    C3  101   3.541   4.574  13.062  0.0937  0.1979  0.1330
    7TCq1    C4  102   3.588   4.618  13.184  0.1350 -0.1270  0.1667
    7TCq1    C5  103   3.679   4.548  13.262  0.2116 -0.3946  0.2689
    7TCq1    C6  104   3.709   4.422  13.218 -0.4901 -0.8563 -0.3845
    7TCq1    C7  105   3.670   4.383  13.093  0.8709 -0.5755  1.0505
    7TCq1    C8  106   3.833   4.366  13.272  0.7463 -0.2857  0.2709
    7TCq1    O4  107   3.862   4.250  13.238 -0.6555  0.2881 -0.1220
    7TCq1    C9  108   3.544   0.021  13.235 -0.6293 -0.3093  0.1399
    7TCq1    O5  109   3.590   0.069  13.348  0.4502 -0.0342 -0.4668
    7TCq1    O6  110   3.469   0.086  13.159 -0.3237 -0.0469 -0.0950
    7TCq1    H1  111   3.467   4.564  12.850 -0.7072  0.4369 -2.5652
    7TCq1    H2  112   3.471   4.644  13.017  1.5189  1.1442 -0.5851
    7TCq1    H3  113   3.721   4.608  13.341  0.1449  0.0251 -0.0139
    7TCq1    H4  114   3.700   4.280  13.076 -1.2696 -1.1095  0.5258
    8MPD2     C  115   4.232   4.319  13.594 -0.0706 -0.3491  0.1903
    8MPD2    C1  116   4.201   4.241  13.487 -0.1864 -0.1607  0.4377
    8MPD2    C2  117   4.090   4.281  13.414  0.3978 -0.0759 -0.1252
    8MPD2    C3  118   4.017   4.393  13.438  0.0410  1.1545  0.5499
    8MPD2    C4  119   4.063   4.473  13.538 -0.1853  0.1460 -0.2301
    8MPD2    C5  120   4.168   4.432  13.615 -0.8951 -0.7833  0.6436
    8MPD2     H  121   4.061   4.220  13.329  1.3128  2.4369 -2.2535
    8MPD2    H1  122   4.015   4.567  13.564 -0.3854  0.2577 -1.0149
    8MPD2    H2  123   4.319   4.300  13.656 -0.1464  1.7806  0.9614
    8MPD2    H3  124   4.201   4.481  13.706  2.8003 -2.1547  0.0484
    8MPD2     N  125   3.899   4.434  13.371  0.2672 -0.3144  0.6525
    8MPD2    H5  126   3.860   4.525  13.394  0.0800  0.1372 -1.3837
    8MPD2    N1  127   4.278   4.132  13.445  0.7398 -0.6564 -0.0678
    8MPD2    H7  128   4.362   4.107  13.497  1.8329  1.7104 -0.6665
    9TCq1    O1  129   2.376   2.814  10.632  0.0800 -0.5214  0.2416
    9TCq1    C1  130   2.348   2.853  10.758 -0.6301  0.4287 -0.6629
    9TCq1    O2  131   2.263   2.806  10.832  0.4739  0.2847 -0.5358
    9TCq1    C2  132   2.462   2.937  10.792  0.0936  0.9831  0.9244
    9TCq1    C3  133   2.583   2.915  10.733  1.2550  0.4481 -0.5558
    9TCq1    C4  134   2.671   3.020  10.726 -0.0498  0.2608  0.2579
    9TCq1    C5  135   2.639   3.134  10.789  0.5775 -0.1885 -0.5297
    9TCq1    C6  136   2.517   3.144  10.852 -0.1286 -0.3461 -0.0080
    9TCq1    C7  137   2.422   3.056  10.840  0.3306 -0.2313 -0.0865
    9TCq1    C8  138   2.511   3.244  10.959  0.3000  0.4846 -1.0113
    9TCq1    O4  139   2.581   3.346  10.953 -0.0004  0.7145 -0.2544
    9TCq1    C9  140   2.803   2.998  10.672 -0.3924  0.1719  0.5114
    9TCq1    O5  141   2.895   3.084  10.689  0.1094 -0.2930 -0.0847
    9TCq1    O6  142   2.823   2.875  10.641 -0.4816  0.5327 -0.0593
    9TCq1    H1  143   2.450   2.870  10.601  0.3909  0.2376  2.3377
    9TCq1    H2  144   2.612   2.813  10.708  0.9221 -0.2729  2.0814
    9TCq1    H3  145   2.712   3.214  10.793 -0.0385  0.1485  3.5199
    9TCq1    H4  146   2.318   3.069  10.869  0.4536  0.4112  0.0559
   10MPD2     C  147   2.474   3.395  11.212 -0.2688  0.7102 -0.1828
   10MPD2    C1  148   2.427   3.267  11.191 -0.2847  0.8601  0.0794
   10MPD2    C2  149   2.363   3.205  11.291 -0.0590 -1.0826 -0.0728
   10MPD2    C3  150   2.326   3.262  11.414 -0.3028  0.7722  0.3869
   10MPD2    C4  151   2.376   3.387  11.429 -0.3748 -0.0660  0.0675
   10MPD2    C5  152   2.448   3.453  11.333  0.0480  0.2550 -0.3933
   10MPD2     H  153   2.331   3.102  11.279 -3.9217  0.0759  0.4117
   10MPD2    H1  154   2.365   3.446  11.520  3.1913  0.8680 -0.1000
   10MPD2    H2  155   2.526   3.455  11.138 -2.3591  2.4378 -0.2300
   10MPD2    H3  156   2.479   3.556  11.344 -2.6103  0.9775  0.3634
   10MPD2     N  157   2.269   3.186  11.526  0.5979 -0.3598  0.3795
   10MPD2    H5  158   2.249   3.243  11.608  1.4416 -0.3693  0.5961
   10MPD2    N1  159   2.444   3.197  11.066  0.1636  0.1592 -0.0578
   10MPD2    H7  160   2.417   3.099  11.066  1.1345 -0.1007  1.7728
   11TCq1    O1  161   3.046   3.558  14.452  0.3490 -0.4517  0.5882
   11TCq1    C1  162   2.952   3.624  14.521  0.2250  0.5338 -0.4111
   11TCq1    O2  163   2.905   3.586  14.632  0.4994 -0.5253 -0.1013
   11TCq1    C2  164   2.862   3.676  14.417  0.3403  0.4832 -0.0102
   11TCq1    C3  165   2.915   3.711  14.298 -0.3322  0.0972 -0.3082
   11TCq1    C4  166   2.848   3.697  14.183  0.6069  0.1966 -0.5956
   11TCq1    C5  167   2.723   3.647  14.179 -0.0480  0.0288 -0.4014
   11TCq1    C6  168   2.665   3.606  14.302 -0.0146 -0.2131  0.3367
   11TCq1    C7  169   2.735   3.619  14.420  0.1481 -0.0491 -0.1313
   11TCq1    C8  170   2.527   3.582  14.314 -0.2021  0.3322 -0.7638
   11TCq1    O4  171   2.476   3.606  14.423  0.2649  0.0678 -0.2673
   11TCq1    C9  172   2.920   3.731  14.060 -0.5120 -0.1361 -0.2531
   11TCq1    O5  173   2.860   3.714  13.950  0.7201  0.1205  0.2244
   11TCq1    O6  174   3.037   3.771  14.076  0.1001 -0.4194  1.1962
   11TCq1    H1  175   3.066   3.602  14.367  0.6277 -0.6838  0.5320
   11TCq1    H2  176   3.005   3.771  14.304  0.5742 -1.1785 -1.3654
   11TCq1    H3  177   2.687   3.614  14.082  2.2264 -2.2532 -0.4699
   11TCq1    H4  178   2.690   3.588  14.514  0.9870 -1.6338 -0.2717
   12MPD2     C  179   2.247   3.527  14.229  0.8591 -0.2623 -0.0026
   12MPD2    C1  180   2.352   3.459  14.180 -0.2583 -0.7286  0.7034
   12MPD2    C2  181   2.333   3.347  14.100 -0.9919 -0.6868 -0.2577
   12MPD2    C3  182   2.209   3.303  14.070 -0.6093  1.1532  0.2829
   12MPD2    C4  183   2.106   3.380  14.107 -0.4201 -0.2530  0.1318
   12MPD2    C5  184   2.121   3.481  14.198 -0.8827  0.0020 -0.3272
   12MPD2     H  185   2.417   3.295  14.056 -0.1037  0.1299  0.4634
   12MPD2    H1  186   2.007   3.358  14.069  0.0891  1.8856 -2.4154
   12MPD2    H2  187   2.252   3.618  14.289  3.9609 -0.1967 -0.3667
   12MPD2    H3  188   2.035   3.538  14.230 -0.6244  1.0511 -1.5241
   12MPD2     N  189   2.180   3.192  13.988 -0.8527  0.2178 -0.3888
   12MPD2    H5  190   2.081   3.172  13.977 -1.3731  1.9459  1.0649
   12MPD2    N1  191   2.483   3.496  14.213 -0.3948  0.0787 -0.0348
   12MPD2    H7  192   2.550   3.453  14.150  0.2797  1.6875 -0.4159
   13TCq1    O1  193   3.078   2.621  10.950 -0.0715  0.1832  0.0519
   13TCq1    C1  194   3.007   2.628  11.068 -0.2103  0.7766 -0.7934
   13TCq1    O2  195   2.976   2.533  11.134  0.6526 -0.0433  0.3063
   13TCq1    C2  196   2.915   2.735  11.043  0.0586 -1.0258  0.6001
   13TCq1    C3  197   2.974   2.850  11.011  0.2395 -0.3529 -1.1633
   13TCq1    C4  198   2.904   2.964  11.031 -0.2694 -0.1047 -0.1257
   13TCq1    C5  199   2.769   2.961  11.069  0.1852 -0.0829 -0.5283
   13TCq1    C6  200   2.709   2.838  11.083  0.3464 -0.0427  0.3152
   13TCq1    C7  201   2.787   2.726  11.086  0.1038 -0.4105  0.7047
   13TCq1    C8  202   2.564   2.827  11.105 -0.2445 -0.0191  0.0055
   13TCq1    O4  203   2.512   2.931  11.139  0.0148 -0.3562  0.3752
   13TCq1    C9  204   2.970   3.092  11.019 -0.1661  0.1019 -0.1079
   13TCq1    O5  205   3.071   3.080  10.948 -1.1069  0.5073  0.5741
   13TCq1    O6  206   2.921   3.190  11.074  0.2941 -0.1636  0.5118
   13TCq1    H1  207   3.053   2.699  10.896 -0.6263 -0.2127 -0.2623
   13TCq1    H2  208   3.081   2.862  11.000  0.2382  0.1568 -0.6250
   13TCq1    H3  209   2.703   3.047  11.069 -0.6345 -0.7014 -1.1457
   13TCq1    H4  210   2.751   2.624  11.093 -0.1584 -0.2671  1.4516
   14MPD2     C  211   2.344   2.530  11.098  0.6950 -0.0960  0.5125
   14MPD2    C1  212   2.381   2.667  11.119  0.0154 -0.2894 -0.0045
   14MPD2    C2  213   2.288   2.747  11.180 -0.1395  0.2727 -0.9068
   14MPD2    C3  214   2.159   2.707  11.202 -0.4401  0.3811  0.2478
   14MPD2    C4  215   2.127   2.572  11.189 -0.2768  0.1612 -0.3214
   14MPD2    C5  216   2.220   2.483  11.138  0.6438 -0.5193 -0.2691
   14MPD2     H  217   2.322   2.837  11.229 -1.4435 -0.2190  0.8991
   14MPD2    H1  218   2.027   2.539  11.213 -1.1051  0.9806 -2.6283
   14MPD2    H2  219   2.423   2.462  11.070  1.4765  1.7665 -1.8178
   14MPD2    H3  220   2.202   2.378  11.120  2.5203 -0.7247 -0.9795
   14MPD2     N  221   2.075   2.805  11.259 -0.0076 -0.5319  0.0456
   14MPD2    H5  222   2.120   2.896  11.267 -3.0539  1.0683 -0.8527
   14MPD2    N1  223   2.511   2.700  11.082 -0.0032 -0.6465 -0.3258
   14MPD2    H7  224   2.572   2.623  11.056 -1.3887 -2.2922  1.3203
   15TCq1    O1  225   3.068   3.093   2.073  0.1766 -0.2548  0.4739
   15TCq1    C1  226   2.934   3.123   2.086  0.1033  0.5413  0.6543
   15TCq1    O2  227   2.891   3.199   2.168 -0.0574 -0.4852 -0.1757
   15TCq1    C2  228   2.862   3.057   1.981  0.1186  0.0010  0.3833
   15TCq1    C3  229   2.767   3.132   1.921 -0.4944 -0.3528  0.3245
   15TCq1    C4  230   2.742   3.097   1.794 -0.1389  0.4060 -0.6845
   15TCq1    C5  231   2.799   2.986   1.731  0.0312 -0.2240  0.9395
   15TCq1    C6  232   2.880   2.904   1.808 -0.1397 -0.3017 -0.1978
   15TCq1    C7  233   2.915   2.943   1.930  0.3071 -0.5708  0.6756
   15TCq1    C8  234   2.938   2.787   1.750 -0.2539 -0.2981 -0.5134
   15TCq1    O4  235   3.030   2.741   1.812 -0.1595  0.4130 -0.2071
   15TCq1    C9  236   2.665   3.192   1.716 -0.1511  0.2371  0.5105
   15TCq1    O5  237   2.703   3.202   1.594 -0.4545  0.1084 -0.3463
   15TCq1    O6  238   2.602   3.277   1.777  0.4729  0.0248  0.0623
   15TCq1    H1  239   3.097   3.044   1.993 -1.5064  2.8664 -2.0567
   15TCq1    H2  240   2.725   3.217   1.975 -2.1363 -0.8056 -0.2645
   15TCq1    H3  241   2.777   2.979   1.626  0.0955 -0.8775  0.9737
   15TCq1    H4  242   2.980   2.886   1.995  2.4316  2.0569  0.8678
   16MPD2     C  243   2.815   2.611   1.450  0.2320  0.5674 -0.4228
   16MPD2    C1  244   2.909   2.646   1.546  0.4722  0.1023 -0.5724
   16MPD2    C2  245   3.030   2.572   1.558 -0.7347  0.7621 -0.3917
   16MPD2    C3  246   3.062   2.469   1.473  0.3988 -0.0328  0.4750
   16MPD2    C4  247   2.972   2.436   1.377  0.2367  0.2327 -0.4260
   16MPD2    C5  248   2.850   2.509   1.363  1.2145 -0.3256  0.1954
   16MPD2     H  249   3.105   2.598   1.632 -0.0739  0.8755 -1.1044
   16MPD2    H1  250   2.990   2.354   1.308 -0.7628 -0.5401  0.2312
   16MPD2    H2  251   2.713   2.649   1.448 -0.2506 -0.6628  0.1859
   16MPD2    H3  252   2.775   2.474   1.293  1.1815 -0.6476  0.3903
   16MPD2     N  253   3.188   2.403   1.494 -0.2790 -0.6927  0.2113
   16MPD2    H5  254   3.257   2.437   1.561 -0.5916 -1.7359  1.0569
   16MPD2    N1  255   2.876   2.745   1.637  0.0097 -0.0427  0.2046
   16MPD2    H7  256   2.780   2.776   1.631  0.8550  2.1750 -2.0176
   17TCq1    O1  257   1.853   0.454  10.729 -0.2944  0.1910 -0.3614
   17TCq1    C1  258   1.913   0.546  10.807 -0.5139 -0.2226  0.3304
   17TCq1    O2  259   1.861   0.608  10.899  0.0984  0.0998  0.0818
   17TCq1    C2  260   2.024   0.605  10.734 -0.1800  0.2798  0.1669
   17TCq1    C3  261   2.121   0.531  10.668  0.8965  0.2166 -0.3847
   17TCq1    C4  262   2.222   0.595  10.616 -0.6188  0.2856 -0.1705
   17TCq1    C5  263   2.235   0.730  10.618 -0.1277  0.4383 -0.5504
   17TCq1    C6  264   2.138   0.801  10.690  0.2717 -0.9805 -0.1722
   17TCq1    C7  265   2.040   0.736  10.757  0.6042 -0.0889 -0.0273
   17TCq1    C8  266   2.116   0.946  10.678 -0.2330  1.3753  0.3465
   17TCq1    O4  267   2.011   0.997  10.712  0.1411 -0.2985  0.1205
   17TCq1    C9  268   2.316   0.532  10.527  0.0335 -0.4651 -0.7447
   17TCq1    O5  269   2.305   0.405  10.514 -0.2028 -0.3274  0.0908
   17TCq1    O6  270   2.385   0.610  10.458 -0.1542 -0.3266 -0.2480
   17TCq1    H1  271   1.919   0.415  10.668 -1.3135 -1.3003 -0.4877
   17TCq1    H2  272   2.121   0.424  10.655  1.6416  0.5074 -2.7239
   17TCq1    H3  273   2.308   0.787  10.562 -1.3230  2.4467 -0.0730
   17TCq1    H4  274   1.965   0.791  10.813  1.1923 -0.6300  1.2964
   18MPD2     C  275   2.161   1.244  10.661  0.0096  0.0310  0.3913
   18MPD2    C1  276   2.245   1.148  10.614 -0.5471 -0.0541 -0.4546
   18MPD2    C2  277   2.370   1.187  10.556 -0.2315  0.2863 -0.6242
   18MPD2    C3  278   2.393   1.324  10.552 -0.4106 -0.4636 -0.2692
   18MPD2    C4  279   2.302   1.419  10.590  0.0270  0.0334  0.1859
   18MPD2    C5  280   2.185   1.379  10.646 -0.0684  0.7966 -0.2397
   18MPD2     H  281   2.438   1.112  10.515 -1.5378 -1.5738  0.6199
   18MPD2    H1  282   2.324   1.525  10.595 -1.1872  0.3295 -0.7941
   18MPD2    H2  283   2.077   1.225  10.727 -0.8187 -0.4840 -0.8123
   18MPD2    H3  284   2.115   1.459  10.668 -0.7552 -0.2048  1.1779
   18MPD2     N  285   2.505   1.378  10.482 -0.3358 -0.5023 -0.0869
   18MPD2    H5  286   2.515   1.478  10.496 -0.4039 -0.6795  1.2527
   18MPD2    N1  287   2.229   1.007  10.631  0.5357 -0.2630  0.1219
   18MPD2    H7  288   2.311   0.949  10.618  0.7672  0.0411  0.2438
   19TMC2    C1  289   3.430   2.744  14.076  0.0965 -0.2314  0.3836
   19TMC2    C2  290   3.369   2.849  14.013 -0.5042 -0.2893  0.6676
   19TMC2    C3  291   3.236   2.838  14.002 -0.1526  0.5414 -0.4349
   19TMC2    C4  292   3.365   2.649  14.145  0.1775  0.3028 -0.9469
   19TMC2    C5  293   3.225   2.651  14.145 -0.1377  0.2914  0.3947
   19TMC2    C6  294   3.165   2.743  14.064 -0.3740  0.3266 -0.2373
   19TMC2     C  295   3.577   2.752  14.084  0.2769  0.1329 -0.3263
   19TMC2     O  296   3.618   2.861  14.046  0.0476 -0.3128  0.2609
   19TMC2     H  297   3.427   2.927  13.966 -0.4584 -0.4333  0.4875
   19TMC2    H1  298   3.411   2.563  14.193  1.2531  1.4827  0.1274
   19TMC2    H2  299   3.057   2.736  14.064 -0.2637 -1.4262  1.4110
   19TMC2    C7  300   3.151   2.541  14.204 -0.2708 -0.9417 -0.0275
   19TMC2    C8  301   3.149   2.927  13.926 -0.0232  0.1744  0.6274
   19TMC2    O1  302   3.039   2.518  14.157  0.0164 -0.3905  1.0048
   19TMC2    O2  303   3.028   2.945  13.937  0.4433  0.2600  0.2291
   19TMC2    O5  304   3.221   3.000  13.841 -0.1231  0.6827  0.2844
   19TMC2    H5  305   3.299   2.946  13.818 -2.2797 -0.5657 -4.1750
   20MPD2     C  306   3.874   2.753  14.147  0.1380 -0.1744  0.7924
   20MPD2    C1  307   3.785   2.655  14.191  0.0914 -0.0534 -0.1744
   20MPD2    C2  308   3.837   2.542  14.259 -0.5829 -0.3546  0.2956
   20MPD2    C3  309   3.977   2.535  14.274  0.6271 -0.2457 -0.2179
   20MPD2    C4  310   4.060   2.631  14.215  0.1066 -0.2182  0.3886
   20MPD2    C5  311   4.005   2.734  14.151 -0.0711 -0.8638 -0.2956
   20MPD2     H  312   3.779   2.455  14.288 -1.3655 -0.0021 -0.1868
   20MPD2    H1  313   4.165   2.639  14.240  0.1448 -0.5642  0.3361
   20MPD2    H2  314   3.840   2.839  14.090  3.8687 -0.1036 -1.3557
   20MPD2    H3  315   4.068   2.811  14.108  0.5853 -1.2307  0.0022
   20MPD2     N  316   4.051   2.428  14.328 -0.1079  0.9951  0.3928
   20MPD2    H5  317   4.151   2.425  14.309  0.0787 -0.7091  1.5939
   20MPD2    N1  318   3.647   2.657  14.160  0.4069  0.1370 -1.0422
   20MPD2    H7  319   3.593   2.584  14.205  0.8222 -0.1286 -0.9806
   21MPD2     C  320   1.473   3.284  14.382 -1.0039  0.1158  0.4088
   21MPD2    C1  321   1.497   3.153  14.360  0.1184  0.0988  0.3116
   21MPD2    C2  322   1.392   3.062  14.389  0.5356 -0.6555 -0.3844
   21MPD2    C3  323   1.279   3.108  14.456 -0.2969 -0.3480  0.4571
   21MPD2    C4  324   1.266   3.242  14.474  0.3331 -0.6881  0.2892
   21MPD2    C5  325   1.361   3.336  14.440 -0.6858 -0.9308  0.3635
   21MPD2     H  326   1.394   2.957  14.364  2.3030 -0.5510 -0.6351
   21MPD2    H1  327   1.177   3.279  14.524 -0.4055 -0.3321 -1.2962
   21MPD2    H2  328   1.546   3.360  14.353  0.3665 -1.3404  0.0649
   21MPD2    H3  329   1.342   3.442  14.447 -0.3402 -0.9566  1.6330
   21MPD2     N  330   1.181   3.028  14.517 -0.0690  0.7678 -0.4490
   21MPD2    H5  331   1.102   3.072  14.562 -1.3898 -2.8079  0.7701
   21MPD2    N1  332   1.610   3.091  14.302  0.2901 -0.5206 -0.8755
   21MPD2    H7  333   1.600   2.991  14.291  2.6925 -0.9175  0.5895
   22TCq2    C1  334   1.197   2.896  14.533 -0.2488 -0.1575 -0.0648
   22TCq2    O2  335   1.277   2.818  14.481  0.0790 -0.0151  0.0068
   22TCq2    C2  336   1.100   2.841  14.622 -0.2331  0.3631  1.1036
   22TCq2    C3  337   1.139   2.729  14.689 -0.4772  0.0869 -0.3058
   22TCq2    C4  338   1.067   2.700  14.803 -0.1518  0.4895 -0.5078
   22TCq2    C5  339   0.949   2.755  14.830  0.5464 -0.4412 -0.5212
   22TCq2    C6  340   0.904   2.857  14.747 -0.2212 -0.8441 -0.2223
   22TCq2    C7  341   0.981   2.904  14.642 -0.6446 -0.6161  0.5542
   22TCq2    C8  342   0.803   2.939  14.801 -1.0453 -0.4400 -0.4797
   22TCq2    O4  343   0.805   2.959  14.925  0.4723  0.3699 -0.4584
   22TCq2    C9  344   1.118   2.593  14.884  0.0065  0.2241 -0.1473
   22TCq2    O5  345   1.231   2.552  14.843 -0.1951  0.2539 -0.1997
   22TCq2    O6  346   1.051   2.557  14.984  0.0692 -0.2370 -0.0638
   22TCq2    H2  347   1.239   2.688  14.677 -0.2055  0.1195  1.9456
   22TCq2    H3  348   0.896   2.720  14.917  1.2237  0.4335  0.2469
   22TCq2    H4  349   0.948   2.987  14.580  0.4252  2.1907  3.7604
   23MPD2     C  350   2.333   4.323  15.060  0.3758  0.3627 -0.0970
   23MPD2    C1  351   2.247   4.287  15.152  0.6693  0.6053 -0.1195
   23MPD2    C2  352   2.119   4.334  15.130 -0.5417 -0.4492  0.2073
   23MPD2    C3  353   2.085   4.430  15.030  0.0474  0.0101  0.7220
   23MPD2    C4  354   2.178   4.471  14.942  0.4652 -0.0798 -0.3686
   23MPD2    C5  355   2.301   4.412  14.953  0.3537  0.0240  0.2434
   23MPD2     H  356   2.041   4.311  15.203 -1.1495 -0.0923 -0.3353
   23MPD2    H1  357   2.158   4.535  14.856  0.1258 -0.1085 -0.3101
   23MPD2    H2  358   2.431   4.282  15.040 -0.3948 -0.7315 -1.6350
   23MPD2    H3  359   2.382   4.450  14.893  0.7097 -0.8749  0.1448
   23MPD2     N  360   1.957   4.485  15.018  0.1321 -0.1865 -0.5287
   23MPD2    H5  361   1.945   4.554  14.945  0.3404  2.0227  1.5460
   23MPD2    N1  362   2.277   4.204  15.260  0.5227  0.2311 -0.0276
   23MPD2    H7  363   2.199   4.191  15.322 -1.2896 -1.1785 -2.6148
   24TCq2    C1  364   1.840   4.431  15.069 -0.1831  0.0378 -0.1070
   24TCq2    O2  365   1.832   4.328  15.137 -0.1416 -0.3366 -0.2158
   24TCq2    C2  366   1.730   4.480  14.986  0.7386  0.9475 -0.4446
   24TCq2    C3  367   1.721   4.607  14.935  0.2605 -0.8777  0.7641
   24TCq2    C4  368   1.639   4.639  14.830  0.2993  0.6601  0.7445
   24TCq2    C5  369   1.557   4.547  14.776  0.7226 -0.7552  0.8544
   24TCq2    C6  370   1.554   4.423  14.839 -0.4471 -0.0545 -0.0085
   24TCq2    C7  371   1.643   4.383  14.940  0.2758  0.1852 -0.2116
   24TCq2    C8  372   1.487   4.305  14.779  0.3191 -0.3542  0.1150
   24TCq2    O4  373   1.509   4.196  14.839 -0.4533  0.4272  0.3046
   24TCq2    C9  374   1.640   0.045  14.779  0.1605 -0.4782  0.3031
   24TCq2    O5  375   1.542   0.086  14.711  0.4085  0.7132  0.1469
   24TCq2    O6  376   1.745   0.106  14.809  0.0992 -0.0656  0.1982
   24TCq2    H2  377   1.796   4.676  14.970  1.4736 -2.1436  0.6397
   24TCq2    H3  378   1.489   4.567  14.694 -1.0061 -1.1988  2.1707
   24TCq2    H4  379   1.643   4.285  14.986  1.7506  0.0506 -0.5137
   25TMC2    C1  380   1.710   1.999  11.490 -0.3325 -0.2147 -1.4928
   25TMC2    C2  381   1.839   1.997  11.553 -0.3787 -0.3667 -0.1301
   25TMC2    C3  382   1.837   2.021  11.690 -0.1424  1.5698 -0.9125
   25TMC2    C4  383   1.593   2.022  11.560  0.2892  0.0666  0.5491
   25TMC2    C5  384   1.599   2.007  11.700  0.3363  0.2341 -0.2918
   25TMC2    C6  385   1.720   2.016  11.765 -0.1454 -0.2764 -0.6747
   25TMC2     C  386   1.703   1.985  11.351  0.1545 -0.5233  0.5802
   25TMC2     O  387   1.793   2.040  11.286  0.3941 -0.2711  0.6240
   25TMC2     H  388   1.928   1.988  11.493 -0.0981  0.5058  0.1584
   25TMC2    H1  389   1.500   2.031  11.506 -0.5005  1.0239  2.1077
   25TMC2    H2  390   1.729   1.990  11.870  0.7693  0.3439 -0.5987
   25TMC2    C7  391   1.485   1.971  11.783 -0.1671  0.1801 -0.3487
   25TMC2    C8  392   1.953   1.980  11.769  0.2420  0.0053  0.4063
   25TMC2    O1  393   1.511   1.935  11.895  0.2371 -0.3580  0.2595
   25TMC2    O2  394   1.956   1.913  11.869  0.4104  0.1295 -0.3403
   25TMC2    O5  395   2.008   2.105  11.766 -0.3454 -0.1399 -0.1521
   25TMC2    H5  396   1.974   2.155  11.689  3.0232 -0.1121 -1.5995
   26MPD2     C  397   1.451   1.871  10.927  0.1444 -0.3245  0.0151
   26MPD2    C1  398   1.419   1.787  11.031  0.0972 -0.3843  0.1777
   26MPD2    C2  399   1.463   1.810  11.157  0.7101 -0.6800 -0.4069
   26MPD2    C3  400   1.547   1.909  11.184  0.6154  0.1175 -0.2086
   26MPD2    C4  401   1.591   1.988  11.077  0.1362 -0.2056  0.2381
   26MPD2    C5  402   1.540   1.975  10.949  0.1324  0.1996 -0.1990
   26MPD2     H  403   1.450   1.728  11.227 -1.0815 -0.5578 -0.6114
   26MPD2    H1  404   1.654   2.076  11.088  1.3844 -0.8942 -1.4523
   26MPD2    H2  405   1.401   1.862  10.831  2.5006  0.1666 -1.2543
   26MPD2    H3  406   1.558   2.051  10.874  2.2849  0.2252  0.3522
   26MPD2     N  407   1.594   1.913  11.318 -0.1014 -0.0925 -0.0634
   26MPD2    H5  408   1.544   1.864  11.391 -1.8159  1.7003 -0.0335
   26MPD2    N1  409   1.327   1.685  10.990 -0.6074 -0.0814  0.1068
   26MPD2    H7  410   1.293   1.700  10.896 -0.4668 -2.0840 -0.2550
   27TMC2    C1  411   0.330   3.987  11.998 -0.4214  0.7403 -0.3114
   27TMC2    C2  412   0.413   4.007  11.891 -0.3676 -0.0244 -0.8748
   27TMC2    C3  413   0.430   4.143  11.857  0.2522 -0.1719 -0.5522
   27TMC2    C4  414   0.287   4.093  12.075 -0.2811 -0.2960 -0.0284
   27TMC2    C5  415   0.309   4.223  12.043  1.8228 -0.2055 -0.3862
   27TMC2    C6  416   0.381   4.249  11.927 -0.6782 -0.0828 -0.0287
   27TMC2     C  417   0.321   3.850  12.044  0.2229 -0.1239  0.7567
   27TMC2     O  418   0.408   3.770  12.007 -0.0920 -0.3493  0.3506
   27TMC2     H  419   0.448   3.920  11.837 -0.9248 -1.9030  1.8090
   27TMC2    H1  420   0.234   4.075  12.168  0.3043  1.0254  0.5623
   27TMC2    H2  421   0.417   4.350  11.912 -2.7172  0.8463  1.2391
   27TMC2    C7  422   0.337   4.318  12.146  0.2278 -0.5833  0.4353
   27TMC2    C8  423   0.504   4.161  11.733 -0.4175  0.3501 -0.1165
   27TMC2    O1  424   0.308   4.439  12.124 -0.9397 -0.5390  0.0536
   27TMC2    O2  425   0.569   4.075  11.674  0.4925  0.1161 -0.1567
   27TMC2    O5  426   0.457   4.276  11.670 -0.3707  0.5453  0.1391
   27TMC2    H5  427   0.379   4.322  11.706 -1.7073 -0.7326 -1.1221
   28MPD2     C  428   0.103   3.507  12.354 -0.3142  0.4066  0.2336
   28MPD2    C1  429   0.032   3.625  12.360  0.1153  0.7522 -0.0496
   28MPD2    C2  430   0.069   3.735  12.285  1.1938  0.2281 -0.6353
   28MPD2    C3  431   0.181   3.726  12.205 -0.4504 -0.2708 -0.1297
   28MPD2    C4  432   0.255   3.612  12.200  0.1170  0.4950 -0.0960
   28MPD2    C5  433   0.212   3.505  12.274 -0.0145 -0.0481 -0.1694
   28MPD2     H  434   0.031   3.836  12.299 -0.3938 -0.3497 -0.8713
   28MPD2    H1  435   0.337   3.592  12.132 -0.4921 -3.1959  0.2839
   28MPD2    H2  436   0.078   3.424  12.419 -0.0671 -1.4344 -2.0319
   28MPD2    H3  437   0.267   3.412  12.266 -0.0476 -0.0520 -0.3522
   28MPD2     N  438   0.215   3.838  12.136  0.3572  0.0356  0.2184
   28MPD2    H5  439   0.149   3.915  12.146  2.8885  2.1023  0.9521
   28MPD2    N1  440   4.655   3.643  12.460 -0.4621  0.0804  0.1941
   28MPD2    H7  441   4.643   3.574  12.534  1.2109  1.1225  1.4578
   29MPD2     C  442   3.984   1.038  14.184  0.0845  0.0432 -0.5935
   29MPD2    C1  443   4.094   1.015  14.260 -0.3283 -0.0583  0.0426
   29MPD2    C2  444   4.174   1.120  14.296 -0.3456  0.2256 -0.2615
   29MPD2    C3  445   4.146   1.250  14.280 -0.4706  0.1400  0.2377
   29MPD2    C4  446   4.021   1.274  14.217 -0.5124 -0.0398  0.1302
   29MPD2    C5  447   3.950   1.169  14.163 -0.8903  0.9886 -0.1892
   29MPD2     H  448   4.271   1.099  14.340 -1.3635  0.9644  2.3365
   29MPD2    H1  449   3.986   1.375  14.203 -1.6027 -0.4525 -0.1389
   29MPD2    H2  450   3.921   0.960  14.144 -0.6569  0.4513 -0.2397
   29MPD2    H3  451   3.861   1.197  14.109 -0.9759  1.0994  0.0083
   29MPD2     N  452   4.237   1.354  14.322  0.6594  0.1238  0.0159
   29MPD2    H5  453   4.232   1.446  14.277  0.0119  1.3788  2.6852
   29MPD2    N1  454   4.148   0.888  14.279  0.4634 -0.0655 -0.4065
   29MPD2    H7  455   4.228   0.879  14.341  0.1526 -3.0040 -0.4256
   30TCq2    C1  456   4.335   1.331  14.413  0.0920 -0.5240  0.4408
   30TCq2    O2  457   4.339   1.242  14.500 -0.5391  0.2455  0.4564
   30TCq2    C2  458   4.424   1.442  14.429  0.1790 -0.7381 -0.9882
   30TCq2    C3  459   4.446   1.470  14.561 -0.6855 -0.4158 -0.2256
   30TCq2    C4  460   4.499   1.588  14.594  0.2316 -0.3044 -0.4429
   30TCq2    C5  461   4.519   1.683  14.498 -0.0028 -0.6600  0.1029
   30TCq2    C6  462   4.490   1.663  14.364  0.1760  0.5817  0.1429
   30TCq2    C7  463   4.439   1.539  14.326  0.8143  0.0607  0.1573
   30TCq2    C8  464   4.511   1.766  14.263  0.6582  0.0561 -0.0179
   30TCq2    O4  465   4.426   1.748  14.173 -0.2304 -0.0023 -0.2181
   30TCq2    C9  466   4.533   1.635  14.726  0.3425  0.1150 -0.3721
   30TCq2    O5  467   4.538   1.547  14.814 -0.5241 -0.3009 -0.2122
   30TCq2    O6  468   4.568   1.757  14.740 -0.0882 -0.4310  0.0962
   30TCq2    H2  469   4.420   1.397  14.636  1.2028  0.3667  1.1945
   30TCq2    H3  470   4.563   1.778  14.525  2.0639 -1.5573 -0.1357
   30TCq2    H4  471   4.422   1.516  14.221  1.6787 -0.2536  0.0834
   31MPD2     C  472   2.349   0.021  15.103  0.0899 -0.5617 -0.4228
   31MPD2    C1  473   2.232   0.095  15.081 -0.4158 -0.2680 -0.0123
   31MPD2    C2  474   2.123   0.082  15.165 -0.3129  0.0304 -0.2934
   31MPD2    C3  475   2.119   4.697  15.256 -0.4906  0.7264  0.0576
   31MPD2    C4  476   2.234   4.619  15.272  0.2235 -0.1413  0.3500
   31MPD2    C5  477   2.347   4.649  15.201  0.1544  0.1886 -0.5069
   31MPD2     H  478   2.036   0.148  15.161 -1.8432 -2.1480 -2.6685
   31MPD2    H1  479   2.229   4.530  15.333  1.7813 -0.1097  0.5219
   31MPD2    H2  480   2.438   0.029  15.043 -0.1280 -0.1791 -0.6885
   31MPD2    H3  481   2.438   4.591  15.206 -0.8026 -1.0045  2.7136
   31MPD2     N  482   2.004   4.667  15.336  0.1637 -0.6995  0.1264
   31MPD2    H5  483   2.030   4.601  15.409  0.0470 -0.2251  0.5919
   31MPD2    N1  484   2.243   0.202  14.988 -0.2237 -0.6749 -0.1516
   31MPD2    H7  485   2.337   0.212  14.950 -0.4896 -3.0650 -1.4591
   32TCq2    C1  486   1.877   0.004  15.327  0.0620 -0.5612  0.7155
   32TCq2    O2  487   1.823   0.055  15.231  0.4376  0.2914  0.2578
   32TCq2    C2  488   1.808   0.004  15.460 -0.6155 -0.0366 -0.0999
   32TCq2    C3  489   1.678   0.046  15.456  0.4671 -0.5680 -0.2628
   32TCq2    C4  490   1.615   0.054  15.577 -0.0603 -0.6146 -0.3596
   32TCq2    C5  491   1.684   0.031  15.694 -0.0768  0.4337 -0.4142
   32TCq2    C6  492   1.819   0.009  15.687  0.1853 -0.2276  0.0749
   32TCq2    C7  493   1.878   4.710  15.572  0.6793  0.3913 -0.2527
   32TCq2    C8  494   1.897   4.722  15.809  0.9010  0.4287 -0.2063
   32TCq2    O4  495   1.999   4.653  15.806 -0.0054 -0.3131  0.6234
   32TCq2    C9  496   1.485   0.114  15.586 -0.4855  0.0232 -0.5231
   32TCq2    O5  497   1.432   0.144  15.478 -0.4847 -0.3843 -0.4896
   32TCq2    O6  498   1.448   0.161  15.693  0.6635  0.6158  0.0346
   32TCq2    H2  499   1.630   0.075  15.364 -1.2140  1.9249  1.3922
   32TCq2    H3  500   1.631   0.042  15.788 -0.3467  0.4844 -0.5724
   32TCq2    H4  501   1.985   4.691  15.571  0.7183  0.4897  1.7576
   33MPD2     C  502   3.029   2.019  10.364  0.5104 -0.1693  0.7009
   33MPD2    C1  503   2.907   1.972  10.321  0.1392 -0.8110  0.2496
   33MPD2    C2  504   2.809   2.057  10.266 -0.3187  0.5211 -0.3288
   33MPD2    C3  505   2.836   2.191  10.253 -0.2449 -0.9437 -0.4091
   33MPD2    C4  506   2.958   2.236  10.302  0.1063 -0.5281 -0.0318
   33MPD2    C5  507   3.056   2.151  10.348 -0.1860 -0.3258  0.8012
   33MPD2     H  508   2.709   2.019  10.247 -0.1363  0.3243 -0.8856
   33MPD2    H1  509   2.976   2.342  10.294 -1.1731 -0.3218 -0.1910
   33MPD2    H2  510   3.101   1.951  10.408  1.4691  1.3813  1.5266
   33MPD2    H3  511   3.152   2.192  10.378  1.0185 -2.7054  0.1168
   33MPD2     N  512   2.743   2.281  10.197  0.6866 -0.0554 -0.5927
   33MPD2    H5  513   2.771   2.378  10.203 -1.0969  0.6402 -4.0392
   33MPD2    N1  514   2.890   1.838  10.347  0.4119 -0.2026 -0.1406
   33MPD2    H7  515   2.973   1.786  10.373 -0.4404 -1.2127  0.5654
   34TCq2    C1  516   2.636   2.242  10.119  0.5302  0.0852  0.0644
   34TCq2    O2  517   2.597   2.130  10.082 -0.7108  0.3193 -0.1275
   34TCq2    C2  518   2.571   2.361  10.058  0.4907  0.3976  0.0060
   34TCq2    C3  519   2.449   2.340  10.003  0.2655 -0.1480 -0.0933
   34TCq2    C4  520   2.389   2.447   9.946 -0.4425 -0.4362 -0.7656
   34TCq2    C5  521   2.443   2.571   9.949 -0.3691 -0.5884 -0.8338
   34TCq2    C6  522   2.562   2.590  10.005 -0.0171  0.1146 -0.1896
   34TCq2    C7  523   2.631   2.485  10.060  0.3639  0.0504  0.7135
   34TCq2    C8  524   2.635   2.709   9.989 -0.7770  0.1381  0.7145
   34TCq2    O4  525   2.753   2.706  10.025 -0.0492  0.2188 -0.6880
   34TCq2    C9  526   2.260   2.437   9.873  0.1486  0.3516 -0.2897
   34TCq2    O5  527   2.219   2.319   9.859  0.2985 -0.0331 -0.3430
   34TCq2    O6  528   2.205   2.543   9.831 -0.4402 -0.2622  0.1663
   34TCq2    H2  529   2.406   2.242   9.994 -0.5839  0.1366  0.8658
   34TCq2    H3  530   2.388   2.651   9.901  0.4581  0.2140 -0.4431
   34TCq2    H4  531   2.729   2.499  10.104  1.0090 -0.0485 -0.7033
   35MPD2     C  532   4.173   3.934  11.205  0.9286 -0.0086 -0.0252
   35MPD2    C1  533   4.150   3.863  11.316 -0.4204  0.6610 -0.8224
   35MPD2    C2  534   4.051   3.769  11.316  0.3388 -0.0330 -0.1666
   35MPD2    C3  535   3.975   3.742  11.208 -0.6103 -0.1113 -0.1085
   35MPD2    C4  536   3.993   3.824  11.095  0.4813 -0.2751  0.3170
   35MPD2    C5  537   4.094   3.917  11.096 -0.2811 -0.1640 -0.2480
   35MPD2     H  538   4.048   3.712  11.409  1.5286 -2.2944 -1.5078
   35MPD2    H1  539   3.924   3.809  11.012  2.4307 -0.7489 -1.2298
   35MPD2    H2  540   4.254   4.005  11.198 -0.8068  2.0116  0.1560
   35MPD2    H3  541   4.121   3.964  11.002  2.1310  0.8192  0.9343
   35MPD2     N  542   3.873   3.648  11.228  0.0115  0.2793  0.3659
   35MPD2    H5  543   3.869   3.598  11.316  0.3762 -1.6356 -0.6996
   35MPD2    N1  544   4.241   3.889  11.423 -0.1408 -0.3787 -0.0542
   35MPD2    H7  545   4.300   3.971  11.424 -0.7217  0.0041  2.7726
   36TCq2    C1  546   3.768   3.617  11.144 -0.0067  0.4415 -0.0407
   36TCq2    O2  547   3.750   3.637  11.023  0.2825 -0.1479  0.0227
   36TCq2    C2  548   3.665   3.529  11.200 -0.4259 -0.3051 -0.2862
   36TCq2    C3  549   3.586   3.463  11.115  0.1244  0.5425 -0.1208
   36TCq2    C4  550   3.491   3.385  11.165 -0.5120  0.2670  0.5125
   36TCq2    C5  551   3.470   3.376  11.299  0.3636 -0.5046  0.8618
   36TCq2    C6  552   3.540   3.460  11.384  0.5717 -0.4011 -0.0377
   36TCq2    C7  553   3.642   3.541  11.335  0.1342  0.4021 -0.0379
   36TCq2    C8  554   3.521   3.436  11.526 -0.1200  0.2081 -0.1720
   36TCq2    O4  555   3.459   3.336  11.561 -0.1798 -0.1173 -0.7199
   36TCq2    C9  556   3.398   3.314  11.078 -0.3021  0.0254  0.2818
   36TCq2    O5  557   3.423   3.303  10.955 -0.5915  0.5322 -0.2645
   36TCq2    O6  558   3.298   3.273  11.141  0.0912  0.6183 -0.2874
   36TCq2    H2  559   3.607   3.471  11.009  0.2739 -3.0141 -0.3499
   36TCq2    H3  560   3.392   3.308  11.333 -2.1435  1.3610 -1.1338
   36TCq2    H4  561   3.700   3.606  11.400 -0.9066 -1.5059  2.7899
   37TMC2    C1  562   1.574   4.299  11.711 -0.0610  0.7099 -0.2751
   37TMC2    C2  563   1.573   4.411  11.628  0.5773 -0.2096  0.0091
   37TMC2    C3  564   1.697   4.466  11.592  0.1937  0.0468 -0.6041
   37TMC2    C4  565   1.693   4.228  11.733  0.3398  0.3855  0.1018
   37TMC2    C5  566   1.811   4.296  11.702 -0.0822 -0.2038  0.2798
   37TMC2    C6  567   1.819   4.411  11.625  0.1884 -0.3877 -0.2708
   37TMC2     C  568   1.450   4.252  11.775 -0.4412  0.2018  1.1800
   37TMC2     O  569   1.343   4.295  11.729 -0.4362 -0.1089 -0.0349
   37TMC2     H  570   1.479   4.460  11.604  0.9520  0.5898  0.1405
   37TMC2    H1  571   1.695   4.141  11.797 -0.8214  1.1919  1.2276
   37TMC2    H2  572   1.914   4.459  11.606 -0.3821  0.1381 -1.8221
   37TMC2    C7  573   1.928   4.255  11.778  0.0989 -0.1106  0.1866
   37TMC2    C8  574   1.690   4.610  11.548 -0.0551 -0.8994  0.6042
   37TMC2    O1  575   1.903   4.212  11.888  0.1215 -0.0739  0.2671
   37TMC2    O2  576   1.613   4.688  11.598 -0.6602  0.2751  0.0550
   37TMC2    O5  577   1.780   4.641  11.448 -0.0348 -0.1026  0.2756
   37TMC2    H5  578   1.826   4.566  11.404 -0.7353 -0.9526  0.9780
   38MPD2     C  579   1.204   4.011  12.166  0.5120 -0.4067  0.0992
   38MPD2    C1  580   1.331   3.968  12.161 -0.2030  0.0423  0.1713
   38MPD2    C2  581   1.414   4.012  12.057 -0.4686  0.0091  0.0396
   38MPD2    C3  582   1.372   4.115  11.971  0.2582 -0.3532 -0.6719
   38MPD2    C4  583   1.245   4.166  11.986 -0.1363 -0.4647  0.1763
   38MPD2    C5  584   1.160   4.116  12.088 -0.0504 -0.4448  0.5599
   38MPD2     H  585   1.516   3.976  12.046 -1.4327 -2.4063 -1.0538
   38MPD2    H1  586   1.215   4.249  11.922  0.1994 -0.4465  0.0399
   38MPD2    H2  587   1.125   3.981  12.234  0.7693  0.6420  0.8565
   38MPD2    H3  588   1.058   4.153  12.094  0.5949  1.4679 -0.3459
   38MPD2     N  589   1.471   4.163  11.880  0.4186  0.2080 -0.2654
   38MPD2    H5  590   1.563   4.137  11.912  0.8965 -0.0925 -1.9173
   38MPD2    N1  591   1.378   3.875  12.262  0.5249 -0.2325 -0.1474
   38MPD2    H7  592   1.476   3.847  12.267  1.3176  2.5211 -0.5544
   39MPD2     C  593   3.834   0.912   1.548  0.0981  0.4621  0.1312
   39MPD2    C1  594   3.830   1.037   1.605 -0.2108 -0.6844  0.8552
   39MPD2    C2  595   3.770   1.133   1.530 -0.6247  0.0336  0.2246
   39MPD2    C3  596   3.722   1.112   1.400  0.5122 -0.6679  0.0978
   39MPD2    C4  597   3.726   0.982   1.349 -0.0866 -0.2896  1.2692
   39MPD2    C5  598   3.786   0.879   1.428 -0.0981  0.3465  0.1058
   39MPD2     H  599   3.773   1.236   1.563 -0.2865  0.1034 -0.0163
   39MPD2    H1  600   3.702   0.965   1.244  1.2372  0.7397  0.7874
   39MPD2    H2  601   3.879   0.832   1.606 -0.7137  0.8941  1.3352
   39MPD2    H3  602   3.791   0.778   1.389 -0.2468 -0.1124  1.2815
   39MPD2     N  603   3.653   1.206   1.320 -0.1760  0.3889 -0.5420
   39MPD2    H5  604   3.626   1.174   1.228 -0.7118  0.3453 -0.3686
   39MPD2    N1  605   3.904   1.050   1.733  0.0485 -0.3309 -0.3204
   39MPD2    H7  606   3.933   0.965   1.779  1.6871  1.2219  1.5312
   40TCq2    C1  607   3.913   1.170   1.798  0.5142 -0.1653 -0.3097
   40TCq2    O2  608   3.888   1.284   1.753 -0.9111 -0.1584  0.3487
   40TCq2    C2  609   3.957   1.167   1.941 -0.8201  0.2552  0.6775
   40TCq2    C3  610   3.945   1.064   2.019  0.5040  0.1268 -0.2497
   40TCq2    C4  611   3.968   1.078   2.153 -0.4938 -0.1641 -0.0290
   40TCq2    C5  612   4.024   1.190   2.198 -0.3492 -0.1317 -0.6547
   40TCq2    C6  613   4.055   1.285   2.108 -0.4699  0.0497  0.4275
   40TCq2    C7  614   4.013   1.282   1.981  0.4401  0.3020 -0.3881
   40TCq2    C8  615   4.102   1.419   2.164  0.6126 -0.4208 -0.2540
   40TCq2    O4  616   4.088   1.424   2.283 -0.5434 -0.1859  0.9315
   40TCq2    C9  617   3.950   0.970   2.241 -0.0610 -0.4439 -0.6490
   40TCq2    O5  618   3.910   0.860   2.188  0.6570  0.0432  0.4190
   40TCq2    O6  619   3.975   0.984   2.363  0.0902 -0.2411  0.2554
   40TCq2    H2  620   3.892   0.977   1.982  2.0992 -1.4611  1.1712
   40TCq2    H3  621   4.047   1.201   2.304 -0.5284  0.9878 -0.7289
   40TCq2    H4  622   4.027   1.358   1.906  1.8421  0.2918 -0.1406
   41TMC2    C1  623   2.896   4.098  13.902  0.6793 -0.0772 -0.0535
   41TMC2    C2  624   3.010   4.072  13.974 -0.2047 -0.0996 -0.3991
   41TMC2    C3  625   3.128   4.077  13.904  0.3018 -0.8263  0.2357
   41TMC2    C4  626   2.910   4.138  13.768 -0.5758  0.2268 -0.1719
   41TMC2    C5  627   3.032   4.153  13.711 -0.3695 -0.2672  0.5436
   41TMC2    C6  628   3.152   4.135  13.779  0.0560  0.0190 -0.4685
   41TMC2     C  629   2.767   4.057  13.953  0.6426  0.1036  0.3761
   41TMC2     O  630   2.697   3.989  13.882 -0.2167  0.7115 -0.1410
   41TMC2     H  631   3.014   4.031  14.075 -1.5095  1.2741  0.2195
   41TMC2    H1  632   2.824   4.169  13.711 -0.3237 -0.1722 -0.7710
   41TMC2    H2  633   3.250   4.152  13.737  0.1868  3.0230  1.0612
   41TMC2    C7  634   3.024   4.194  13.573 -0.1859  0.9656 -0.7601
   41TMC2    C8  635   3.251   4.052  13.982  0.5411  0.2393  0.0183
   41TMC2    O1  636   2.926   4.261  13.538  0.3593  0.1590  0.1137
   41TMC2    O2  637   3.350   4.120  13.975  0.0048 -0.3282 -0.3976
   41TMC2    O5  638   3.236   3.928  14.032  0.1622  0.5375 -0.2611
   41TMC2    H5  639   3.149   3.887  14.051 -0.6173  2.1795 -0.3151
   42MPD2     C  640   2.524   3.969  14.113 -0.4493 -0.4682 -0.0723
   42MPD2    C1  641   2.652   4.004  14.162  0.2004 -0.8057 -0.3175
   42MPD2    C2  642   2.670   3.989  14.300 -0.2944 -0.0918  0.5624
   42MPD2    C3  643   2.564   3.942  14.385 -0.3644  0.0890 -0.2287
   42MPD2    C4  644   2.443   3.907  14.329 -0.0855  0.1306 -0.5873
   42MPD2    C5  645   2.427   3.921  14.195 -0.1527  0.0799 -0.0945
   42MPD2     H  646   2.762   4.024  14.345  1.1429 -3.2795  0.0548
   42MPD2    H1  647   2.360   3.881  14.394  1.9321  0.6540  2.2127
   42MPD2    H2  648   2.507   3.961  14.006 -0.9405  0.6036 -0.0703
   42MPD2    H3  649   2.341   3.873  14.150 -0.6568  0.2873  0.6554
   42MPD2     N  650   2.580   3.918  14.521  0.2335 -0.2678 -0.0108
   42MPD2    H5  651   2.494   3.885  14.563  0.5254 -0.8521  0.1373
   42MPD2    N1  652   2.764   4.062  14.089 -0.7975  0.0360 -0.5935
   42MPD2    H7  653   2.843   4.093  14.145 -1.2425 -0.1946  0.1654
   43MPD2     C  654   4.319   3.065   0.542  0.2352  0.6085  0.5699
   43MPD2    C1  655   4.362   2.997   0.654 -0.4972 -0.4172 -0.0080
   43MPD2    C2  656   4.290   3.025   0.773 -0.7685 -0.1680  0.1946
   43MPD2    C3  657   4.175   3.102   0.779  0.2494 -0.8127 -0.4813
   43MPD2    C4  658   4.126   3.140   0.661 -0.5772  0.0138 -0.0242
   43MPD2    C5  659   4.200   3.135   0.547  0.2671  0.4664  0.3175
   43MPD2     H  660   4.317   2.975   0.865 -1.1874 -2.4782 -0.9308
   43MPD2    H1  661   4.044   3.212   0.665 -1.3894 -1.0339  1.8991
   43MPD2    H2  662   4.366   3.056   0.444  1.1677  1.1244  0.9679
   43MPD2    H3  663   4.157   3.195   0.467  2.7266  3.5187  1.3133
   43MPD2     N  664   4.107   3.135   0.902  0.5587 -0.4081  0.1227
   43MPD2    H5  665   4.021   3.189   0.903  1.4661  0.9811  1.3086
   43MPD2    N1  666   4.467   2.909   0.666 -0.2922  0.0943  0.3191
   43MPD2    H7  667   4.473   2.857   0.753 -3.1701 -0.1656  0.3622
   44TCq2    C1  668   4.025   3.135   1.497  0.2813  0.1085 -0.1611
   44TCq2    O2  669   4.148   3.126   1.508  0.4236  0.6978 -0.4015
   44TCq2    C2  670   3.977   3.145   1.365  0.5935 -0.0219 -0.2625
   44TCq2    C3  671   3.861   3.220   1.336 -0.5230 -0.3248 -0.2710
   44TCq2    C4  672   3.841   3.258   1.203  0.1317 -0.3676  0.0352
   44TCq2    C5  673   3.925   3.209   1.103  0.3645 -0.6462  1.1643
   44TCq2    C6  674   4.037   3.130   1.132  0.3005 -0.2051 -0.7723
   44TCq2    C7  675   4.063   3.094   1.262 -0.2309  0.9111 -0.0799
   44TCq2    C8  676   4.136   3.089   1.033  0.0332  0.0596 -0.0455
   44TCq2    O4  677   4.230   3.014   1.070  0.2982  0.4812 -0.4118
   44TCq2    C9  678   3.726   3.339   1.176  0.2983 -0.4568 -0.4069
   44TCq2    O5  679   3.728   3.403   1.067 -0.4037 -0.4426  0.0386
   44TCq2    O6  680   3.634   3.347   1.260 -0.4603 -0.3053 -0.0061
   44TCq2    H2  681   3.811   3.272   1.416 -0.0324 -1.3436  0.7033
   44TCq2    H3  682   3.888   3.226   1.003  0.0648  1.0080  1.5446
   44TCq2    H4  683   4.162   3.051   1.277 -0.6031  0.6128  1.5135
   45TMC2    C1  684   0.425   4.585   9.314  0.6294  0.2929 -0.2125
   45TMC2    C2  685   0.555   4.561   9.340 -0.3803 -0.5036  0.3866
   45TMC2    C3  686   0.616   4.646   9.428  0.1618 -0.0391  0.1217
   45TMC2    C4  687   0.351   4.683   9.383 -0.1415  0.1415  0.0964
   45TMC2    C5  688   0.422   0.042   9.465  0.3413 -0.0945  0.1432
   45TMC2    C6  689   0.553   0.025   9.484 -0.1493  0.4267 -0.1146
   45TMC2     C  690   0.350   4.471   9.272 -0.9141  0.4989  0.1024
   45TMC2     O  691   0.414   4.376   9.232 -0.6401 -0.1039 -0.1375
   45TMC2     H  692   0.601   4.483   9.279  0.0857  0.5625 -0.6323
   45TMC2    H1  693   0.249   4.715   9.363 -0.4511  0.0668  1.5097
   45TMC2    H2  694   0.597   0.102   9.547 -0.7021  0.1213  0.6470
   45TMC2    C7  695   0.375   0.181   9.461  0.2839  0.9443 -0.4633
   45TMC2    C8  696   0.755   4.624   9.453 -0.7718 -0.0594 -0.1361
   45TMC2    O1  697   0.307   0.216   9.363 -0.2458  0.3540 -0.4930
   45TMC2    O2  698   0.834   4.710   9.485  0.5542  0.1216 -0.1127
   45TMC2    O5  699   0.783   4.492   9.450  0.2814 -0.3984 -0.0185
   45TMC2    H5  700   0.708   4.430   9.448  0.5185 -0.6580 -0.8256
   46MPD2     C  701   0.148   4.240   9.245 -0.2980  0.3445  0.1037
   46MPD2    C1  702   0.124   4.362   9.301 -0.3444  0.4707 -0.5500
   46MPD2    C2  703   4.723   4.384   9.345 -0.2102 -0.3299 -0.4164
   46MPD2    C3  704   4.621   4.286   9.344 -0.7155  0.3477 -0.7613
   46MPD2    C4  705   4.657   4.162   9.286  0.6468 -0.2342 -0.5801
   46MPD2    C5  706   0.055   4.143   9.231  0.4451  0.3406  0.6953
   46MPD2     H  707   4.699   4.484   9.378  1.6609 -0.7625  2.2958
   46MPD2    H1  708   4.584   4.082   9.284  0.9801 -0.5992  1.2311
   46MPD2    H2  709   0.249   4.219   9.211 -0.4303  0.0987 -0.1304
   46MPD2    H3  710   0.079   4.044   9.194 -3.0621 -0.8138  1.5387
   46MPD2     N  711   4.489   4.314   9.393 -0.4466 -0.7225 -0.3196
   46MPD2    H5  712   4.471   4.409   9.425  0.0033 -1.2594  1.5682
   46MPD2    N1  713   0.216   4.473   9.311  0.1318  0.3549 -0.1310
   46MPD2    H7  714   0.180   4.566   9.332 -0.6191 -0.1904  0.9499
   47TMC2    C1  715   2.842   0.185   8.940 -0.2921 -0.1172  0.3839
   47TMC2    C2  716   2.753   0.090   8.990  0.0756  0.2753  0.8279
   47TMC2    C3  717   2.618   0.108   8.967 -0.2359  0.5420 -0.6467
   47TMC2    C4  718   2.794   0.292   8.872 -0.5997 -0.4261  0.9728
   47TMC2    C5  719   2.659   0.306   8.849  0.4299  0.3859 -0.0271
   47TMC2    C6  720   2.568   0.215   8.897  0.6866  0.7171 -1.2875
   47TMC2     C  721   2.963   0.204   9.017  0.2701 -0.3010 -0.4767
   47TMC2     O  722   2.992   0.323   9.034  0.5400  0.0930  0.1346
   47TMC2     H  723   2.778   0.019   9.068  0.8723 -1.4008 -0.9683
   47TMC2    H1  724   2.865   0.371   8.850  0.1725 -0.8869  1.7985
   47TMC2    H2  725   2.462   0.235   8.888 -0.1092 -2.6329  0.5202
   47TMC2    C7  726   2.612   0.437   8.833 -0.1075 -0.1717  0.0642
   47TMC2    C8  727   2.513   0.014   9.020  0.1928  0.1540 -0.3140
   47TMC2    O1  728   2.491   0.457   8.865 -0.2709 -0.1751 -1.1921
   47TMC2    O2  729   2.411   0.067   9.063  0.4843  0.0946  0.2418
   47TMC2    O5  730   2.526   4.629   8.933 -0.8110 -0.1244  0.1780
   47TMC2    H5  731   2.603   4.624   8.872 -1.3561 -1.2043 -0.4267
   48MPD2     C  732   3.202   0.196   9.200 -0.0444 -0.0603 -0.3056
   48MPD2    C1  733   3.141   0.086   9.139 -0.2308 -0.0457 -0.1728
   48MPD2    C2  734   3.208   4.692   9.167 -0.1553 -0.6010  0.0239
   48MPD2    C3  735   3.327   4.681   9.237  0.7458 -0.5046  0.3294
   48MPD2    C4  736   3.388   0.068   9.288  0.7433  0.3689 -0.6556
   48MPD2    C5  737   3.324   0.188   9.263 -0.0401  0.6013  0.2951
   48MPD2     H  738   3.177   4.594   9.133 -0.4735 -0.0926 -1.1541
   48MPD2    H1  739   3.484   0.070   9.337 -0.0785 -1.5084  1.0344
   48MPD2    H2  740   3.159   0.296   9.191  0.9339  0.4668  0.8933
   48MPD2    H3  741   3.377   0.275   9.302  0.9339 -0.1230  0.5905
   48MPD2     N  742   3.389   4.557   9.242 -0.3108  0.8187 -0.3826
   48MPD2    H5  743   3.347   4.482   9.189  0.3586  0.3616 -0.2653
   48MPD2    N1  744   3.028   0.090   9.053 -0.3188 -0.3703 -0.2820
   48MPD2    H7  745   2.997   0.005   9.008  1.4765  0.0691 -2.3382
   49MPD2     C  746   0.947   2.505  10.085  0.8811  0.4125  0.5204
   49MPD2    C1  747   0.964   2.447  10.206  0.0965  0.6643  0.4732
   49MPD2    C2  748   1.050   2.493  10.301  0.3467 -0.5003  0.0884
   49MPD2    C3  749   1.135   2.602  10.276  0.7375 -0.6889 -0.1204
   49MPD2    C4  750   1.140   2.648  10.139 -0.0602  0.3636  0.3354
   49MPD2    C5  751   1.044   2.600  10.051 -0.2420  0.1387  0.2110
   49MPD2     H  752   1.041   2.459  10.403 -1.6706 -1.6949 -0.5011
   49MPD2    H1  753   1.204   2.728  10.106 -1.5226  2.0082  1.4588
   49MPD2    H2  754   0.877   2.480  10.007  0.7899 -0.0306  0.7425
   49MPD2    H3  755   1.037   2.626   9.946  1.0762  1.0969  0.3582
   49MPD2     N  756   1.211   2.662  10.384 -0.1486  0.0297  0.2038
   49MPD2    H5  757   1.275   2.735  10.354 -0.8098  0.4652 -0.1261
   49MPD2    N1  758   0.887   2.330  10.245  0.2829 -0.0690 -0.3599
   49MPD2    H7  759   0.913   2.285  10.333  2.5055  2.3846  0.2647
   50TCq2    C1  760   0.785   2.273  10.177  0.3806  0.7333  0.6161
   50TCq2    O2  761   0.725   2.316  10.082 -0.1500 -0.0265  0.0131
   50TCq2    C2  762   0.747   2.144  10.220 -0.1433  0.1894 -0.4764
   50TCq2    C3  763   0.635   2.086  10.160  0.1265 -0.5017  0.2405
   50TCq2    C4  764   0.618   1.952  10.167  0.3140  0.5237  0.7805
   50TCq2    C5  765   0.710   1.878  10.236  0.7010  0.0018  0.3527
   50TCq2    C6  766   0.832   1.932  10.271  0.0444 -0.0341 -0.5552
   50TCq2    C7  767   0.843   2.067  10.267 -0.3422 -0.0414 -0.4523
   50TCq2    C8  768   0.956   1.851  10.260 -0.2591  0.6868 -0.1279
   50TCq2    O4  769   1.056   1.877  10.323  0.3725 -0.4184  0.2451
   50TCq2    C9  770   0.498   1.880  10.127  0.3143  0.3694  0.3755
   50TCq2    O5  771   0.494   1.753  10.124 -0.3053  0.6261  0.0222
   50TCq2    O6  772   0.402   1.953  10.105 -0.4469  0.4260 -0.4247
   50TCq2    H2  773   0.553   2.143  10.117  0.1030 -0.2792  0.5820
   50TCq2    H3  774   0.700   1.770  10.248  1.3767  0.0609  1.4296
   50TCq2    H4  775   0.941   2.109  10.289 -1.1062  0.3982  2.1350
   51MPD2     C  776   1.210   0.841   1.023  0.1793 -0.2007 -0.3473
   51MPD2    C1  777   1.221   0.722   0.957  0.1850  0.2605  0.1638
   51MPD2    C2  778   1.325   0.639   0.978  0.8960 -0.7314 -0.3490
   51MPD2    C3  779   1.428   0.681   1.062  0.0710 -0.2492  0.2446
   51MPD2    C4  780   1.432   0.808   1.112  0.0387 -0.0553  0.1174
   51MPD2    C5  781   1.319   0.888   1.098  0.5538  0.7878 -0.1601
   51MPD2     H  782   1.318   0.547   0.921  0.0258  0.1552 -1.6683
   51MPD2    H1  783   1.507   0.842   1.182  0.9818  0.0940 -0.9516
   51MPD2    H2  784   1.141   0.919   0.993  0.0891  1.4512  4.0868
   51MPD2    H3  785   1.335   0.988   1.136  0.0622  0.1284  1.7842
   51MPD2     N  786   1.531   0.601   1.109 -0.3761  0.1068 -0.3603
   51MPD2    H5  787   1.590   0.658   1.168 -0.2414 -0.4367  0.0319
   51MPD2    N1  788   1.127   0.679   0.862  0.2530 -0.0362  0.1367
   51MPD2    H7  789   1.152   0.596   0.809  2.0951  0.6702 -0.0964
   52TCq2    C1  790   1.528   0.462   1.110  0.0511 -0.4818 -0.7653
   52TCq2    O2  791   1.439   0.392   1.071 -0.4159 -0.0969  0.5570
   52TCq2    C2  792   1.637   0.400   1.184  0.0088  0.0547 -0.1918
   52TCq2    C3  793   1.600   0.287   1.251 -0.4129  0.7167 -0.0000
   52TCq2    C4  794   1.684   0.238   1.352 -0.2731  0.5860  0.2748
   52TCq2    C5  795   1.798   0.304   1.380  0.5011  0.2454  0.3206
   52TCq2    C6  796   1.831   0.420   1.319 -0.2326 -0.6586 -0.5096
   52TCq2    C7  797   1.751   0.468   1.218 -0.0598  0.5839  0.4622
   52TCq2    C8  798   1.950   0.499   1.356  0.1033 -0.1159 -0.0017
   52TCq2    O4  799   1.970   0.597   1.286  0.3297 -0.0636 -0.1429
   52TCq2    C9  800   1.641   0.124   1.424  0.2395  0.2352 -0.2692
   52TCq2    O5  801   1.695   0.095   1.539 -0.2844  0.3119  0.1928
   52TCq2    O6  802   1.540   0.060   1.382 -0.0149  0.0317  0.7000
   52TCq2    H2  803   1.515   0.231   1.216 -0.4960  1.6068 -1.2338
   52TCq2    H3  804   1.854   0.259   1.462  0.2117  0.8780  0.8632
   52TCq2    H4  805   1.772   0.562   1.169 -0.7596  0.9016  0.7815
   53TMC2    C1  806   2.437   4.054  12.268 -0.0918 -0.1000  0.4166
   53TMC2    C2  807   2.551   4.065  12.340  0.5437  0.3969 -0.4762
   53TMC2    C3  808   2.533   4.065  12.472  0.9270 -0.3102 -0.7972
   53TMC2    C4  809   2.314   4.062  12.325  0.0328  0.1267  0.5496
   53TMC2    C5  810   2.308   4.065  12.457 -0.0045  0.6006 -0.1919
   53TMC2    C6  811   2.415   4.081  12.532  0.5547 -0.9009  0.5336
   53TMC2     C  812   2.447   4.062  12.128 -0.5888  0.3908 -0.7659
   53TMC2     O  813   2.556   4.034  12.084  0.2533 -0.3027  0.0159
   53TMC2     H  814   2.651   4.058  12.298  0.4052  0.2459 -0.7772
   53TMC2    H1  815   2.229   4.028  12.266  1.8855 -2.1306 -0.7967
   53TMC2    H2  816   2.413   4.088  12.641 -4.4272 -3.7001  0.6222
   53TMC2    C7  817   2.172   4.074  12.512 -0.3865  0.3265 -0.1250
   53TMC2    C8  818   2.650   4.081  12.555  0.1321  0.9192  0.2345
   53TMC2    O1  819   2.079   4.087  12.434 -0.1590 -0.1482  0.6114
   53TMC2    O2  820   2.651   4.154  12.654  0.2106  0.0575  0.2026
   53TMC2    O5  821   2.747   3.996  12.510 -0.0935  0.0354 -0.2960
   53TMC2    H5  822   2.717   3.926  12.448  2.2552 -2.4051  1.3220
   54MPD2     C  823   2.408   4.089  11.831 -0.5194 -0.5347  0.4403
   54MPD2    C1  824   2.313   4.129  11.927 -0.4716  0.1258  0.1852
   54MPD2    C2  825   2.190   4.179  11.889  0.0811  0.9784 -0.0951
   54MPD2    C3  826   2.157   4.201  11.755 -0.1374 -0.4189  0.0577
   54MPD2    C4  827   2.256   4.174  11.666 -0.5669 -0.1754  0.6122
   54MPD2    C5  828   2.371   4.110  11.703  0.2361  0.2948  0.4707
   54MPD2     H  829   2.123   4.206  11.970 -0.5227  0.4522 -0.4185
   54MPD2    H1  830   2.245   4.180  11.558 -0.0031 -2.9284  0.4047
   54MPD2    H2  831   2.498   4.033  11.851 -1.4803 -2.2802 -0.1392
   54MPD2    H3  832   2.442   4.069  11.631 -0.1582 -0.0647  0.2833
   54MPD2     N  833   2.037   4.250  11.699 -0.6784 -0.1600 -0.3890
   54MPD2    H5  834   2.029   4.263  11.599  1.1002 -0.0952 -0.5139
   54MPD2    N1  835   2.336   4.109  12.067  0.4506 -0.5321  0.1119
   54MPD2    H7  836   2.259   4.138  12.126 -0.6891 -1.8984 -0.6915
   55MPD2     C  837   2.423   2.001   0.386 -0.0069  0.1903  0.1404
   55MPD2    C1  838   2.368   1.918   0.476 -0.4515 -0.3348  0.7079
   55MPD2    C2  839   2.241   1.960   0.523  0.9865 -0.2319  0.1697
   55MPD2    C3  840   2.178   2.080   0.480  0.2854 -0.4917 -0.3890
   55MPD2    C4  841   2.238   2.160   0.389  0.3627 -0.0022  0.0242
   55MPD2    C5  842   2.364   2.117   0.343 -0.0362 -0.1836  0.3955
   55MPD2     H  843   2.185   1.891   0.585  1.9012 -1.3889 -0.2991
   55MPD2    H1  844   2.198   2.251   0.346 -1.3132 -1.2115 -1.0020
   55MPD2    H2  845   2.513   1.965   0.338  0.0114 -0.3748  0.5967
   55MPD2    H3  846   2.411   2.184   0.273 -0.1388 -1.6129 -1.0377
   55MPD2     N  847   2.049   2.102   0.535  1.0381  0.3307  0.2681
   55MPD2    H5  848   2.019   2.042   0.611 -1.3914 -0.9765 -1.7230
   55MPD2    N1  849   2.435   1.792   0.499  0.6745 -0.1220  0.0370
   55MPD2    H7  850   2.529   1.789   0.461 -0.5686 -2.7411 -2.8174
   56TCq2    C1  851   2.378   1.690   0.577  0.7377 -0.6190 -0.5234
   56TCq2    O2  852   2.259   1.672   0.588 -0.0989  0.0380  0.3495
   56TCq2    C2  853   2.473   1.595   0.634 -0.6681 -0.1798 -0.0494
   56TCq2    C3  854   2.603   1.634   0.656 -0.6373 -0.8086 -0.1742
   56TCq2    C4  855   2.679   1.551   0.727 -0.7934 -0.0493 -0.0374
   56TCq2    C5  856   2.624   1.431   0.774  0.3893 -0.8489 -1.0168
   56TCq2    C6  857   2.504   1.390   0.739  0.2648  0.0912  0.0567
   56TCq2    C7  858   2.422   1.478   0.676 -0.1278 -0.1067 -0.5246
   56TCq2    C8  859   2.461   1.262   0.778 -0.9094 -0.3077 -0.3746
   56TCq2    O4  860   2.548   1.181   0.797 -0.0618 -0.5166 -0.1731
   56TCq2    C9  861   2.813   1.581   0.756 -0.1503  0.2947  0.5807
   56TCq2    O5  862   2.891   1.489   0.791  0.0831 -0.2749 -0.3557
   56TCq2    O6  863   2.839   1.705   0.752 -0.4225 -0.0071 -0.2375
   56TCq2    H2  864   2.643   1.734   0.647  1.1606 -1.6894 -2.1571
   56TCq2    H3  865   2.689   1.365   0.830  1.5530  0.2439 -1.0744
   56TCq2    H4  866   2.325   1.443   0.642  0.2667 -3.2475  1.5638
   57TMC2    C1  867   2.003   3.351  13.354 -0.0091 -0.6580  0.1425
   57TMC2    C2  868   1.993   3.488  13.347  0.3615  0.3470  0.1724
   57TMC2    C3  869   2.058   3.547  13.249  0.3488  0.4549  0.5971
   57TMC2    C4  870   2.079   3.283  13.264  0.0317  0.0328  0.0499
   57TMC2    C5  871   2.154   3.350  13.172  0.4153 -0.0526  0.3966
   57TMC2    C6  872   2.147   3.488  13.162 -0.3151 -0.0026 -1.0502
   57TMC2     C  873   1.926   3.282  13.450  0.1379 -0.0943 -0.1948
   57TMC2     O  874   1.894   3.337  13.554 -0.3920  0.7477 -0.2399
   57TMC2     H  875   1.925   3.533  13.418 -0.0291  0.6351 -0.3910
   57TMC2    H1  876   2.099   3.181  13.295  0.3718 -0.5055 -1.9441
   57TMC2    H2  877   2.203   3.547  13.091  1.9055 -0.0297  0.6613
   57TMC2    C7  878   2.274   3.292  13.124  0.0471 -0.0287 -0.1079
   57TMC2    C8  879   2.021   3.683  13.225  0.2993  0.3863 -0.1586
   57TMC2    O1  880   2.365   3.377  13.114 -0.1638  0.1283  0.2341
   57TMC2    O2  881   1.989   3.762  13.313  0.8498 -0.6117  0.2435
   57TMC2    O5  882   2.010   3.698  13.094 -0.1536  0.0484  0.0596
   57TMC2    H5  883   1.982   3.616  13.047 -0.7860 -0.2208  0.8990
   58MPD2     C  884   1.569   2.908  13.507  0.1073  0.1774 -0.4173
   58MPD2    C1  885   1.597   3.016  13.588  0.2692 -0.6727  0.3966
   58MPD2    C2  886   1.692   3.110  13.551 -0.0784 -0.1658 -0.1611
   58MPD2    C3  887   1.770   3.084  13.438 -0.3005 -0.4958  0.2487
   58MPD2    C4  888   1.735   2.971  13.361  0.5444 -0.1301  0.3681
   58MPD2    C5  889   1.642   2.884  13.402 -0.1970  0.5279 -0.0359
   58MPD2     H  890   1.719   3.201  13.604 -1.6249  0.2689 -0.1322
   58MPD2    H1  891   1.780   2.949  13.265  1.2163  0.2267  0.5957
   58MPD2    H2  892   1.478   2.850  13.520  0.5578 -0.2657  0.8574
   58MPD2    H3  893   1.600   2.807  13.337  1.8245  0.0531 -0.7726
   58MPD2     N  894   1.866   3.177  13.387  0.1103  0.2049  0.5610
   58MPD2    H5  895   1.897   3.151  13.293 -1.8514 -1.7407  0.4491
   58MPD2    N1  896   1.524   3.058  13.699  0.2859  0.1853  0.0161
   58MPD2    H7  897   1.546   3.149  13.739 -1.7113  0.9133 -0.5125
   59MPD2     C  898   4.190   2.996  13.063  0.2982  0.7133  0.0337
   59MPD2    C1  899   4.283   3.054  12.979 -0.2372  0.3692  0.1275
   59MPD2    C2  900   4.416   3.046  13.010  0.2927  0.0742 -0.8650
   59MPD2    C3  901   4.456   2.978  13.125  0.2277  0.3107 -0.3406
   59MPD2    C4  902   4.367   2.908  13.201  0.6768  0.1020 -0.2398
   59MPD2    C5  903   4.234   2.918  13.162  0.3582 -0.0811  0.2784
   59MPD2     H  904   4.495   3.088  12.949  0.1902  2.1773  0.4435
   59MPD2    H1  905   4.386   2.852  13.291  0.2304  0.5207  0.1154
   59MPD2    H2  906   4.083   3.008  13.057  0.5670  2.2792 -1.3874
   59MPD2    H3  907   4.165   2.874  13.234  2.6775 -0.4846  2.2649
   59MPD2     N  908   4.591   2.971  13.165 -0.1891  0.2113  0.9213
   59MPD2    H5  909   4.613   2.924  13.253  1.2837  0.0621  0.4716
   59MPD2    N1  910   4.248   3.124  12.862 -0.1817 -0.5292  0.1130
   59MPD2    H7  911   4.326   3.163  12.812  0.2684 -2.1004 -0.4006
   60TCq2    C1  912   4.124   3.164  12.833 -0.4519  0.0714 -0.2602
   60TCq2    O2  913   4.021   3.101  12.854 -0.1865  0.3295  0.0769
   60TCq2    C2  914   4.117   3.248  12.712  0.7605 -0.1310 -0.1854
   60TCq2    C3  915   3.991   3.275  12.665  0.3297  0.3016  0.8864
   60TCq2    C4  916   3.977   3.309  12.535  0.0550  0.6325  0.4374
   60TCq2    C5  917   4.087   3.315  12.452  0.6979  0.6818 -0.4796
   60TCq2    C6  918   4.214   3.289  12.507  0.0203 -0.1930 -0.4865
   60TCq2    C7  919   4.233   3.250  12.631  0.4010 -0.4968 -0.2570
   60TCq2    C8  920   4.334   3.296  12.422  0.5803  0.4267  0.4451
   60TCq2    O4  921   4.436   3.232  12.452 -0.4607 -0.6478 -0.2466
   60TCq2    C9  922   3.851   3.351  12.480  0.7203  0.2267 -0.3940
   60TCq2    O5  923   3.771   3.405  12.557  0.2054  0.2332  0.4538
   60TCq2    O6  924   3.860   3.389  12.361 -0.4498 -0.3749 -0.0950
   60TCq2    H2  925   3.904   3.274  12.729 -2.5537 -0.7355 -3.0272
   60TCq2    H3  926   4.071   3.327  12.346  0.5818  0.0490 -0.5349
   60TCq2    H4  927   4.332   3.227  12.668  0.1540 -0.2183  0.5953
   61MPD2     C  928   4.190   4.406  14.819  0.3259  0.5544  0.8759
   61MPD2    C1  929   4.107   4.358  14.916  0.0677  0.2430 -0.3641
   61MPD2    C2  930   4.008   4.273  14.881 -0.1252 -0.0007  0.2675
   61MPD2    C3  931   3.981   4.242  14.752  0.2507 -0.0021 -0.1582
   61MPD2    C4  932   4.077   4.268  14.660 -0.6444 -0.1942  0.0865
   61MPD2    C5  933   4.183   4.350  14.702 -0.1181 -0.0909 -0.7227
   61MPD2     H  934   3.946   4.231  14.959  0.9230 -1.0484  0.5410
   61MPD2    H1  935   4.062   4.248  14.555 -0.4168  0.0085  0.0167
   61MPD2    H2  936   4.270   4.474  14.848  0.4416  0.6251  0.3915
   61MPD2    H3  937   4.254   4.385  14.627 -0.8041 -1.4976 -2.0356
   61MPD2     N  938   3.878   4.164  14.698 -0.0483  0.2957 -0.3209
   61MPD2    H5  939   3.885   4.123  14.605 -0.8475 -0.3770 -0.0897
   61MPD2    N1  940   4.103   4.409  15.050  0.1795 -0.4654 -0.0054
   61MPD2    H7  941   4.031   4.375  15.113  0.3047  0.5265  0.6725
   62TCq2    C1  942   4.160   4.521  15.099  0.4711 -0.7957 -0.6752
   62TCq2    O2  943   4.242   4.597  15.048 -0.0224 -0.1273  0.1058
   62TCq2    C2  944   4.105   4.557  15.222 -1.0421 -0.3469 -0.0517
   62TCq2    C3  945   4.053   4.460  15.299  0.9732 -0.7201  0.2075
   62TCq2    C4  946   3.967   4.489  15.398 -0.8389 -0.9700  0.2914
   62TCq2    C5  947   3.922   4.612  15.410  0.8867  0.2947  0.8873
   62TCq2    C6  948   3.965   4.707  15.327 -0.6995 -0.1424 -0.6059
   62TCq2    C7  949   4.057   4.686  15.227  0.3474 -0.2005  0.1608
   62TCq2    C8  950   3.875   0.097  15.309 -0.6246  0.0349  0.8969
   62TCq2    O4  951   3.927   0.191  15.249  0.2176 -0.5294 -0.3748
   62TCq2    C9  952   3.930   4.384  15.483 -0.6487 -0.5990 -0.1381
   62TCq2    O5  953   3.947   4.267  15.445 -0.3108  0.3021  0.0451
   62TCq2    O6  954   3.840   4.411  15.561 -0.8788 -0.2225  0.4812
   62TCq2    H2  955   4.088   4.357  15.298  1.8541 -0.4067 -0.8314
   62TCq2    H3  956   3.850   4.634  15.489  0.7403  1.1114  0.5232
   62TCq2    H4  957   4.090   0.037  15.157 -0.0446 -0.5695 -0.4169
   63TMC2    C1  958   3.250   0.087  10.589 -0.0380 -0.8398  0.6156
   63TMC2    C2  959   3.332   0.190  10.595  0.1937 -0.6505  0.3484
   63TMC2    C3  960   3.354   0.252  10.478  0.3930  0.6333  0.8474
   63TMC2    C4  961   3.190   0.048  10.475 -0.0660  0.8328  0.5271
   63TMC2    C5  962   3.215   0.113  10.356  0.6253 -0.2082  0.0921
   63TMC2    C6  963   3.309   0.215  10.360 -0.3754  0.2855  0.6647
   63TMC2     C  964   3.255   4.719  10.694 -1.0593  0.1342  0.3090
   63TMC2     O  965   3.285   0.037  10.803  0.0429  0.5160 -0.2453
   63TMC2     H  966   3.372   0.235  10.685  0.2971 -1.6201  0.7921
   63TMC2    H1  967   3.117   4.692  10.466 -1.8969  2.8740 -3.0383
   63TMC2    H2  968   3.348   0.259  10.269 -2.9325  0.2601 -0.4457
   63TMC2    C7  969   3.152   0.053  10.232 -0.0767  0.4080  0.2360
   63TMC2    C8  970   3.421   0.383  10.476  0.3434  0.3639  0.3380
   63TMC2    O1  971   3.090   4.671  10.236  0.4871 -0.6573  0.3426
   63TMC2    O2  972   3.454   0.428  10.369 -0.6331 -0.0273  0.4902
   63TMC2    O5  973   3.347   0.460  10.565  0.1063  0.0519 -0.0143
   63TMC2    H5  974   3.289   0.411  10.627  1.2597 -1.1311  0.1246
   64MPD2     C  975   3.196   4.251  10.888 -0.3572  0.4301 -0.0864
   64MPD2    C1  976   3.218   4.235  10.756  0.2689 -0.7102 -0.8986
   64MPD2    C2  977   3.229   4.357  10.684  0.4520  0.3855 -0.0372
   64MPD2    C3  978   3.230   4.483  10.744  0.0177 -0.5947  0.5654
   64MPD2    C4  979   3.213   4.499  10.877  0.1939  0.0329  0.6099
   64MPD2    C5  980   3.200   4.380  10.944  0.7054 -0.1002  0.1033
   64MPD2     H  981   3.249   4.345  10.578  1.7737  0.0601  0.2505
   64MPD2    H1  982   3.202   4.590  10.934  0.3802  0.8987 -0.7410
   64MPD2    H2  983   3.165   4.168  10.951  0.5033 -0.5742 -0.9651
   64MPD2    H3  984   3.163   4.391  11.045  0.5201 -1.8153  0.2197
   64MPD2     N  985   3.235   4.592  10.651  0.2293  0.3717  0.0701
   64MPD2    H5  986   3.234   4.574  10.551  0.6390 -1.9392  0.4753
   64MPD2    N1  987   3.225   4.119  10.679  0.1726  0.1108  0.4772
   64MPD2    H7  988   3.247   4.127  10.580  1.4857  1.0402  0.8509
   65MPD2     C  989   4.172   3.904  15.986 -0.8672  0.2282  0.6779
   65MPD2    C1  990   4.221   3.882  15.855 -0.3225 -0.4527  0.4636
   65MPD2    C2  991   4.237   3.749  15.818 -0.3810  0.4614 -0.2057
   65MPD2    C3  992   4.204   3.638  15.898  0.0686 -0.7258  0.0431
   65MPD2    C4  993   4.156   3.668  16.028 -0.8809 -0.5998 -0.3339
   65MPD2    C5  994   4.148   3.795  16.067 -0.2174  0.0397  0.1140
   65MPD2     H  995   4.264   3.732  15.714  0.6340  0.9340 -0.0219
   65MPD2    H1  996   4.136   3.591  16.102 -2.1142 -2.6470 -2.8022
   65MPD2    H2  997   4.146   4.005  16.018  3.9314  1.4702  0.6929
   65MPD2    H3  998   4.110   3.819  16.166  0.8981 -1.3171  0.8581
   65MPD2     N  999   4.193   3.508  15.847  0.5574 -0.3660  0.6046
   65MPD2    H5 1000   4.146   3.436  15.902  1.5331 -1.1215  0.4430
   65MPD2    N1 1001   4.268   3.982  15.765  0.1095 -0.0161  0.0828
   65MPD2    H7 1002   4.321   3.956  15.683 -2.9262 -1.3673 -1.4365
   66TCq2    C1 1003   4.250   4.117  15.784  0.0714 -0.1863 -0.1034
   66TCq2    O2 1004   4.181   4.171  15.868 -0.2520 -0.0795 -0.0080
   66TCq2    C2 1005   4.313   4.209  15.688 -0.7933  0.0424  0.4372
   66TCq2    C3 1006   4.386   4.165  15.581  0.0743 -0.5053  0.3340
   66TCq2    C4 1007   4.432   4.247  15.484  0.0355 -1.1380 -0.9374
   66TCq2    C5 1008   4.398   4.382  15.492  0.3030  0.4148 -0.0902
   66TCq2    C6 1009   4.322   4.427  15.596  0.4656 -0.5620 -0.1650
   66TCq2    C7 1010   4.285   4.347  15.701 -0.2803 -0.1594  0.9146
   66TCq2    C8 1011   4.289   4.567  15.587  0.3241  0.5715  0.6850
   66TCq2    O4 1012   4.336   4.631  15.496  0.3434 -0.0462 -0.2152
   66TCq2    C9 1013   4.517   4.192  15.377  0.0575  0.6743 -0.0564
   66TCq2    O5 1014   4.597   4.272  15.317 -0.4760  0.0107 -0.0511
   66TCq2    O6 1015   4.498   4.071  15.352  0.0411 -0.3195 -0.2721
   66TCq2    H2 1016   4.424   4.063  15.588  0.0110 -0.6557 -1.3579
   66TCq2    H3 1017   4.434   4.438  15.406 -0.3192  0.8490 -0.0710
   66TCq2    H4 1018   4.220   4.382  15.780  0.7804 -0.0653  1.7408
   67MPD2     C 1019   4.578   3.124  14.487  0.2517  0.3618 -0.0678
   67MPD2    C1 1020   4.491   3.199  14.571  0.7043  0.5750  0.0708
   67MPD2    C2 1021   4.357   3.196  14.553  0.4206 -0.0805  0.3655
   67MPD2    C3 1022   4.310   3.116  14.452 -0.1242  0.5556  0.5878
   67MPD2    C4 1023   4.389   3.036  14.379 -0.3940  0.0645  0.0608
   67MPD2    C5 1024   4.523   3.041  14.392  0.3626 -0.2884 -0.4917
   67MPD2     H 1025   4.293   3.253  14.619  0.0931 -0.0754  0.0407
   67MPD2    H1 1026   4.355   2.965  14.304  0.0145 -1.3488  1.2057
   67MPD2    H2 1027   4.685   3.128  14.504  0.2873  1.7016 -0.5332
   67MPD2    H3 1028   4.584   2.971  14.335  1.1192  0.7073 -0.9135
   67MPD2     N 1029   4.172   3.110  14.424  0.6155 -0.4833 -0.4595
   67MPD2    H5 1030   4.105   3.153  14.487 -0.0948 -1.8470 -0.2744
   67MPD2    N1 1031   4.540   3.289  14.668  0.1429  0.2183  0.9039
   67MPD2    H7 1032   4.463   3.335  14.715  0.1393  4.0991 -2.8656
   68TCq2    C1 1033   4.674   3.304  14.706 -0.0806  0.7127  0.2432
   68TCq2    O2 1034   0.055   3.264  14.658  0.0268  0.2642 -0.0553
   68TCq2    C2 1035   4.678   3.400  14.819  1.3936 -0.7294  0.1325
   68TCq2    C3 1036   4.574   3.486  14.835 -0.6336 -0.0873 -1.4029
   68TCq2    C4 1037   4.579   3.560  14.946  0.4268  1.1758  0.2368
   68TCq2    C5 1038   4.669   3.542  15.046 -0.1765  0.2631  0.3843
   68TCq2    C6 1039   0.053   3.460  15.023  0.4022 -0.6420 -0.2031
   68TCq2    C7 1040   0.060   3.387  14.908  0.3206 -0.0317  0.0720
   68TCq2    C8 1041   0.160   3.449  15.118  0.0920 -0.3725 -0.6047
   68TCq2    O4 1042   0.240   3.360  15.105  0.7122 -0.2526 -0.0317
   68TCq2    C9 1043   4.477   3.660  14.970 -0.4089 -0.6468  0.1550
   68TCq2    O5 1044   4.396   3.676  14.873  0.3523  0.6312  0.3591
   68TCq2    O6 1045   4.454   3.707  15.082 -0.6603  0.4004  0.5128
   68TCq2    H2 1046   4.498   3.496  14.757 -0.1919 -0.6785 -1.9059
   68TCq2    H3 1047   4.665   3.606  15.133 -1.6404  0.0099  0.5122
   68TCq2    H4 1048   0.145   3.325  14.879  0.0306 -1.1267  1.6188
   69TMC2    C1 1049   1.506   0.074  12.363 -0.1604 -0.3112 -0.0390
   69TMC2    C2 1050   1.389   0.081  12.305 -0.1289  0.3008 -0.4080
   69TMC2    C3 1051   1.378   0.132  12.179  0.2352 -0.6257  0.0964
   69TMC2    C4 1052   1.617   0.135  12.306  0.1971  0.4428  0.0278
   69TMC2    C5 1053   1.611   0.182  12.178 -0.2272 -0.7721 -0.4743
   69TMC2    C6 1054   1.487   0.181  12.109 -0.0638 -0.2857  0.5034
   69TMC2     C 1055   1.528   4.703  12.468 -0.2729  0.4529  0.9180
   69TMC2     O 1056   1.429   4.663  12.526 -0.0645 -0.6126 -0.0227
   69TMC2     H 1057   1.311   0.023  12.354  0.9971 -1.1280 -0.3107
   69TMC2    H1 1058   1.708   0.155  12.362  0.0008  1.4113  0.0032
   69TMC2    H2 1059   1.480   0.211  12.005  2.0010 -0.7222  0.2275
   69TMC2    C7 1060   1.738   0.171  12.099 -0.2637 -0.2931 -0.5086
   69TMC2    C8 1061   1.245   0.171  12.127 -0.1109 -0.0639  0.0038
   69TMC2    O1 1062   1.832   0.115  12.154  0.5659 -0.3701 -0.2164
   69TMC2    O2 1063   1.238   0.231  12.019 -0.2518 -0.3062  0.2334
   69TMC2    O5 1064   1.154   0.196  12.230  0.1630  0.0028 -0.0767
   69TMC2    H5 1065   1.166   0.158  12.319 -1.5247 -4.5514 -1.8103
   70MPD2     C 1066   1.863   4.551  12.546  0.0124  0.5059 -0.2074
   70MPD2    C1 1067   1.728   4.581  12.562  0.1759  0.1791 -0.2355
   70MPD2    C2 1068   1.660   4.538  12.674  1.1063 -0.3628 -0.0641
   70MPD2    C3 1069   1.734   4.473  12.776  0.0039  0.5673 -0.4415
   70MPD2    C4 1070   1.863   4.437  12.757 -0.2154 -0.0798 -0.2051
   70MPD2    C5 1071   1.923   4.463  12.636  0.7540 -0.3727  0.4877
   70MPD2     H 1072   1.554   4.553  12.692  1.6829  2.0040  1.3055
   70MPD2    H1 1073   1.924   4.389  12.833 -0.3199 -0.6549 -0.4871
   70MPD2    H2 1074   1.924   4.582  12.462  0.8857 -0.2286  0.1670
   70MPD2    H3 1075   2.028   4.440  12.619  0.9557  1.0555 -0.2208
   70MPD2     N 1076   1.679   4.438  12.899 -0.4037 -0.1398  0.3932
   70MPD2    H5 1077   1.748   4.397  12.961  0.0733  0.2921  0.1492
   70MPD2    N1 1078   1.661   4.663  12.465  0.5651  0.6533 -0.5477
   70MPD2    H7 1079   1.716   4.698  12.387 -0.5601 -0.7265 -1.9814
   71TMC2    C1 1080   4.306   0.737   2.212  0.4634  0.0721  0.0029
   71TMC2    C2 1081   4.357   0.753   2.337  0.0474 -0.3980 -0.0713
   71TMC2    C3 1082   4.339   0.649   2.427  1.1934 -0.3310 -0.6780
   71TMC2    C4 1083   4.252   0.621   2.172  0.2486 -0.4001 -0.2124
   71TMC2    C5 1084   4.249   0.515   2.260 -0.4685  0.4793  0.2136
   71TMC2    C6 1085   4.285   0.528   2.389  0.4603 -0.3790 -0.1930
   71TMC2     C 1086   4.297   0.848   2.117  0.0896  0.1209  0.0930
   71TMC2     O 1087   4.226   0.834   2.018 -1.2529 -0.4975  0.1368
   71TMC2     H 1088   4.378   0.850   2.381 -0.8630  0.4012 -1.4103
   71TMC2    H1 1089   4.219   0.609   2.070  0.2590  2.0182 -0.4824
   71TMC2    H2 1090   4.290   0.450   2.464  0.4198  0.1544  0.3622
   71TMC2    C7 1091   4.175   0.395   2.225  0.1612 -0.5124 -0.6699
   71TMC2    C8 1092   4.415   0.649   2.551  1.1069 -0.9116  0.1280
   71TMC2    O1 1093   4.172   0.303   2.302 -0.1373  0.9681 -0.3391
   71TMC2    O2 1094   4.469   0.545   2.586  0.1787 -0.2798  0.3854
   71TMC2    O5 1095   4.372   0.749   2.621 -0.2221 -0.1250 -0.1124
   71TMC2    H5 1096   4.312   0.792   2.557 -0.6853  0.8457  0.9848
   72MPD2     C 1097   4.424   1.323   1.984 -0.4138 -0.2816 -0.8901
   72MPD2    C1 1098   4.345   1.228   1.917 -0.3032 -0.5954 -0.5018
   72MPD2    C2 1099   4.336   1.101   1.971  0.0482  0.9284  0.5950
   72MPD2    C3 1100   4.398   1.067   2.087 -0.0567  0.0115 -0.2563
   72MPD2    C4 1101   4.480   1.158   2.152 -0.1114 -0.3179 -0.1507
   72MPD2    C5 1102   4.497   1.281   2.099  0.9186  0.0350 -0.4762
   72MPD2     H 1103   4.278   1.031   1.912  1.0025  1.1626 -0.6277
   72MPD2    H1 1104   4.539   1.122   2.235  0.5425  1.2195  0.0523
   72MPD2    H2 1105   4.437   1.425   1.948  1.7447 -0.0587  0.4811
   72MPD2    H3 1106   4.558   1.348   2.158 -0.9343  0.3867  1.0348
   72MPD2     N 1107   4.378   0.945   2.151  0.2383 -0.6647 -0.0652
   72MPD2    H5 1108   4.436   0.934   2.233 -0.6453 -0.4010  0.5876
   72MPD2    N1 1109   4.291   1.241   1.784  0.2745 -0.0126 -0.3307
   72MPD2    H7 1110   4.259   1.160   1.733 -0.8719 -0.5065  1.1773
   73TMC2    C1 1111   3.457   2.115  14.258 -0.0327 -0.1394 -0.3772
   73TMC2    C2 1112   3.388   2.012  14.205 -0.2109  0.5347  0.6576
   73TMC2    C3 1113   3.427   1.893  14.241 -0.0733  0.1117  0.2079
   73TMC2    C4 1114   3.562   2.097  14.344  0.1451  0.1321 -0.4394
   73TMC2    C5 1115   3.600   1.966  14.376  0.0096  0.9083 -0.4449
   73TMC2    C6 1116   3.528   1.859  14.328  0.3928 -0.4258  0.3418
   73TMC2     C 1117   3.482   2.229  14.161 -0.5318  0.2757  0.2690
   73TMC2     O 1118   3.584   2.292  14.184  0.0610 -0.4486  0.2225
   73TMC2     H 1119   3.310   2.020  14.130  0.7924  0.3886 -0.4062
   73TMC2    H1 1120   3.627   2.177  14.378 -0.2352 -0.0655  0.7206
   73TMC2    H2 1121   3.573   1.761  14.336  0.3205 -0.5504 -0.8256
   73TMC2    C7 1122   3.736   1.955  14.344 -0.4684 -0.4916 -0.1634
   73TMC2    C8 1123   3.371   1.770  14.177  0.4057 -0.2237 -0.2979
   73TMC2    O1 1124   3.809   1.877  14.405  0.2281 -0.2572  0.2136
   73TMC2    O2 1125   3.357   1.762  14.060 -0.1507  0.5795 -0.0496
   73TMC2    O5 1126   3.345   1.678  14.275 -0.3728 -1.1815  0.7473
   73TMC2    H5 1127   3.348   1.722  14.363  2.1333  1.2250 -0.5253
   74MPD2     C 1128   3.427   2.471  13.726 -0.8800 -0.0213  0.0557
   74MPD2    C1 1129   3.545   2.461  13.804 -0.5220 -0.5780  0.2807
   74MPD2    C2 1130   3.527   2.397  13.921  0.9556  0.5446 -0.2626
   74MPD2    C3 1131   3.397   2.350  13.966 -0.1267  0.2551 -0.0063
   74MPD2    C4 1132   3.286   2.374  13.892 -0.3586 -0.1280  0.2970
   74MPD2    C5 1133   3.305   2.444  13.769  0.3065  0.4269 -0.1387
   74MPD2     H 1134   3.619   2.374  13.974  1.8215  0.3755 -1.8550
   74MPD2    H1 1135   3.187   2.334  13.909 -0.2555 -0.2255  0.6628
   74MPD2    H2 1136   3.443   2.510  13.626  0.4749  0.0912  0.3153
   74MPD2    H3 1137   3.220   2.446  13.702 -0.7139  3.2592  1.2241
   74MPD2     N 1138   3.380   2.263  14.077  0.1320  0.9154  0.1356
   74MPD2    H5 1139   3.289   2.219  14.084  0.3932  0.5711  1.2841
   74MPD2    N1 1140   3.670   2.525  13.765  0.1713  0.9182  0.1242
   74MPD2    H7 1141   3.680   2.561  13.670  2.7264 -1.0870 -0.3440
   75TCq2    C1 1142   4.113   3.064  14.311  0.3923 -0.0731 -0.3819
   75TCq2    O2 1143   4.160   3.061  14.201 -0.0509 -0.3061  0.0863
   75TCq2    C2 1144   3.977   3.118  14.330  0.5392  0.0263  1.4260
   75TCq2    C3 1145   3.924   3.133  14.455 -0.4469  0.2157  0.3727
   75TCq2    C4 1146   3.790   3.169  14.457  0.0425 -0.2162 -0.4828
   75TCq2    C5 1147   3.709   3.200  14.346  0.1069 -0.5127 -0.0015
   75TCq2    C6 1148   3.782   3.198  14.224  0.2688 -0.3400 -0.7794
   75TCq2    C7 1149   3.912   3.157  14.214  0.4298 -0.3924 -1.1105
   75TCq2    C8 1150   3.708   3.215  14.099  0.6231 -0.1440  0.0978
   75TCq2    O4 1151   3.775   3.201  13.997 -0.1156  0.1457 -0.3709
   75TCq2    C9 1152   3.727   3.166  14.587 -0.2872  0.6612 -0.9003
   75TCq2    O5 1153   3.806   3.197  14.678  0.1077 -0.1701  0.4241
   75TCq2    O6 1154   3.604   3.171  14.591 -0.4561  0.3592  0.9295
   75TCq2    H2 1155   3.971   3.101  14.548 -0.1617  1.2986  0.6029
   75TCq2    H3 1156   3.602   3.211  14.358  0.7022  4.6152  0.5801
   75TCq2    H4 1157   3.949   3.148  14.112  0.3935  1.5608 -1.2920
   76MPD2     C 1158   2.723   4.327  12.300 -0.4010  0.6862  0.0097
   76MPD2    C1 1159   2.739   4.302  12.163  0.9620  0.3172  0.3687
   76MPD2    C2 1160   2.851   4.237  12.125 -0.4502 -0.4027  0.0101
   76MPD2    C3 1161   2.933   4.173  12.218 -0.1001 -0.0524 -0.5114
   76MPD2    C4 1162   2.921   4.204  12.350  0.1272  0.0512 -0.2041
   76MPD2    C5 1163   2.817   4.282  12.389 -0.0826  0.0228 -0.0479
   76MPD2     H 1164   2.861   4.224  12.018  1.1777  0.8577  0.0216
   76MPD2    H1 1165   2.988   4.157  12.421 -1.8757 -2.0587  0.2851
   76MPD2    H2 1166   2.635   4.371  12.346 -2.6722 -3.3267 -0.5503
   76MPD2    H3 1167   2.806   4.304  12.494  2.0179  2.7152 -0.3843
   76MPD2     N 1168   3.033   4.084  12.179 -0.3009 -0.1980  0.8802
   76MPD2    H5 1169   3.109   4.070  12.244  1.1974  3.4440 -0.0836
   76MPD2    N1 1170   2.651   4.344  12.061 -0.7561 -0.4205 -0.2641
   76MPD2    H7 1171   2.671   4.320  11.964 -1.3075  2.2048 -1.0313
   77TCq2    C1 1172   3.021   4.009  12.068  0.1205 -0.0785  0.0034
   77TCq2    O2 1173   2.930   3.996  11.989 -0.0099 -0.1862 -0.2181
   77TCq2    C2 1174   3.139   3.925  12.043  0.8371 -0.4591  0.3733
   77TCq2    C3 1175   3.131   3.872  11.919  0.1678  0.4004  0.6885
   77TCq2    C4 1176   3.251   3.838  11.851  0.1278 -1.0010  0.0296
   77TCq2    C5 1177   3.377   3.864  11.897 -0.0430  0.5848  0.4238
   77TCq2    C6 1178   3.371   3.930  12.017 -0.3132 -0.5997 -0.3687
   77TCq2    C7 1179   3.263   3.954  12.093  0.5288 -0.5736 -0.3683
   77TCq2    C8 1180   3.493   3.989  12.060  0.3148 -0.2956  0.3521
   77TCq2    O4 1181   3.574   4.012  11.966 -0.1207 -0.3564  0.1569
   77TCq2    C9 1182   3.238   3.774  11.724  0.2707 -0.4934  0.2081
   77TCq2    O5 1183   3.132   3.707  11.701 -0.2796  0.1723  0.3768
   77TCq2    O6 1184   3.336   3.767  11.650 -0.7758 -0.1408  0.4188
   77TCq2    H2 1185   3.043   3.830  11.873  1.0075 -0.7361  0.1023
   77TCq2    H3 1186   3.465   3.832  11.843  0.3464 -0.9285  1.9555
   77TCq2    H4 1187   3.279   4.014  12.182 -0.8334 -1.5222  0.5209
   78MPD1     C 1188   2.637   0.285   1.002 -0.2320 -0.4307 -0.8993
   78MPD1    C1 1189   2.600   0.164   1.049  0.3687  0.0189  0.5659
   78MPD1    C2 1190   2.685   0.095   1.129  0.0847  0.0108  0.4692
   78MPD1    C3 1191   2.809   0.147   1.157  1.0676 -0.9716 -0.5209
   78MPD1    C4 1192   2.847   0.271   1.110  0.0897  0.2548  0.7873
   78MPD1    C5 1193   2.759   0.338   1.029 -0.4766  0.6417 -0.0544
   78MPD1     H 1194   2.652   0.001   1.171  0.6114 -1.2960 -2.0370
   78MPD1    H1 1195   2.943   0.313   1.138 -0.4006 -0.9240  4.3492
   78MPD1    H2 1196   2.569   0.346   0.942  0.5958  1.0979 -0.2939
   78MPD1    H3 1197   2.781   0.442   1.012 -0.7049  0.8158  0.6850
   78MPD1     N 1198   2.916   0.086   1.241  1.0075  0.3140  0.6597
   78MPD1    H5 1199   3.005   0.134   1.243  1.2448  0.0657 -4.1938
   78MPD1    N1 1200   2.470   0.117   1.030  0.0623  0.4334  0.0881
   78MPD1    H6 1201   2.452   0.111   0.930 -0.6325 -0.4969  0.2677
   78MPD1    H7 1202   2.456   0.026   1.073  0.6051 -0.2385 -1.1742
   79TCq2    C1 1203   2.901   4.693   1.312  0.2296  0.2491  0.2823
   79TCq2    O2 1204   2.800   4.638   1.346 -0.0660 -0.0981 -0.1232
   79TCq2    C2 1205   3.012   4.654   1.392  0.1883  0.0335 -0.2899
   79TCq2    C3 1206   2.989   4.573   1.499 -0.0722  0.2674  0.5729
   79TCq2    C4 1207   3.099   4.526   1.563  0.1533 -0.2828  0.2929
   79TCq2    C5 1208   3.226   4.545   1.510 -0.3705 -0.0278  0.2132
   79TCq2    C6 1209   3.250   4.623   1.402  0.2201  0.2194 -0.8045
   79TCq2    C7 1210   3.134   4.678   1.335  0.1914  0.0804 -0.5452
   79TCq2    C8 1211   3.385   4.646   1.356 -0.2742  0.0648  1.2626
   79TCq2    O4 1212   3.472   4.568   1.392  0.2787  0.8715  0.4179
   79TCq2    C9 1213   3.085   4.437   1.680  0.9642  0.4707 -0.0572
   79TCq2    O5 1214   3.193   4.391   1.728  0.5939  0.5899 -0.4297
   79TCq2    O6 1215   2.970   4.389   1.698 -0.3552  0.7199 -0.3219
   79TCq2    H2 1216   2.892   4.535   1.530 -0.4250  1.5172  0.9968
   79TCq2    H3 1217   3.309   4.491   1.553 -2.1875 -0.7281  2.7856
   79TCq2    H4 1218   3.141   4.714   1.234 -2.9799 -4.1263 -2.2598
   80MPD2     C 1219   2.258   3.718  12.545  0.2377  0.4983  0.1229
   80MPD2    C1 1220   2.179   3.708  12.427  0.5412  0.6227  0.6924
   80MPD2    C2 1221   2.043   3.727  12.449 -0.1150  0.5778 -0.3153
   80MPD2    C3 1222   1.984   3.734  12.572 -0.8676 -0.1583 -0.1566
   80MPD2    C4 1223   2.064   3.739  12.686  0.1485 -0.3481 -0.4028
   80MPD2    C5 1224   2.199   3.737  12.663  0.4184  0.1272  1.0142
   80MPD2     H 1225   1.983   3.727  12.359 -0.0222 -5.1333 -0.3332
   80MPD2    H1 1226   2.021   3.745  12.785 -0.5654 -0.7726 -0.6818
   80MPD2    H2 1227   2.364   3.734  12.530  0.8264 -2.5951  0.8544
   80MPD2    H3 1228   2.264   3.752  12.749  1.2579 -2.1769  0.8000
   80MPD2     N 1229   1.846   3.741  12.594  0.5366  0.3646 -0.1553
   80MPD2    H5 1230   1.810   3.751  12.688 -0.8225  1.4269 -0.7869
   80MPD2    N1 1231   2.227   3.690  12.295  0.1660  0.1860 -0.0721
   80MPD2    H7 1232   2.157   3.661  12.227  1.4886  0.3410 -1.4923
   81TCq2    C1 1233   2.355   3.679  12.263 -0.4543 -0.3807 -0.2077
   81TCq2    O2 1234   2.450   3.735  12.319  0.1773  0.2642  0.1435
   81TCq2    C2 1235   2.365   3.639  12.125 -0.0386 -0.6057 -0.1064
   81TCq2    C3 1236   2.468   3.684  12.046 -0.5256  0.2577 -0.0512
   81TCq2    C4 1237   2.479   3.638  11.919 -0.0289 -0.4554 -0.2289
   81TCq2    C5 1238   2.395   3.545  11.870  0.3365  0.1641 -0.8006
   81TCq2    C6 1239   2.299   3.492  11.950 -0.6312 -0.2050  0.1666
   81TCq2    C7 1240   2.287   3.536  12.080 -0.7071 -1.2303 -0.3279
   81TCq2    C8 1241   2.208   3.399  11.884 -0.8477 -0.3086  0.0028
   81TCq2    O4 1242   2.200   3.380  11.764 -0.6226 -0.0490  0.1137
   81TCq2    C9 1243   2.591   3.673  11.831 -0.1236  0.5008  0.9965
   81TCq2    O5 1244   2.691   3.715  11.899 -0.0150  0.6384  0.6086
   81TCq2    O6 1245   2.582   3.637  11.712 -0.4131  0.2635 -0.0792
   81TCq2    H2 1246   2.542   3.753  12.084  1.8433 -2.0763 -0.4297
   81TCq2    H3 1247   2.404   3.504  11.770  0.7650 -1.8419  0.0434
   81TCq2    H4 1248   2.212   3.489  12.142 -1.2898  0.1627  0.0146
   82MPD2     C 1249   4.717   3.846  10.738  0.6442 -0.5568  0.4815
   82MPD2    C1 1250   4.663   3.718  10.753 -0.4155 -0.4890  0.1621
   82MPD2    C2 1251   4.691   3.650  10.866 -0.0514  0.1922 -0.7027
   82MPD2    C3 1252   0.053   3.696  10.964 -0.0756 -0.4752  0.4774
   82MPD2    C4 1253   0.129   3.803  10.929 -0.2439  0.1734 -0.3479
   82MPD2    C5 1254   0.098   3.885  10.817 -0.1274 -0.2722  0.7887
   82MPD2     H 1255   4.649   3.551  10.882 -0.2616  0.1995 -1.1896
   82MPD2    H1 1256   0.207   3.844  10.992  0.9493 -0.7910 -1.2062
   82MPD2    H2 1257   4.688   3.902  10.650  0.6395  0.1595  0.9387
   82MPD2    H3 1258   0.155   3.973  10.791 -2.0641  0.8757  0.4052
   82MPD2     N 1259   0.069   3.629  11.085 -0.6263  0.2782  0.3541
   82MPD2    H5 1260   0.026   3.537  11.090 -1.8489  0.8707  0.6975
   82MPD2    N1 1261   4.583   3.672  10.642 -0.2822  0.0623  0.1511
   82MPD2    H7 1262   4.574   3.732  10.561  2.2436 -0.9863 -0.9145
   83TCq2    C1 1263   0.131   3.680  11.193  0.1055 -0.1806 -0.4959
   83TCq2    O2 1264   0.202   3.780  11.206  0.0644 -0.0541 -0.2647
   83TCq2    C2 1265   0.151   3.570  11.279 -0.6702  0.1065 -0.2986
   83TCq2    C3 1266   0.279   3.557  11.325 -0.4541  0.5573 -0.3656
   83TCq2    C4 1267   0.304   3.464  11.416  0.3637 -0.1779  0.2824
   83TCq2    C5 1268   0.212   3.390  11.481 -0.1727  0.2765 -0.1999
   83TCq2    C6 1269   0.080   3.413  11.439  1.0774  0.3399 -0.0032
   83TCq2    C7 1270   0.049   3.501  11.340 -0.2814  1.4896  0.7788
   83TCq2    C8 1271   4.720   3.302  11.448 -0.7503  0.2321  0.2323
   83TCq2    O4 1272   4.600   3.317  11.439 -0.2175 -0.0433  0.8076
   83TCq2    C9 1273   0.444   3.452  11.450  0.1893  0.4113  0.2887
   83TCq2    O5 1274   0.471   3.343  11.509 -0.0460  1.1922  0.2636
   83TCq2    O6 1275   0.528   3.509  11.377  0.0293 -0.7547 -0.3566
   83TCq2    H2 1276   0.364   3.601  11.274 -0.1615  2.0817  1.4382
   83TCq2    H3 1277   0.233   3.323  11.563 -1.7949 -0.5769 -0.4702
   83TCq2    H4 1278   4.669   3.509  11.312  0.0896  0.0768 -1.0962
   84TCq2    C1 1279   1.191   2.646  10.522  0.4392  0.3827  0.2606
   84TCq2    O2 1280   1.086   2.606  10.570  0.1296 -0.4296 -0.3227
   84TCq2    C2 1281   1.281   2.735  10.595  0.1392 -0.5329 -0.0817
   84TCq2    C3 1282   1.412   2.731  10.562  0.6151 -0.5944  0.2174
   84TCq2    C4 1283   1.495   2.789  10.652  0.6121  0.3925 -0.8233
   84TCq2    C5 1284   1.452   2.849  10.774 -0.0129 -0.7565 -0.3987
   84TCq2    C6 1285   1.316   2.853  10.799  0.4803  0.1528 -0.0529
   84TCq2    C7 1286   1.232   2.789  10.710  0.2077  0.3233  0.4000
   84TCq2    C8 1287   1.297   2.855  10.941 -0.2355 -0.0235  0.3152
   84TCq2    O4 1288   1.355   2.941  11.003 -0.6844 -0.1382 -0.6178
   84TCq2    C9 1289   1.637   2.776  10.628  0.6526  0.2161 -0.0178
   84TCq2    O5 1290   1.715   2.854  10.684  0.1430 -0.3316  0.3373
   84TCq2    O6 1291   1.666   2.723  10.519  0.2111  0.1139 -0.7033
   84TCq2    H2 1292   1.435   2.692  10.464  2.3572  0.6754  0.1322
   84TCq2    H3 1293   1.524   2.886  10.846  0.2426 -0.1762 -0.9622
   84TCq2    H4 1294   1.127   2.784  10.736  0.0319  0.4461 -0.3001
   85MPD2     C 1295   1.481   0.108  16.270  0.2013  0.2611 -0.0139
   85MPD2    C1 1296   1.397   0.122  16.162 -0.2997 -0.9751 -0.6882
   85MPD2    C2 1297   1.398   0.234  16.080 -0.7819  0.1883  0.9186
   85MPD2    C3 1298   1.459   0.350  16.128 -0.1336 -1.1888  0.6584
   85MPD2    C4 1299   1.534   0.336  16.244  0.2487  0.1887  0.6773
   85MPD2    C5 1300   1.544   0.217  16.307  0.1846  0.1380 -1.0550
   85MPD2     H 1301   1.331   0.232  15.995  0.8985 -1.8098 -0.3427
   85MPD2    H1 1302   1.582   0.425  16.284  0.5214  0.3211  0.0587
   85MPD2    H2 1303   1.491   0.018  16.329  2.4135  0.2261 -0.4711
   85MPD2    H3 1304   1.601   0.212  16.399  1.0360 -1.3921 -1.6637
   85MPD2     N 1305   1.440   0.472  16.071 -0.6093 -0.2653 -0.1472
   85MPD2    H5 1306   1.481   0.555  16.112  1.1837 -0.7385 -0.9894
   85MPD2    N1 1307   1.296   0.029  16.128  0.4817  0.4414 -0.2146
   85MPD2    H7 1308   1.246   0.040  16.041 -3.2982 -1.4757  1.7145
   86TCq2    C1 1309   1.390   0.492  15.948  0.1378  0.2950 -0.0370
   86TCq2    O2 1310   1.360   0.423  15.856  0.0934  0.0273  0.3345
   86TCq2    C2 1311   1.384   0.632  15.913  1.0141  0.1493  0.0280
   86TCq2    C3 1312   1.353   0.722  16.011 -0.2489  0.2768  0.7192
   86TCq2    C4 1313   1.361   0.856  15.972  0.0760  0.3570  0.6703
   86TCq2    C5 1314   1.398   0.892  15.846 -0.9683 -0.7209 -0.2886
   86TCq2    C6 1315   1.425   0.796  15.756  0.0753 -0.4547 -0.2203
   86TCq2    C7 1316   1.417   0.666  15.789  0.1164  0.0319  0.1103
   86TCq2    C8 1317   1.459   0.818  15.615 -0.1815  0.5539 -0.7362
   86TCq2    O4 1318   1.529   0.731  15.565  0.0672 -0.3382  0.0699
   86TCq2    C9 1319   1.313   0.953  16.071  0.3255 -0.1344  0.3466
   86TCq2    O5 1320   1.290   1.072  16.038  0.2273 -0.4712 -0.4303
   86TCq2    O6 1321   1.271   0.899  16.180 -0.4909  0.1040 -0.0350
   86TCq2    H2 1322   1.287   0.696  16.093  0.0492 -2.7315  0.0226
   86TCq2    H3 1323   1.391   0.998  15.824  0.1453 -1.2847 -3.2691
   86TCq2    H4 1324   1.456   0.587  15.724 -1.0615  0.6072 -1.2959
   87MPD2     C 1325   3.179   3.681   1.007  0.9276 -0.1743 -0.6822
   87MPD2    C1 1326   3.211   3.785   1.099  0.1748 -0.4757 -0.3618
   87MPD2    C2 1327   3.131   3.889   1.118 -0.0897  0.2285 -0.1336
   87MPD2    C3 1328   3.031   3.915   1.022 -0.0333 -0.1911  0.5041
   87MPD2    C4 1329   2.992   3.806   0.936 -0.3955  0.2301  0.3646
   87MPD2    C5 1330   3.066   3.692   0.928 -0.8929  0.7966 -0.5338
   87MPD2     H 1331   3.149   3.954   1.202 -0.4146  0.5309 -0.2993
   87MPD2    H1 1332   2.919   3.833   0.861 -0.0844 -0.7232 -0.2838
   87MPD2    H2 1333   3.233   3.588   0.993 -0.2451 -0.9294 -0.1795
   87MPD2    H3 1334   3.039   3.615   0.857 -1.6010 -1.3175  2.0435
   87MPD2     N 1335   2.959   4.040   1.013  1.2528 -0.1070  0.7418
   87MPD2    H5 1336   2.894   4.052   0.935  0.6916 -1.3634  1.0103
   87MPD2    N1 1337   3.325   3.758   1.176  1.0713  0.7670  0.3779
   87MPD2    H7 1338   3.379   3.677   1.147 -2.2268 -0.0540 -3.4572
   88TCq2    C1 1339   3.368   3.832   1.282  0.5036  0.1922  0.6323
   88TCq2    O2 1340   3.324   3.939   1.327  0.7618 -0.9481  0.4691
   88TCq2    C2 1341   3.495   3.791   1.343  0.0714 -0.1103  0.3948
   88TCq2    C3 1342   3.534   3.863   1.445  0.1833 -0.3293  1.0112
   88TCq2    C4 1343   3.660   3.856   1.495 -0.7447 -0.0044 -0.0117
   88TCq2    C5 1344   3.758   3.792   1.429  0.4021 -0.3414  0.8977
   88TCq2    C6 1345   3.720   3.713   1.325  0.2460 -0.5664  0.1753
   88TCq2    C7 1346   3.596   3.730   1.269 -0.5879  0.0192  0.4858
   88TCq2    C8 1347   3.826   3.676   1.238  0.3162 -0.0457 -0.3306
   88TCq2    O4 1348   3.825   3.717   1.125  0.1616  0.6215 -1.5146
   88TCq2    C9 1349   3.691   3.953   1.596 -1.0081  0.5949 -0.8798
   88TCq2    O5 1350   3.599   4.030   1.634 -0.5799  0.3695  0.0595
   88TCq2    O6 1351   3.813   3.961   1.633 -0.4055  0.1643 -0.0293
   88TCq2    H2 1352   3.457   3.901   1.511 -0.1077  1.1232 -0.1626
   88TCq2    H3 1353   3.862   3.799   1.459 -0.0963  0.1721  2.4935
   88TCq2    H4 1354   3.578   3.686   1.172 -1.8341  1.2634  0.1393
   89MPD2     C 1355   4.159   1.695   2.237  0.1600  0.2721  0.3358
   89MPD2    C1 1356   4.184   1.644   2.109 -0.1632  0.3893 -0.4831
   89MPD2    C2 1357   4.253   1.719   2.021 -0.0512 -0.8092 -0.2286
   89MPD2    C3 1358   4.296   1.845   2.052 -0.5609  0.1491 -0.1108
   89MPD2    C4 1359   4.273   1.895   2.179 -0.5076 -0.1503  0.5399
   89MPD2    C5 1360   4.201   1.815   2.272  0.3037  0.4739  0.7251
   89MPD2     H 1361   4.279   1.670   1.927 -2.8963 -0.6416 -1.1074
   89MPD2    H1 1362   4.300   1.997   2.203 -0.8026 -0.7373  3.3412
   89MPD2    H2 1363   4.102   1.644   2.314 -0.9399  0.1717 -0.5370
   89MPD2    H3 1364   4.185   1.850   2.374 -1.8527  1.9965 -0.1283
   89MPD2     N 1365   4.366   1.921   1.952  0.1378  0.2122  0.3589
   89MPD2    H5 1366   4.397   1.870   1.871 -0.3502 -1.1660  1.0424
   89MPD2    N1 1367   4.155   1.508   2.078 -0.4349  0.2105 -0.2561
   89MPD2    H7 1368   4.169   1.481   1.982 -0.5784 -0.0967 -0.1931
   90TCq2    C1 1369   4.397   2.055   1.968  0.2941  0.9847  0.8790
   90TCq2    O2 1370   4.338   2.133   2.039 -0.1695  0.4671  0.2763
   90TCq2    C2 1371   4.493   2.101   1.876  0.6414  0.2270 -0.3220
   90TCq2    C3 1372   4.551   2.015   1.781 -0.0826  0.5639 -0.0701
   90TCq2    C4 1373   4.679   2.052   1.738  0.0652  0.1055  0.4297
   90TCq2    C5 1374   0.010   2.176   1.769  0.8301 -0.3720 -0.4116
   90TCq2    C6 1375   4.667   2.249   1.863 -0.1116 -0.6740 -0.5110
   90TCq2    C7 1376   4.544   2.223   1.912  0.3168  0.6964 -0.0078
   90TCq2    C8 1377   4.699   2.394   1.878  0.3569 -0.1314  0.0988
   90TCq2    O4 1378   4.641   2.454   1.967 -0.0547  0.3883 -0.8781
   90TCq2    C9 1379   0.030   1.951   1.668 -0.3604  0.2785  0.9941
   90TCq2    O5 1380   0.005   1.831   1.684  0.1916  0.3284  0.1755
   90TCq2    O6 1381   0.128   1.982   1.595  0.2513  0.3983  0.0336
   90TCq2    H2 1382   4.521   1.912   1.762  1.9611  0.0594 -0.6247
   90TCq2    H3 1383   0.112   2.192   1.737  1.0224  0.1575  0.4507
   90TCq2    H4 1384   4.503   2.279   1.995  2.1432  0.2601  1.1918
   91TMC2    C1 1385   1.762   1.527  17.405  0.1659 -0.1464 -0.1670
   91TMC2    C2 1386   1.810   1.652  17.382  0.1065 -1.0667 -0.1953
   91TMC2    C3 1387   1.728   1.761  17.395  0.5535  0.2391 -0.0516
   91TMC2    C4 1388   1.628   1.506  17.427  0.1781 -0.3003  0.5591
   91TMC2    C5 1389   1.551   1.617  17.438  0.0188 -0.0607 -0.2967
   91TMC2    C6 1390   1.593   1.745  17.428  0.3659  0.5542 -0.2822
   91TMC2     C 1391   1.854   1.425  17.444  0.4291 -0.2577  0.1535
   91TMC2     O 1392   1.825   1.349  17.534  0.7634  0.2383 -0.0403
   91TMC2     H 1393   1.910   1.666  17.343 -0.8480  2.7428 -1.2920
   91TMC2    H1 1394   1.595   1.404  17.438 -0.8711  0.0135  0.3695
   91TMC2    H2 1395   1.522   1.827  17.438 -1.0941 -0.9633  1.9121
   91TMC2    C7 1396   1.409   1.600  17.453 -0.0729 -0.4207  0.1533
   91TMC2    C8 1397   1.789   1.888  17.350  0.7195  0.3489  0.4740
   91TMC2    O1 1398   1.349   1.692  17.512 -0.1288 -0.2034 -0.3016
   91TMC2    O2 1399   1.883   1.878  17.277 -0.8712 -0.5854 -0.1582
   91TMC2    O5 1400   1.718   1.997  17.395 -0.0614  0.3769  0.2999
   91TMC2    H5 1401   1.647   1.981  17.461  0.0190 -1.3147 -0.0107
   92MPD2     C 1402   2.105   1.266  17.497 -0.1539 -0.3837  0.9265
   92MPD2    C1 1403   2.085   1.355  17.394 -0.8279 -0.4848 -0.4435
   92MPD2    C2 1404   2.182   1.370  17.303 -0.3554  0.0061 -0.1144
   92MPD2    C3 1405   2.300   1.306  17.316 -0.2009  0.1322 -0.2142
   92MPD2    C4 1406   2.324   1.220  17.415 -0.2392 -0.8426 -0.6987
   92MPD2    C5 1407   2.231   1.202  17.513 -1.4614 -0.4336  0.4942
   92MPD2     H 1408   2.167   1.416  17.206  0.2888  2.4404  0.9292
   92MPD2    H1 1409   2.419   1.168  17.421  0.9604  1.0993 -2.9400
   92MPD2    H2 1410   2.025   1.243  17.567 -0.2029 -2.1664  0.2795
   92MPD2    H3 1411   2.247   1.138  17.599  0.0431 -0.0734  0.4924
   92MPD2     N 1412   2.388   1.332  17.208 -0.0109  0.2322 -0.6724
   92MPD2    H5 1413   2.358   1.399  17.138  2.2530  1.0767 -0.8296
   92MPD2    N1 1414   1.965   1.431  17.362 -0.5969  0.4692 -0.5245
   92MPD2    H7 1415   1.960   1.491  17.280 -4.5436 -0.5425 -1.0059
   93MPD2     C 1416   3.502   1.229  14.207  0.1482 -0.0457  0.1812
   93MPD2    C1 1417   3.439   1.346  14.172 -0.2091  0.0838  0.7760
   93MPD2    C2 1418   3.305   1.357  14.176  0.2899 -0.1666 -0.2242
   93MPD2    C3 1419   3.226   1.246  14.209  0.2067  0.0095  0.1968
   93MPD2    C4 1420   3.284   1.128  14.242 -0.1181 -0.1818  0.0797
   93MPD2    C5 1421   3.423   1.114  14.238 -0.3714 -0.8533 -0.0384
   93MPD2     H 1422   3.262   1.456  14.171 -0.6467 -0.4273  2.7852
   93MPD2    H1 1423   3.231   1.041  14.277  0.8738 -0.9735 -0.3636
   93MPD2    H2 1424   3.610   1.235  14.223  0.2390 -0.9283 -0.1162
   93MPD2    H3 1425   3.468   1.020  14.265 -0.8516 -0.9882  0.2897
   93MPD2     N 1426   3.087   1.250  14.198 -0.5946  0.4858 -0.2085
   93MPD2    H5 1427   3.043   1.165  14.231  1.8577 -1.0321 -0.8923
   93MPD2    N1 1428   3.499   1.469  14.130 -0.0129  0.2167  0.1736
   93MPD2    H7 1429   3.432   1.540  14.103  1.7851  2.0710  0.6420
   94TCq2    C1 1430   3.635   1.486  14.111 -0.2991  0.3682 -0.1407
   94TCq2    O2 1431   3.727   1.417  14.152  0.7064  0.5681  0.2693
   94TCq2    C2 1432   3.673   1.604  14.031  0.1959 -0.1121  0.3332
   94TCq2    C3 1433   3.582   1.636  13.934  0.2225 -0.5101 -0.0194
   94TCq2    C4 1434   3.632   1.685  13.815  0.5905 -0.0153  0.6673
   94TCq2    C5 1435   3.769   1.709  13.791 -0.4167 -0.5863  0.3238
   94TCq2    C6 1436   3.846   1.687  13.900 -0.9659  0.2296  0.1075
   94TCq2    C7 1437   3.805   1.637  14.022 -0.4761  0.1461 -0.4340
   94TCq2    C8 1438   3.982   1.717  13.895 -0.0568  0.7264  0.4847
   94TCq2    O4 1439   4.052   1.643  13.961  0.4308  0.1881 -0.0437
   94TCq2    C9 1440   3.540   1.694  13.708  0.0769 -0.1388 -0.5447
   94TCq2    O5 1441   3.416   1.717  13.740  0.5331  0.1400  0.1672
   94TCq2    O6 1442   3.578   1.663  13.589  0.5043  0.2108 -0.1514
   94TCq2    H2 1443   3.479   1.601  13.930 -0.6008  1.8874 -0.1308
   94TCq2    H3 1444   3.794   1.733  13.688  0.3783  1.3022  0.9550
   94TCq2    H4 1445   3.875   1.599  14.096 -0.8744  0.8658  0.3034
   95TMC2    C1 1446   3.336   3.070  16.101  0.2763  0.4083 -0.3315
   95TMC2    C2 1447   3.278   2.970  16.172 -0.7541  0.1639 -0.2338
   95TMC2    C3 1448   3.165   3.000  16.245 -0.0882  0.0005 -0.9105
   95TMC2    C4 1449   3.279   3.196  16.096 -0.4144 -0.2487 -0.1789
   95TMC2    C5 1450   3.163   3.215  16.163 -0.6611 -0.1606 -0.1182
   95TMC2    C6 1451   3.100   3.122  16.242 -0.3365 -0.1054  0.1696
   95TMC2     C 1452   3.459   3.051  16.027  0.0723  0.6592 -0.6768
   95TMC2     O 1453   3.483   3.136  15.943  0.9902  0.2201  0.1252
   95TMC2     H 1454   3.301   2.865  16.155 -2.0483  0.1569 -1.9834
   95TMC2    H1 1455   3.334   3.281  16.057 -0.8527 -0.1119 -0.5032
   95TMC2    H2 1456   3.012   3.145  16.302 -0.0678 -4.3238  2.1813
   95TMC2    C7 1457   3.087   3.332  16.123 -0.8402  0.6103 -0.0069
   95TMC2    C8 1458   3.090   2.887  16.300 -0.6246 -0.5612  0.4089
   95TMC2    O1 1459   3.003   3.372  16.201  0.0670 -0.0966 -0.0025
   95TMC2    O2 1460   2.970   2.867  16.306  0.1608 -0.6029  0.1914
   95TMC2    O5 1461   3.186   2.812  16.363  0.3728 -0.1979  0.3420
   95TMC2    H5 1462   3.264   2.870  16.376 -1.5057  1.7830  2.6862
   96MPD2     C 1463   3.879   2.781  15.872 -0.1815 -0.1827  0.1812
   96MPD2    C1 1464   3.835   2.913  15.844 -0.0573  0.5205  0.6353
   96MPD2    C2 1465   3.717   2.964  15.902  0.0334  0.3872  0.2435
   96MPD2    C3 1466   3.642   2.885  15.988  0.1471  0.2523 -0.0047
   96MPD2    C4 1467   3.683   2.756  16.014  0.1979  0.5811  0.0315
   96MPD2    C5 1468   3.798   2.712  15.956  0.0425  0.6119  0.5476
   96MPD2     H 1469   3.692   3.069  15.895 -2.0843 -0.0171  1.4998
   96MPD2    H1 1470   3.625   2.688  16.075  1.4195 -0.1195  0.4255
   96MPD2    H2 1471   3.973   2.739  15.837 -0.0699  0.0795  0.1656
   96MPD2    H3 1472   3.835   2.615  15.990 -1.1406 -0.7688 -2.1195
   96MPD2     N 1473   3.533   2.936  16.061 -0.1398 -0.2188 -0.2906
   96MPD2    H5 1474   3.499   2.870  16.129 -0.1929 -0.8821 -0.9524
   96MPD2    N1 1475   3.923   2.995  15.764  0.0385  0.0296 -0.0129
   96MPD2    H7 1476   3.999   2.940  15.724 -1.2448 -1.6457 -0.1392
   97MPD2     C 1477   4.463   0.606   1.137 -0.2778  0.5648 -0.7353
   97MPD2    C1 1478   4.505   0.738   1.119 -0.1113  0.4300  0.0642
   97MPD2    C2 1479   4.601   0.771   1.023 -0.0397  0.1386 -0.1634
   97MPD2    C3 1480   4.637   0.671   0.937  0.4846  0.5008 -0.5285
   97MPD2    C4 1481   4.576   0.546   0.940 -0.0832 -0.2960 -0.0646
   97MPD2    C5 1482   4.492   0.508   1.045 -0.3179 -0.4508 -0.4852
   97MPD2     H 1483   4.649   0.868   1.015 -0.5303  0.3322 -0.7447
   97MPD2    H1 1484   4.599   0.475   0.863  0.2360 -2.7889  2.3295
   97MPD2    H2 1485   4.393   0.592   1.219  1.4896  1.1521  0.8825
   97MPD2    H3 1486   4.445   0.411   1.053  0.5668 -0.8008  0.5466
   97MPD2     N 1487   0.001   0.695   0.833  0.4254  0.9136 -0.0824
   97MPD2    H5 1488   0.013   0.625   0.760 -0.9724 -0.9468  1.4621
   97MPD2    N1 1489   4.465   0.828   1.220  0.4592  0.0381  0.0962
   97MPD2    H7 1490   4.421   0.795   1.306  0.7497 -0.7156 -0.0424
   98TCq2    C1 1491   0.088   0.803   0.818 -0.6272 -0.2025  0.1387
   98TCq2    O2 1492   0.116   0.898   0.890 -0.0437 -0.1995  0.5402
   98TCq2    C2 1493   0.169   0.790   0.701  0.2949  0.1395  0.3329
   98TCq2    C3 1494   0.121   0.724   0.595 -0.4168 -0.2662  0.2892
   98TCq2    C4 1495   0.206   0.703   0.489 -0.2242  0.3937 -0.2101
   98TCq2    C5 1496   0.336   0.742   0.497  0.1857  0.2382  0.1007
   98TCq2    C6 1497   0.384   0.817   0.603 -0.1664  0.5438  0.3668
   98TCq2    C7 1498   0.293   0.848   0.701 -0.3743 -0.5143  0.7179
   98TCq2    C8 1499   0.497   0.911   0.590  0.6027  0.1988  0.2752
   98TCq2    O4 1500   0.593   0.880   0.518 -0.6565 -0.3543  0.2178
   98TCq2    C9 1501   0.150   0.641   0.373  0.2531 -0.3334  0.3054
   98TCq2    O5 1502   0.217   0.653   0.265  0.0256 -0.1334 -0.5768
   98TCq2    O6 1503   0.050   0.573   0.399 -0.3315  0.2001 -0.2231
   98TCq2    H2 1504   0.015   0.704   0.586 -0.7630  1.5018  0.3228
   98TCq2    H3 1505   0.398   0.732   0.409  0.8393  0.3408  0.5513
   98TCq2    H4 1506   0.326   0.908   0.785 -1.2605 -0.6044  1.1271
   99MPD2     C 1507   3.993   3.240   2.000  0.0136  0.1981 -0.4674
   99MPD2    C1 1508   3.867   3.235   1.950  0.2289 -0.3589 -0.7103
   99MPD2    C2 1509   3.851   3.222   1.819 -0.3840 -0.4789 -0.2875
   99MPD2    C3 1510   3.955   3.203   1.735  0.3064 -0.4652 -0.4100
   99MPD2    C4 1511   4.085   3.217   1.780  0.1554 -0.6537 -0.5452
   99MPD2    C5 1512   4.104   3.242   1.914  0.3425 -0.0177 -0.1839
   99MPD2     H 1513   3.751   3.221   1.777 -1.0154 -1.7129  1.2486
   99MPD2    H1 1514   4.174   3.204   1.719  0.6678 -0.2047  0.1097
   99MPD2    H2 1515   4.008   3.248   2.107 -0.9124  0.1364 -0.3330
   99MPD2    H3 1516   4.204   3.257   1.951 -0.3961  0.7482  1.4844
   99MPD2     N 1517   3.927   3.171   1.595  0.0462 -0.1945  0.0122
   99MPD2    H5 1518   3.831   3.179   1.565 -0.4342 -1.8185  1.1613
   99MPD2    N1 1519   3.753   3.255   2.035  0.5116 -0.3548 -0.3652
   99MPD2    H7 1520   3.665   3.236   1.986  0.2854 -0.5627  0.1226
  100TCq2    C1 1521   3.751   3.286   2.167 -0.6233  0.0998  0.4073
  100TCq2    O2 1522   3.842   3.302   2.242  0.0561  0.2833 -0.2217
  100TCq2    C2 1523   3.615   3.309   2.216  0.6451 -0.7987 -0.0302
  100TCq2    C3 1524   3.612   3.296   2.359  0.4239  0.2352 -0.3615
  100TCq2    C4 1525   3.493   3.305   2.423  0.0997 -0.3839  0.6374
  100TCq2    C5 1526   3.376   3.328   2.356  0.6304 -0.6357  0.9527
  100TCq2    C6 1527   3.379   3.325   2.220 -0.2297  0.0443  0.8146
  100TCq2    C7 1528   3.498   3.320   2.144  0.4300 -0.1492  0.5280
  100TCq2    C8 1529   3.274   3.409   2.145 -0.4075 -0.0948 -0.2144
  100TCq2    O4 1530   3.209   3.482   2.215 -0.8787 -0.3725  0.4520
  100TCq2    C9 1531   3.487   3.308   2.568  0.4407 -0.5399 -0.2063
  100TCq2    O5 1532   3.597   3.316   2.629  0.2595  0.3085 -0.4502
  100TCq2    O6 1533   3.366   3.301   2.612  0.5696  0.1925  0.0657
  100TCq2    H2 1534   3.701   3.296   2.421 -0.0388  0.9358  0.2905
  100TCq2    H3 1535   3.281   3.331   2.408  0.2773 -1.0224  0.3269
  100TCq2    H4 1536   3.507   3.347   2.040  0.9905  0.8787  0.8472
  101MPD2     C 1537   0.777   3.581  13.170  0.9213 -0.0440  0.2958
  101MPD2    C1 1538   0.666   3.639  13.226  0.9158 -0.0379 -0.3634
  101MPD2    C2 1539   0.547   3.566  13.219 -0.4944  0.2024 -0.1477
  101MPD2    C3 1540   0.544   3.441  13.161  0.0464  0.3749 -0.4507
  101MPD2    C4 1541   0.661   3.387  13.116 -1.0721  0.1992  0.0469
  101MPD2    C5 1542   0.778   3.457  13.118 -0.5518 -0.1992  0.4042
  101MPD2     H 1543   0.461   3.609  13.270  0.4101  1.8200 -0.0010
  101MPD2    H1 1544   0.660   3.282  13.088  1.9119  0.4707 -1.1153
  101MPD2    H2 1545   0.874   3.629  13.168  0.2777  1.2623  0.7589
  101MPD2    H3 1546   0.868   3.402  13.091 -1.2240 -1.4727  0.7542
  101MPD2     N 1547   0.421   3.374  13.152  0.1472 -0.4374 -0.5126
  101MPD2    H5 1548   0.338   3.409  13.200 -0.2682 -0.7566 -1.0018
  101MPD2    N1 1549   0.675   3.772  13.277  0.5604  0.3186 -0.0353
  101MPD2    H7 1550   0.766   3.815  13.267 -0.1655  1.9067  0.2795
  102TCq2    C1 1551   0.744   4.202  13.071  0.6554 -0.2769 -0.1592
  102TCq2    O2 1552   0.844   4.137  13.074 -0.4005  0.3028  0.0583
  102TCq2    C2 1553   0.651   4.169  13.184  0.4208 -0.1523 -0.5336
  102TCq2    C3 1554   0.533   4.238  13.206 -0.7614 -0.2967  0.5112
  102TCq2    C4 1555   0.435   4.177  13.281 -0.1076 -0.4110 -0.1510
  102TCq2    C5 1556   0.462   4.056  13.345 -0.0213 -0.2530 -0.3930
  102TCq2    C6 1557   0.582   3.992  13.328  0.6022 -0.3788  0.1264
  102TCq2    C7 1558   0.679   4.053  13.249 -0.5747  0.4029  0.6803
  102TCq2    C8 1559   0.566   3.849  13.314  0.0837  0.0563 -0.1453
  102TCq2    O4 1560   0.447   3.819  13.315  0.3555 -0.0457 -0.0188
  102TCq2    C9 1561   0.318   4.249  13.320 -0.4283  0.3461  0.4699
  102TCq2    O5 1562   0.314   4.367  13.275 -0.5990  0.0539 -0.5004
  102TCq2    O6 1563   0.244   4.201  13.409 -0.0714 -0.1003 -0.1524
  102TCq2    H2 1564   0.512   4.335  13.163 -0.2141 -0.3095  0.2168
  102TCq2    H3 1565   0.397   4.020  13.424  1.0768  1.1456  1.1573
  102TCq2    H4 1566   0.769   3.995  13.239 -0.7451  0.5925 -1.9859
  103TMC2    C1 1567   3.668   3.959  12.839  0.1753 -0.1179  0.7258
  103TMC2    C2 1568   3.788   3.904  12.866 -0.6885 -0.5363  0.1487
  103TMC2    C3 1569   3.812   3.881  12.997  1.0897 -0.8741  0.2984
  103TMC2    C4 1570   3.570   3.980  12.930  0.2193  0.1447  0.2148
  103TMC2    C5 1571   3.592   3.947  13.061  0.1171 -0.2360 -0.1734
  103TMC2    C6 1572   3.722   3.910  13.098 -0.6551  0.2470  0.3538
  103TMC2     C 1573   3.634   3.977  12.700 -0.7186 -0.6140 -0.0402
  103TMC2     O 1574   3.514   3.996  12.671  0.4267  0.1217  0.2238
  103TMC2     H 1575   3.858   3.860  12.796  1.6611  4.1179 -0.4371
  103TMC2    H1 1576   3.472   4.020  12.905  1.2932  0.9528 -2.6728
  103TMC2    H2 1577   3.751   3.884  13.199  1.0662 -1.0384 -0.4632
  103TMC2    C7 1578   3.509   4.004  13.163  0.3894 -0.6044  0.6961
  103TMC2    C8 1579   3.940   3.810  13.042  0.7271  0.3477 -0.0144
  103TMC2    O1 1580   3.519   3.955  13.273 -0.0919 -0.4453  0.3775
  103TMC2    O2 1581   3.951   3.759  13.154  0.0065  0.3564  0.3586
  103TMC2    O5 1582   4.035   3.861  12.966 -0.2772  0.0115 -0.1464
  103TMC2    H5 1583   4.003   3.907  12.885  0.9559  0.4397 -0.4004
  104MPD2     C 1584   3.819   4.107  12.433 -0.7039  0.3235  0.7170
  104MPD2    C1 1585   3.727   4.025  12.489  0.2638  0.2377 -0.4172
  104MPD2    C2 1586   3.628   3.987  12.402 -0.1863 -0.8527  0.4700
  104MPD2    C3 1587   3.624   4.019  12.265  0.4732  0.7840  0.1023
  104MPD2    C4 1588   3.723   4.099  12.218  1.0360 -0.3082 -0.2709
  104MPD2    C5 1589   3.821   4.140  12.297 -0.0933  0.4447 -0.2673
  104MPD2     H 1590   3.555   3.918  12.444 -0.1073 -0.0283  1.9658
  104MPD2    H1 1591   3.731   4.131  12.115  2.4593  0.8015  0.1775
  104MPD2    H2 1592   3.899   4.153  12.491 -0.6100 -0.8430  1.4961
  104MPD2    H3 1593   3.904   4.195  12.254 -0.4449  1.2022  0.0188
  104MPD2     N 1594   3.514   3.974  12.192 -0.2103  0.2517  0.5848
  104MPD2    H5 1595   3.439   3.931  12.245  0.1551  0.7325  1.5009
  104MPD2    N1 1596   3.740   3.996  12.622 -0.2308 -0.2878 -0.0240
  104MPD2    H7 1597   3.830   4.016  12.665  0.9638  0.9526 -3.1030
  105MPD2     C 1598   0.166   3.543   0.137 -0.0547 -0.1375  0.1228
  105MPD2    C1 1599   0.045   3.596   0.113  0.7320 -0.6475  0.3732
  105MPD2    C2 1600   4.696   3.648   0.219  0.3878  0.2777 -0.8784
  105MPD2    C3 1601   0.028   3.647   0.346 -0.0250  0.0496 -0.0829
  105MPD2    C4 1602   0.156   3.609   0.361 -0.4106  0.3321  0.5767
  105MPD2    C5 1603   0.230   3.568   0.252 -0.4061  0.3936  0.0030
  105MPD2     H 1604   4.606   3.707   0.203 -0.9671 -1.8007 -0.9530
  105MPD2    H1 1605   0.214   3.606   0.453 -0.3009 -0.4265  0.4900
  105MPD2    H2 1606   0.231   3.491   0.068  0.7764 -1.1470  1.6816
  105MPD2    H3 1607   0.322   3.513   0.267  0.0211  0.5953 -1.9447
  105MPD2     N 1608   4.677   3.694   0.458 -0.4507  0.4159  0.2868
  105MPD2    H5 1609   4.583   3.728   0.442  0.4975  2.5648 -0.7324
  105MPD2    N1 1610   4.701   3.582  17.682  0.1713 -0.2566  0.0184
  105MPD2    H7 1611   4.605   3.614  17.671 -0.0631 -1.6141 -1.9419
  106TCq2    C1 1612   4.702   3.651   0.584 -0.3112 -0.7072 -0.2032
  106TCq2    O2 1613   0.056   3.566   0.623  1.0374  0.1557 -0.5490
  106TCq2    C2 1614   4.607   3.708   0.679 -0.1216  0.5599 -0.3629
  106TCq2    C3 1615   4.544   3.831   0.655  0.0761  0.0535  0.3854
  106TCq2    C4 1616   4.428   3.864   0.715 -0.2398  0.4101 -0.0134
  106TCq2    C5 1617   4.369   3.776   0.801  0.1508 -0.0317 -0.5207
  106TCq2    C6 1618   4.420   3.651   0.814 -0.0251 -0.4547 -0.5582
  106TCq2    C7 1619   4.546   3.619   0.762  0.8311 -0.5684  0.5885
  106TCq2    C8 1620   4.386   3.570   0.935 -0.3264 -0.0406  0.0446
  106TCq2    O4 1621   4.483   3.518   0.989  0.6306 -0.0265 -0.0432
  106TCq2    C9 1622   4.368   3.998   0.696  0.0558  0.0672 -0.4628
  106TCq2    O5 1623   4.405   4.064   0.599  0.4721  0.3256 -0.3158
  106TCq2    O6 1624   4.265   4.018   0.762 -0.4986  0.3572  0.4422
  106TCq2    H2 1625   4.588   3.909   0.594 -0.1319 -0.4998 -0.4796
  106TCq2    H3 1626   4.271   3.804   0.840  0.3795  2.6523 -1.8337
  106TCq2    H4 1627   4.585   3.519   0.771  0.8202 -0.5096  1.2602
  107TMC2    C1 1628   0.954   3.097  11.841  0.1051  0.0377  0.3979
  107TMC2    C2 1629   1.020   3.219  11.819  0.0432 -0.4278  0.0770
  107TMC2    C3 1630   1.097   3.229  11.712  0.1587  0.0843  0.4351
  107TMC2    C4 1631   0.991   2.985  11.770  0.1568 -0.1548 -0.5094
  107TMC2    C5 1632   1.078   2.997  11.665 -0.2693 -0.3290 -0.5539
  107TMC2    C6 1633   1.123   3.122  11.631  0.2618  0.1453  0.0341
  107TMC2     C 1634   0.863   3.080  11.949 -0.0720 -0.2308 -0.7558
  107TMC2     O 1635   0.832   2.966  11.982 -0.8252  0.6646  0.2352
  107TMC2     H 1636   1.006   3.312  11.873 -0.9365 -1.1944  1.1497
  107TMC2    H1 1637   0.936   2.894  11.791 -1.6028  0.8280 -0.8137
  107TMC2    H2 1638   1.200   3.142  11.557  1.3246  0.2766  1.1885
  107TMC2    C7 1639   1.124   2.875  11.596 -0.2415  0.4918  0.6789
  107TMC2    C8 1640   1.178   3.351  11.696  0.4235 -0.3580 -0.8985
  107TMC2    O1 1641   1.100   2.764  11.648 -0.1206 -0.4060 -0.3895
  107TMC2    O2 1642   1.199   3.428  11.787  0.0763  0.2225 -1.0121
  107TMC2    O5 1643   1.200   3.376  11.567  0.5843 -0.2377  0.1631
  107TMC2    H5 1644   1.165   3.309  11.504  0.2015  1.2913 -1.2394
  108MPD2     C 1645   0.693   3.354  12.137  0.9584 -0.4052 -0.8046
  108MPD2    C1 1646   0.724   3.221  12.107 -0.4025  0.2351 -0.2099
  108MPD2    C2 1647   0.648   3.116  12.161 -0.4039 -0.0170  0.2444
  108MPD2    C3 1648   0.552   3.134  12.256  0.7174 -0.3570  0.4889
  108MPD2    C4 1649   0.531   3.274  12.278  0.6217 -0.0200 -0.0637
  108MPD2    C5 1650   0.600   3.378  12.223  0.4046  0.4310 -0.1579
  108MPD2     H 1651   0.674   3.019  12.121  0.1555  1.1280 -2.1871
  108MPD2    H1 1652   0.466   3.306  12.359  0.7510 -0.7720  0.3417
  108MPD2    H2 1653   0.747   3.432  12.084 -0.3118  0.7495 -0.3721
  108MPD2    H3 1654   0.591   3.484  12.243 -1.5459  0.0637  0.9065
  108MPD2     N 1655   0.480   3.040  12.326  0.4208  0.0206  0.6637
  108MPD2    H5 1656   0.419   3.077  12.398 -0.9977 -0.8403 -0.0919
  108MPD2    N1 1657   0.818   3.203  12.001  0.1545  0.0680 -0.2990
  108MPD2    H7 1658   0.857   3.282  11.951 -0.6799  1.0462  0.5945
  109MPD2     C 1659   4.216   4.587   1.891  0.3152  0.0678 -0.2964
  109MPD2    C1 1660   4.260   4.687   1.810 -0.7122  0.4336 -0.0533
  109MPD2    C2 1661   4.345   0.060   1.862  0.4972 -0.2428  0.1565
  109MPD2    C3 1662   4.381   0.067   1.995 -0.2642 -0.1698 -0.0806
  109MPD2    C4 1663   4.331   4.686   2.068  0.5935  0.0451  0.3501
  109MPD2    C5 1664   4.255   4.585   2.022  0.1184 -0.0028 -0.1786
  109MPD2     H 1665   4.362   0.152   1.806  1.1619 -2.1015 -2.7123
  109MPD2    H1 1666   4.363   4.671   2.171  0.9850 -0.8588  0.0934
  109MPD2    H2 1667   4.170   4.499   1.848 -1.5963  1.2933 -0.7431
  109MPD2    H3 1668   4.223   4.495   2.074  2.0723 -2.6202 -3.5023
  109MPD2     N 1669   4.453   0.178   2.048  0.9517  0.4741  0.4200
  109MPD2    H5 1670   4.473   0.262   1.995  1.6062 -0.9815 -1.6469
  109MPD2    N1 1671   4.214   4.698   1.684 -0.1753  1.0749 -0.2422
  109MPD2    H7 1672   4.131   4.650   1.651 -0.2576  1.4581 -0.5949
  110TCq2    C1 1673   4.495   0.177   2.172  0.0883  0.0526 -0.3438
  110TCq2    O2 1674   4.499   0.086   2.253  0.6286 -0.1267 -0.7701
  110TCq2    C2 1675   4.560   0.297   2.214  0.4845  0.1761  0.6377
  110TCq2    C3 1676   4.621   0.296   2.331 -0.7489 -0.1040  0.0736
  110TCq2    C4 1677   4.689   0.411   2.367 -0.3909  0.1453 -0.7367
  110TCq2    C5 1678   4.699   0.517   2.282  0.4752 -0.3140 -0.4408
  110TCq2    C6 1679   4.632   0.518   2.166  0.1025 -0.3391 -0.3306
  110TCq2    C7 1680   4.560   0.406   2.126  0.3399 -0.6598 -0.2538
  110TCq2    C8 1681   4.622   0.638   2.080 -0.4026  0.7490  0.2732
  110TCq2    O4 1682   4.536   0.635   1.996  0.4514 -0.3119  0.0162
  110TCq2    C9 1683   0.024   0.425   2.500  0.0731  0.0336 -0.3080
  110TCq2    O5 1684   0.011   0.331   2.585  0.2778 -0.5833 -0.0105
  110TCq2    O6 1685   0.121   0.505   2.515  0.3473 -0.2226 -0.4653
  110TCq2    H2 1686   4.620   0.217   2.405  1.3383 -1.1753 -1.0342
  110TCq2    H3 1687   0.030   0.604   2.316 -0.0760 -0.5319  0.9916
  110TCq2    H4 1688   4.508   0.407   2.031 -0.2554 -1.3900  0.0586
  111TMC2    C1 1689   1.138   4.723  11.547 -0.1388  0.3862  0.0356
  111TMC2    C2 1690   1.199   0.117  11.507 -0.1666 -0.3660  0.4858
  111TMC2    C3 1691   1.304   0.161  11.588  0.4484  0.2968  0.4678
  111TMC2    C4 1692   1.176   4.653  11.653 -0.4903 -0.4285  0.0810
  111TMC2    C5 1693   1.279   4.707  11.733 -0.9664 -0.1313  0.6558
  111TMC2    C6 1694   1.347   0.096  11.701  0.1466 -0.3012  0.5173
  111TMC2     C 1695   1.013   4.705  11.474 -0.7561  0.6913  0.5477
  111TMC2     O 1696   1.010   0.005  11.354 -0.6842 -0.1378 -0.7848
  111TMC2     H 1697   1.164   0.176  11.423  1.0849  1.1520  1.0435
  111TMC2    H1 1698   1.122   4.562  11.679  0.6585 -0.5296  2.1402
  111TMC2    H2 1699   1.418   0.144  11.767  1.9627 -1.4014 -0.6266
  111TMC2    C7 1700   1.332   4.627  11.846  0.3623 -0.3636 -1.0770
  111TMC2    C8 1701   1.395   0.258  11.531 -0.0284 -0.5701 -0.1227
  111TMC2    O1 1702   1.243   4.567  11.901 -0.0163  0.0900 -0.1332
  111TMC2    O2 1703   1.451   0.341  11.601 -0.3623 -0.1833  0.7145
  111TMC2    O5 1704   1.455   0.194  11.427  0.0916  0.5478 -0.2498
  111TMC2    H5 1705   1.422   0.103  11.410  0.3335 -0.1618  3.0690
  112MPD2     C 1706   0.497   4.700  11.459 -0.5702 -0.7041  0.5367
  112MPD2    C1 1707   0.590   0.026  11.366 -0.7526 -0.5326 -0.2284
  112MPD2    C2 1708   0.721   0.015  11.407  0.3882 -0.0225 -0.0398
  112MPD2    C3 1709   0.767   4.684  11.523 -0.1426  0.3754 -0.1224
  112MPD2    C4 1710   0.670   4.640  11.615  0.0746  0.0785 -0.2253
  112MPD2    C5 1711   0.534   4.648  11.576 -0.2384  0.1598 -0.6955
  112MPD2     H 1712   0.784   0.046  11.324 -1.6903 -0.1199 -1.6453
  112MPD2    H1 1713   0.700   4.604  11.712  1.0310  1.8082  0.1295
  112MPD2    H2 1714   0.390   4.697  11.442 -0.1117 -0.0757 -2.5295
  112MPD2    H3 1715   0.462   4.606  11.646 -0.0326  0.0247 -0.5651
  112MPD2     N 1716   0.908   4.679  11.556 -0.0907 -0.6364 -0.3113
  112MPD2    H5 1717   0.931   4.667  11.654 -0.1296  0.5684 -0.1628
  112MPD2    N1 1718   0.558   0.085  11.249  0.3624 -0.3074  0.0995
  112MPD2    H7 1719   0.637   0.114  11.192  0.3260 -1.2512 -0.4374
  113MPD2     C 1720   3.101   3.158   1.091  0.2664  0.6016  0.4452
  113MPD2    C1 1721   3.001   3.226   1.154  0.4902 -0.0250  0.1125
  113MPD2    C2 1722   2.878   3.194   1.122  0.6573 -0.0577  0.3577
  113MPD2    C3 1723   2.842   3.098   1.023  0.5487  0.9696 -0.1491
  113MPD2    C4 1724   2.940   3.014   0.973  0.2023 -0.6808  0.0199
  113MPD2    C5 1725   3.070   3.060   0.999  0.3962 -0.2840 -0.3890
  113MPD2     H 1726   2.804   3.254   1.173 -0.3356 -0.2934 -0.8052
  113MPD2    H1 1727   2.924   2.935   0.901 -0.2345 -1.1133  0.5934
  113MPD2    H2 1728   3.208   3.178   1.099  0.4866 -1.4859  2.7263
  113MPD2    H3 1729   3.151   3.018   0.941 -0.5978 -2.3869 -0.2808
  113MPD2     N 1730   2.711   3.080   0.965  0.5325  0.2056  0.0521
  113MPD2    H5 1731   2.690   2.991   0.920 -1.3550  1.2552 -1.1546
  113MPD2    N1 1732   3.019   3.336   1.243  0.5135 -0.6466 -0.3896
  113MPD2    H7 1733   2.934   3.367   1.288  0.9328 -0.9230  0.5800
  114TCq2    C1 1734   2.616   3.174   0.976 -0.2938 -0.3571  1.0613
  114TCq2    O2 1735   2.634   3.280   1.033  0.1535 -0.3316  0.2513
  114TCq2    C2 1736   2.482   3.136   0.933 -0.7260 -0.0389  0.6744
  114TCq2    C3 1737   2.380   3.225   0.951  0.4356 -0.2602 -0.1670
  114TCq2    C4 1738   2.256   3.197   0.898 -0.2447 -0.7600 -0.2974
  114TCq2    C5 1739   2.239   3.084   0.831  0.2807 -0.3971 -0.3432
  114TCq2    C6 1740   2.341   3.004   0.810 -0.4376  0.0944  0.0847
  114TCq2    C7 1741   2.471   3.030   0.852 -0.5155 -0.1463  0.2461
  114TCq2    C8 1742   2.311   2.879   0.737  0.2774 -0.7090 -0.1898
  114TCq2    O4 1743   2.208   2.872   0.671 -0.3756 -0.1298  0.0239
  114TCq2    C9 1744   2.144   3.293   0.910 -0.8365  0.1917  0.2951
  114TCq2    O5 1745   2.155   3.386   0.992 -0.2114  0.8123 -0.2003
  114TCq2    O6 1746   2.036   3.247   0.864  0.1426  0.3207 -0.1968
  114TCq2    H2 1747   2.389   3.316   1.009  0.9639 -1.7810  2.1357
  114TCq2    H3 1748   2.149   3.047   0.782  0.3504 -1.0599  0.0291
  114TCq2    H4 1749   2.554   2.976   0.807 -2.3401 -0.3125 -2.9586
  115TMC2    C1 1750   3.889   1.233  17.499  0.3945  0.0808  0.3861
  115TMC2    C2 1751   3.799   1.244  17.602  0.2555 -0.1798  0.0753
  115TMC2    C3 1752   3.750   1.365  17.636 -0.2187 -0.6997  0.1728
  115TMC2    C4 1753   3.931   1.342  17.426 -0.1872  0.1200 -0.1819
  115TMC2    C5 1754   3.881   1.465  17.468 -0.5537 -1.0523 -0.1886
  115TMC2    C6 1755   3.792   1.475  17.571 -0.1321  1.2337  0.6578
  115TMC2     C 1756   3.938   1.097  17.470 -0.7344 -0.0599 -0.4619
  115TMC2     O 1757   3.981   1.073  17.360 -0.0217  0.2772 -0.0403
  115TMC2     H 1758   3.754   1.156  17.647  0.3842 -0.6923 -0.7880
  115TMC2    H1 1759   4.009   1.345  17.351 -1.5006 -1.7328 -1.5965
  115TMC2    H2 1760   3.760   1.577  17.590  2.3462  1.9276  1.0841
  115TMC2    C7 1761   3.968   1.582  17.472 -0.5981 -0.2633  0.6893
  115TMC2    C8 1762   3.666   1.387   0.044 -0.3125 -0.2202  0.2811
  115TMC2    O1 1763   3.996   1.622  17.586 -0.1350 -0.2295 -0.0995
  115TMC2    O2 1764   3.662   1.321   0.146 -0.0834 -0.3980  0.2281
  115TMC2    O5 1765   3.583   1.487   0.009  0.0544 -0.4706 -0.3146
  115TMC2    H5 1766   3.577   1.516  17.614  1.5232  4.5675  1.1622
  116MPD2     C 1767   3.978   0.616  17.661  0.4690 -0.2283 -0.0541
  116MPD2    C1 1768   3.973   0.651  17.528  1.3364 -0.1600  0.1078
  116MPD2    C2 1769   3.964   0.791  17.496 -0.2171  0.3838 -0.1346
  116MPD2    C3 1770   3.961   0.884  17.603 -0.0067 -0.5994  0.3405
  116MPD2    C4 1771   3.948   0.847   0.035  0.3374  0.0118 -0.7110
  116MPD2    C5 1772   3.957   0.708   0.060 -0.0942 -0.3669 -0.2301
  116MPD2     H 1773   3.953   0.835  17.398 -3.6736  0.5347  0.3399
  116MPD2    H1 1774   3.932   0.913   0.120 -1.7733 -0.1949 -0.9424
  116MPD2    H2 1775   3.994   0.513  17.691  1.5952 -0.1762 -0.4677
  116MPD2    H3 1776   3.960   0.677   0.163  2.5646  1.1833  0.1526
  116MPD2     N 1777   3.936   1.024  17.586 -0.2526  0.1304  0.0687
  116MPD2    H5 1778   3.920   1.081  17.668  0.6423  0.0913  0.2672
  116MPD2    N1 1779   3.971   0.544  17.433  0.0728 -0.1705 -0.5233
  116MPD2    H7 1780   3.948   0.450  17.464 -0.5203  0.3171  0.4993
  117TMC2    C1 1781   2.458   2.009  14.282  0.8432 -0.6005  0.1333
  117TMC2    C2 1782   2.491   1.879  14.285 -0.3717 -0.3235  0.3938
  117TMC2    C3 1783   2.618   1.837  14.320  0.6862  0.2734  0.3368
  117TMC2    C4 1784   2.559   2.098  14.310 -0.1304 -0.1535  0.0900
  117TMC2    C5 1785   2.682   2.055  14.341  0.3265  0.0835  0.6447
  117TMC2    C6 1786   2.714   1.924  14.359  0.4715 -0.4792 -0.5807
  117TMC2     C 1787   2.323   2.053  14.255 -0.0299  0.4649  0.2798
  117TMC2     O 1788   2.232   1.992  14.304 -0.2628 -0.0329  0.4504
  117TMC2     H 1789   2.411   1.808  14.264  0.5300 -1.8488  2.0536
  117TMC2    H1 1790   2.538   2.203  14.321 -0.0135 -0.1193 -0.0089
  117TMC2    H2 1791   2.813   1.884  14.372  0.6036  0.2432  0.6500
  117TMC2    C7 1792   2.794   2.156  14.339 -0.8138 -0.2060 -0.1569
  117TMC2    C8 1793   2.648   1.694  14.306  0.6508  0.7537  0.0056
  117TMC2    O1 1794   2.771   2.263  14.277 -0.2863 -0.0481  0.0742
  117TMC2    O2 1795   2.747   1.656  14.249 -0.2021 -0.4297 -0.1474
  117TMC2    O5 1796   2.546   1.617  14.336 -0.3121  0.2680 -0.0515
  117TMC2    H5 1797   2.489   1.671  14.395 -1.3384  3.9745 -4.4693
  118MPD2     C 1798   3.107   2.152  14.530  0.2940  0.1171 -0.3183
  118MPD2    C1 1799   3.017   2.191  14.434 -0.0061  1.0857 -0.2620
  118MPD2    C2 1800   3.058   2.299  14.354  0.0071 -0.0151  0.9840
  118MPD2    C3 1801   3.177   2.372  14.381 -0.7010  0.6031 -0.0476
  118MPD2    C4 1802   3.262   2.323  14.472 -0.0385 -0.5323  0.6191
  118MPD2    C5 1803   3.228   2.209  14.547 -0.1760  0.0411 -0.1963
  118MPD2     H 1804   3.008   2.312  14.259  0.2948 -0.8790  0.7158
  118MPD2    H1 1805   3.353   2.376  14.496 -0.0341 -0.5360  0.6108
  118MPD2    H2 1806   3.093   2.065  14.593 -0.8719  0.9487  0.5769
  118MPD2    H3 1807   3.296   2.165  14.619  0.8884  1.9716 -0.0212
  118MPD2     N 1808   3.219   2.487  14.305 -0.2231  0.4017 -0.3681
  118MPD2    H5 1809   3.305   2.535  14.329  0.1885 -0.0307 -0.9810
  118MPD2    N1 1810   2.900   2.123  14.418 -0.1017 -0.6238  0.7832
  118MPD2    H7 1811   2.892   2.043  14.480 -0.0912 -3.8364 -3.3035
  119MPD2     C 1812   1.606   3.540  13.793 -0.0437 -0.2447 -0.3359
  119MPD2    C1 1813   1.497   3.462  13.821 -0.1430 -0.2285 -0.0804
  119MPD2    C2 1814   1.431   3.403  13.715  0.3015 -0.8944 -0.0382
  119MPD2    C3 1815   1.483   3.401  13.582  0.0733  1.0463 -0.4138
  119MPD2    C4 1816   1.591   3.484  13.560  0.3888 -0.5238 -0.2510
  119MPD2    C5 1817   1.640   3.565  13.662  0.0003  0.7439 -0.0989
  119MPD2     H 1818   1.339   3.347  13.729  0.2514 -1.3470 -2.2233
  119MPD2    H1 1819   1.633   3.484  13.461  0.3386 -0.4028 -0.2721
  119MPD2    H2 1820   1.656   3.597  13.870  0.5557 -1.1242 -0.0761
  119MPD2    H3 1821   1.712   3.643  13.642 -1.3238  1.7605 -0.9095
  119MPD2     N 1822   1.431   3.317  13.482 -0.0697 -0.4637 -1.0065
  119MPD2    H5 1823   1.486   3.322  13.397 -0.9867 -0.1141 -1.5846
  119MPD2    N1 1824   1.466   3.455  13.963  0.0706 -0.0286  0.2421
  119MPD2    H7 1825   1.499   3.538  14.011 -1.7842  1.4700 -1.0940
  120TCq2    C1 1826   1.320   3.234  13.486  0.5173 -0.2962  0.2011
  120TCq2    O2 1827   1.237   3.208  13.574 -0.2226  0.1784 -0.6146
  120TCq2    C2 1828   1.313   3.150  13.372 -0.0007  0.2022 -0.8949
  120TCq2    C3 1829   1.360   3.193  13.254 -0.1054 -0.3871  0.6598
  120TCq2    C4 1830   1.386   3.097  13.163 -0.1860 -0.0365  0.3140
  120TCq2    C5 1831   1.342   2.964  13.174 -0.5497  0.5463  0.3842
  120TCq2    C6 1832   1.262   2.933  13.288 -0.3474 -0.2551  0.1144
  120TCq2    C7 1833   1.257   3.028  13.385 -0.4525  0.1299 -0.4171
  120TCq2    C8 1834   1.152   2.841  13.253  0.0173 -0.3339 -0.0447
  120TCq2    O4 1835   1.185   2.759  13.169 -0.5764 -0.3970 -0.0666
  120TCq2    C9 1836   1.460   3.142  13.044  0.4889 -0.8183  0.1525
  120TCq2    O5 1837   1.449   3.065  12.943 -0.0993 -0.5557  0.5888
  120TCq2    O6 1838   1.530   3.246  13.048  0.0724  0.5176 -0.1716
  120TCq2    H2 1839   1.392   3.296  13.242 -0.3972 -0.3753 -0.0211
  120TCq2    H3 1840   1.369   2.891  13.099  3.3496  1.6797  0.6629
  120TCq2    H4 1841   1.207   3.004  13.478 -1.8794 -3.2443 -2.0718
  121TMC2    C1 1842   2.403   0.272  14.590 -0.3484 -0.7244  0.2843
  121TMC2    C2 1843   2.394   0.155  14.660  0.0973  0.1491  1.1067
  121TMC2    C3 1844   2.307   0.053  14.623  0.3760  0.6079 -0.0915
  121TMC2    C4 1845   2.318   0.299  14.491 -0.0082  0.3202  0.7871
  121TMC2    C5 1846   2.221   0.199  14.455  0.8198 -0.6755  0.0608
  121TMC2    C6 1847   2.213   0.078  14.524  0.9542 -0.1518 -0.2244
  121TMC2     C 1848   2.532   0.345  14.587  0.6098  0.2124  0.7437
  121TMC2     O 1849   2.619   0.311  14.668 -0.0521 -0.2251 -0.3075
  121TMC2     H 1850   2.470   0.136  14.735 -0.3411 -0.3505  1.4183
  121TMC2    H1 1851   2.314   0.393  14.437 -2.2582 -0.7525 -0.9296
  121TMC2    H2 1852   2.136   0.004  14.502  0.5333  0.9214 -2.3586
  121TMC2    C7 1853   2.126   0.240  14.353 -0.0330  0.0349  0.4735
  121TMC2    C8 1854   2.341   4.630  14.650  0.1690  0.3280  0.1969
  121TMC2    O1 1855   2.143   0.343  14.292 -0.1579  0.2928  0.4288
  121TMC2    O2 1856   2.454   4.592  14.686  0.0759 -0.1053  0.0544
  121TMC2    O5 1857   2.262   4.547  14.574  0.1222 -0.1214 -0.0437
  121TMC2    H5 1858   2.167   4.571  14.567 -0.9489 -3.5328  2.5006
  122MPD2     C 1859   2.763   0.529  14.538 -0.3270  0.8176  0.2409
  122MPD2    C1 1860   2.650   0.525  14.462 -0.8585  0.0534 -0.5753
  122MPD2    C2 1861   2.638   0.604  14.349 -0.4457 -0.0162 -0.4332
  122MPD2    C3 1862   2.739   0.690  14.316  0.0573  0.1078  0.2086
  122MPD2    C4 1863   2.855   0.678  14.386 -0.0115 -0.5221  0.1893
  122MPD2    C5 1864   2.862   0.602  14.498 -0.3678  0.3391  0.4909
  122MPD2     H 1865   2.546   0.611  14.292 -0.6737 -0.3281 -0.0943
  122MPD2    H1 1866   2.941   0.740  14.362 -1.0924  1.4135  1.3304
  122MPD2    H2 1867   2.781   0.471  14.627 -0.8375 -0.8100 -0.7248
  122MPD2    H3 1868   2.957   0.609  14.551 -0.6983  1.7548  0.8953
  122MPD2     N 1869   2.738   0.775  14.205  0.5565  0.5666 -0.1915
  122MPD2    H5 1870   2.825   0.819  14.179  0.8289  0.3119  0.3128
  122MPD2    N1 1871   2.548   0.430  14.487 -0.0034  0.2087 -0.0002
  122MPD2    H7 1872   2.473   0.451  14.422  0.4880  1.8051 -0.0466
  123MPD2     C 1873   1.335   3.502  10.995  0.0787 -0.0331  0.2006
  123MPD2    C1 1874   1.305   3.454  10.871  0.0333 -0.0044  0.1558
  123MPD2    C2 1875   1.371   3.511  10.761  0.8171  0.0061  0.9715
  123MPD2    C3 1876   1.443   3.632  10.776  0.5642 -0.2613  0.0880
  123MPD2    C4 1877   1.455   3.695  10.901 -0.4108  0.4317  0.5766
  123MPD2    C5 1878   1.402   3.625  11.007 -0.5311  0.1745  0.1288
  123MPD2     H 1879   1.362   3.467  10.662  0.6399  2.0111  0.0918
  123MPD2    H1 1880   1.499   3.794  10.907  0.7613  0.1248 -2.8235
  123MPD2    H2 1881   1.316   3.447  11.087  0.6698 -2.4499 -1.1063
  123MPD2    H3 1882   1.399   3.679  11.101 -0.3202  0.4324 -0.0153
  123MPD2     N 1883   1.472   3.703  10.660  0.0485 -0.4609  0.1549
  123MPD2    H5 1884   1.419   3.667  10.582  0.5514 -1.2868  0.1975
  123MPD2    N1 1885   1.229   3.347  10.865 -0.0582  0.0843  0.3893
  123MPD2    H7 1886   1.211   3.309  10.958 -0.9535  0.1764  0.2547
  124TCq2    C1 1887   1.547   3.821  10.655  0.4180  0.1047  0.6322
  124TCq2    O2 1888   1.616   3.879  10.745 -0.4980  0.1956  0.0080
  124TCq2    C2 1889   1.547   3.890  10.531  0.0525  0.3525 -0.1021
  124TCq2    C3 1890   1.581   4.019  10.528  0.2124  0.5334 -0.3906
  124TCq2    C4 1891   1.585   4.088  10.410 -0.0395  0.2741  0.0870
  124TCq2    C5 1892   1.558   4.018  10.296  0.3252  0.0461 -0.3452
  124TCq2    C6 1893   1.510   3.885  10.305  0.0537  0.0602 -0.3463
  124TCq2    C7 1894   1.497   3.824  10.421  1.0446  0.2973 -0.0873
  124TCq2    C8 1895   1.441   3.821  10.195  0.0541  0.7674 -0.0063
  124TCq2    O4 1896   1.424   3.700  10.211  0.2251 -0.2876 -0.0473
  124TCq2    C9 1897   1.630   4.222  10.396 -0.8706  0.8113  0.3987
  124TCq2    O5 1898   1.666   4.283  10.501 -0.3028  0.1349 -0.0471
  124TCq2    O6 1899   1.591   4.282  10.291 -0.0139 -0.0276 -0.4298
  124TCq2    H2 1900   1.606   4.071  10.621 -0.2167  0.6388 -0.3366
  124TCq2    H3 1901   1.564   4.066  10.199  0.4437 -1.1914 -0.9513
  124TCq2    H4 1902   1.441   3.733  10.433 -0.0806  1.1067  0.7779
  125TMC2    C1 1903   2.295   1.254   9.094  0.0284  0.2563  0.2794
  125TMC2    C2 1904   2.244   1.149   9.165 -0.1639 -0.0583 -0.8023
  125TMC2    C3 1905   2.211   1.037   9.095  0.6905 -0.4679  0.8030
  125TMC2    C4 1906   2.347   1.239   8.964  0.5514 -0.2638  0.8213
  125TMC2    C5 1907   2.332   1.111   8.912  0.7797  0.0989  0.2669
  125TMC2    C6 1908   2.243   1.015   8.964 -0.1433  0.0051 -0.2732
  125TMC2     C 1909   2.319   1.383   9.158 -0.8364  0.4395  0.2074
  125TMC2     O 1910   2.297   1.387   9.280  0.3520 -0.6499 -0.1247
  125TMC2     H 1911   2.224   1.161   9.270  3.0443  1.1824 -0.3109
  125TMC2    H1 1912   2.404   1.315   8.911  0.8977 -1.4806 -0.5720
  125TMC2    H2 1913   2.213   0.925   8.911 -1.9992 -1.1095  2.6351
  125TMC2    C7 1914   2.433   1.068   8.816  0.0490  0.1882  0.2355
  125TMC2    C8 1915   2.114   0.958   9.159 -0.2514  0.0726  0.3892
  125TMC2    O1 1916   2.487   1.162   8.754 -0.0146  0.5906 -0.1133
  125TMC2    O2 1917   2.007   1.009   9.177 -0.0342 -0.0344  0.2634
  125TMC2    O5 1918   2.140   0.836   9.114  0.2735  0.2079 -0.0027
  125TMC2    H5 1919   2.236   0.815   9.119  0.4424  0.8916 -0.4869
  126MPD1     C 1920   2.369   1.891   9.165  0.4211  0.6864  0.8155
  126MPD1    C1 1921   2.331   1.855   9.034 -0.0061 -0.3031 -0.2579
  126MPD1    C2 1922   2.324   1.723   9.001 -0.2389  0.0687  0.0226
  126MPD1    C3 1923   2.345   1.627   9.099 -0.1493  0.2917 -0.2795
  126MPD1    C4 1924   2.376   1.664   9.228  0.3686  0.4238 -0.2111
  126MPD1    C5 1925   2.395   1.797   9.256 -0.1228  0.1577 -0.5426
  126MPD1     H 1926   2.320   1.690   8.897  0.1210  0.9912 -0.2883
  126MPD1    H1 1927   2.395   1.590   9.306  0.6655 -0.3417 -1.0108
  126MPD1    H2 1928   2.372   1.993   9.200 -2.9635  0.6054  1.3922
  126MPD1    H3 1929   2.389   1.827   9.360 -0.0301 -0.1080 -0.4607
  126MPD1     N 1930   2.326   1.492   9.066 -0.2618 -0.3062 -0.0481
  126MPD1    H5 1931   2.314   1.479   8.966 -1.4716  0.5432 -0.0097
  126MPD1    N1 1932   2.333   1.954   8.932  0.1233 -0.2450  0.1577
  126MPD1    H6 1933   2.274   1.925   8.855  0.8458  0.1531 -0.5458
  126MPD1    H7 1934   2.286   2.035   8.973  0.4338 -0.4445  0.9067
  127MPD2     C 1935   3.041   3.662   9.425  0.0601 -0.1790  0.5217
  127MPD2    C1 1936   3.166   3.648   9.479  0.4906  0.2856  0.0992
  127MPD2    C2 1937   3.255   3.754   9.472 -0.3674  0.1768 -0.1962
  127MPD2    C3 1938   3.221   3.872   9.398 -0.0033 -0.9128 -0.6738
  127MPD2    C4 1939   3.104   3.873   9.328  0.3151  0.3878  0.3179
  127MPD2    C5 1940   3.005   3.770   9.346  0.0998 -0.1637  0.0571
  127MPD2     H 1941   3.350   3.752   9.523 -1.0146 -2.3742  0.9106
  127MPD2    H1 1942   3.082   3.966   9.277 -0.2614 -1.1459 -2.2139
  127MPD2    H2 1943   2.971   3.579   9.428 -1.3150  0.9733  0.2018
  127MPD2    H3 1944   2.906   3.791   9.306 -0.0645 -0.4282  0.3190
  127MPD2     N 1945   3.319   3.982   9.396 -0.1045 -0.0920 -0.4621
  127MPD2    H5 1946   3.400   3.982   9.457 -0.0869 -0.4468 -0.4865
  127MPD2    N1 1947   3.185   3.524   9.547 -0.1564  0.3029 -0.5185
  127MPD2    H7 1948   3.104   3.465   9.563  0.7913 -0.4847  1.3267
  128TCq2    C1 1949   3.309   3.487   9.599  0.1897 -1.4561  0.5675
  128TCq2    O2 1950   3.417   3.545   9.612  0.0249  0.0352 -0.1793
  128TCq2    C2 1951   3.295   3.355   9.659 -0.1650 -1.2531 -0.0707
  128TCq2    C3 1952   3.360   3.339   9.780  0.0018 -1.1915 -0.0120
  128TCq2    C4 1953   3.293   3.260   9.875 -0.5475 -0.2731 -0.1499
  128TCq2    C5 1954   3.169   3.205   9.852  0.2222 -0.0388 -0.6024
  128TCq2    C6 1955   3.114   3.221   9.727 -0.2957  0.9485  0.4351
  128TCq2    C7 1956   3.168   3.301   9.629  0.0508  0.2664 -0.1243
  128TCq2    C8 1957   2.968   3.204   9.715 -0.1036  0.7309 -0.4363
  128TCq2    O4 1958   2.914   3.262   9.622 -0.3310 -0.0191  0.2646
  128TCq2    C9 1959   3.348   3.247  10.008 -0.5263  0.5261  0.2521
  128TCq2    O5 1960   3.463   3.300  10.031  0.9358 -0.5159  0.0222
  128TCq2    O6 1961   3.278   3.189  10.094 -0.1015  0.6148 -0.3842
  128TCq2    H2 1962   3.455   3.380   9.813 -0.3232 -0.0639 -0.5041
  128TCq2    H3 1963   3.120   3.155   9.935  0.1646  0.6227 -0.2431
  128TCq2    H4 1964   3.134   3.294   9.526 -2.3433  0.5197  0.6523
  129MPD2     C 1965   0.172   0.440   0.992 -0.2528  0.1650  0.6497
  129MPD2    C1 1966   0.232   0.556   1.033 -0.0521  0.2383 -0.1376
  129MPD2    C2 1967   0.334   0.605   0.961 -0.4177 -0.3383 -0.1624
  129MPD2    C3 1968   0.391   0.539   0.849  0.2277  0.5108 -0.2908
  129MPD2    C4 1969   0.326   0.423   0.807 -0.1251 -0.0663 -0.1833
  129MPD2    C5 1970   0.226   0.372   0.886  0.1014  0.1345  0.3561
  129MPD2     H 1971   0.392   0.690   0.993 -0.7879 -0.4236  0.7495
  129MPD2    H1 1972   0.345   0.354   0.726  2.0231 -0.7583  0.9204
  129MPD2    H2 1973   0.081   0.401   1.037 -1.8824  2.5360 -0.6517
  129MPD2    H3 1974   0.174   0.281   0.856 -1.3910  1.1282 -0.0438
  129MPD2     N 1975   0.515   0.584   0.798 -0.2223  0.1099 -0.0621
  129MPD2    H5 1976   0.557   0.667   0.839 -1.5809  0.6791  0.1686
  129MPD2    N1 1977   0.185   0.632   1.141  0.4976 -0.3101  0.9864
  129MPD2    H7 1978   0.221   0.726   1.159 -0.8298  0.4814 -0.4247
  130TCq2    C1 1979   0.087   0.594   1.227 -0.1451 -0.1313  0.9276
  130TCq2    O2 1980   0.043   0.482   1.245  0.0651 -0.1936  0.1102
  130TCq2    C2 1981   0.052   0.698   1.327 -0.4354 -0.1276  0.3674
  130TCq2    C3 1982   0.130   0.808   1.334 -0.1578 -0.0016 -0.2544
  130TCq2    C4 1983   0.168   0.858   1.460  1.2547  0.2853 -0.1882
  130TCq2    C5 1984   0.112   0.807   1.582 -0.0956  0.5730 -0.1140
  130TCq2    C6 1985   0.026   0.700   1.571 -0.1545 -0.0797  0.0009
  130TCq2    C7 1986   4.724   0.650   1.450 -0.2592 -0.6318  0.2637
  130TCq2    C8 1987   0.012   0.601   1.676 -0.1515 -0.1683 -1.1005
  130TCq2    O4 1988   4.654   0.517   1.658 -0.4444  0.5749  0.1412
  130TCq2    C9 1989   0.264   0.971   1.462 -0.2327  0.2041 -0.0552
  130TCq2    O5 1990   0.304   1.025   1.350 -0.1161 -0.4057  0.2027
  130TCq2    O6 1991   0.289   1.015   1.578 -0.3202  0.2384 -0.0690
  130TCq2    H2 1992   0.174   0.862   1.251  3.7837  1.6782  2.9061
  130TCq2    H3 1993   0.124   0.863   1.673 -0.6094  0.2673  0.1434
  130TCq2    H4 1994   4.651   0.573   1.429 -0.6461 -0.5049  1.1635
  131MPD2     C 1995   0.505   3.112  10.208 -0.2603  0.5300  0.2275
  131MPD2    C1 1996   0.603   3.209  10.215 -0.2178  0.0885  0.5606
  131MPD2    C2 1997   0.689   3.211  10.324 -0.7634  0.1202  0.3311
  131MPD2    C3 1998   0.679   3.112  10.422 -0.4178  0.0804 -0.6271
  131MPD2    C4 1999   0.598   3.003  10.397  0.2554  0.1178 -0.2279
  131MPD2    C5 2000   0.503   3.006  10.299 -0.2325  0.0175 -0.3964
  131MPD2     H 2001   0.765   3.288  10.334 -0.8557  0.2616 -0.0581
  131MPD2    H1 2002   0.603   2.925  10.472 -0.6033  0.7186  0.4626
  131MPD2    H2 2003   0.436   3.103  10.125 -1.1533 -1.6284  1.2033
  131MPD2    H3 2004   0.439   2.922  10.276  0.0383  0.1936 -1.7876
  131MPD2     N 2005   0.773   3.119  10.523  0.7730  0.8780 -0.1652
  131MPD2    H5 2006   0.816   3.210  10.534  1.1516  0.6169  0.5337
  131MPD2    N1 2007   0.595   3.304  10.111 -0.4664  0.0739  0.1893
  131MPD2    H7 2008   0.524   3.290  10.040 -1.5839 -0.1981  1.3717
  132TCq2    C1 2009   0.810   3.820   9.884  0.7586 -0.1095 -0.3460
  132TCq2    O2 2010   0.880   3.839   9.985 -0.4825 -0.0875  0.0789
  132TCq2    C2 2011   0.735   3.694   9.882 -0.2811  0.3385 -0.0885
  132TCq2    C3 2012   0.631   3.681   9.794 -0.1566  0.0890  0.5327
  132TCq2    C4 2013   0.551   3.575   9.795  0.4615 -0.4729  0.0915
  132TCq2    C5 2014   0.569   3.475   9.893 -0.4091 -1.0414 -0.1893
  132TCq2    C6 2015   0.664   3.497   9.987 -0.3894  0.6334 -0.6499
  132TCq2    C7 2016   0.747   3.606   9.986  0.8674 -0.0819 -0.3518
  132TCq2    C8 2017   0.685   3.405  10.099  0.8934 -0.3783  0.0458
  132TCq2    O4 2018   0.781   3.434  10.172 -0.0206  0.3074 -0.1516
  132TCq2    C9 2019   0.449   3.557   9.698 -0.2250  0.0854 -0.0453
  132TCq2    O5 2020   0.431   3.646   9.617 -0.3689 -0.2311 -0.0917
  132TCq2    O6 2021   0.379   3.453   9.706  0.6342  0.2173  0.1752
  132TCq2    H2 2022   0.601   3.764   9.731  0.3676  0.0523  0.2296
  132TCq2    H3 2023   0.517   3.384   9.867  0.7651 -1.1986 -2.0098
  132TCq2    H4 2024   0.819   3.626  10.064  0.2713  0.1828  0.1270
  133MPD2     C 2025   4.056   0.394   9.494  0.2704 -0.3836  1.0209
  133MPD2    C1 2026   4.094   0.316   9.390 -0.3922  0.3032  0.2160
  133MPD2    C2 2027   4.130   0.181   9.408  0.0012 -0.0574  0.0898
  133MPD2    C3 2028   4.109   0.127   9.532  0.1554 -0.9859 -0.2382
  133MPD2    C4 2029   4.064   0.210   9.633  0.2611  0.5732 -0.5743
  133MPD2    C5 2030   4.044   0.340   9.617 -0.6832 -0.1034 -0.0027
  133MPD2     H 2031   4.164   0.121   9.325  1.0816  1.0989 -0.2939
  133MPD2    H1 2032   4.056   0.170   9.734  0.7168  2.7179  0.3235
  133MPD2    H2 2033   4.032   0.498   9.474 -1.6058 -1.1065 -0.4264
  133MPD2    H3 2034   4.014   0.403   9.699 -3.1043 -2.1157  0.6477
  133MPD2     N 2035   4.147   4.721   9.572 -0.5082  0.5279 -0.4665
  133MPD2    H5 2036   4.158   4.699   9.671  0.0157  1.5946 -0.2935
  133MPD2    N1 2037   4.077   0.377   9.259  0.0741 -0.5444  0.5604
  133MPD2    H7 2038   4.056   0.476   9.256 -0.3938 -0.5699  3.0645
  134TCq2    C1 2039   4.113   0.320   9.139 -0.5020 -0.8671  0.1805
  134TCq2    O2 2040   4.176   0.217   9.116  0.0647  0.4198  0.1540
  134TCq2    C2 2041   4.091   0.410   9.027 -0.5901 -0.6106 -0.4750
  134TCq2    C3 2042   4.179   0.399   8.927 -0.0029 -0.2294  0.2567
  134TCq2    C4 2043   4.146   0.465   8.806 -0.6571  0.5707  0.3940
  134TCq2    C5 2044   4.030   0.538   8.791  0.8021 -0.1139 -0.4329
  134TCq2    C6 2045   3.944   0.547   8.900  0.1622  0.7203  0.4836
  134TCq2    C7 2046   3.976   0.486   9.021  0.3396 -0.0739  0.4541
  134TCq2    C8 2047   3.812   0.579   8.858  0.1484 -0.5934 -0.4037
  134TCq2    O4 2048   3.800   0.668   8.776  0.6381 -0.1791 -0.4074
  134TCq2    C9 2049   4.247   0.468   8.699 -0.4435  0.0284 -1.0696
  134TCq2    O5 2050   4.287   0.583   8.662 -0.3002  0.2827  0.2154
  134TCq2    O6 2051   4.311   0.360   8.695  0.0344 -0.0428  0.3445
  134TCq2    H2 2052   4.276   0.351   8.934  0.6984  1.1817  0.1672
  134TCq2    H3 2053   4.014   0.583   8.694  1.1580  1.1494  0.0936
  134TCq2    H4 2054   3.895   0.490   9.093  0.6787  0.5939  0.8000
  135MPD2     C 2055   3.171   0.766   9.230  0.4696  0.4253 -0.5312
  135MPD2    C1 2056   3.133   0.646   9.293 -0.8006  0.0721  0.0019
  135MPD2    C2 2057   3.236   0.572   9.352 -0.0994 -0.2057 -0.1206
  135MPD2    C3 2058   3.369   0.601   9.322 -0.1062  0.1175  0.5058
  135MPD2    C4 2059   3.398   0.716   9.253  0.0992 -0.3354 -0.4730
  135MPD2    C5 2060   3.299   0.802   9.215 -0.5296  0.2163  0.0556
  135MPD2     H 2061   3.219   0.482   9.409 -1.5040  0.3380  0.3182
  135MPD2    H1 2062   3.496   0.760   9.248 -0.1439  0.0169 -1.9325
  135MPD2    H2 2063   3.113   0.843   9.180  0.0959 -0.7892 -1.9465
  135MPD2    H3 2064   3.317   0.880   9.142  1.9532 -0.5504 -0.1517
  135MPD2     N 2065   3.481   0.530   9.363  0.2915  0.4007  0.1786
  135MPD2    H5 2066   3.573   0.554   9.327  0.3180 -0.8547 -0.5747
  135MPD2    N1 2067   3.003   0.593   9.285 -0.1624 -0.3123 -0.1611
  135MPD2    H7 2068   2.986   0.507   9.336 -2.0958  0.2629  0.1627
  136TCq2    C1 2069   2.902   0.654   9.218  0.2071  0.2517  0.8438
  136TCq2    O2 2070   2.898   0.766   9.166  0.2683 -0.5095  0.0533
  136TCq2    C2 2071   2.779   0.573   9.205  0.5289  0.1020  0.5517
  136TCq2    C3 2072   2.664   0.644   9.175 -0.5104 -0.1673  0.2612
  136TCq2    C4 2073   2.542   0.585   9.173 -0.3794  0.3585 -0.4578
  136TCq2    C5 2074   2.536   0.453   9.215 -0.1499 -0.0420 -0.2817
  136TCq2    C6 2075   2.650   0.390   9.253  0.1094  0.0940  0.0790
  136TCq2    C7 2076   2.775   0.442   9.243 -0.2302  0.0419  0.0995
  136TCq2    C8 2077   2.646   0.245   9.282 -0.4769  0.3198 -0.8838
  136TCq2    O4 2078   2.744   0.172   9.255 -0.0781  0.0900 -0.3763
  136TCq2    C9 2079   2.417   0.650   9.136  0.2462  0.6532 -0.0594
  136TCq2    O5 2080   2.416   0.776   9.132 -0.2566  0.3295  0.4201
  136TCq2    O6 2081   2.319   0.573   9.122 -0.0674 -0.0948  0.4073
  136TCq2    H2 2082   2.659   0.752   9.168 -2.5863 -0.1181  2.2529
  136TCq2    H3 2083   2.438   0.410   9.231  0.6532 -1.3621  1.0995
  136TCq2    H4 2084   2.863   0.382   9.266 -0.4347  0.4321  1.9295
  137MPD2     C 2085   1.537   3.101   9.468  0.3152 -0.0012  0.6596
  137MPD2    C1 2086   1.594   3.205   9.399  0.2200 -0.1233  0.2930
  137MPD2    C2 2087   1.675   3.295   9.468  0.0217  0.5150 -0.0410
  137MPD2    C3 2088   1.659   3.294   9.608 -0.3029 -0.7095  0.4903
  137MPD2    C4 2089   1.589   3.197   9.672  0.3298 -0.0804 -0.3222
  137MPD2    C5 2090   1.529   3.097   9.605  0.4338 -0.2358  0.2144
  137MPD2     H 2091   1.732   3.372   9.418  1.3319 -1.4182 -1.5272
  137MPD2    H1 2092   1.567   3.201   9.778  3.2450  1.5476  0.2206
  137MPD2    H2 2093   1.477   3.023   9.424 -0.0706  1.0021 -0.5637
  137MPD2    H3 2094   1.455   3.033   9.650  0.6127 -0.3068  0.4102
  137MPD2     N 2095   1.727   3.393   9.679  0.3699  0.6482 -0.3756
  137MPD2    H5 2096   1.798   3.452   9.636 -0.3401 -0.2112 -2.6994
  137MPD2    N1 2097   1.589   3.185   9.261 -0.3399 -0.1070 -0.0884
  137MPD2    H7 2098   1.510   3.129   9.229  0.6280 -2.0250  0.9141
  138TCq2    C1 2099   1.650   3.275   9.169  0.6477  0.6236  0.4762
  138TCq2    O2 2100   1.720   3.374   9.194  0.3026  0.7327 -0.0616
  138TCq2    C2 2101   1.610   3.243   9.032  0.3209 -0.3962 -0.0025
  138TCq2    C3 2102   1.576   3.112   8.996  0.1136  0.3191  0.8429
  138TCq2    C4 2103   1.528   3.098   8.867  0.2664  0.5910  0.1379
  138TCq2    C5 2104   1.512   3.208   8.788 -0.1313 -0.7844  0.5146
  138TCq2    C6 2105   1.543   3.329   8.827  0.5300 -0.2705 -0.6179
  138TCq2    C7 2106   1.599   3.353   8.947 -0.3546 -0.5647  0.2919
  138TCq2    C8 2107   1.526   3.435   8.736 -0.1099  0.6329 -0.0274
  138TCq2    O4 2108   1.551   3.412   8.623  0.1776 -0.3542 -0.2558
  138TCq2    C9 2109   1.487   2.970   8.809 -0.0286 -0.1265 -0.2722
  138TCq2    O5 2110   1.536   2.875   8.874 -0.3401 -0.3359  0.9038
  138TCq2    O6 2111   1.421   2.972   8.700 -0.1338  0.2687  0.0303
  138TCq2    H2 2112   1.578   3.024   9.059 -2.1625  0.8249  1.6219
  138TCq2    H3 2113   1.477   3.200   8.685 -0.5148 -0.5188  0.6264
  138TCq2    H4 2114   1.626   3.454   8.974  1.5139 -0.9396 -0.1928
  139TMC2    C1 2115   2.678   3.122  13.371  0.4760  0.8918 -1.0688
  139TMC2    C2 2116   2.812   3.154  13.364  0.8012 -0.6669 -0.6108
  139TMC2    C3 2117   2.845   3.288  13.345 -0.6060  0.3561 -0.3526
  139TMC2    C4 2118   2.581   3.228  13.361  0.0712 -0.8015 -0.5004
  139TMC2    C5 2119   2.623   3.355  13.340  0.1460  1.1083  0.2185
  139TMC2    C6 2120   2.759   3.391  13.317  0.4903 -0.1439 -0.2616
  139TMC2     C 2121   2.641   2.996  13.435 -0.3208  0.8072 -0.0978
  139TMC2     O 2122   2.728   2.930  13.490 -0.1809  0.3715 -0.6458
  139TMC2     H 2123   2.888   3.083  13.393  2.0648  0.5514 -0.9142
  139TMC2    H1 2124   2.478   3.208  13.389  0.7930 -1.0183  2.0501
  139TMC2    H2 2125   2.797   3.492  13.308 -1.0620  0.5881  1.3343
  139TMC2    C7 2126   2.535   3.465  13.382 -0.1728 -0.5878  0.0659
  139TMC2    C8 2127   2.981   3.307  13.315 -0.3083 -0.3626  0.5791
  139TMC2    O1 2128   2.565   3.576  13.339  0.8703 -0.3616  0.3564
  139TMC2    O2 2129   3.054   3.218  13.271  0.0661 -0.2367 -0.7269
  139TMC2    O5 2130   3.011   3.434  13.321 -0.5104  0.3372 -0.0367
  139TMC2    H5 2131   2.970   3.492  13.388 -0.1278  2.8860 -2.0009
  140MPD2     C 2132   2.335   2.810  13.385  0.5186 -0.2785 -0.3675
  140MPD2    C1 2133   2.448   2.843  13.450  0.1525 -0.1536 -0.4802
  140MPD2    C2 2134   2.491   2.758  13.554  0.2650  0.5469 -0.0851
  140MPD2    C3 2135   2.429   2.636  13.575  0.2172  0.8484  0.6757
  140MPD2    C4 2136   2.323   2.595  13.492  0.1585 -0.1926  0.8700
  140MPD2    C5 2137   2.279   2.687  13.401 -0.3696  0.5600 -0.3411
  140MPD2     H 2138   2.569   2.782  13.626 -0.5254  1.7630  0.3718
  140MPD2    H1 2139   2.272   2.499  13.498 -0.7267  0.4610  3.6676
  140MPD2    H2 2140   2.296   2.863  13.299  0.5732 -0.0690 -0.2612
  140MPD2    H3 2141   2.197   2.654  13.339 -0.2131  1.4195 -1.0085
  140MPD2     N 2142   2.491   2.559  13.678  0.3332  0.3660 -0.1529
  140MPD2    H5 2143   2.564   2.607  13.730  1.3826 -0.3254 -1.0075
  140MPD2    N1 2144   2.510   2.957  13.401  0.1629  0.3310 -0.3663
  140MPD2    H7 2145   2.455   3.018  13.342 -0.2171  0.4535  0.1204
  141TCq2    C1 2146   2.699   3.913  14.586 -0.5624 -0.2312 -0.2931
  141TCq2    O2 2147   2.814   3.946  14.554 -0.6491  0.0085 -0.9104
  141TCq2    C2 2148   2.693   3.839  14.716 -0.3810 -0.4741  0.1952
  141TCq2    C3 2149   2.600   3.738  14.735  0.5278  0.2678  0.0985
  141TCq2    C4 2150   2.585   3.691  14.861  0.0099 -0.1839  0.9660
  141TCq2    C5 2151   2.670   3.733  14.963 -0.3453 -0.0733 -0.6547
  141TCq2    C6 2152   2.768   3.825  14.933 -0.0022 -1.5325 -0.3205
  141TCq2    C7 2153   2.780   3.884  14.814 -0.1735 -0.4284  0.5066
  141TCq2    C8 2154   2.832   3.882  15.051 -0.1732  0.5701 -0.2555
  141TCq2    O4 2155   2.765   3.892  15.148 -0.0258  0.2918 -0.3808
  141TCq2    C9 2156   2.494   3.590  14.893 -0.3886  0.7201  0.8723
  141TCq2    O5 2157   2.422   3.551  14.798 -0.3318 -0.5133  0.2152
  141TCq2    O6 2158   2.496   3.529  15.004 -0.1971 -0.4912 -0.2490
  141TCq2    H2 2159   2.540   3.690  14.659 -0.4084  0.3078  0.8162
  141TCq2    H3 2160   2.670   3.683  15.059 -1.4837 -2.3058 -1.8336
  141TCq2    H4 2161   2.840   3.974  14.803 -1.5490  0.2747 -1.1267
  142MPD2     C 2162   0.906   2.841  10.373 -0.2294  0.1854 -0.6729
  142MPD2    C1 2163   0.825   2.822  10.262 -0.0939  0.4604 -0.0798
  142MPD2    C2 2164   0.846   2.906  10.153 -0.0038  0.5471 -0.0978
  142MPD2    C3 2165   0.950   2.997  10.141 -0.0803 -0.2778  0.5455
  142MPD2    C4 2166   1.043   2.999  10.244  0.4459 -0.3439 -0.8624
  142MPD2    C5 2167   1.014   2.919  10.355  0.9248 -0.1599 -0.4544
  142MPD2     H 2168   0.774   2.898  10.072 -1.4332  1.3205  1.1001
  142MPD2    H1 2169   1.117   3.079  10.238  0.8298 -0.5340  1.6755
  142MPD2    H2 2170   0.904   2.785  10.466  0.7069  3.0567  1.0849
  142MPD2    H3 2171   1.091   2.919  10.431  1.8421 -1.1633 -1.3890
  142MPD2     N 2172   0.954   3.102  10.046 -0.0699  0.8078  1.0782
  142MPD2    H5 2173   1.040   3.156  10.041 -0.4540  1.2089 -1.0419
  142MPD2    N1 2174   0.728   2.724  10.274 -0.2937  0.2202  0.4611
  142MPD2    H7 2175   0.734   2.672  10.361  0.5333  0.6499  0.6628
  143TCq2    C1 2176   0.872   3.117   9.942  0.0764 -0.5178 -0.7627
  143TCq2    O2 2177   0.775   3.046   9.911  0.2701  1.0945  0.4164
  143TCq2    C2 2178   0.900   3.240   9.867 -0.1795  0.2039 -0.8919
  143TCq2    C3 2179   0.826   3.253   9.755 -0.6497  0.4999  0.6120
  143TCq2    C4 2180   0.854   3.361   9.671  0.8282 -0.6519 -0.0282
  143TCq2    C5 2181   0.940   3.461   9.711 -0.0746 -0.1213  0.6797
  143TCq2    C6 2182   1.008   3.447   9.829 -0.3500  0.4167 -0.2499
  143TCq2    C7 2183   0.989   3.339   9.908 -0.5210 -0.2337 -0.3885
  143TCq2    C8 2184   1.082   3.555   9.892  0.1253 -0.3974 -0.0199
  143TCq2    O4 2185   1.109   3.545  10.009 -0.1937 -0.5295 -0.2077
  143TCq2    C9 2186   0.769   3.386   9.554 -0.1722 -0.3782  0.2036
  143TCq2    O5 2187   0.678   3.305   9.520  0.1457  0.6944 -0.0124
  143TCq2    O6 2188   0.811   3.470   9.474 -0.0665  0.0813 -0.2520
  143TCq2    H2 2189   0.759   3.176   9.716 -0.5185  1.6643 -1.9136
  143TCq2    H3 2190   0.948   3.551   9.651  0.8544 -0.3219  0.4948
  143TCq2    H4 2191   1.040   3.331  10.003  1.8550  1.5271 -1.5246
  144MPD2     C 2192   2.861   2.302   0.577  0.1053 -0.2717 -0.1948
  144MPD2    C1 2193   2.942   2.209   0.519  0.7060 -0.0649 -0.4228
  144MPD2    C2 2194   3.068   2.190   0.578  0.5773 -0.5056  0.8217
  144MPD2    C3 2195   3.120   2.258   0.693  0.2626  0.3094  0.3126
  144MPD2    C4 2196   3.031   2.351   0.745  0.0593  0.5306  0.4918
  144MPD2    C5 2197   2.905   2.369   0.692  0.2490  0.3814  0.0245
  144MPD2     H 2198   3.123   2.114   0.524  0.5385  0.3765 -0.4726
  144MPD2    H1 2199   3.053   2.416   0.829  0.8040 -0.7619  1.2939
  144MPD2    H2 2200   2.761   2.321   0.542  0.5648  2.8849  0.1788
  144MPD2    H3 2201   2.829   2.424   0.747 -0.2194  0.3847 -0.6208
  144MPD2     N 2202   3.251   2.235   0.747 -0.1704  0.0822  0.3737
  144MPD2    H5 2203   3.284   2.298   0.819  0.3527 -1.3256  1.3793
  144MPD2    N1 2204   2.910   2.127   0.406  0.4787  0.3276  0.7462
  144MPD2    H7 2205   2.971   2.049   0.384  0.0863 -0.0045  0.8158
  145TCq2    C1 2206   3.343   2.153   0.692  0.5585 -0.3026 -0.8009
  145TCq2    O2 2207   3.343   2.090   0.585 -0.3951  0.0527  0.0836
  145TCq2    C2 2208   3.465   2.165   0.765  0.0729 -0.6588  0.7315
  145TCq2    C3 2209   3.578   2.130   0.699  0.5273 -0.4009 -0.0446
  145TCq2    C4 2210   3.706   2.140   0.754 -0.3803  0.0982  0.4831
  145TCq2    C5 2211   3.717   2.202   0.875  0.8465 -0.1552  0.7556
  145TCq2    C6 2212   3.604   2.236   0.943  0.2728 -0.4219 -0.3227
  145TCq2    C7 2213   3.476   2.224   0.893  0.1563 -0.5363  0.2387
  145TCq2    C8 2214   3.636   2.311   1.065  0.6217  0.0294 -0.1310
  145TCq2    O4 2215   3.751   2.303   1.107 -0.5290 -0.0523  0.1627
  145TCq2    C9 2216   3.826   2.111   0.676  0.4851 -0.3193  0.3376
  145TCq2    O5 2217   3.930   2.100   0.746 -0.1031  0.1528  0.6401
  145TCq2    O6 2218   3.815   2.061   0.562  0.2635 -0.2044 -0.5127
  145TCq2    H2 2219   3.574   2.095   0.596 -1.0681 -2.0540  0.5807
  145TCq2    H3 2220   3.817   2.201   0.916  0.7306  0.7740  1.0684
  145TCq2    H4 2221   3.396   2.236   0.965 -0.5530 -0.3709 -0.5753
  146TMC2    C1 2222   4.507   0.503  12.601  0.4696  0.2277  0.1497
  146TMC2    C2 2223   4.389   0.505  12.538  0.2150 -0.5334  0.0895
  146TMC2    C3 2224   4.378   0.437  12.421 -0.0009 -0.2303  0.0772
  146TMC2    C4 2225   4.614   0.433  12.562 -0.3256  0.2354  0.6809
  146TMC2    C5 2226   4.600   0.361  12.450  0.0313  0.2706  0.6242
  146TMC2    C6 2227   4.485   0.365  12.376 -0.4200 -0.1302  0.0520
  146TMC2     C 2228   4.510   0.578  12.725  0.5221 -0.1753  0.1073
  146TMC2     O 2229   4.453   0.688  12.726  0.3494  0.2028  0.1872
  146TMC2     H 2230   4.306   0.571  12.560 -1.0363 -2.3784  0.8815
  146TMC2    H1 2231   4.710   0.435  12.613 -0.3373 -0.2626  0.7295
  146TMC2    H2 2232   4.479   0.303  12.287  0.3051 -1.1454  0.7194
  146TMC2    C7 2233   4.713   0.289  12.386 -0.7305 -0.2306  0.1168
  146TMC2    C8 2234   4.244   0.409  12.381  0.4410  0.2729  0.1147
  146TMC2    O1 2235   4.723   0.303  12.265 -0.4917  0.3380  0.0666
  146TMC2    O2 2236   4.143   0.415  12.452  0.1631 -0.7641  0.1039
  146TMC2    O5 2237   4.258   0.367  12.251  0.4244  0.1477  0.2596
  146TMC2    H5 2238   4.345   0.393  12.214  0.0757 -3.4812 -3.1776
  147MPD2     C 2239   0.439   0.045  12.412  0.8251 -0.0574  0.2198
  147MPD2    C1 2240   0.405   0.086  12.540 -0.6358 -0.1965 -0.6241
  147MPD2    C2 2241   0.277   0.147  12.560  0.0180  0.7000 -0.5313
  147MPD2    C3 2242   0.187   0.154  12.456 -0.3254 -0.6674  0.1666
  147MPD2    C4 2243   0.225   0.108  12.332 -0.6631 -0.6244 -0.3563
  147MPD2    C5 2244   0.350   0.049  12.308 -0.6055  0.4324 -0.4296
  147MPD2     H 2245   0.250   0.195  12.653  3.5115 -2.6241  2.1954
  147MPD2    H1 2246   0.157   0.108  12.248 -2.4899 -1.3994  1.1274
  147MPD2    H2 2247   0.536   4.724  12.399  0.9376 -0.3665  2.0714
  147MPD2    H3 2248   0.377   0.019  12.208 -3.3936 -0.4809 -0.9084
  147MPD2     N 2249   0.073   0.232  12.474  0.1578 -0.3420  0.1870
  147MPD2    H5 2250   0.055   0.249  12.573  0.2925 -3.1116  0.6903
  147MPD2    N1 2251   0.508   0.075  12.642 -0.1394  0.3188  0.3604
  147MPD2    H7 2252   0.601   0.054  12.607 -0.1806 -1.3752  1.2307
  148MPD2     C 2253   1.075   3.750  11.338 -0.1483 -0.1609 -0.3748
  148MPD2    C1 2254   1.039   3.782  11.211  0.0479  0.5043  0.3936
  148MPD2    C2 2255   0.916   3.748  11.168  0.0959 -0.4174 -0.7625
  148MPD2    C3 2256   0.823   3.680  11.245 -0.3583 -0.1136  0.0573
  148MPD2    C4 2257   0.863   3.637  11.372 -0.2834  0.0486 -0.6510
  148MPD2    C5 2258   0.986   3.677  11.419 -0.2236 -0.4296 -0.9555
  148MPD2     H 2259   0.878   3.794  11.077 -0.2157  0.2056 -0.3162
  148MPD2    H1 2260   0.795   3.591  11.443  1.3421  1.0975  1.5694
  148MPD2    H2 2261   1.167   3.778  11.387 -0.3997  1.3872 -0.7954
  148MPD2    H3 2262   1.012   3.652  11.521 -3.5847 -0.0329  0.0025
  148MPD2     N 2263   0.693   3.647  11.201 -0.0176  0.1338  0.0020
  148MPD2    H5 2264   0.622   3.621  11.269  0.2085 -0.8241 -0.1313
  148MPD2    N1 2265   1.109   3.864  11.123  0.0391 -0.1953 -1.1202
  148MPD2    H7 2266   1.059   3.878  11.036  0.0346  2.6455 -0.6556
  149TCq2    C1 2267   1.216   3.948  11.159  0.0441 -0.4155 -0.0796
  149TCq2    O2 2268   1.284   3.947  11.260  0.3090  0.0663  0.4294
  149TCq2    C2 2269   1.258   4.039  11.043 -0.2329 -0.1124 -0.0001
  149TCq2    C3 2270   1.391   4.076  11.041  0.0102  0.3293  0.2585
  149TCq2    C4 2271   1.440   4.134  10.930  0.7572  0.6078  0.0045
  149TCq2    C5 2272   1.368   4.126  10.818 -0.0117  0.1595  0.0640
  149TCq2    C6 2273   1.238   4.087  10.818  0.2580 -0.3780  0.2527
  149TCq2    C7 2274   1.178   4.052  10.934  0.3854 -0.1028  1.0806
  149TCq2    C8 2275   1.174   4.047  10.694 -0.4822  0.6432  0.5294
  149TCq2    O4 2276   1.059   4.005  10.691  0.1206  0.6370 -0.9009
  149TCq2    C9 2277   1.582   4.155  10.915 -0.0938 -0.0254  0.2797
  149TCq2    O5 2278   1.611   4.239  10.828  0.0031 -0.3178 -0.3446
  149TCq2    O6 2279   1.662   4.121  11.003 -1.0679 -0.0501  0.2253
  149TCq2    H2 2280   1.462   4.066  11.123  1.0602 -0.5485 -0.7703
  149TCq2    H3 2281   1.428   4.136  10.728 -0.3379  1.5649  0.0095
  149TCq2    H4 2282   1.074   4.024  10.933  0.9796 -2.2992  1.5593
  150MPD2     C 2283   2.542   2.742  12.143 -0.5706  0.8916 -0.4809
  150MPD2    C1 2284   2.511   2.870  12.119  0.6559 -0.2927 -0.0146
  150MPD2    C2 2285   2.581   2.974  12.175 -0.4439 -0.3046 -0.7921
  150MPD2    C3 2286   2.691   2.945  12.262  0.1408  0.2117 -0.3452
  150MPD2    C4 2287   2.710   2.814  12.297 -0.8181 -0.6795  0.2963
  150MPD2    C5 2288   2.636   2.717  12.237  0.0333  0.3579 -0.1583
  150MPD2     H 2289   2.556   3.076  12.151 -0.9782 -0.7261 -2.0544
  150MPD2    H1 2290   2.792   2.784  12.362  0.5552 -0.2346 -1.2149
  150MPD2    H2 2291   2.489   2.658  12.101 -0.2318 -0.6560  2.1791
  150MPD2    H3 2292   2.657   2.614  12.261 -0.1468  0.2147 -0.6283
  150MPD2     N 2293   2.773   3.044  12.310  0.0465  0.1060 -0.5304
  150MPD2    H5 2294   2.729   3.135  12.305  0.3573  0.3165  0.6416
  150MPD2    N1 2295   2.391   2.898  12.037  0.3971 -0.1980 -0.6711
  150MPD2    H7 2296   2.332   2.820  12.009  0.0181 -0.3894  0.6494
  151TCq2    C1 2297   2.877   3.031  12.392  1.0516 -0.4213 -0.0014
  151TCq2    O2 2298   2.964   2.943  12.393  0.6176  0.1451  0.2743
  151TCq2    C2 2299   2.912   3.155  12.456  0.3517 -0.8103 -0.0607
  151TCq2    C3 2300   2.864   3.282  12.428  0.0756 -0.0596  0.5408
  151TCq2    C4 2301   2.942   3.389  12.458 -0.0833 -0.2906  0.2885
  151TCq2    C5 2302   3.066   3.379  12.514 -0.5196  0.5362 -0.3185
  151TCq2    C6 2303   3.106   3.256  12.552  0.0856 -0.3063  0.2319
  151TCq2    C7 2304   3.037   3.141  12.519  0.0947 -0.1220  1.1425
  151TCq2    C8 2305   3.248   3.257  12.597  0.0648 -0.0190 -0.2720
  151TCq2    O4 2306   3.314   3.354  12.556  0.3154 -0.2770 -0.1812
  151TCq2    C9 2307   2.901   3.525  12.425 -0.3786 -0.2044  0.5095
  151TCq2    O5 2308   2.778   3.537  12.386  0.1207 -0.4660  0.7595
  151TCq2    O6 2309   2.989   3.615  12.403 -0.1374  0.9242 -0.1188
  151TCq2    H2 2310   2.765   3.296  12.385  1.4958  0.5475 -2.5681
  151TCq2    H3 2311   3.122   3.467  12.540  1.3478 -0.5918 -0.5300
  151TCq2    H4 2312   3.079   3.045  12.550  0.5517 -0.3393 -0.1686
  152MPD2     C 2313   2.358   2.389  12.815  0.7473 -0.0361 -1.2347
  152MPD2    C1 2314   2.404   2.495  12.734  0.7125  0.2061 -0.5082
  152MPD2    C2 2315   2.308   2.572  12.672 -0.5330  0.5030 -0.3697
  152MPD2    C3 2316   2.173   2.545  12.698  0.1790 -0.6279  0.6694
  152MPD2    C4 2317   2.130   2.432  12.767  0.6493 -0.3282  0.5121
  152MPD2    C5 2318   2.225   2.355  12.829 -0.1873 -0.1522 -0.1529
  152MPD2     H 2319   2.322   2.658  12.607  0.4163 -0.4369 -1.4078
  152MPD2    H1 2320   2.029   2.406  12.798  0.4836  0.8413  0.9533
  152MPD2    H2 2321   2.426   2.328  12.874  1.4274 -1.3125 -3.3678
  152MPD2    H3 2322   2.183   2.268  12.879  0.8820 -0.8089 -0.3945
  152MPD2     N 2323   2.075   2.629  12.643 -0.1707 -0.5472  0.1012
  152MPD2    H5 2324   2.109   2.715  12.601  4.3156 -1.2787  2.2851
  152MPD2    N1 2325   2.539   2.515  12.735  0.4101  0.7140 -0.0205
  152MPD2    H7 2326   2.596   2.452  12.789  0.4113 -0.0333 -0.8848
  153TCq2    C1 2327   2.597   2.617  12.657  0.0869  0.5577  0.2822
  153TCq2    O2 2328   2.555   2.687  12.565 -0.6689 -0.3267 -0.9212
  153TCq2    C2 2329   2.734   2.639  12.688 -1.2216  0.4756 -0.1680
  153TCq2    C3 2330   2.789   2.562  12.792  0.3092 -0.1427 -0.5481
  153TCq2    C4 2331   2.886   2.623  12.869  0.0864  0.9908 -0.6185
  153TCq2    C5 2332   2.916   2.755  12.863 -0.5840 -0.2069  0.2456
  153TCq2    C6 2333   2.848   2.818  12.765  0.2596 -0.1881  0.0848
  153TCq2    C7 2334   2.762   2.768  12.674 -0.0360  0.0797 -0.2394
  153TCq2    C8 2335   2.863   2.961  12.754 -0.5972  0.1329 -0.3649
  153TCq2    O4 2336   2.767   3.014  12.697 -0.2796  0.4730  0.0826
  153TCq2    C9 2337   2.930   2.539  12.975  0.3125 -0.0473 -0.2408
  153TCq2    O5 2338   2.881   2.425  12.982 -0.1785 -0.5658 -0.1854
  153TCq2    O6 2339   3.002   2.593  13.065  0.1042  0.3576 -0.1925
  153TCq2    H2 2340   2.756   2.463  12.817  1.4115 -0.9812 -2.3597
  153TCq2    H3 2341   2.978   2.799  12.940 -0.4225 -0.8190  0.4685
  153TCq2    H4 2342   2.730   2.820  12.585 -1.6504  2.1234  1.5343
  154MPD2     C 2343   2.575   2.943   0.510 -0.6518 -1.1906  0.1650
  154MPD2    C1 2344   2.670   3.029   0.556 -0.0149 -0.4568 -0.1497
  154MPD2    C2 2345   2.635   3.161   0.566 -0.6403  0.8873  0.4908
  154MPD2    C3 2346   2.506   3.199   0.538  0.0378  0.4692 -0.5800
  154MPD2    C4 2347   2.418   3.119   0.481  0.6499  0.5381 -0.1786
  154MPD2    C5 2348   2.449   2.982   0.474  0.1706  0.3805 -0.2054
  154MPD2     H 2349   2.702   3.226   0.620  0.2800  1.1783 -0.9933
  154MPD2    H1 2350   2.323   3.145   0.435  0.7469 -0.3654 -0.8891
  154MPD2    H2 2351   2.599   2.838   0.497  0.6136 -0.9993  0.9422
  154MPD2    H3 2352   2.383   2.902   0.444  0.9057  0.1390 -1.1605
  154MPD2     N 2353   2.470   3.331   0.570 -0.0664  0.3344 -0.0045
  154MPD2    H5 2354   2.543   3.384   0.617  0.5651 -1.3048  0.8959
  154MPD2    N1 2355   2.801   2.978   0.599  0.2860 -0.1970 -0.5654
  154MPD2    H7 2356   2.811   2.877   0.606 -1.6849 -0.4587 -1.4802
  155TCq2    C1 2357   2.915   3.056   0.596 -0.6085 -0.0669 -0.1983
  155TCq2    O2 2358   2.922   3.175   0.570 -0.0800  0.8216 -0.0156
  155TCq2    C2 2359   3.036   2.982   0.619  0.0790  0.2858 -0.1796
  155TCq2    C3 2360   3.043   2.861   0.686  0.2062 -0.2248 -0.7953
  155TCq2    C4 2361   3.163   2.812   0.718  0.2837 -0.0407  0.2855
  155TCq2    C5 2362   3.279   2.867   0.687 -0.0386 -0.2424  0.1414
  155TCq2    C6 2363   3.271   2.994   0.634 -0.3087  0.3130 -0.3591
  155TCq2    C7 2364   3.152   3.054   0.599  0.2201  0.4069 -0.0269
  155TCq2    C8 2365   3.393   3.046   0.572 -0.3217 -0.0022 -0.1873
  155TCq2    O4 2366   3.393   3.164   0.541 -0.0860  0.4569 -0.4184
  155TCq2    C9 2367   3.172   2.692   0.795  1.0016 -0.3792 -0.5401
  155TCq2    O5 2368   3.063   2.662   0.851  0.3632 -0.5352  1.0851
  155TCq2    O6 2369   3.291   2.662   0.831 -0.4954 -0.6063  0.0910
  155TCq2    H2 2370   2.959   2.803   0.724 -0.0334  0.2158 -0.6588
  155TCq2    H3 2371   3.377   2.837   0.722  0.3940  1.8058  0.6697
  155TCq2    H4 2372   3.149   3.160   0.575  2.8320 -0.3033 -3.5103
  156MPD2     C 2373   2.649   0.381  11.904 -0.6625  0.4863  0.7633
  156MPD2    C1 2374   2.581   0.476  11.837 -0.3142  0.7347  0.2937
  156MPD2    C2 2375   2.555   0.597  11.899 -0.0415  0.5285 -0.0504
  156MPD2    C3 2376   2.605   0.622  12.025  0.6854  0.3398  0.1725
  156MPD2    C4 2377   2.676   0.528  12.094  0.2576 -0.0069  0.0527
  156MPD2    C5 2378   2.691   0.405  12.032  0.5698 -0.2920 -0.4960
  156MPD2     H 2379   2.487   0.669  11.855  0.3580  0.6021 -0.5312
  156MPD2    H1 2380   2.726   0.547  12.188  1.2250 -2.2051 -0.0123
  156MPD2    H2 2381   2.665   0.279  11.871 -1.4740  1.1862 -1.8368
  156MPD2    H3 2382   2.739   0.328  12.091 -0.0920 -1.4631 -1.5023
  156MPD2     N 2383   2.563   0.740  12.099 -0.5153  0.3937  1.1149
  156MPD2    H5 2384   2.499   0.793  12.041 -0.9912 -0.2487  1.0473
  156MPD2    N1 2385   2.535   0.438  11.717  0.5683 -0.1090  0.5252
  156MPD2    H7 2386   2.570   0.351  11.678 -2.3863 -0.7424 -0.7117
  157TCq2    C1 2387   2.462   0.519  11.631 -0.0287  0.1409  0.9922
  157TCq2    O2 2388   2.385   0.609  11.655 -0.2837 -0.1517 -0.3757
  157TCq2    C2 2389   2.468   0.473  11.494  0.4544 -0.3903 -0.1835
  157TCq2    C3 2390   2.547   0.371  11.458  0.2113 -1.0921 -0.2222
  157TCq2    C4 2391   2.582   0.346  11.322 -0.8455 -0.7211 -0.1706
  157TCq2    C5 2392   2.541   0.434  11.229 -0.2054 -0.2649 -0.8030
  157TCq2    C6 2393   2.462   0.542  11.271 -0.8570 -0.1972  0.1777
  157TCq2    C7 2394   2.423   0.566  11.401  0.0689  0.3248  0.1494
  157TCq2    C8 2395   2.438   0.641  11.172  0.1154  0.4806 -0.2313
  157TCq2    O4 2396   2.511   0.629  11.075 -0.0234  0.5418 -0.4267
  157TCq2    C9 2397   2.681   0.244  11.285 -0.2803 -0.6910 -0.3707
  157TCq2    O5 2398   2.762   0.224  11.377 -0.3269 -0.7002  0.4357
  157TCq2    O6 2399   2.688   0.227  11.160  0.0366 -0.6749 -0.2794
  157TCq2    H2 2400   2.600   0.308  11.530  0.6140 -0.1696  0.2842
  157TCq2    H3 2401   2.555   0.417  11.123  0.1707  0.6479 -0.8965
  157TCq2    H4 2402   2.363   0.650  11.436 -0.4944 -0.7459  1.7483
  158TMC2    C1 2403   3.118   0.028  13.364 -0.0095 -0.0443 -0.0874
  158TMC2    C2 2404   3.196   0.114  13.294 -0.3385  0.4997 -0.0341
  158TMC2    C3 2405   3.162   0.178  13.183 -0.1957 -0.5813 -0.1476
  158TMC2    C4 2406   2.983   0.016  13.332  0.2138  0.5612  0.2340
  158TMC2    C5 2407   2.940   0.091  13.231  0.0350 -0.1466  0.2354
  158TMC2    C6 2408   3.027   0.169  13.158  0.0234 -1.2518 -0.2063
  158TMC2     C 2409   3.173   4.683  13.482 -0.0026  0.2667 -0.5379
  158TMC2     O 2410   3.295   4.689  13.506 -0.5985 -0.3967  0.1843
  158TMC2     H 2411   3.296   0.113  13.336 -0.8211 -0.4973  1.0666
  158TMC2    H1 2412   2.919   4.667  13.382 -1.4209  0.4958 -1.9249
  158TMC2    H2 2413   2.984   0.232  13.080  3.1206 -0.7880 -1.5487
  158TMC2    C7 2414   2.810   0.064  13.173  0.3349  0.0920  0.5361
  158TMC2    C8 2415   3.220   0.304  13.159 -0.6540 -0.2241 -0.7984
  158TMC2    O1 2416   2.765   0.135  13.081  0.4550 -0.1309 -0.2488
  158TMC2    O2 2417   3.153   0.409  13.155 -0.1382  0.6896  0.5009
  158TMC2    O5 2418   3.343   0.297  13.199  0.3690 -0.2862 -0.0498
  158TMC2    H5 2419   3.389   0.214  13.177  0.7498 -0.1188  0.1089
  159MPD2     C 2420   3.123   4.422  13.921  0.6633  0.5410 -0.2473
  159MPD2    C1 2421   2.997   4.467  13.890  0.0381  0.0283 -0.3269
  159MPD2    C2 2422   2.971   4.519  13.765 -0.4360  0.3170 -0.4959
  159MPD2    C3 2423   3.084   4.544  13.681 -0.0244  0.5004 -0.0956
  159MPD2    C4 2424   3.212   4.503  13.717 -0.5803 -0.3356 -0.2793
  159MPD2    C5 2425   3.233   4.443  13.840  0.7853 -0.4421  0.2195
  159MPD2     H 2426   2.873   4.544  13.726 -0.3546 -1.9774 -2.1369
  159MPD2    H1 2427   3.297   4.513  13.651  0.3527 -1.5509  0.7371
  159MPD2    H2 2428   3.132   4.374  14.017  1.4563  2.1449  0.4818
  159MPD2    H3 2429   3.335   4.425  13.871  0.3055  0.6619  2.4058
  159MPD2     N 2430   3.071   4.616  13.556 -0.4470  0.2065  0.4008
  159MPD2    H5 2431   2.974   4.640  13.542 -0.6519 -0.8271  0.0620
  159MPD2    N1 2432   2.889   4.437  13.976  0.9630 -0.1843  0.5417
  159MPD2    H7 2433   2.916   4.372  14.049 -1.2166 -1.7686 -0.0584
  160TMC2    C1 2434   2.494   2.551   1.888  0.2006 -0.1021 -0.6941
  160TMC2    C2 2435   2.537   2.507   2.011 -0.0566 -1.2870  0.8899
  160TMC2    C3 2436   2.560   2.375   2.026  0.4860 -0.2305  0.8754
  160TMC2    C4 2437   2.468   2.467   1.781  1.1260  0.5201 -0.3410
  160TMC2    C5 2438   2.497   2.332   1.799 -0.3529 -0.5848  0.2655
  160TMC2    C6 2439   2.541   2.283   1.923  0.2025  0.3747  0.5708
  160TMC2     C 2440   2.467   2.691   1.865  0.1250  0.2980 -0.5762
  160TMC2     O 2441   2.539   2.763   1.931 -0.5638  0.5069 -0.4534
  160TMC2     H 2442   2.555   2.579   2.090  0.9873  0.1453 -0.6440
  160TMC2    H1 2443   2.442   2.519   1.690 -1.9477 -1.6049 -0.6794
  160TMC2    H2 2444   2.560   2.178   1.940 -2.7800 -0.5325 -1.7902
  160TMC2    C7 2445   2.497   2.241   1.686 -0.1980  0.0768  0.4745
  160TMC2    C8 2446   2.606   2.314   2.147 -0.6192  0.0245  0.1293
  160TMC2    O1 2447   2.562   2.135   1.701  0.8809  0.3567 -0.3530
  160TMC2    O2 2448   2.593   2.193   2.160 -0.2323  0.1914  0.0843
  160TMC2    O5 2449   2.680   2.389   2.226 -0.8542 -0.0763  0.1461
  160TMC2    H5 2450   2.699   2.479   2.192  0.6322  0.8017  3.2795
  161MPD2     C 2451   2.381   2.961   1.764  0.4976 -0.4725  0.2207
  161MPD2    C1 2452   2.319   2.839   1.729 -0.8555 -0.3040 -0.4063
  161MPD2    C2 2453   2.212   2.844   1.647  0.2551  0.0898 -0.3415
  161MPD2    C3 2454   2.164   2.963   1.594 -0.0500 -0.0259  0.4283
  161MPD2    C4 2455   2.221   3.080   1.631  0.4407  0.2108  0.8315
  161MPD2    C5 2456   2.330   3.079   1.717  0.4630  0.3509  0.0689
  161MPD2     H 2457   2.146   2.760   1.631  0.2733 -0.6413  3.4476
  161MPD2    H1 2458   2.184   3.180   1.610 -3.1094 -1.1967  0.5052
  161MPD2    H2 2459   2.463   2.964   1.834  0.5589  0.2923  0.1062
  161MPD2    H3 2460   2.374   3.172   1.750  2.8541 -0.4215 -0.8950
  161MPD2     N 2461   2.047   2.973   1.512 -0.5642  0.3933  0.5223
  161MPD2    H5 2462   2.015   3.068   1.499 -1.1112  0.3565  1.6142
  161MPD2    N1 2463   2.359   2.711   1.786 -0.4885 -0.0682  0.4207
  161MPD2    H7 2464   2.303   2.630   1.764  2.0917 -1.7418 -0.0582
  162TMC2    C1 2465   0.079   4.354   0.913  1.2362 -0.6258 -1.1208
  162TMC2    C2 2466   0.050   4.329   0.781 -0.1818  0.3289 -0.3097
  162TMC2    C3 2467   4.642   4.298   0.748 -0.1669  1.0200 -0.0452
  162TMC2    C4 2468   4.704   4.358   1.007 -0.1487  0.6349  0.1923
  162TMC2    C5 2469   4.569   4.334   0.967 -0.1607 -1.0249 -0.3741
  162TMC2    C6 2470   4.540   4.294   0.840 -0.1274  0.6522  0.1361
  162TMC2     C 2471   0.211   4.309   0.951  0.3837  0.5499  0.3057
  162TMC2     O 2472   0.303   4.339   0.879  0.1724  0.3176  0.0035
  162TMC2     H 2473   0.132   4.334   0.710 -0.5847 -2.1627 -0.9466
  162TMC2    H1 2474   0.007   4.385   1.109 -0.1004  0.4520  0.2292
  162TMC2    H2 2475   4.440   4.275   0.803  0.2142 -0.6371 -0.1431
  162TMC2    C7 2476   4.462   4.332   1.061 -0.4224 -0.3240  0.6585
  162TMC2    C8 2477   4.615   4.342   0.616  0.3926  0.6277  0.3106
  162TMC2    O1 2478   4.347   4.318   1.016 -0.0014 -0.3300 -0.5911
  162TMC2    O2 2479   4.686   4.424   0.558 -0.1906  0.5292  0.5405
  162TMC2    O5 2480   4.485   4.322   0.583 -0.4377  0.3387  0.1719
  162TMC2    H5 2481   4.451   4.233   0.605  1.3421 -0.5143 -0.4799
  163MPD2     C 2482   0.508   3.966   1.189 -0.1967  0.1348  0.1566
  163MPD2    C1 2483   0.517   4.028   1.063 -0.4740  0.3139  0.4608
  163MPD2    C2 2484   0.425   4.129   1.034  0.3329 -0.3811  0.4095
  163MPD2    C3 2485   0.312   4.151   1.113 -0.3569 -0.0546 -0.0944
  163MPD2    C4 2486   0.298   4.087   1.227 -0.0938 -0.2327 -0.5017
  163MPD2    C5 2487   0.398   4.002   1.269  0.5728 -0.2678 -0.2178
  163MPD2     H 2488   0.441   4.163   0.932  0.0892 -0.8422  0.2201
  163MPD2    H1 2489   0.219   4.107   1.298 -0.1468  1.4373 -1.0240
  163MPD2    H2 2490   0.571   3.883   1.221 -1.0670  0.5599  2.9899
  163MPD2    H3 2491   0.377   3.956   1.365  1.2398 -0.6398 -0.2472
  163MPD2     N 2492   0.212   4.235   1.069  1.2284  0.3622 -0.6610
  163MPD2    H5 2493   0.122   4.230   1.116  0.1617  0.6810 -2.6436
  163MPD2    N1 2494   0.614   3.972   0.972  0.2979 -0.2413  0.7778
  163MPD2    H7 2495   0.669   3.889   0.989  1.2695  0.1416 -0.5288
  164TCq2    C1 2496   1.605   4.059  11.374  0.3474 -0.6361  0.1505
  164TCq2    O2 2497   1.573   4.015  11.487 -0.4493 -0.1089  0.7179
  164TCq2    C2 2498   1.545   4.194  11.361  0.0878 -0.1242  0.6400
  164TCq2    C3 2499   1.608   4.274  11.274  0.0908  0.3974  0.4781
  164TCq2    C4 2500   1.539   4.374  11.213  0.5156 -0.4894  0.3861
  164TCq2    C5 2501   1.405   4.386  11.245 -0.2337  0.3895 -0.3834
  164TCq2    C6 2502   1.345   4.302  11.339  0.8096 -0.2913  0.0952
  164TCq2    C7 2503   1.413   4.206  11.401  0.1077 -0.1892  0.1827
  164TCq2    C8 2504   1.201   4.312  11.355 -0.5534  0.2642  0.4697
  164TCq2    O4 2505   1.130   4.339  11.259  0.2690 -0.3725  0.4828
  164TCq2    C9 2506   1.599   4.454  11.110  0.0272  0.0717  0.3201
  164TCq2    O5 2507   1.716   4.432  11.076 -0.3723 -0.1538 -0.2388
  164TCq2    O6 2508   1.539   4.563  11.094  0.3153 -0.7501  0.5042
  164TCq2    H2 2509   1.713   4.262  11.249 -1.2826 -3.6013 -3.2582
  164TCq2    H3 2510   1.341   4.455  11.192 -2.2694 -0.1373  1.3585
  164TCq2    H4 2511   1.376   4.142  11.480  1.6251 -1.6528 -0.2816
  165MPD2     C 2512   2.199   0.443   1.612 -0.3232  0.0450 -0.9106
  165MPD2    C1 2513   2.151   0.506   1.500 -0.4089 -0.0052 -0.0940
  165MPD2    C2 2514   2.223   0.612   1.431  0.7485  0.0628  0.1254
  165MPD2    C3 2515   2.334   0.664   1.500  0.0005  0.4816  0.1845
  165MPD2    C4 2516   2.377   0.606   1.619  0.7440  0.0971  0.2867
  165MPD2    C5 2517   2.316   0.490   1.670 -0.4529  0.0216  0.4365
  165MPD2     H 2518   2.185   0.664   1.344 -0.5379  1.2912  1.4269
  165MPD2    H1 2519   2.455   0.650   1.679  1.3813  0.2038 -0.6251
  165MPD2    H2 2520   2.147   0.355   1.647 -0.5527  1.8719  3.3104
  165MPD2    H3 2521   2.353   0.437   1.757  0.9504 -1.1683 -0.8862
  165MPD2     N 2522   2.418   0.770   1.447 -0.4296 -0.6209  0.0425
  165MPD2    H5 2523   2.494   0.791   1.512  1.2449  0.4877 -2.2868
  165MPD2    N1 2524   2.031   0.447   1.459 -0.4222 -0.2071 -0.1362
  165MPD2    H7 2525   1.992   0.380   1.524  0.7379 -0.1083  0.6581
  166TCq2    C1 2526   2.407   0.836   1.326 -0.7706 -0.6078  0.5303
  166TCq2    O2 2527   2.315   0.830   1.246 -0.9527 -0.3083 -0.6480
  166TCq2    C2 2528   2.530   0.915   1.299  0.4257  0.5020 -0.2392
  166TCq2    C3 2529   2.643   0.892   1.381  0.1120 -1.1203  0.0726
  166TCq2    C4 2530   2.745   0.983   1.368  0.5583 -0.3253  0.6323
  166TCq2    C5 2531   2.732   1.096   1.288  0.1572 -0.0482  0.1917
  166TCq2    C6 2532   2.622   1.115   1.210 -0.0190 -0.0728  0.0222
  166TCq2    C7 2533   2.520   1.028   1.220  0.3018  0.3780 -0.1885
  166TCq2    C8 2534   2.597   1.250   1.165 -0.5052  0.9437  0.1067
  166TCq2    O4 2535   2.701   1.317   1.144  0.2608 -0.1965 -0.0492
  166TCq2    C9 2536   2.861   0.967   1.453 -0.5337 -0.2399 -0.3252
  166TCq2    O5 2537   2.862   0.867   1.524 -0.5699  0.5080  0.0289
  166TCq2    O6 2538   2.947   1.057   1.447 -0.3092  0.0270  1.1085
  166TCq2    H2 2539   2.658   0.799   1.434 -0.0578 -0.2892  1.6011
  166TCq2    H3 2540   2.823   1.153   1.274  0.0180  0.1559  0.1295
  166TCq2    H4 2541   2.427   1.040   1.165  1.0987 -0.3445 -1.6930
  167TMC2    C1 2542   0.371   4.052  12.920  0.0773 -0.7475  0.0257
  167TMC2    C2 2543   0.285   4.049  13.027  0.2142  0.1011 -0.0098
  167TMC2    C3 2544   0.269   3.934  13.098 -0.3383 -0.8034 -0.7323
  167TMC2    C4 2545   0.437   3.942  12.882 -0.2591 -0.1854 -0.5497
  167TMC2    C5 2546   0.412   3.824  12.954 -0.1707 -0.2604  0.0788
  167TMC2    C6 2547   0.331   3.821  13.068 -0.3784 -0.3242  0.2033
  167TMC2     C 2548   0.382   4.176  12.844 -0.1115 -0.0019  1.2186
  167TMC2     O 2549   0.367   4.278  12.907  0.5106 -0.0966  0.0740
  167TMC2     H 2550   0.232   4.137  13.061  1.2182  0.9158 -0.5589
  167TMC2    H1 2551   0.499   3.948  12.793 -1.2616 -0.3250 -1.2655
  167TMC2    H2 2552   0.305   3.728  13.118  1.3882 -1.3796 -0.8530
  167TMC2    C7 2553   0.444   3.699  12.895 -0.3214  0.2985  0.0834
  167TMC2    C8 2554   0.157   3.936  13.200  0.7407  0.3356  0.1449
  167TMC2    O1 2555   0.378   3.604  12.940  0.1581  0.0638  0.0520
  167TMC2    O2 2556   0.063   4.014  13.189 -0.4659  0.0375 -0.2496
  167TMC2    O5 2557   0.185   3.855  13.301  0.7834  0.1729  0.1032
  167TMC2    H5 2558   0.280   3.835  13.296  0.6237 -0.6494  0.4236
  168MPD2     C 2559   0.342   4.390  12.646  0.9834  0.7696  0.2160
  168MPD2    C1 2560   0.386   4.261  12.616 -0.4651  0.4691 -0.9314
  168MPD2    C2 2561   0.404   4.228  12.491  0.4010  0.5733  0.1261
  168MPD2    C3 2562   0.367   4.314  12.390  0.3059 -0.4536  1.0030
  168MPD2    C4 2563   0.310   4.439  12.419 -0.2647  0.6823 -0.7585
  168MPD2    C5 2564   0.299   4.471  12.548 -0.2638  0.6628 -0.9396
  168MPD2     H 2565   0.437   4.130  12.461  1.1158 -0.1783  3.4568
  168MPD2    H1 2566   0.281   4.500  12.335 -0.3984  0.6422 -0.7416
  168MPD2    H2 2567   0.340   4.436  12.744 -3.3298  0.0804  0.4694
  168MPD2    H3 2568   0.284   4.575  12.576  2.1574  1.3202 -2.0827
  168MPD2     N 2569   0.368   4.255  12.263 -0.4030 -0.1555  0.6871
  168MPD2    H5 2570   0.401   4.159  12.259 -0.6590 -0.3255  2.6015
  168MPD2    N1 2571   0.396   4.156  12.710  0.0453  0.4655 -0.3381
  168MPD2    H7 2572   0.424   4.068  12.667 -0.8739  0.5632 -1.1228
  169MPD1     C 2573   1.964   3.087   9.658  0.1512  0.1610  0.3109
  169MPD1    C1 2574   2.015   2.968   9.705  0.0071  0.0615  0.6375
  169MPD1    C2 2575   2.135   2.920   9.664 -0.9092 -0.5217 -0.4766
  169MPD1    C3 2576   2.218   2.996   9.585 -0.4229  0.5999  0.0598
  169MPD1    C4 2577   2.176   3.125   9.555 -0.5456 -0.0082 -0.1989
  169MPD1    C5 2578   2.044   3.167   9.586 -0.0047 -0.0496  0.3560
  169MPD1     H 2579   2.175   2.827   9.705  0.8205  1.2422  1.8369
  169MPD1    H1 2580   2.234   3.197   9.498 -0.9548 -0.3757 -1.0837
  169MPD1    H2 2581   1.870   3.128   9.693  0.3181  2.7738 -2.3199
  169MPD1    H3 2582   2.006   3.264   9.556  1.8825 -0.8257 -4.5054
  169MPD1     N 2583   2.344   2.942   9.547 -0.0002  0.4572 -0.2026
  169MPD1    H5 2584   2.366   2.848   9.579 -2.3842 -0.6944 -1.9567
  169MPD1    N1 2585   1.929   2.885   9.779  0.0958  0.0062  0.2118
  169MPD1    H6 2586   1.865   2.947   9.828  1.4934  1.1224  0.6178
  169MPD1    H7 2587   1.980   2.826   9.844 -2.9463  1.4453  3.9133
  170MPD1     C 2588   1.900   0.945  13.305 -1.1854  0.0188  0.6900
  170MPD1    C1 2589   1.810   1.000  13.218 -0.6171  0.4005  0.0230
  170MPD1    C2 2590   1.729   1.108  13.269  0.8168 -0.6045  0.0056
  170MPD1    C3 2591   1.742   1.141  13.406  0.0320  0.6101  0.2124
  170MPD1    C4 2592   1.823   1.068  13.488  0.1683 -0.2710 -0.3238
  170MPD1    C5 2593   1.903   0.968  13.440 -0.1754 -0.1387  0.2952
  170MPD1     H 2594   1.662   1.164  13.205 -0.5951 -1.9310  0.3313
  170MPD1    H1 2595   1.852   1.101  13.587  1.4520  1.1936 -1.1969
  170MPD1    H2 2596   1.968   0.870  13.267  1.8453  2.0612  2.1715
  170MPD1    H3 2597   1.973   0.926  13.512 -0.3700  0.2457  0.7053
  170MPD1     N 2598   1.659   1.244  13.454  0.1716 -0.7358 -0.2551
  170MPD1    H5 2599   1.595   1.287  13.389  0.2506  1.3839  1.0751
  170MPD1    N1 2600   1.817   0.985  13.078 -0.0215  0.6063 -0.3647
  170MPD1    H6 2601   1.729   1.008  13.033 -0.2104 -0.8336 -0.7479
  170MPD1    H7 2602   1.846   0.891  13.053  1.4663  1.3161 -1.2863
  171MPD1     C 2603   4.643   2.876  15.709  0.3322  0.2975  0.8480
  171MPD1    C1 2604   4.611   2.773  15.623  0.1437 -0.3305 -0.2138
  171MPD1    C2 2605   4.653   2.645  15.656 -0.2760  0.0161  0.4267
  171MPD1    C3 2606   4.699   2.625  15.783 -0.2804 -1.0199  0.1813
  171MPD1    C4 2607   4.714   2.722  15.876  0.2900  0.0815  0.1052
  171MPD1    C5 2608   4.686   2.848  15.838  0.3487 -0.1508  1.0487
  171MPD1     H 2609   4.638   2.564  15.585  0.7627 -0.4142  0.6971
  171MPD1    H1 2610   0.015   2.710  15.981 -1.2969  0.7774  0.5643
  171MPD1    H2 2611   4.634   2.978  15.675  0.5644  0.3968  1.0881
  171MPD1    H3 2612   4.699   2.934  15.903  1.6329 -0.5963  1.3768
  171MPD1     N 2613   0.014   2.500  15.833  0.7422  0.0206 -0.4331
  171MPD1    H5 2614   0.051   2.500  15.927 -0.7246 -0.3237  0.1519
  171MPD1    N1 2615   4.586   2.808  15.488  0.1987 -0.0283  0.6894
  171MPD1    H6 2616   4.530   2.736  15.444  3.2468 -0.3890 -2.6356
  171MPD1    H7 2617   4.546   2.902  15.485 -1.3848 -0.6965  1.1774
  172MPD1     C 2618   3.299   2.324  17.275  1.4974 -0.2117 -0.0848
  172MPD1    C1 2619   3.180   2.274  17.319 -0.8441 -0.0368 -0.2255
  172MPD1    C2 2620   3.172   2.260  17.463  0.4819 -0.1475  0.3288
  172MPD1    C3 2621   3.287   2.289  17.543 -0.0082 -0.4391 -1.4306
  172MPD1    C4 2622   3.411   2.309  17.481 -0.2291  0.4618 -0.0036
  172MPD1    C5 2623   3.413   2.328  17.350 -0.1126 -0.3656 -0.7455
  172MPD1     H 2624   3.075   2.245  17.510  0.5428 -1.1376  0.1432
  172MPD1    H1 2625   3.503   2.316  17.538 -2.0228  1.1844  2.7479
  172MPD1    H2 2626   3.310   2.351  17.171 -0.3772 -0.4462 -0.3277
  172MPD1    H3 2627   3.512   2.350  17.311 -0.6636 -0.2139 -2.0628
  172MPD1     N 2628   3.286   2.275  17.681 -0.6495  0.3878  0.1295
  172MPD1    H5 2629   3.377   2.277   0.028 -0.4651  1.2262 -0.2822
  172MPD1    N1 2630   3.061   2.276  17.240  0.3262 -0.3189  0.0649
  172MPD1    H6 2631   3.083   2.248  17.144 -1.6735 -0.1598 -0.4498
  172MPD1    H7 2632   2.991   2.209  17.272 -0.6160  0.7416  0.2342
  173MPD1     C 2633   0.217   1.894  14.506 -0.2394  0.1655  0.2587
  173MPD1    C1 2634   0.220   1.837  14.382 -0.1182  0.0976 -0.2877
  173MPD1    C2 2635   0.196   1.702  14.385 -0.0590  0.5753  0.9757
  173MPD1    C3 2636   0.153   1.638  14.499 -0.6606 -0.2837  0.1415
  173MPD1    C4 2637   0.128   1.706  14.618  0.3283 -0.5089  0.2787
  173MPD1    C5 2638   0.171   1.834  14.623 -0.2118 -0.6122 -0.3224
  173MPD1     H 2639   0.213   1.654  14.289  0.2918  1.8763  0.3862
  173MPD1    H1 2640   0.101   1.652  14.708  0.5080  1.1191  1.2930
  173MPD1    H2 2641   0.264   1.990  14.520  1.4373 -0.5687 -0.4193
  173MPD1    H3 2642   0.178   1.893  14.714 -1.3687 -0.4047 -0.3742
  173MPD1     N 2643   0.120   1.501  14.481 -0.0636  0.3634 -0.4128
  173MPD1    H5 2644   0.125   1.464  14.387 -3.5617  0.2699 -0.5656
  173MPD1    N1 2645   0.300   1.898  14.284 -0.0066 -0.3802  0.6129
  173MPD1    H6 2646   0.299   2.000  14.289  1.0765 -0.4473  2.3824
  173MPD1    H7 2647   0.284   1.865  14.189  1.2937 -0.1192  0.3021
  174MPD1     C 2648   0.548   0.959  14.035  0.5813 -0.1000  0.5946
  174MPD1    C1 2649   0.491   0.876  14.128 -0.6191 -0.0838  0.1664
  174MPD1    C2 2650   0.381   0.925  14.200 -0.8191 -0.9500 -0.4993
  174MPD1    C3 2651   0.335   1.050  14.184 -0.1270  0.8979  0.1030
  174MPD1    C4 2652   0.388   1.132  14.082 -0.7717 -0.0997 -0.6468
  174MPD1    C5 2653   0.500   1.082  14.010  0.2824  0.2451 -0.0220
  174MPD1     H 2654   0.333   0.853  14.266 -2.1470  1.1442  0.8190
  174MPD1    H1 2655   0.350   1.231  14.060 -1.0312  0.0903  0.6828
  174MPD1    H2 2656   0.641   0.937  13.984  1.1924  1.3289  1.0792
  174MPD1    H3 2657   0.542   1.146  13.934 -0.0114 -0.6920 -0.9644
  174MPD1     N 2658   0.221   1.097  14.250  0.5975  0.1079  0.3819
  174MPD1    H5 2659   0.197   1.195  14.249 -0.6883 -0.2072 -0.4307
  174MPD1    N1 2660   0.533   0.742  14.142  0.1629  0.1072 -0.1966
  174MPD1    H6 2661   0.513   0.719  14.239 -1.3518  0.1429 -0.5072
  174MPD1    H7 2662   0.634   0.737  14.128  0.0433 -2.9492  0.0083
  175MPD1     C 2663   3.647   2.472  15.177  0.6471 -0.0397  0.3496
  175MPD1    C1 2664   3.745   2.467  15.274 -0.1579 -0.8004 -0.2653
  175MPD1    C2 2665   3.705   2.485  15.404  0.1404 -0.0235 -0.2870
  175MPD1    C3 2666   3.572   2.481  15.437  0.4305 -0.1344 -0.1391
  175MPD1    C4 2667   3.476   2.475  15.343 -0.3242  0.2345  0.0522
  175MPD1    C5 2668   3.514   2.468  15.209 -0.1274 -0.0720 -0.1228
  175MPD1     H 2669   3.782   2.488  15.481  1.7843 -0.7620 -1.9119
  175MPD1    H1 2670   3.372   2.478  15.374 -0.7084 -3.2934 -0.9230
  175MPD1    H2 2671   3.668   2.482  15.071  0.3072 -1.8129  0.1115
  175MPD1    H3 2672   3.441   2.457  15.129  0.9401  1.7094 -1.3722
  175MPD1     N 2673   3.526   2.481  15.571  0.1323  0.1612 -0.4683
  175MPD1    H5 2674   3.437   2.529  15.583  0.5088  1.3910 -2.6041
  175MPD1    N1 2675   3.882   2.466  15.230  0.1804  0.1812  0.4615
  175MPD1    H6 2676   3.895   2.422  15.139 -0.6623  2.2360 -0.6657
  175MPD1    H7 2677   3.951   2.429  15.295  0.8994 -1.1413 -1.0417
  176MPD1     C 2678   0.364   4.074  17.535 -0.8741 -0.7227 -0.2948
  176MPD1    C1 2679   0.383   4.195  17.593 -0.3107  0.6484 -0.6425
  176MPD1    C2 2680   0.335   4.305  17.528  0.4955  0.3005  0.2018
  176MPD1    C3 2681   0.273   4.295  17.405 -0.2004  0.2391  0.0179
  176MPD1    C4 2682   0.270   4.175  17.335  0.1754  0.1912 -0.4751
  176MPD1    C5 2683   0.325   4.065  17.403 -0.3074 -0.7983  0.2731
  176MPD1     H 2684   0.333   4.397  17.586 -0.3846 -0.5717  1.5596
  176MPD1    H1 2685   0.227   4.174  17.236 -0.4675  0.0810 -0.1974
  176MPD1    H2 2686   0.384   3.982  17.588  1.6040 -0.4760 -0.7797
  176MPD1    H3 2687   0.319   3.971  17.350 -0.4281 -0.7807  0.2563
  176MPD1     N 2688   0.229   4.406  17.345 -0.3211  0.3748  0.3054
  176MPD1    H5 2689   0.171   4.398  17.262 -3.0102 -1.8155  2.3861
  176MPD1    N1 2690   0.402   4.196   0.028  0.1075 -0.3334 -0.9005
  176MPD1    H6 2691   0.433   4.286   0.066 -0.4507 -0.6223  0.2557
  176MPD1    H7 2692   0.463   4.119   0.054 -2.0131 -1.6318  0.2112
  177MPD1     C 2693   4.082   3.826   9.712 -0.2199 -0.2831 -0.0243
  177MPD1    C1 2694   3.952   3.776   9.712  0.7453 -0.1286 -0.1869
  177MPD1    C2 2695   3.859   3.862   9.656 -0.7125  0.1369  0.4116
  177MPD1    C3 2696   3.890   3.977   9.580 -0.2409  0.4864 -0.1350
  177MPD1    C4 2697   4.017   4.015   9.578 -0.2150 -0.1645 -0.9833
  177MPD1    C5 2698   4.114   3.948   9.654  0.4031  0.3953  0.4467
  177MPD1     H 2699   3.758   3.823   9.648 -1.8178  2.7907  1.5797
  177MPD1    H1 2700   4.041   4.109   9.529 -1.0894  2.1339  3.0414
  177MPD1    H2 2701   4.163   3.776   9.764  0.0080 -0.3404 -0.4386
  177MPD1    H3 2702   4.216   3.982   9.667 -0.3084  1.7781  2.4773
  177MPD1     N 2703   3.778   4.033   9.513  0.4465 -0.5230  0.0715
  177MPD1    H5 2704   3.686   3.998   9.537  0.8242 -2.1757 -0.8684
  177MPD1    N1 2705   3.910   3.672   9.790  0.3386 -0.0802  0.9586
  177MPD1    H6 2706   3.982   3.600   9.794  0.6288  0.0016 -2.3296
  177MPD1    H7 2707   3.819   3.630   9.771  0.4907 -0.3139  0.7457
  178MPD1     C 2708   0.594   0.606   0.222 -0.0920  0.0035  0.3255
  178MPD1    C1 2709   0.713   0.677   0.218  0.6075  0.4959 -0.2434
  178MPD1    C2 2710   0.819   0.629   0.143  0.3083  0.1166  0.1440
  178MPD1    C3 2711   0.811   0.513   0.071  0.0121  0.0775 -0.0113
  178MPD1    C4 2712   0.691   0.450   0.065  0.1286 -0.7713 -0.2465
  178MPD1    C5 2713   0.590   0.494   0.139 -0.6419  0.2135 -0.0556
  178MPD1     H 2714   0.917   0.675   0.156 -0.1892  1.5561 -1.1261
  178MPD1    H1 2715   0.673   0.373  17.688 -1.6102  0.5657 -1.2000
  178MPD1    H2 2716   0.507   0.628   0.282  0.3105 -0.8762  1.2386
  178MPD1    H3 2717   0.488   0.459   0.125 -0.3452 -0.2265 -1.1063
  178MPD1     N 2718   0.918   0.457  17.693  0.3757 -0.0694 -0.1085
  178MPD1    H5 2719   0.890   0.373  17.643  0.8177  0.7520 -1.7317
  178MPD1    N1 2720   0.729   0.795   0.284 -0.3603  0.5055 -0.5265
  178MPD1    H6 2721   0.651   0.822   0.343 -0.6575  1.2808 -1.2752
  178MPD1    H7 2722   0.816   0.816   0.333 -0.7767  1.2377 -0.1048
  179MPD1     C 2723   0.507   3.628  16.392 -0.0631 -0.1470  0.3025
  179MPD1    C1 2724   0.573   3.507  16.381 -0.4315  0.4956 -0.3757
  179MPD1    C2 2725   0.549   3.432  16.264 -0.1898  0.0434  0.7159
  179MPD1    C3 2726   0.447   3.458  16.171  0.1599  0.0539 -0.1735
  179MPD1    C4 2727   0.376   3.582  16.196  0.1323 -0.7662 -0.1874
  179MPD1    C5 2728   0.408   3.659  16.306  0.0989 -0.2314 -0.5549
  179MPD1     H 2729   0.622   3.354  16.250  0.5617  0.5902  1.5996
  179MPD1    H1 2730   0.291   3.620  16.140  0.7753 -0.2738 -0.8235
  179MPD1    H2 2731   0.517   3.704  16.469 -0.1821  0.5892 -0.4069
  179MPD1    H3 2732   0.352   3.747  16.336  1.8435  0.4146  0.8018
  179MPD1     N 2733   0.413   3.377  16.061  0.1346  0.0397 -0.2830
  179MPD1    H5 2734   0.340   3.420  16.004 -1.7058 -1.6358  0.8079
  179MPD1    N1 2735   0.694   3.489  16.451 -0.1249 -0.1418  0.1982
  179MPD1    H6 2736   0.689   3.525  16.546  0.4862 -1.0056  0.5607
  179MPD1    H7 2737   0.723   3.393  16.468  0.3908  0.0674  0.5049
  180MPD1     C 2738   1.211   0.757  14.725 -0.0817  0.2635  0.2744
  180MPD1    C1 2739   1.147   0.817  14.624 -0.3535 -0.3490  0.5668
  180MPD1    C2 2740   1.045   0.748  14.572 -0.1671  0.7800  0.1577
  180MPD1    C3 2741   1.015   0.616  14.596 -0.0472  0.1941 -0.1881
  180MPD1    C4 2742   1.089   0.555  14.700 -0.2019  0.4359  0.4763
  180MPD1    C5 2743   1.184   0.631  14.762 -0.4981  0.1027  0.3494
  180MPD1     H 2744   0.983   0.801  14.501 -0.9025  0.8119  0.8234
  180MPD1    H1 2745   1.087   0.449  14.722  0.3773  0.2406 -0.3991
  180MPD1    H2 2746   1.303   0.801  14.761  0.4254 -1.1026  0.6434
  180MPD1    H3 2747   1.245   0.591  14.842 -0.3266 -0.5870 -0.1210
  180MPD1     N 2748   0.911   0.549  14.529  0.8203 -0.2122 -0.5259
  180MPD1    H5 2749   0.851   0.593  14.461 -0.5014 -0.5574  0.4219
  180MPD1    N1 2750   1.170   0.949  14.599  0.0449  0.3382  0.2291
  180MPD1    H6 2751   1.266   0.973  14.625  0.3721 -0.4498 -0.2312
  180MPD1    H7 2752   1.172   0.967  14.499 -1.5599 -1.1149 -0.0578
  181MPD1     C 2753   2.675   0.656   9.586 -0.0524 -0.1766  0.1498
  181MPD1    C1 2754   2.629   0.766   9.654  0.3804 -0.2583 -0.2603
  181MPD1    C2 2755   2.717   0.868   9.681  1.0199 -0.9219  0.4539
  181MPD1    C3 2756   2.854   0.868   9.644 -0.1886 -0.3279  0.3468
  181MPD1    C4 2757   2.898   0.763   9.574 -0.1103  0.2427 -0.3862
  181MPD1    C5 2758   2.809   0.656   9.557  0.5233  1.0208 -0.2810
  181MPD1     H 2759   2.692   0.938   9.759  0.3313 -0.2217 -0.4049
  181MPD1    H1 2760   2.995   0.754   9.527 -0.2074 -0.3294 -0.4824
  181MPD1    H2 2761   2.617   0.569   9.561  0.3717 -0.4216  0.0263
  181MPD1    H3 2762   2.844   0.564   9.512  3.5869  0.8585  2.5000
  181MPD1     N 2763   2.943   0.975   9.671 -0.4704 -0.3083  0.0688
  181MPD1    H5 2764   3.040   0.967   9.640  0.4944  1.1336  2.6778
  181MPD1    N1 2765   2.500   0.764   9.714  0.7318  0.1961  0.6080
  181MPD1    H6 2766   2.474   0.862   9.721  1.4918  0.5024 -0.8613
  181MPD1    H7 2767   2.427   0.716   9.662 -0.1269 -0.8583  2.7896
  182MPD1     C 2768   3.222   1.390   1.528 -0.2744 -0.1395 -0.0338
  182MPD1    C1 2769   3.297   1.282   1.471  0.1753  0.1144  0.0159
  182MPD1    C2 2770   3.258   1.237   1.344 -0.0993 -0.3095 -0.4034
  182MPD1    C3 2771   3.172   1.318   1.260 -0.0361 -0.0489  0.4839
  182MPD1    C4 2772   3.101   1.420   1.322  0.0534 -0.2565 -0.0070
  182MPD1    C5 2773   3.124   1.450   1.454 -1.3494 -0.2460  0.4152
  182MPD1     H 2774   3.295   1.146   1.298 -1.3116 -0.4224 -1.1357
  182MPD1    H1 2775   3.035   1.487   1.268 -2.9263 -1.1627  2.5501
  182MPD1    H2 2776   3.229   1.421   1.631 -0.6234  0.8246 -0.3055
  182MPD1    H3 2777   3.066   1.531   1.497  1.3019  0.8656  1.8875
  182MPD1     N 2778   3.135   1.285   1.133  0.2156  0.2619  0.3422
  182MPD1    H5 2779   3.052   1.332   1.098 -0.9935 -0.0996  2.6818
  182MPD1    N1 2780   3.380   1.199   1.544 -0.7703  0.2699 -0.5764
  182MPD1    H6 2781   3.448   1.154   1.482  1.0221  2.0798  0.0896
  182MPD1    H7 2782   3.433   1.256   1.609  0.9760 -0.4258 -1.3882
  183MPD1     C 2783   4.487   2.939   9.849  0.6295  0.2394  0.5587
  183MPD1    C1 2784   4.540   2.835   9.917  0.2438  0.4864  0.4610
  183MPD1    C2 2785   4.472   2.719   9.908  0.3034 -0.0131  0.2741
  183MPD1    C3 2786   4.346   2.707   9.852  1.0939  0.1846 -1.1469
  183MPD1    C4 2787   4.286   2.816   9.791 -0.2783  0.3795  0.0632
  183MPD1    C5 2788   4.363   2.928   9.791 -0.0898 -0.0801 -1.0556
  183MPD1     H 2789   4.514   2.635   9.962  4.3341  1.2386 -0.9078
  183MPD1    H1 2790   4.189   2.817   9.744  0.1389 -1.5384 -0.8030
  183MPD1    H2 2791   4.543   3.032   9.847  1.6302 -0.2920  2.9973
  183MPD1    H3 2792   4.324   3.014   9.738  0.6351  0.9371  0.0881
  183MPD1     N 2793   4.291   2.576   9.866  0.4240  0.3793 -0.0478
  183MPD1    H5 2794   4.337   2.500   9.915  0.6463  1.1574  0.9526
  183MPD1    N1 2795   4.678   2.843   9.959  0.3524  0.0626 -0.2995
  183MPD1    H6 2796   4.687   2.795  10.049 -1.0001 -0.3847 -0.4019
  183MPD1    H7 2797   4.715   2.937   9.964 -0.5383  0.5046 -2.0299
  184MPD1     C 2798   3.001   3.445  10.063 -0.0209 -0.3703 -0.0423
  184MPD1    C1 2799   3.077   3.558  10.089 -0.2636 -0.2211  0.0635
  184MPD1    C2 2800   3.091   3.654   9.992 -0.6924  0.2845  0.1533
  184MPD1    C3 2801   2.997   3.660   9.887  0.2738 -0.0069 -0.0016
  184MPD1    C4 2802   2.907   3.555   9.874 -0.6534  0.4212  0.3484
  184MPD1    C5 2803   2.915   3.446   9.955  0.4507 -0.0415 -0.7756
  184MPD1     H 2804   3.172   3.726   9.997 -2.3772  2.1988 -0.0986
  184MPD1    H1 2805   2.832   3.552   9.796 -0.0523  0.7350 -0.2444
  184MPD1    H2 2806   2.999   3.363  10.134 -2.8966  0.4007  0.7589
  184MPD1    H3 2807   2.847   3.367   9.923  0.2538 -0.7103  1.3017
  184MPD1     N 2808   2.991   3.766   9.797 -0.2218 -0.7061 -0.1724
  184MPD1    H5 2809   2.919   3.763   9.726  0.6588  1.6128 -1.1651
  184MPD1    N1 2810   3.162   3.550  10.206  0.1759 -0.7176 -0.6011
  184MPD1    H6 2811   3.183   3.641  10.246  2.6825 -0.9070 -1.4878
  184MPD1    H7 2812   3.144   3.479  10.276 -3.1494  1.3539  0.6878
  185MPD1     C 2813   2.240   3.953   9.557 -0.1658 -0.4484  0.0860
  185MPD1    C1 2814   2.285   4.081   9.533 -0.4875 -0.8407 -0.0491
  185MPD1    C2 2815   2.421   4.100   9.537  0.4182 -0.0739  0.6165
  185MPD1    C3 2816   2.503   3.993   9.577 -0.0748  0.1597  0.2039
  185MPD1    C4 2817   2.450   3.868   9.611  0.3102 -0.4576  0.2625
  185MPD1    C5 2818   2.312   3.847   9.597 -0.0148  0.2146  0.0648
  185MPD1     H 2819   2.464   4.193   9.501 -1.9669  0.3377 -1.1506
  185MPD1    H1 2820   2.510   3.786   9.647 -1.5857 -1.5855  0.8742
  185MPD1    H2 2821   2.133   3.938   9.546 -0.2729  1.2430 -1.2094
  185MPD1    H3 2822   2.271   3.751   9.623  0.4769 -0.3296 -1.1348
  185MPD1     N 2823   2.646   4.003   9.588  0.4174 -0.2296  0.2394
  185MPD1    H5 2824   2.692   3.915   9.603  1.5870  1.1197  4.3539
  185MPD1    N1 2825   2.200   4.180   9.490 -0.0243 -0.2259  0.3730
  185MPD1    H6 2826   2.232   4.269   9.527 -0.0824  0.3863 -1.0621
  185MPD1    H7 2827   2.104   4.162   9.521 -0.3810  1.1039  0.0410
  186MPD1     C 2828   1.508   3.361  15.811 -0.1150 -0.5665  0.0271
  186MPD1    C1 2829   1.482   3.296  15.931  0.1392  0.0218 -0.0121
  186MPD1    C2 2830   1.380   3.348  16.006  0.6444  0.0260 -0.1417
  186MPD1    C3 2831   1.316   3.462  15.963  0.3036 -0.3412 -0.3891
  186MPD1    C4 2832   1.346   3.520  15.839  0.1234 -0.3535  1.0447
  186MPD1    C5 2833   1.445   3.470  15.763 -0.3776 -0.6218  0.3488
  186MPD1     H 2834   1.353   3.294  16.096  0.6087  1.0504  0.4571
  186MPD1    H1 2835   1.294   3.611  15.810  1.8739  0.9726  1.9957
  186MPD1    H2 2836   1.598   3.329  15.759  0.6648  0.7106  0.5766
  186MPD1    H3 2837   1.470   3.516  15.668  2.1286  1.6972  2.1399
  186MPD1     N 2838   1.223   3.529  16.048 -0.3751  0.3820  0.5259
  186MPD1    H5 2839   1.193   3.622  16.022  0.1824  0.5698  0.5428
  186MPD1    N1 2840   1.579   3.209  15.991  0.3216  0.1507 -0.0345
  186MPD1    H6 2841   1.537   3.140  16.052  1.6126  0.7441  1.5286
  186MPD1    H7 2842   1.642   3.168  15.923 -0.4361 -2.6939  1.0206
  187MPD1     C 2843   0.409   1.162   0.285  0.8516 -1.0509 -0.2359
  187MPD1    C1 2844   0.451   1.287   0.240  1.2817 -0.0308  0.2756
  187MPD1    C2 2845   0.367   1.360   0.154  0.3286  0.5158  0.4261
  187MPD1    C3 2846   0.246   1.308   0.104 -0.3507  0.2062  0.1196
  187MPD1    C4 2847   0.205   1.186   0.149 -0.6211  0.7776 -0.2661
  187MPD1    C5 2848   0.284   1.116   0.240 -0.0778  0.0992 -0.3000
  187MPD1     H 2849   0.408   1.450   0.110  1.1710 -0.5731 -1.0412
  187MPD1    H1 2850   0.119   1.139   0.104  1.4585 -1.4196 -1.9257
  187MPD1    H2 2851   0.467   1.098   0.350  0.1538 -2.8534 -1.4007
  187MPD1    H3 2852   0.263   1.015   0.274 -2.2831  1.2376  1.7054
  187MPD1     N 2853   0.172   1.374  17.696 -0.2142  0.1311 -0.3988
  187MPD1    H5 2854   0.089   1.333  17.654  0.0617  2.0985 -2.8778
  187MPD1    N1 2855   0.583   1.320   0.255  0.3462 -0.1499  0.3655
  187MPD1    H6 2856   0.601   1.419   0.245  0.2579 -0.1404  0.2949
  187MPD1    H7 2857   0.614   1.306   0.351  0.2037  1.7068  0.6697
  188MPD1     C 2858   0.309   1.343  10.172 -0.1196  0.2198 -0.0003
  188MPD1    C1 2859   0.247   1.332  10.051  0.7839  0.3269 -0.4905
  188MPD1    C2 2860   0.219   1.206  10.000 -0.5144  0.1747  0.4066
  188MPD1    C3 2861   0.258   1.090  10.066 -0.5325  0.4010 -0.3531
  188MPD1    C4 2862   0.325   1.109  10.188  0.0911 -0.5753 -0.2342
  188MPD1    C5 2863   0.352   1.236  10.235  0.0279  0.3372  0.1745
  188MPD1     H 2864   0.169   1.193   9.904  0.2600 -2.3377  0.3467
  188MPD1    H1 2865   0.371   1.020  10.229 -0.3705 -0.5717  0.2952
  188MPD1    H2 2866   0.339   1.437  10.218 -0.1671  0.0767  0.3225
  188MPD1    H3 2867   0.408   1.259  10.325 -0.8706 -0.7487  1.0115
  188MPD1     N 2868   0.248   0.958  10.015  0.2600 -0.7019  0.1331
  188MPD1    H5 2869   0.291   0.888  10.074  0.0645  0.9765  2.2944
  188MPD1    N1 2870   0.218   1.445   9.982 -0.3793 -0.3222  0.2217
  188MPD1    H6 2871   0.158   1.437   9.899 -0.7494  1.7793  0.2895
  188MPD1    H7 2872   0.210   1.535  10.030  1.0599 -0.0116 -0.1280
  189MPD1     C 2873   1.546   0.497   0.700 -0.4527  0.1697 -0.4072
  189MPD1    C1 2874   1.441   0.518   0.619 -0.0987 -0.6632 -0.1615
  189MPD1    C2 2875   1.393   0.648   0.617  0.8727 -0.5933  0.5150
  189MPD1    C3 2876   1.451   0.753   0.683  0.0632 -0.5991 -0.2811
  189MPD1    C4 2877   1.572   0.728   0.754 -0.3076  0.5225 -0.2411
  189MPD1    C5 2878   1.610   0.601   0.758  0.2396  0.0087 -0.3591
  189MPD1     H 2879   1.313   0.676   0.549  2.6483 -2.0196 -2.1646
  189MPD1    H1 2880   1.624   0.804   0.812 -1.4150  1.6970 -0.7930
  189MPD1    H2 2881   1.575   0.393   0.713 -3.8588 -1.1356 -3.2367
  189MPD1    H3 2882   1.699   0.581   0.816 -1.5848 -2.2323  1.6741
  189MPD1     N 2883   1.389   0.880   0.684 -0.2315 -0.7667 -0.4359
  189MPD1    H5 2884   1.301   0.892   0.635 -1.4432  0.1407  1.9542
  189MPD1    N1 2885   1.379   0.409   0.558 -0.3671 -0.1743  0.0572
  189MPD1    H6 2886   1.456   0.343   0.547 -1.4102 -1.3506 -0.2779
  189MPD1    H7 2887   1.343   0.440   0.468  0.7691 -1.1988 -0.7517
  190MPD1     C 2888   0.171   0.300  15.509 -0.5013  0.3425 -0.2834
  190MPD1    C1 2889   0.187   0.280  15.644  0.2553  0.3028  0.4568
  190MPD1    C2 2890   0.298   0.201  15.674  0.8262  0.2359 -0.1346
  190MPD1    C3 2891   0.389   0.162  15.573  0.0036 -0.0365  0.1156
  190MPD1    C4 2892   0.378   0.214  15.443 -1.0484  0.1371 -0.4062
  190MPD1    C5 2893   0.265   0.278  15.414  0.1359  0.6876  0.9029
  190MPD1     H 2894   0.310   0.170  15.778 -1.6153  1.8436  0.6294
  190MPD1    H1 2895   0.445   0.190  15.360  1.1003  2.9011  0.5075
  190MPD1    H2 2896   0.089   0.351  15.458  0.0499  1.5651  0.0617
  190MPD1    H3 2897   0.249   0.300  15.309  1.6571  0.0176  0.5266
  190MPD1     N 2898   0.503   0.085  15.611 -0.0121 -0.4313  0.4531
  190MPD1    H5 2899   0.512   0.059  15.709 -1.5847  0.3141  0.7961
  190MPD1    N1 2900   0.074   0.301  15.725 -0.0453 -0.9646 -0.5364
  190MPD1    H6 2901   0.096   0.312  15.824  0.0200  1.3534 -0.8064
  190MPD1    H7 2902   0.044   0.393  15.693 -0.2093 -0.0811  2.0991
  191MPD1     C 2903   0.031   1.460  12.714  0.3359  0.3827  0.0393
  191MPD1    C1 2904   0.161   1.472  12.682 -0.1265 -0.4190  0.4592
  191MPD1    C2 2905   0.188   1.592  12.617 -0.1934 -0.0519  0.3381
  191MPD1    C3 2906   0.101   1.690  12.596  0.2849 -0.0562 -0.8624
  191MPD1    C4 2907   4.695   1.667  12.629  1.1740  0.0002 -0.3381
  191MPD1    C5 2908   4.657   1.551  12.686  0.1544 -0.2554 -0.0716
  191MPD1     H 2909   0.285   1.599  12.569  0.0862  0.5965  1.0109
  191MPD1    H1 2910   4.619   1.743  12.613 -0.2402 -1.2573  0.3396
  191MPD1    H2 2911   0.009   1.361  12.754 -0.5231  1.0072  1.0879
  191MPD1    H3 2912   4.550   1.536  12.701  0.3793 -0.5638  1.1524
  191MPD1     N 2913   0.142   1.800  12.516 -0.0377 -0.2733 -0.0634
  191MPD1    H5 2914   0.066   1.865  12.500 -0.0263 -0.7302 -2.0044
  191MPD1    N1 2915   0.255   1.371  12.699  0.1766 -0.2213 -0.2914
  191MPD1    H6 2916   0.235   1.302  12.771  0.1341  2.0257  1.8198
  191MPD1    H7 2917   0.345   1.406  12.730 -0.0402 -0.4783  0.6340
  192MPD1     C 2918   4.406   2.379  11.907  0.3923 -0.8592 -0.4194
  192MPD1    C1 2919   4.385   2.322  12.030 -0.4116 -0.2472  0.8971
  192MPD1    C2 2920   4.496   2.267  12.098 -0.3683 -0.0189  0.2934
  192MPD1    C3 2921   4.626   2.278  12.043  0.4431 -0.4896 -0.6472
  192MPD1    C4 2922   4.642   2.355  11.936  0.2483  0.6168 -0.4216
  192MPD1    C5 2923   4.534   2.401  11.862  0.4971  0.8658  0.7072
  192MPD1     H 2924   4.477   2.206  12.186  0.6176  1.0191  1.2341
  192MPD1    H1 2925   0.019   2.363  11.899 -0.2327 -1.1056 -2.1267
  192MPD1    H2 2926   4.322   2.416  11.850 -1.2521 -2.1860  1.1062
  192MPD1    H3 2927   4.549   2.456  11.769 -2.2078 -0.7228 -0.6686
  192MPD1     N 2928   0.019   2.237  12.109 -0.2287  0.1127  0.4569
  192MPD1    H5 2929   0.107   2.265  12.066 -0.5854  2.9891  1.5414
  192MPD1    N1 2930   4.252   2.297  12.067  0.8559  0.4013 -0.3790
  192MPD1    H6 2931   4.262   2.268  12.164 -1.5929  1.4622  0.1775
  192MPD1    H7 2932   4.187   2.374  12.054  1.5230  1.3223  1.7128
  193MPD1     C 2933   4.612   2.016  16.186 -0.3458 -0.0024  0.1328
  193MPD1    C1 2934   4.557   2.099  16.285 -0.0457 -0.2845  0.3174
  193MPD1    C2 2935   4.638   2.136  16.399 -0.4259  0.3203 -0.1295
  193MPD1    C3 2936   0.027   2.067  16.426  0.5202 -0.7599 -0.4804
  193MPD1    C4 2937   0.070   1.968  16.332  0.1199 -0.0882  0.1823
  193MPD1    C5 2938   4.723   1.951  16.218 -0.3302 -0.9146 -0.6991
  193MPD1     H 2939   4.598   2.201  16.476  0.4670  1.9020 -1.0093
  193MPD1    H1 2940   0.162   1.912  16.341  1.4202  2.1421  0.8630
  193MPD1    H2 2941   4.567   1.998  16.088 -0.7508  1.3569  0.0699
  193MPD1    H3 2942   0.049   1.891  16.143 -0.0289  0.0791 -1.2919
  193MPD1     N 2943   0.119   2.112  16.520 -0.1321 -0.4549  0.4066
  193MPD1    H5 2944   0.218   2.093  16.505  0.6611  2.3253  2.1915
  193MPD1    N1 2945   4.437   2.169  16.269  0.3425 -0.0585 -0.0536
  193MPD1    H6 2946   4.372   2.111  16.217 -1.6816  0.9497  1.3664
  193MPD1    H7 2947   4.402   2.208  16.356  0.8594  2.0541 -0.8042
  194MPD1     C 2948   1.858   4.355  17.149  0.1128 -0.2542 -0.6282
  194MPD1    C1 2949   1.934   4.354  17.026 -0.0698  0.5237  0.7796
  194MPD1    C2 2950   1.944   4.235  16.956  0.1402 -0.3309 -0.3220
  194MPD1    C3 2951   1.921   4.113  17.021 -0.9722 -0.5816  0.7462
  194MPD1    C4 2952   1.856   4.120  17.144 -0.7394 -0.0234 -0.1780
  194MPD1    C5 2953   1.820   4.237  17.203  0.1008 -0.5653 -0.8824
  194MPD1     H 2954   1.990   4.238  16.858  1.8781 -0.4795  0.4927
  194MPD1    H1 2955   1.827   4.034  17.204 -0.4676  1.4536  2.0955
  194MPD1    H2 2956   1.830   4.439  17.211  2.1754 -0.2635  0.3283
  194MPD1    H3 2957   1.768   4.238  17.298 -0.2512  0.5911 -1.0849
  194MPD1     N 2958   1.957   3.984  16.978 -0.4532  0.1881 -0.3134
  194MPD1    H5 2959   1.949   3.902  17.038 -1.1915  1.5531  1.4614
  194MPD1    N1 2960   1.956   4.480  16.955 -0.2255 -0.3678 -0.1643
  194MPD1    H6 2961   2.032   4.460  16.890  1.1502  2.1058  0.6806
  194MPD1    H7 2962   1.981   4.561  17.011 -0.0548  0.3100 -1.2103
  195MPD1     C 2963   4.300   1.400  17.502  0.2323 -0.4988 -0.3156
  195MPD1    C1 2964   4.268   1.347  17.624 -0.8491  0.3936  0.1133
  195MPD1    C2 2965   4.280   1.207  17.631  0.3476  0.0887  0.9678
  195MPD1    C3 2966   4.314   1.123  17.528  0.6470  0.4366  0.4977
  195MPD1    C4 2967   4.329   1.179  17.408  0.3596 -0.1877  0.0365
  195MPD1    C5 2968   4.321   1.314  17.392  0.4194 -0.3281 -0.2258
  195MPD1     H 2969   4.256   1.174   0.033  1.0575 -0.3484  0.9959
  195MPD1    H1 2970   4.348   1.114  17.323  0.5593  0.0184 -0.0767
  195MPD1    H2 2971   4.317   1.507  17.494 -0.5077 -0.4388 -1.1208
  195MPD1    H3 2972   4.356   1.357  17.299  0.0683  0.7461  0.1409
  195MPD1     N 2973   4.319   0.981  17.533 -0.2971  0.5042 -0.2180
  195MPD1    H5 2974   4.329   0.937  17.442  0.7133  0.0570  0.1080
  195MPD1    N1 2975   4.258   1.437   0.033  0.2311 -0.4940 -0.8798
  195MPD1    H6 2976   4.203   1.516   0.002 -0.5681 -0.4004  0.7950
  195MPD1    H7 2977   4.212   1.400   0.116  1.1760  1.9780  0.7495
  196MPD1     C 2978   4.160   0.651   1.189  0.1383 -0.1187  0.1406
  196MPD1    C1 2979   4.148   0.765   1.108 -0.3552 -0.2194  0.5405
  196MPD1    C2 2980   4.140   0.884   1.178  0.0021  0.4876  0.3148
  196MPD1    C3 2981   4.144   0.886   1.315 -0.4762 -0.1875 -0.0189
  196MPD1    C4 2982   4.149   0.769   1.389  0.6269 -0.2425 -0.3808
  196MPD1    C5 2983   4.159   0.650   1.324  0.2689 -0.2271 -0.1419
  196MPD1     H 2984   4.112   0.971   1.119  0.5887  2.1702  2.5277
  196MPD1    H1 2985   4.147   0.766   1.498 -0.6660  0.0560 -0.3901
  196MPD1    H2 2986   4.172   0.555   1.139 -2.7395  1.0469 -2.8488
  196MPD1    H3 2987   4.182   0.560   1.379 -0.3136  0.0111  0.4885
  196MPD1     N 2988   4.131   1.003   1.390  0.0258  0.3866 -0.0672
  196MPD1    H5 2989   4.116   0.988   1.489  2.0111  0.0264  0.1806
  196MPD1    N1 2990   4.157   0.761   0.970 -0.0102  0.5743  0.0921
  196MPD1    H6 2991   4.126   0.843   0.918  1.4164  1.3482  0.4354
  196MPD1    H7 2992   4.110   0.682   0.928  1.8366 -1.4046  1.7409
  197MPD1     C 2993   3.608   2.678   0.143 -0.1921 -0.7327  0.1277
  197MPD1    C1 2994   3.472   2.698   0.138 -0.2932 -0.4987 -1.0845
  197MPD1    C2 2995   3.408   2.706   0.010 -0.4064  0.2658 -0.1845
  197MPD1    C3 2996   3.475   2.676  17.590  0.2028  0.3273  0.2591
  197MPD1    C4 2997   3.611   2.641  17.609  0.9758  0.0604 -0.1927
  197MPD1    C5 2998   3.676   2.647   0.032 -0.0997 -0.4592 -0.4044
  197MPD1     H 2999   3.304   2.735   0.006 -0.4624  0.0233 -0.5060
  197MPD1    H1 3000   3.669   2.606  17.525 -0.2312  2.1041 -1.8753
  197MPD1    H2 3001   3.660   2.679   0.238  0.4975 -0.9202 -0.2448
  197MPD1    H3 3002   3.782   2.626   0.026  0.9667  4.3769  1.6957
  197MPD1     N 3003   3.430   2.689  17.458  0.2140 -0.5423 -0.3226
  197MPD1    H5 3004   3.494   2.657  17.386  1.4174  1.1157 -0.0020
  197MPD1    N1 3005   3.398   2.730   0.256  0.2474  0.0085 -0.6201
  197MPD1    H6 3006   3.442   2.686   0.336 -0.0813  1.8236  0.5560
  197MPD1    H7 3007   3.299   2.712   0.241  0.4554  0.3223 -2.4030
  198MPD1     C 3008   0.740   0.611  16.605 -0.0730  0.5937  0.3533
  198MPD1    C1 3009   0.689   0.698  16.706 -0.0593 -0.4062  0.7764
  198MPD1    C2 3010   0.734   0.832  16.699 -0.1960  0.0283 -0.5604
  198MPD1    C3 3011   0.837   0.875  16.610  0.5665  0.4797 -0.1345
  198MPD1    C4 3012   0.893   0.791  16.522 -0.1010  1.2369 -0.4416
  198MPD1    C5 3013   0.832   0.666  16.522 -0.5128  0.1512  0.1761
  198MPD1     H 3014   0.693   0.907  16.766  0.7142  1.1845 -1.2883
  198MPD1    H1 3015   0.964   0.813  16.443 -0.1591  0.6534 -0.6577
  198MPD1    H2 3016   0.690   0.517  16.582 -1.6521  1.1628  1.4916
  198MPD1    H3 3017   0.872   0.594  16.451 -0.8728  0.0531  0.0716
  198MPD1     N 3018   0.901   1.003  16.604 -0.2519  0.1242 -0.1654
  198MPD1    H5 3019   0.971   1.031  16.535  1.4466 -0.9015  1.1641
  198MPD1    N1 3020   0.580   0.651  16.783  0.2192  0.4330  0.5417
  198MPD1    H6 3021   0.568   0.714  16.862 -0.9078  1.2346 -0.2741
  198MPD1    H7 3022   0.604   0.557  16.815  0.5846  0.7134  1.1099
  199MPD1     C 3023   4.062   2.593  10.147  0.0490 -0.2638 -0.1485
  199MPD1    C1 3024   4.031   2.478  10.201  0.1743 -0.4469  0.4206
  199MPD1    C2 3025   3.933   2.403  10.137 -0.1480 -0.6551 -0.3421
  199MPD1    C3 3026   3.853   2.459  10.038 -0.3466 -0.8207  0.1229
  199MPD1    C4 3027   3.880   2.590   9.995  0.0540  0.0307 -0.2722
  199MPD1    C5 3028   3.981   2.660  10.058  0.5956 -0.3590 -0.6506
  199MPD1     H 3029   3.920   2.298  10.162 -0.5088 -0.8012 -1.1338
  199MPD1    H1 3030   3.821   2.640   9.919 -0.9442 -1.0880 -0.2189
  199MPD1    H2 3031   4.144   2.652  10.186  1.7610 -3.6719  1.3200
  199MPD1    H3 3032   4.003   2.761  10.024 -1.4244 -0.4460 -2.2803
  199MPD1     N 3033   3.759   2.389   9.960 -0.5552 -0.1513  0.5330
  199MPD1    H5 3034   3.710   2.448   9.894 -0.9366 -1.4824 -0.3736
  199MPD1    N1 3035   4.127   2.414  10.274 -0.5199 -0.3433  0.2580
  199MPD1    H6 3036   4.082   2.348  10.337 -0.3745  0.7285  1.5059
  199MPD1    H7 3037   4.175   2.481  10.335 -0.2278 -0.5284  0.2294
  200MPD1     C 3038   1.675   2.832  15.372 -0.2911 -0.0808  0.7067
  200MPD1    C1 3039   1.801   2.800  15.418 -0.0466 -0.1741 -0.4078
  200MPD1    C2 3040   1.875   2.694  15.365  0.7332 -0.1235 -0.0226
  200MPD1    C3 3041   1.829   2.608  15.267  0.0650 -0.0614  0.2212
  200MPD1    C4 3042   1.699   2.640  15.226  0.0268 -0.4512 -0.4119
  200MPD1    C5 3043   1.625   2.749  15.276  0.2354  0.5053  0.9242
  200MPD1     H 3044   1.973   2.687  15.411 -0.1062 -1.2359  1.5648
  200MPD1    H1 3045   1.645   2.584  15.151 -0.2082  0.8216 -1.1880
  200MPD1    H2 3046   1.614   2.911  15.413 -1.0851 -0.2309 -0.1844
  200MPD1    H3 3047   1.531   2.767  15.226  1.0313  0.6368 -0.5098
  200MPD1     N 3048   1.910   2.507  15.217 -0.7003 -0.4746  0.5049
  200MPD1    H5 3049   2.003   2.511  15.259 -1.5392  0.8491  2.2322
  200MPD1    N1 3050   1.846   2.882  15.522 -0.0172 -0.4871  0.0438
  200MPD1    H6 3051   1.939   2.858  15.558 -0.8865 -2.6093  0.8912
  200MPD1    H7 3052   1.852   2.979  15.494 -0.4905 -0.7383 -0.9063
  201MPD1     C 3053   4.133   1.663  13.307  0.0312 -0.8432  0.6365
  201MPD1    C1 3054   4.109   1.550  13.234 -0.1144 -0.8447 -0.5862
  201MPD1    C2 3055   4.067   1.439  13.307  0.0971  0.0231  0.2381
  201MPD1    C3 3056   4.051   1.435  13.443  0.2417  0.1976  0.5104
  201MPD1    C4 3057   4.071   1.556  13.512 -0.1301  0.1908  0.1417
  201MPD1    C5 3058   4.119   1.659  13.442  0.0413  0.2384  0.0966
  201MPD1     H 3059   4.049   1.346  13.255  1.4843  1.4643 -2.8404
  201MPD1    H1 3060   4.054   1.580  13.616 -1.1206  1.0458 -0.2206
  201MPD1    H2 3061   4.180   1.749  13.262 -1.7793 -0.1367  0.1262
  201MPD1    H3 3062   4.132   1.753  13.495 -0.5101  0.5545 -0.3339
  201MPD1     N 3063   4.004   1.317  13.498  0.5150  0.2413 -0.5947
  201MPD1    H5 3064   3.982   1.238  13.437 -2.7488  1.4731 -1.0048
  201MPD1    N1 3065   4.148   1.538  13.100  0.4705  0.1378  0.5922
  201MPD1    H6 3066   4.082   1.475  13.057  0.3670  0.1234  0.7745
  201MPD1    H7 3067   4.153   1.631  13.058  2.2618 -0.0821  0.2915
  202MPD1     C 3068   3.863   1.144   9.249 -0.0339  0.5623 -0.2937
  202MPD1    C1 3069   3.893   1.041   9.332 -0.1107  0.1118 -0.3612
  202MPD1    C2 3070   3.972   1.068   9.447  0.2896 -0.1662 -0.2100
  202MPD1    C3 3071   4.066   1.166   9.434  0.8031 -0.6376  0.4325
  202MPD1    C4 3072   4.064   1.258   9.333  0.0967 -0.1274 -0.2217
  202MPD1    C5 3073   3.960   1.242   9.248  0.5572 -0.0563 -0.7015
  202MPD1     H 3074   3.981   0.993   9.524  0.0457  0.7967  0.7547
  202MPD1    H1 3075   4.139   1.335   9.317  0.4562 -0.6471 -1.0425
  202MPD1    H2 3076   3.780   1.140   9.180 -0.4287  0.7289  0.1713
  202MPD1    H3 3077   3.954   1.313   9.165  0.6976  1.9707  1.0083
  202MPD1     N 3078   4.177   1.171   9.520  0.2399  0.2421 -0.3986
  202MPD1    H5 3079   4.243   1.244   9.497  0.6522  0.2309  0.7470
  202MPD1    N1 3080   3.787   0.950   9.351 -0.1764  0.7726 -0.2265
  202MPD1    H6 3081   3.754   0.911   9.263  1.0496  2.0260 -1.2525
  202MPD1    H7 3082   3.824   0.865   9.393  0.5829  1.0488 -0.3333
  203MPD1     C 3083   3.511   0.647  13.135  0.0369 -0.0919 -0.0072
  203MPD1    C1 3084   3.414   0.693  13.219  0.4695  0.4034  0.0469
  203MPD1    C2 3085   3.380   0.828  13.218  0.0237  0.2618  0.2260
  203MPD1    C3 3086   3.457   0.911  13.134 -1.0370  0.2261  0.5157
  203MPD1    C4 3087   3.544   0.859  13.041 -0.4403  0.7057  0.0059
  203MPD1    C5 3088   3.566   0.725  13.039  0.0521 -0.1208 -0.3408
  203MPD1     H 3089   3.306   0.870  13.285  0.3951 -0.2386  0.9553
  203MPD1    H1 3090   3.591   0.922  12.966  1.6848 -0.0348  0.7199
  203MPD1    H2 3091   3.536   0.541  13.136 -0.2413 -0.1705 -1.5341
  203MPD1    H3 3092   3.643   0.697  12.968  0.3877  1.0841 -0.4629
  203MPD1     N 3093   3.429   1.051  13.145  0.2326 -0.4547  0.0242
  203MPD1    H5 3094   3.363   1.078  13.217 -0.0915 -1.1234 -0.0229
  203MPD1    N1 3095   3.360   0.604  13.313 -0.0518 -0.0344 -0.3842
  203MPD1    H6 3096   3.342   0.512  13.271 -1.7411  0.5590 -0.9618
  203MPD1    H7 3097   3.279   0.645  13.357  1.6177  2.9097 -0.0526
  204MPD1     C 3098   1.666   1.819   0.123 -0.3092 -0.2518  0.0788
  204MPD1    C1 3099   1.725   1.937   0.093 -0.1403 -0.0320  0.9310
  204MPD1    C2 3100   1.848   1.935   0.017  0.5402 -0.5320 -0.1754
  204MPD1    C3 3101   1.906   1.810  17.686  0.8127 -0.2916 -0.3168
  204MPD1    C4 3102   1.851   1.689   0.035  0.1483 -0.4230 -0.2853
  204MPD1    C5 3103   1.725   1.703   0.096  0.3346 -0.1519  0.0287
  204MPD1     H 3104   1.885   2.030  17.681 -0.2388  0.1739  0.9559
  204MPD1    H1 3105   1.898   1.592   0.027  2.2186  0.6522 -0.9376
  204MPD1    H2 3106   1.573   1.808   0.177 -0.6240  0.6909 -0.2793
  204MPD1    H3 3107   1.678   1.612   0.130 -0.6160  0.1004 -0.6374
  204MPD1     N 3108   2.024   1.817  17.602 -0.0773 -0.3099 -0.2006
  204MPD1    H5 3109   2.056   1.903  17.560 -1.1797  0.5842  0.7612
  204MPD1    N1 3110   1.659   2.057   0.129  0.1416 -0.1334  0.4120
  204MPD1    H6 3111   1.602   2.056   0.214 -1.6474 -0.7734 -0.8001
  204MPD1    H7 3112   1.723   2.137   0.124 -0.3926  0.3527  1.3670
  205MPD1     C 3113   3.230   1.623  16.477  0.2419  0.9422 -0.6932
  205MPD1    C1 3114   3.333   1.618  16.570  0.2382 -0.0616  0.3090
  205MPD1    C2 3115   3.318   1.529  16.668  0.7344  0.0510  0.2951
  205MPD1    C3 3116   3.192   1.462  16.691  0.3837 -0.0363 -0.0790
  205MPD1    C4 3117   3.088   1.484  16.609 -0.1156  0.5834 -1.6025
  205MPD1    C5 3118   3.114   1.563  16.505  0.0154  0.3025  0.1845
  205MPD1     H 3119   3.408   1.523  16.727  0.6484 -0.8433  0.3346
  205MPD1    H1 3120   2.992   1.436  16.623  0.6129 -0.3647  0.1569
  205MPD1    H2 3121   3.240   1.660  16.375  0.8990 -1.6469 -1.5987
  205MPD1    H3 3122   3.039   1.580  16.428 -3.0596 -2.0040  2.6540
  205MPD1     N 3123   3.170   1.390  16.810  0.0481 -0.4824 -0.7572
  205MPD1    H5 3124   3.074   1.370  16.836 -0.3005  1.4504 -0.5338
  205MPD1    N1 3125   3.455   1.665  16.534  0.0287 -0.0160 -0.0212
  205MPD1    H6 3126   3.434   1.749  16.481 -0.4564 -0.3785 -0.4052
  205MPD1    H7 3127   3.492   1.694  16.624 -0.9879  3.2034 -0.6561
  206MPD1     C 3128   2.310   4.055  17.132 -0.3709  0.3863  0.7514
  206MPD1    C1 3129   2.247   4.180  17.120 -0.2560  0.0253  0.7759
  206MPD1    C2 3130   2.253   4.247  16.995 -0.6977  0.1838  0.1963
  206MPD1    C3 3131   2.319   4.190  16.887 -0.4093  0.5854 -0.1850
  206MPD1    C4 3132   2.386   4.071  16.905 -0.1035 -0.2890 -0.4603
  206MPD1    C5 3133   2.379   4.004  17.023  0.6039 -0.4704 -0.0663
  206MPD1     H 3134   2.213   4.347  16.984  0.9768  0.9163  0.7416
  206MPD1    H1 3135   2.454   4.038  16.828  2.4309 -0.7814  1.9789
  206MPD1    H2 3136   2.319   4.000  17.225 -2.5122 -2.0159 -0.4621
  206MPD1    H3 3137   2.427   3.906  17.028 -1.0210 -1.2339  0.3934
  206MPD1     N 3138   2.345   4.255  16.764 -0.0736 -0.3111  0.9373
  206MPD1    H5 3139   2.397   4.197  16.699 -1.6176 -0.4508 -0.1679
  206MPD1    N1 3140   2.193   4.246  17.235  0.0055 -0.5221  0.4256
  206MPD1    H6 3141   2.107   4.288  17.202 -0.8546 -2.0354  0.7245
  206MPD1    H7 3142   2.174   4.186  17.316 -3.0166  0.9525  0.8061
  207MPD1     C 3143   4.460   2.248  10.166  0.6708  0.6115  0.1020
  207MPD1    C1 3144   4.497   2.381  10.166  1.2577  0.1361 -0.2554
  207MPD1    C2 3145   4.629   2.413  10.196  0.2074 -0.0020 -0.3799
  207MPD1    C3 3146   0.003   2.312  10.218  0.0528  0.3171  0.0481
  207MPD1    C4 3147   4.686   2.183  10.213 -0.6434  0.5577 -0.4675
  207MPD1    C5 3148   4.557   2.152  10.188  0.3580 -0.0600 -0.5963
  207MPD1     H 3149   4.663   2.516  10.193  0.1913  0.0837  2.4293
  207MPD1    H1 3150   0.033   2.105  10.237  0.4456  1.5019 -0.6689
  207MPD1    H2 3151   4.356   2.221  10.153  1.5440 -2.0590 -1.2449
  207MPD1    H3 3152   4.527   2.047  10.187  0.2553 -0.0235 -1.2897
  207MPD1     N 3153   0.138   2.334  10.259 -0.2275 -1.0387  0.3376
  207MPD1    H5 3154   0.191   2.251  10.285 -0.8232 -1.2179  0.9671
  207MPD1    N1 3155   4.401   2.471  10.118 -0.1001 -0.4634 -0.4474
  207MPD1    H6 3156   4.416   2.561  10.163 -1.1562 -1.7007  2.3857
  207MPD1    H7 3157   4.309   2.436  10.144  0.0861  0.3016  1.2064
  208MPD1     C 3158   3.205   4.361   0.509 -0.4533  0.1628 -0.0296
  208MPD1    C1 3159   3.152   4.477   0.569  0.7011  0.7004  0.2920
  208MPD1    C2 3160   3.168   4.597   0.506 -0.2390  0.2873  0.6189
  208MPD1    C3 3161   3.256   4.610   0.401  0.1121 -0.5367 -0.3859
  208MPD1    C4 3162   3.318   4.498   0.351  0.2938  0.1439 -1.0281
  208MPD1    C5 3163   3.295   4.372   0.407  0.1160 -0.1591 -0.0470
  208MPD1     H 3164   3.121   4.676   0.563 -4.4964 -0.8617 -1.3224
  208MPD1    H1 3165   3.380   4.504   0.263  0.3795  2.7663 -0.7944
  208MPD1    H2 3166   3.190   4.269   0.566 -0.9638  0.7195  0.7367
  208MPD1    H3 3167   3.351   4.289   0.365  0.6131 -0.7061  1.7202
  208MPD1     N 3168   3.286   0.016   0.351  0.3422 -0.4637  0.1643
  208MPD1    H5 3169   3.230   0.091   0.388  1.4499  0.4504  0.0080
  208MPD1    N1 3170   3.077   4.461   0.686 -0.6225  0.6528  0.3179
  208MPD1    H6 3171   3.079   4.537   0.754  1.1797  1.7952 -1.0142
  208MPD1    H7 3172   3.102   4.374   0.732 -0.4837 -0.4570 -1.8548
  209MPD1     C 3173   1.063   1.557  11.669  0.1851  0.2095 -0.1433
  209MPD1    C1 3174   1.039   1.685  11.691 -0.0036 -0.3083 -0.6245
  209MPD1    C2 3175   1.037   1.774  11.582 -0.3380 -0.0320 -1.1123
  209MPD1    C3 3176   1.048   1.727  11.453 -0.3612 -0.3871  1.0359
  209MPD1    C4 3177   1.071   1.594  11.435 -0.5507  0.1243  0.1718
  209MPD1    C5 3178   1.082   1.504  11.542 -0.2969  0.4761 -0.4132
  209MPD1     H 3179   1.009   1.878  11.600  0.9833  0.1785 -0.2587
  209MPD1    H1 3180   1.082   1.552  11.335 -1.2504  1.3054 -0.3930
  209MPD1    H2 3181   1.085   1.485  11.748  1.3151  0.0488 -0.6096
  209MPD1    H3 3182   1.125   1.405  11.533  0.3498  0.7313 -0.1170
  209MPD1     N 3183   1.042   1.816  11.344  0.5991  0.7391 -0.2563
  209MPD1    H5 3184   1.040   1.917  11.355 -1.9662  0.8654 -1.7429
  209MPD1    N1 3185   0.994   1.722  11.823  0.2963 -0.1026 -0.2667
  209MPD1    H6 3186   0.894   1.701  11.828  0.1214  0.5028 -1.1499
  209MPD1    H7 3187   0.996   1.823  11.833  0.2568 -0.1565  0.2863
  210MPD1     C 3188   1.668   2.515  11.057 -0.0470 -0.3671  0.1815
  210MPD1    C1 3189   1.632   2.456  11.183  0.3641  0.2554 -0.1486
  210MPD1    C2 3190   1.531   2.363  11.166  1.0414 -0.0560 -0.6668
  210MPD1    C3 3191   1.461   2.334  11.045  0.5662  0.3436 -0.7243
  210MPD1    C4 3192   1.489   2.403  10.930 -0.0950  0.8165 -0.0038
  210MPD1    C5 3193   1.598   2.492  10.939 -0.0278 -0.3361 -0.6275
  210MPD1     H 3194   1.509   2.304  11.255  0.4707  2.8036  1.0835
  210MPD1    H1 3195   1.432   2.407  10.838 -1.2792  1.5037  0.7714
  210MPD1    H2 3196   1.751   2.585  11.060  0.7994 -1.3474 -0.5587
  210MPD1    H3 3197   1.637   2.540  10.849  1.0244  1.2286  0.6718
  210MPD1     N 3198   1.348   2.243  11.047  0.2490  0.3301  0.0715
  210MPD1    H5 3199   1.321   2.214  10.954  1.8099 -1.7937  0.2677
  210MPD1    N1 3200   1.701   2.471  11.311  0.0890  0.5662 -0.2032
  210MPD1    H6 3201   1.760   2.553  11.322  1.6385 -0.4831 -0.6853
  210MPD1    H7 3202   1.641   2.466  11.393 -0.8763 -0.8052 -0.9937
  211MPD1     C 3203   3.115   0.739  16.817  0.4847 -0.2202 -0.5162
  211MPD1    C1 3204   2.990   0.709  16.863  0.5642  0.5827 -0.0824
  211MPD1    C2 3205   2.906   0.812  16.893  0.0855 -0.7009  0.4312
  211MPD1    C3 3206   2.944   0.945  16.882  0.2371  0.3167  0.7225
  211MPD1    C4 3207   3.079   0.973  16.865 -0.0333 -0.2435 -0.7912
  211MPD1    C5 3208   3.164   0.869  16.832  0.1770  0.4284  0.0325
  211MPD1     H 3209   2.805   0.792  16.927  0.0308 -1.2201 -0.0485
  211MPD1    H1 3210   3.119   1.074  16.862  1.1187 -0.6324  1.2814
  211MPD1    H2 3211   3.181   0.660  16.785 -0.1767 -1.1948  0.5442
  211MPD1    H3 3212   3.269   0.884  16.809 -0.0621  0.4888 -1.0395
  211MPD1     N 3213   2.844   1.041  16.898 -0.3925  0.1516 -0.3722
  211MPD1    H5 3214   2.750   1.009  16.923 -0.2614  1.8041  2.1742
  211MPD1    N1 3215   2.927   0.584  16.839  0.2867  0.1885 -0.0306
  211MPD1    H6 3216   2.989   0.503  16.851  0.9505  0.3461 -2.4073
  211MPD1    H7 3217   2.842   0.564  16.891  0.0025 -0.6061 -0.8054
  212MPD1     C 3218   1.918   4.518  16.343 -0.2598 -0.3434 -0.1204
  212MPD1    C1 3219   1.813   4.562  16.418 -0.0247  0.2687 -0.1256
  212MPD1    C2 3220   1.753   4.477  16.507  0.4302 -0.2447 -0.3452
  212MPD1    C3 3221   1.811   4.358  16.544  0.1939  0.1039  0.0552
  212MPD1    C4 3222   1.921   4.318  16.471 -0.0378  0.2042 -0.6841
  212MPD1    C5 3223   1.963   4.390  16.365 -0.4818 -0.2061 -0.3269
  212MPD1     H 3224   1.661   4.514  16.550  1.6847  1.2404  1.0484
  212MPD1    H1 3225   1.956   4.218  16.495 -1.7175 -0.1223  0.3992
  212MPD1    H2 3226   1.947   4.575  16.256 -0.7052  0.0435 -0.0163
  212MPD1    H3 3227   2.025   4.341  16.291 -0.5395  2.5382 -2.2092
  212MPD1     N 3228   1.769   4.278  16.655 -0.0606  0.2831  0.1548
  212MPD1    H5 3229   1.836   4.206  16.678 -0.3646 -0.2609 -0.6402
  212MPD1    N1 3230   1.761   4.689  16.389 -0.3665  0.2121  0.3362
  212MPD1    H6 3231   1.709   0.005  16.467 -0.5045  2.0847 -0.7174
  212MPD1    H7 3232   1.836   0.025  16.357  0.2665 -1.1904 -0.8272
  213MPD1     C 3233   0.937   0.355  15.387  0.5762 -0.3842 -0.0939
  213MPD1    C1 3234   0.882   0.294  15.279 -0.7065  0.0583  0.4456
  213MPD1    C2 3235   0.767   0.358  15.236  0.1178  0.5469 -0.3667
  213MPD1    C3 3236   0.694   0.442  15.326 -0.2626  0.3234 -0.3467
  213MPD1    C4 3237   0.736   0.458  15.458 -0.4552 -0.0718 -0.1573
  213MPD1    C5 3238   0.870   0.427  15.486  0.3739 -0.2206 -0.6622
  213MPD1     H 3239   0.733   0.339  15.135 -0.8164 -0.8185  0.2145
  213MPD1    H1 3240   0.676   0.513  15.529  0.6805 -0.2856  0.9819
  213MPD1    H2 3241   1.037   0.334  15.423  0.2887 -2.1018 -0.2854
  213MPD1    H3 3242   0.906   0.453  15.584 -3.4755 -0.4681  0.8125
  213MPD1     N 3243   0.572   0.503  15.275  1.5653 -0.5859 -0.3346
  213MPD1    H5 3244   0.548   0.489  15.177 -2.3716 -1.7373  0.7635
  213MPD1    N1 3245   0.971   0.244  15.193  0.2517 -0.3849 -0.4259
  213MPD1    H6 3246   1.052   0.215  15.247 -0.2146  1.7568  1.4144
  213MPD1    H7 3247   0.943   0.168  15.131 -3.0682  0.1311  0.4071
  214MPD1     C 3248   4.392   0.172  15.187 -0.3539  0.3107  0.0216
  214MPD1    C1 3249   4.467   0.165  15.070 -0.3021  0.2990 -0.3395
  214MPD1    C2 3250   4.568   0.259  15.070 -0.4185  0.0834 -0.0862
  214MPD1    C3 3251   4.590   0.346  15.176  0.0360  0.0040  0.2954
  214MPD1    C4 3252   4.511   0.341  15.290  0.5090  0.0730 -0.2603
  214MPD1    C5 3253   4.403   0.257  15.290  0.0826  0.5435 -0.1341
  214MPD1     H 3254   4.634   0.260  14.984 -3.8630  0.0964 -2.7332
  214MPD1    H1 3255   4.532   0.394  15.382 -0.2593  0.8141 -0.5188
  214MPD1    H2 3256   4.310   0.100  15.188 -2.0214  2.2472  1.9170
  214MPD1    H3 3257   4.333   0.256  15.373  1.3258  0.8648  0.9250
  214MPD1     N 3258   4.688   0.449  15.163  0.1885  0.3250  0.4460
  214MPD1    H5 3259   0.019   0.453  15.077 -0.2092 -1.4760  0.1264
  214MPD1    N1 3260   4.456   0.055  14.987 -0.1361 -0.0714 -0.8501
  214MPD1    H6 3261   4.357   0.033  14.977  0.0591 -0.3697 -2.2327
  214MPD1    H7 3262   4.489   0.071  14.892  1.1248  1.9993 -0.0430
  215MPD1     C 3263   0.575   1.110  10.760 -0.0587  0.2673  0.3078
  215MPD1    C1 3264   0.670   1.133  10.853 -0.2360 -0.5916  0.7407
  215MPD1    C2 3265   0.676   1.262  10.921 -0.2842  0.2675 -0.1065
  215MPD1    C3 3266   0.591   1.365  10.877  0.3733  0.3092 -0.3117
  215MPD1    C4 3267   0.506   1.340  10.769 -0.8202 -1.0357  0.2705
  215MPD1    C5 3268   0.493   1.210  10.723 -0.2224 -1.0540  0.1386
  215MPD1     H 3269   0.737   1.269  11.010  1.1386  0.3926 -1.0900
  215MPD1    H1 3270   0.432   1.409  10.730  1.2774 -0.9044 -3.5174
  215MPD1    H2 3271   0.555   1.011  10.719 -0.2204  0.4753 -0.1101
  215MPD1    H3 3272   0.414   1.198  10.650 -0.0366  0.5675 -0.3164
  215MPD1     N 3273   0.600   1.489  10.950 -0.0356  0.6347 -0.0527
  215MPD1    H5 3274   0.674   1.493  11.019 -1.2313 -0.0774  1.2809
  215MPD1    N1 3275   0.733   1.021  10.905  0.0948 -0.4425  0.6064
  215MPD1    H6 3276   0.774   0.952  10.843 -0.3935 -0.7879  0.6631
  215MPD1    H7 3277   0.808   1.044  10.969 -0.9030  1.6518  1.0504
  216MPD1     C 3278   2.110   4.224  17.583 -0.7446 -0.1189 -0.7174
  216MPD1    C1 3279   1.983   4.275  17.607 -0.7155  0.2506 -0.5849
  216MPD1    C2 3280   1.876   4.191  17.596 -0.3802  0.4184  0.0419
  216MPD1    C3 3281   1.894   4.058  17.553 -0.5106 -0.1911 -0.2692
  216MPD1    C4 3282   2.025   4.010  17.534  0.1786 -0.0122 -0.2757
  216MPD1    C5 3283   2.132   4.095  17.541 -0.0088  0.5266  0.4019
  216MPD1     H 3284   1.774   4.219  17.621  0.3257  3.1650 -0.1306
  216MPD1    H1 3285   2.048   3.905  17.516 -0.0345  0.0238 -0.7636
  216MPD1    H2 3286   2.194   4.293  17.585 -1.4109  0.5883  3.2475
  216MPD1    H3 3287   2.237   4.072  17.531 -0.2053 -1.8058  3.7515
  216MPD1     N 3288   1.780   3.970  17.543 -0.1620  0.1319 -0.5932
  216MPD1    H5 3289   1.683   3.997  17.555 -0.5773 -1.7359  0.2840
  216MPD1    N1 3290   1.967   4.404  17.658  0.6803 -0.3220  0.0581
  216MPD1    H6 3291   2.044   4.466  17.635 -0.5865  0.0190 -3.2606
  216MPD1    H7 3292   1.880   4.447  17.629 -0.5832 -3.3221 -0.5567
  217MPD1     C 3293   3.881   4.566   8.798  0.0396 -0.3581  0.8245
  217MPD1    C1 3294   3.898   4.703   8.800  0.4202  0.1684 -0.7094
  217MPD1    C2 3295   3.849   0.048   8.913  0.0280 -0.4113 -0.4261
  217MPD1    C3 3296   3.805   4.707   9.023 -0.0312 -0.1001  0.4248
  217MPD1    C4 3297   3.785   4.569   9.018  0.1285  0.1768 -0.0967
  217MPD1    C5 3298   3.828   4.504   8.906 -0.1855 -0.3957 -0.6236
  217MPD1     H 3299   3.865   0.155   8.905 -0.3636 -0.2641  0.8225
  217MPD1    H1 3300   3.747   4.512   9.102  1.6780  1.5139  1.5350
  217MPD1    H2 3301   3.922   4.506   8.718  0.3796  1.5724 -0.4457
  217MPD1    H3 3302   3.817   4.397   8.898  0.0377 -0.3856 -1.0845
  217MPD1     N 3303   3.755   0.049   9.142 -1.2584 -0.3716 -0.5823
  217MPD1    H5 3304   3.728   4.716   9.221  0.5862  1.5198  1.4075
  217MPD1    N1 3305   3.941   0.034   8.680  0.0240 -0.1036 -0.0888
  217MPD1    H6 3306   3.962   0.134   8.673  2.5042 -0.6617 -0.6475
  217MPD1    H7 3307   4.019   4.706   8.641  1.0196  2.4396 -1.5330
  218MPD1     C 3308   4.350   0.678  12.163 -0.3162  1.3274  0.7110
  218MPD1    C1 3309   4.476   0.615  12.158  0.1806  0.1269  0.4400
  218MPD1    C2 3310   4.565   0.651  12.259  0.2446  0.0160  0.5524
  218MPD1    C3 3311   4.546   0.767  12.336 -0.4363  0.7088 -0.0797
  218MPD1    C4 3312   4.425   0.826  12.336  0.6660 -0.4041  0.3936
  218MPD1    C5 3313   4.324   0.776  12.249 -0.0908 -0.0943 -0.3108
  218MPD1     H 3314   4.644   0.580  12.282  0.9936  0.4156 -0.7864
  218MPD1    H1 3315   4.396   0.906  12.402  2.6947  0.0406  0.7509
  218MPD1    H2 3316   4.272   0.645  12.096  0.6169  2.4449 -0.9327
  218MPD1    H3 3317   4.226   0.823  12.244 -0.1455 -0.1032  0.6570
  218MPD1     N 3318   4.643   0.793  12.434  0.1628  0.0689 -0.2932
  218MPD1    H5 3319   0.008   0.745  12.424  0.3617  0.2608  0.5558
  218MPD1    N1 3320   4.493   0.497  12.076 -0.2252  0.2965  0.0051
  218MPD1    H6 3321   4.430   0.500  11.996 -1.1368 -0.3897  0.6982
  218MPD1    H7 3322   4.588   0.467  12.053  0.2099  0.9928  0.9397
  219MPD1     C 3323   0.110   1.488  13.216  0.9997 -0.8241 -0.0369
  219MPD1    C1 3324   0.228   1.442  13.168 -0.3007  0.0105  0.4425
  219MPD1    C2 3325   0.222   1.336  13.075 -0.2943  0.3741 -0.5404
  219MPD1    C3 3326   0.097   1.296  13.018 -0.3424 -0.2780  0.6807
  219MPD1    C4 3327   4.709   1.368  13.057 -0.2490  0.2234 -0.4136
  219MPD1    C5 3328   4.715   1.459  13.159 -0.5259 -0.3085 -0.3454
  219MPD1     H 3329   0.313   1.287  13.040 -0.6163 -1.4646  1.2205
  219MPD1    H1 3330   4.611   1.331  13.029 -0.1835 -0.9302  0.8883
  219MPD1    H2 3331   0.104   1.564  13.292  0.1540 -1.2601  0.3352
  219MPD1    H3 3332   4.627   1.492  13.214 -1.5564  1.2680 -2.9849
  219MPD1     N 3333   0.088   1.190  12.930  0.0426  0.3093 -0.6642
  219MPD1    H5 3334   4.719   1.178  12.890 -0.1713 -1.3900  0.3261
  219MPD1    N1 3335   0.349   1.489  13.222  0.5377  0.3307 -0.4305
  219MPD1    H6 3336   0.427   1.494  13.157  1.3142  3.2577  0.7406
  219MPD1    H7 3337   0.333   1.578  13.268  1.2354 -0.0800  0.6013
  220MPD1     C 3338   4.359   3.068  10.197 -0.4740  0.0408  0.2607
  220MPD1    C1 3339   4.491   3.033  10.206 -0.2431  0.4653 -0.2535
  220MPD1    C2 3340   4.530   2.927  10.283 -0.7797 -0.0241  1.4815
  220MPD1    C3 3341   4.443   2.832  10.320 -0.0922 -0.0053 -0.2123
  220MPD1    C4 3342   4.310   2.859  10.307  0.9163 -0.1288 -0.3691
  220MPD1    C5 3343   4.271   2.975  10.248  0.1386  0.8216 -0.0043
  220MPD1     H 3344   4.636   2.905  10.296 -0.6602 -1.1126 -1.2238
  220MPD1    H1 3345   4.241   2.788  10.351 -0.5743  0.5966 -1.5324
  220MPD1    H2 3346   4.329   3.156  10.141 -1.1538 -0.5022 -0.2178
  220MPD1    H3 3347   4.164   2.994  10.236  0.9324  2.6433 -4.0478
  220MPD1     N 3348   4.493   2.711  10.380 -0.4224 -0.4524 -0.6710
  220MPD1    H5 3349   4.593   2.694  10.378 -0.4333 -0.6716  0.9271
  220MPD1    N1 3350   4.589   3.122  10.165 -0.4126 -0.0396  0.6955
  220MPD1    H6 3351   4.569   3.170  10.077  0.6790  1.2426  1.1457
  220MPD1    H7 3352   4.687   3.095  10.162 -0.7060 -1.0356  0.0805
  221MPD1     C 3353   1.446   0.711  16.614 -0.9120  0.0619 -0.4213
  221MPD1    C1 3354   1.424   0.729  16.478  0.0591 -0.2059  0.2535
  221MPD1    C2 3355   1.529   0.713  16.390  0.2070 -0.0504  0.1047
  221MPD1    C3 3356   1.656   0.681  16.443  0.5786 -0.7380  0.1094
  221MPD1    C4 3357   1.681   0.691  16.577 -0.6956 -0.7462  0.1231
  221MPD1    C5 3358   1.574   0.695  16.656  0.4377 -0.0925  0.1034
  221MPD1     H 3359   1.501   0.703  16.286  1.3247  0.9634 -0.2948
  221MPD1    H1 3360   1.778   0.680  16.623 -0.2237 -2.6553 -1.3644
  221MPD1    H2 3361   1.366   0.713  16.687  0.4897  1.8201  1.0868
  221MPD1    H3 3362   1.588   0.681  16.763  2.1956 -3.4782 -0.5650
  221MPD1     N 3363   1.765   0.649  16.362  0.2922 -0.6546 -0.2296
  221MPD1    H5 3364   1.852   0.637  16.414  0.5999  0.5346 -0.4747
  221MPD1    N1 3365   1.288   0.731  16.430  0.2392 -0.2966  0.3089
  221MPD1    H6 3366   1.286   0.787  16.345  1.4736 -1.3610 -0.4159
  221MPD1    H7 3367   1.233   0.775  16.503 -0.0811 -1.5100  0.8070
  222MPD1     C 3368   2.768   0.547   0.676  0.2074  0.0221  0.0778
  222MPD1    C1 3369   2.882   0.522   0.596 -0.2527  0.4622 -0.1608
  222MPD1    C2 3370   2.866   0.447   0.486 -0.3244  0.6440  0.5739
  222MPD1    C3 3371   2.750   0.371   0.465 -0.4431  0.2935 -0.2878
  222MPD1    C4 3372   2.648   0.371   0.560  0.0284  0.1096  0.4604
  222MPD1    C5 3373   2.652   0.473   0.658  0.0599  0.4027  0.2101
  222MPD1     H 3374   2.954   0.436   0.424 -0.1601  1.0873  0.7302
  222MPD1    H1 3375   2.553   0.323   0.542 -0.7111  1.9558 -0.5114
  222MPD1    H2 3376   2.762   0.642   0.728 -0.5584  0.4775 -0.8477
  222MPD1    H3 3377   2.556   0.493   0.705  0.5539 -0.7510  1.7207
  222MPD1     N 3378   2.726   0.284   0.352 -0.2373  0.5152  0.0581
  222MPD1    H5 3379   2.637   0.236   0.343  0.6431 -1.1117  0.1013
  222MPD1    N1 3380   3.003   0.597   0.619  0.1073 -0.3065  0.1528
  222MPD1    H6 3381   3.013   0.651   0.705 -1.8306  1.0463 -0.4781
  222MPD1    H7 3382   3.085   0.536   0.619  0.3726  0.0654 -1.4780
  223MPD1     C 3383   3.305   4.454  17.449  0.6930  0.9129  0.1888
  223MPD1    C1 3384   3.306   4.509  17.575  0.7547 -0.3255  0.4162
  223MPD1    C2 3385   3.195   4.574  17.631  0.4256 -0.2067 -0.5716
  223MPD1    C3 3386   3.068   4.579  17.568 -0.2862 -0.0850  0.1706
  223MPD1    C4 3387   3.069   4.528  17.441  0.1376  0.0853 -0.2792
  223MPD1    C5 3388   3.186   4.478  17.382 -0.1152  0.1434 -0.1121
  223MPD1     H 3389   3.200   4.620   0.031 -1.0627 -0.0554 -0.5727
  223MPD1    H1 3390   2.975   4.534  17.388 -0.2375 -0.3607  0.3278
  223MPD1    H2 3391   3.391   4.412  17.398  0.8533  0.4575  0.8364
  223MPD1    H3 3392   3.180   4.450  17.277  2.3305  0.5698 -0.3448
  223MPD1     N 3393   2.961   4.647  17.626 -1.1933 -0.2167  0.5747
  223MPD1    H5 3394   2.990   4.690   0.015  2.0560  0.3414 -0.7901
  223MPD1    N1 3395   3.420   4.486  17.662  0.6228  0.1718  0.2825
  223MPD1    H6 3396   3.437   4.561   0.030  0.6831  1.1978 -0.8883
  223MPD1    H7 3397   3.506   4.489  17.608  0.8573  1.9123  0.7692
  224MPD1     C 3398   4.447   1.697  10.142 -0.4087 -0.2360 -0.1691
  224MPD1    C1 3399   4.523   1.586  10.120 -0.7051 -0.2404 -0.6588
  224MPD1    C2 3400   4.457   1.464  10.107  0.4228 -0.2624 -0.4136
  224MPD1    C3 3401   4.324   1.456  10.074 -0.1557 -0.0244  0.8346
  224MPD1    C4 3402   4.251   1.575  10.070  0.1164  0.3112  0.9827
  224MPD1    C5 3403   4.311   1.693  10.112 -0.7199 -0.0484 -0.1618
  224MPD1     H 3404   4.527   1.381  10.098  2.1894  1.3584 -1.5771
  224MPD1    H1 3405   4.152   1.574  10.027  1.3051 -0.6357 -1.7216
  224MPD1    H2 3406   4.487   1.787  10.185 -0.5781  0.6029 -1.7730
  224MPD1    H3 3407   4.254   1.784  10.127  2.4847  1.8529  0.2733
  224MPD1     N 3408   4.259   1.338  10.038  0.2338  0.4587 -0.1688
  224MPD1    H5 3409   4.167   1.337   9.996 -0.8326 -0.2902  2.1384
  224MPD1    N1 3410   4.668   1.587  10.146 -0.3711 -0.0728  0.0292
  224MPD1    H6 3411   4.720   1.515  10.097  1.3247  0.2049  1.4237
  224MPD1    H7 3412   4.705   1.674  10.108 -0.7004  0.0952  0.0944
  225MPD1     C 3413   0.152   2.661  12.038  0.2079  0.0522  0.4723
  225MPD1    C1 3414   0.223   2.610  12.147 -0.2276  0.7311  0.3459
  225MPD1    C2 3415   0.152   2.552  12.252  0.5376 -0.1928  0.4381
  225MPD1    C3 3416   0.018   2.559  12.258 -0.6816 -0.4876 -0.4017
  225MPD1    C4 3417   4.671   2.619  12.153 -0.0548 -0.1930  0.0577
  225MPD1    C5 3418   0.015   2.668  12.043 -0.0800  0.2161  0.3422
  225MPD1     H 3419   0.207   2.500  12.330  1.1193  1.5840  1.2179
  225MPD1    H1 3420   4.564   2.611  12.161 -0.1055 -0.5413 -1.0721
  225MPD1    H2 3421   0.202   2.701  11.950 -0.1655  0.4877  0.4587
  225MPD1    H3 3422   4.685   2.716  11.962 -1.6107  0.3913  1.4642
  225MPD1     N 3423   4.667   2.492  12.360 -0.1129  0.7721  0.1377
  225MPD1    H5 3424   4.565   2.493  12.363 -0.1493  0.8992 -1.1919
  225MPD1    N1 3425   0.356   2.576  12.137 -0.5196 -0.2930 -0.8161
  225MPD1    H6 3426   0.415   2.639  12.084 -0.9531  0.1253 -0.8014
  225MPD1    H7 3427   0.391   2.554  12.230 -1.6121  0.7659 -0.1551
  226MPD1     C 3428   3.728   1.203   8.835 -0.0323 -0.5977  0.2387
  226MPD1    C1 3429   3.604   1.161   8.880  0.3972  0.5373  0.2534
  226MPD1    C2 3430   3.542   1.231   8.981  0.8932 -0.4393  0.5731
  226MPD1    C3 3431   3.586   1.350   9.018  0.3052 -0.6937  0.5522
  226MPD1    C4 3432   3.704   1.397   8.969  0.2225  0.4409 -0.0067
  226MPD1    C5 3433   3.784   1.320   8.885  0.4846  0.3978  0.4643
  226MPD1     H 3434   3.454   1.190   9.030  0.8880 -0.3292  0.6573
  226MPD1    H1 3435   3.746   1.489   9.008 -0.2744  0.0626  1.4476
  226MPD1    H2 3436   3.781   1.144   8.760 -1.2285 -0.2362 -0.8880
  226MPD1    H3 3437   3.877   1.348   8.837 -1.1846 -1.1077 -3.6458
  226MPD1     N 3438   3.510   1.420   9.122  0.5808  0.3182  0.0105
  226MPD1    H5 3439   3.427   1.374   9.158  0.7484  1.0990  1.4148
  226MPD1    N1 3440   3.559   1.036   8.842  0.2034 -0.4436  0.4463
  226MPD1    H6 3441   3.583   0.999   8.750  0.2718  0.1640  0.2237
  226MPD1    H7 3442   3.458   1.024   8.852 -0.2204  1.7633 -1.2427
  227MPD1     C 3443   2.674   1.322   9.083 -0.6803 -0.6941 -0.1347
  227MPD1    C1 3444   2.792   1.247   9.074  0.4507 -0.3372 -0.2970
  227MPD1    C2 3445   2.911   1.314   9.095 -0.0412 -0.2639 -0.7478
  227MPD1    C3 3446   2.913   1.447   9.127 -0.5366  0.0940  0.1878
  227MPD1    C4 3447   2.797   1.520   9.142 -0.6784  0.7056 -0.0908
  227MPD1    C5 3448   2.676   1.456   9.125  0.4754 -0.1937  0.1242
  227MPD1     H 3449   3.001   1.254   9.083  0.2808  0.2020 -0.6519
  227MPD1    H1 3450   2.793   1.627   9.158 -2.7406  0.4833  0.9036
  227MPD1    H2 3451   2.579   1.271   9.074 -0.9414  0.0430 -1.4471
  227MPD1    H3 3452   2.582   1.504   9.151 -0.0488 -1.5614  0.7150
  227MPD1     N 3453   3.046   1.500   9.144  0.3393  0.1393 -0.1715
  227MPD1    H5 3454   3.119   1.431   9.131  0.5180  0.3545 -0.3058
  227MPD1    N1 3455   2.791   1.113   9.028  1.0727  0.6602  0.9086
  227MPD1    H6 3456   2.711   1.069   9.074  2.1364 -1.9817  0.2091
  227MPD1    H7 3457   2.875   1.057   9.041  2.0658  1.1147 -3.5925
  228MPD1     C 3458   1.477   0.049  12.909  0.8126  0.2073 -0.6533
  228MPD1    C1 3459   1.413   0.012  13.029  0.1429 -0.5700  0.3901
  228MPD1    C2 3460   1.281   4.696  13.020  0.2241 -0.1173  0.4047
  228MPD1    C3 3461   1.209   0.009  12.909 -0.1148 -0.4397  0.0581
  228MPD1    C4 3462   1.265   0.069  12.802 -0.2773 -0.7205  0.4367
  228MPD1    C5 3463   1.404   0.080  12.800  0.8359  0.2835 -0.3253
  228MPD1     H 3464   1.227   4.650  13.102  2.7448 -1.4259  1.3115
  228MPD1    H1 3465   1.214   0.101  12.711 -0.6202  0.0248  0.8876
  228MPD1    H2 3466   1.583   0.067  12.902  0.7575  0.0681 -1.8146
  228MPD1    H3 3467   1.451   0.107  12.705 -0.1951 -0.4696 -1.0475
  228MPD1     N 3468   1.073   4.699  12.906 -0.8752  0.0398 -0.4032
  228MPD1    H5 3469   1.038   4.657  12.991  0.9879 -1.8253 -0.5416
  228MPD1    N1 3470   1.494   4.704  13.139 -0.2626 -0.9118 -0.5010
  228MPD1    H6 3471   1.439   4.711  13.224  0.8661 -0.4544  0.1838
  228MPD1    H7 3472   1.578   0.037  13.136 -0.1766 -0.9685  1.1587
  229MPD1     C 3473   0.723   3.574  14.715  0.3677 -0.5146  0.0443
  229MPD1    C1 3474   0.803   3.490  14.639  0.8209  1.0228 -0.3856
  229MPD1    C2 3475   0.894   3.405  14.707 -0.6764 -0.3817 -1.0379
  229MPD1    C3 3476   0.887   3.383  14.839  0.1813 -0.2900  0.5907
  229MPD1    C4 3477   0.800   3.458  14.910  0.7476 -0.7385 -0.1422
  229MPD1    C5 3478   0.721   3.552  14.847 -0.0215  0.0383 -0.0966
  229MPD1     H 3479   0.973   3.356  14.651  0.8060 -0.2614  0.9719
  229MPD1    H1 3480   0.791   3.449  15.018  2.2012 -3.1958 -0.2386
  229MPD1    H2 3481   0.651   3.645  14.675  1.4038  2.0598  2.8364
  229MPD1    H3 3482   0.646   3.607  14.904 -0.6478 -1.3736  0.4538
  229MPD1     N 3483   0.963   3.294  14.911  0.0178  1.2966  0.2002
  229MPD1    H5 3484   0.957   3.291  15.012  1.0629  1.2628  0.2658
  229MPD1    N1 3485   0.832   3.536  14.511  0.3638 -0.0965  0.2912
  229MPD1    H6 3486   0.856   3.461  14.446  1.1705  2.0178 -1.8487
  229MPD1    H7 3487   0.761   3.599  14.474 -0.7621 -1.1503  0.6525
  230MPD1     C 3488   1.066   3.186  15.752 -0.1149 -1.5015 -0.2482
  230MPD1    C1 3489   0.953   3.195  15.665 -0.7170 -0.0314 -0.0197
  230MPD1    C2 3490   0.981   3.158  15.537  0.0168 -0.1293  0.1335
  230MPD1    C3 3491   1.111   3.143  15.489  0.6297  0.1075  0.9095
  230MPD1    C4 3492   1.218   3.133  15.579  0.1233 -0.5592  0.3839
  230MPD1    C5 3493   1.192   3.152  15.713  0.3536  0.3456  0.8269
  230MPD1     H 3494   0.893   3.155  15.474 -0.1685 -0.6445  0.4209
  230MPD1    H1 3495   1.319   3.116  15.546 -0.8642  0.8262 -3.3335
  230MPD1    H2 3496   1.049   3.198  15.859  0.0293 -0.7713 -0.3058
  230MPD1    H3 3497   1.274   3.163  15.784  0.8853  1.4048  0.0489
  230MPD1     N 3498   1.128   3.113  15.352 -0.1677  0.0869 -0.2619
  230MPD1    H5 3499   1.050   3.131  15.291 -1.6469 -0.4966  1.4544
  230MPD1    N1 3500   0.822   3.215  15.715 -0.2826  0.2659  0.1452
  230MPD1    H6 3501   0.763   3.246  15.638 -0.1328  0.5798  0.1574
  230MPD1    H7 3502   0.821   3.291  15.783 -2.5972  0.2086  0.1562
  231MPD1     C 3503   3.691   0.381  15.808 -0.2247 -0.2702  0.8507
  231MPD1    C1 3504   3.746   0.277  15.746  0.2141 -0.0180  0.0669
  231MPD1    C2 3505   3.811   0.293  15.620  0.4769  0.6366 -0.8046
  231MPD1    C3 3506   3.832   0.426  15.573  0.0183  0.2903 -0.7774
  231MPD1    C4 3507   3.777   0.533  15.645 -0.0031 -0.8355  0.3997
  231MPD1    C5 3508   3.695   0.507  15.753  0.3916  0.6561 -0.0608
  231MPD1     H 3509   3.857   0.204  15.579 -0.8347 -0.0734 -0.7265
  231MPD1    H1 3510   3.792   0.637  15.619  1.3137 -1.7008 -2.2541
  231MPD1    H2 3511   3.661   0.372  15.911 -0.4690 -1.0539  0.7057
  231MPD1    H3 3512   3.656   0.592  15.808 -4.1706 -1.2723 -0.3221
  231MPD1     N 3513   3.921   0.447  15.464 -0.0117  0.3914  0.6572
  231MPD1    H5 3514   3.944   0.371  15.402 -0.3195 -0.3303  1.4261
  231MPD1    N1 3515   3.718   0.148  15.803  0.6772 -0.4436 -0.2498
  231MPD1    H6 3516   3.688   0.151  15.900  1.0336 -1.5748 -0.1085
  231MPD1    H7 3517   3.783   0.072  15.782 -0.5357 -1.1150 -1.6087
  232MPD1     C 3518   1.320   2.967   0.011  0.3779 -0.2585 -0.3578
  232MPD1    C1 3519   1.279   2.895   0.117 -0.0618 -0.8275  0.4843
  232MPD1    C2 3520   1.156   2.922   0.170  0.4000 -0.4082  0.1552
  232MPD1    C3 3521   1.071   3.015   0.107 -0.0642 -0.9517  1.1330
  232MPD1    C4 3522   1.116   3.084   0.001 -0.5163 -0.3280 -0.1197
  232MPD1    C5 3523   1.241   3.059  17.647 -0.2433  0.1760  0.1591
  232MPD1     H 3524   1.116   2.874   0.258 -0.1840 -0.1000  0.0584
  232MPD1    H1 3525   1.055   3.162  17.655 -1.1930 -0.3181  0.8447
  232MPD1    H2 3526   1.420   2.957  17.668 -0.4433 -0.3851 -2.3213
  232MPD1    H3 3527   1.290   3.128  17.579 -1.3709  0.6439 -0.1706
  232MPD1     N 3528   0.943   3.028   0.167  0.3147 -0.2736  0.7979
  232MPD1    H5 3529   0.928   2.967   0.247  1.6441 -0.5151  0.8596
  232MPD1    N1 3530   1.377   2.820   0.181  0.6752  0.1348 -0.3451
  232MPD1    H6 3531   1.443   2.769   0.122 -2.8104  0.3953 -4.4611
  232MPD1    H7 3532   1.342   2.742   0.235 -0.7717  1.1359  0.1550
  233MPD1     C 3533   1.842   0.062   1.084 -0.9456  0.6337  0.3408
  233MPD1    C1 3534   1.885   0.022   1.211  0.2846 -0.7681  0.0309
  233MPD1    C2 3535   2.014   0.057   1.252  0.0310  0.0037 -0.0650
  233MPD1    C3 3536   2.078   0.163   1.193  0.2898  0.2250 -0.2453
  233MPD1    C4 3537   2.028   0.206   1.070 -0.7376  0.8719  0.6528
  233MPD1    C5 3538   1.916   0.146   1.009 -0.3089 -1.3076  0.1115
  233MPD1     H 3539   2.049   0.009   1.343 -0.1730 -0.8926 -0.4623
  233MPD1    H1 3540   2.069   0.293   1.021 -2.9528  1.8884  0.6243
  233MPD1    H2 3541   1.758   0.016   1.034 -0.4968  1.9244 -1.5886
  233MPD1    H3 3542   1.885   0.180   0.911  1.8589  0.1874 -0.0563
  233MPD1     N 3543   2.193   0.227   1.245  0.2757  0.2263 -0.2990
  233MPD1    H5 3544   2.233   0.296   1.181  0.6221 -1.2671 -1.6908
  233MPD1    N1 3545   1.803   4.640   1.265  0.2397  0.2627  0.0799
  233MPD1    H6 3546   1.818   4.630   1.365 -0.3153 -2.0597 -0.0897
  233MPD1    H7 3547   1.703   4.656   1.252  0.0978  0.5279  1.4887
  234MPD1     C 3548   4.009   4.239  10.977  0.7045 -0.0346  0.0830
  234MPD1    C1 3549   4.116   4.325  10.967  0.3502  0.1821  0.4174
  234MPD1    C2 3550   4.138   4.401  10.844  0.1814 -0.5892 -0.0927
  234MPD1    C3 3551   4.035   4.399  10.757  0.6534  0.4368  0.2685
  234MPD1    C4 3552   3.927   4.315  10.767  0.0696 -0.6168  0.1503
  234MPD1    C5 3553   3.912   4.234  10.881  0.0059  0.0434  0.0953
  234MPD1     H 3554   4.225   4.461  10.822 -0.4923  0.3333 -0.2449
  234MPD1    H1 3555   3.844   4.312  10.698  1.2029 -2.7051 -1.0947
  234MPD1    H2 3556   3.994   4.176  11.065 -2.8390 -0.8164 -1.0982
  234MPD1    H3 3557   3.822   4.176  10.900 -0.8040  0.5942 -1.9960
  234MPD1     N 3558   4.047   4.489  10.649 -0.1513 -0.4859  0.1624
  234MPD1    H5 3559   4.122   4.558  10.658  0.3806 -1.2433  1.5149
  234MPD1    N1 3560   4.219   4.319  11.064 -0.1512 -0.0034  0.6241
  234MPD1    H6 3561   4.268   4.406  11.083  1.2189 -0.3454 -1.2722
  234MPD1    H7 3562   4.179   4.285  11.151  1.0190  1.1786  1.6118
  235MPD1     C 3563   0.747   2.717  11.447  0.1825 -0.0645  0.4793
  235MPD1    C1 3564   0.753   2.638  11.335 -0.0675 -0.2899  0.2796
  235MPD1    C2 3565   0.792   2.701  11.222 -0.2258 -0.8800  0.2488
  235MPD1    C3 3566   0.833   2.832  11.211  0.5368  0.2867 -0.6379
  235MPD1    C4 3567   0.833   2.906  11.325  0.0555 -0.1259 -0.6384
  235MPD1    C5 3568   0.786   2.847  11.439 -0.4744  0.5028 -0.1880
  235MPD1     H 3569   0.799   2.642  11.131  0.8269 -0.1699 -0.1225
  235MPD1    H1 3570   0.872   3.006  11.338  0.4845 -0.6899  2.4635
  235MPD1    H2 3571   0.711   2.669  11.537  0.3680  1.7714  1.5201
  235MPD1    H3 3572   0.789   2.883  11.541  1.9083 -2.4704  0.8201
  235MPD1     N 3573   0.884   2.877  11.086  0.3489  0.3147 -0.2713
  235MPD1    H5 3574   0.883   2.816  11.005  1.7616 -1.7027  1.2201
  235MPD1    N1 3575   0.690   2.516  11.334  0.2597  0.0381 -0.3753
  235MPD1    H6 3576   0.696   2.466  11.423  0.8058  0.9266  0.0838
  235MPD1    H7 3577   0.730   2.446  11.271  3.6656  2.0200 -0.3795
  236MPD1     C 3578   0.291   3.944  10.342  0.4022 -0.0807  0.0276
  236MPD1    C1 3579   0.212   3.836  10.372 -0.8232 -0.0677  0.1202
  236MPD1    C2 3580   0.235   3.770  10.496 -0.2808 -0.6282  0.3380
  236MPD1    C3 3581   0.357   3.793  10.565  0.7487 -0.1955  0.1824
  236MPD1    C4 3582   0.439   3.895  10.528 -0.6122  0.6793  0.2065
  236MPD1    C5 3583   0.400   3.967  10.417  0.7475 -0.2893  0.1373
  236MPD1     H 3584   0.164   3.700  10.539 -1.5986 -0.6366 -1.8546
  236MPD1    H1 3585   0.535   3.900  10.578  0.3970  1.7962 -1.8587
  236MPD1    H2 3586   0.266   4.019  10.268  0.5174  1.1633  1.2564
  236MPD1    H3 3587   0.459   4.055  10.391  0.8675 -0.4639 -0.1814
  236MPD1     N 3588   0.391   3.721  10.686 -0.1220  0.2641 -0.1586
  236MPD1    H5 3589   0.474   3.745  10.739  0.4920  1.5521 -1.7119
  236MPD1    N1 3590   0.096   3.815  10.298  0.8660 -0.4185 -0.1633
  236MPD1    H6 3591   0.062   3.719  10.289 -0.3883  0.3802 -3.8357
  236MPD1    H7 3592   0.091   3.860  10.207 -1.5773  0.1652  0.2522
  237MPD1     C 3593   4.669   1.343  15.639 -0.2337  0.4548 -0.4059
  237MPD1    C1 3594   4.600   1.310  15.527  0.2047 -0.1422  0.3096
  237MPD1    C2 3595   4.487   1.382  15.497 -0.3674  0.4852 -0.5650
  237MPD1    C3 3596   4.446   1.478  15.588  0.2949  0.2325  0.6957
  237MPD1    C4 3597   4.518   1.505  15.702  0.1355 -0.4018  0.0974
  237MPD1    C5 3598   4.627   1.432  15.736  0.2520 -0.0019 -0.5265
  237MPD1     H 3599   4.442   1.379  15.398 -2.0636 -1.6506  0.2647
  237MPD1    H1 3600   4.488   1.582  15.773 -0.5012 -0.4986 -0.0646
  237MPD1    H2 3601   0.039   1.293  15.654 -0.4138  0.7739  1.7539
  237MPD1    H3 3602   4.687   1.446  15.825  0.6952 -0.9336 -0.6821
  237MPD1     N 3603   4.327   1.542  15.574  0.3724  0.4142 -0.3233
  237MPD1    H5 3604   4.312   1.615  15.643 -0.1520  0.6918 -0.7394
  237MPD1    N1 3605   4.635   1.210  15.436 -0.3114  0.1192  0.4240
  237MPD1    H6 3606   4.724   1.175  15.474 -0.5534  0.3868  1.2504
  237MPD1    H7 3607   4.651   1.245  15.342 -0.8098  1.0895  0.6945
  238MPD1     C 3608   0.634   1.100  15.453 -0.7176 -0.2607  0.3148
  238MPD1    C1 3609   0.617   1.169  15.337  0.5938 -0.2204  0.2236
  238MPD1    C2 3610   0.626   1.097  15.220  0.2792 -0.2156  0.5323
  238MPD1    C3 3611   0.670   0.960  15.215 -0.5898  0.8750  0.1436
  238MPD1    C4 3612   0.698   0.897  15.338  0.5512 -0.1100 -0.5960
  238MPD1    C5 3613   0.670   0.967  15.452  0.3045 -0.1889  0.0153
  238MPD1     H 3614   0.585   1.149  15.134  0.0926  0.4040  0.9942
  238MPD1    H1 3615   0.724   0.792  15.334  0.4180 -0.1755  0.2466
  238MPD1    H2 3616   0.619   1.147  15.549  0.4298 -0.1894  0.4593
  238MPD1    H3 3617   0.681   0.912  15.546 -0.0574 -1.5152 -0.7169
  238MPD1     N 3618   0.696   0.880  15.100  0.1619  0.1491  0.7130
  238MPD1    H5 3619   0.705   0.779  15.112 -0.6805 -0.2602 -1.9749
  238MPD1    N1 3620   0.570   1.295  15.335  0.0828 -0.8756  0.5193
  238MPD1    H6 3621   0.603   1.348  15.415 -0.2992  0.0647  0.0535
  238MPD1    H7 3622   0.602   1.348  15.254 -0.3249 -1.3792  0.0193
  239MPD1     C 3623   1.349   1.781  15.055 -0.2015 -0.6807 -0.1618
  239MPD1    C1 3624   1.451   1.822  14.971 -0.3583  1.4501  0.1148
  239MPD1    C2 3625   1.430   1.826  14.836 -0.2011  0.6742  0.3089
  239MPD1    C3 3626   1.331   1.758  14.788  0.2060  0.0212 -0.5060
  239MPD1    C4 3627   1.231   1.707  14.867 -0.2985  0.4218  0.1397
  239MPD1    C5 3628   1.238   1.715  15.006 -0.1552 -0.8731 -0.2744
  239MPD1     H 3629   1.491   1.886  14.770  0.2582 -0.8738 -0.6756
  239MPD1    H1 3630   1.142   1.662  14.826  0.9364 -1.1959 -0.7455
  239MPD1    H2 3631   1.356   1.792  15.162 -1.6068 -0.9347 -0.0394
  239MPD1    H3 3632   1.156   1.679  15.066  0.8137  0.5964  1.9232
  239MPD1     N 3633   1.312   1.734  14.656  0.2396 -0.4567  0.5526
  239MPD1    H5 3634   1.220   1.697  14.637  0.0829  0.6075 -0.6965
  239MPD1    N1 3635   1.563   1.885  15.027 -0.0272 -0.4058  0.6604
  239MPD1    H6 3636   1.596   1.846  15.115  0.2029 -0.8546  0.3744
  239MPD1    H7 3637   1.639   1.891  14.960  0.3572  1.2992  1.2257
  240MPD1     C 3638   4.561   1.551  13.590  0.4023 -0.1614 -0.6153
  240MPD1    C1 3639   4.517   1.422  13.607  0.2140 -0.1615  0.0916
  240MPD1    C2 3640   4.611   1.318  13.633  0.4747 -0.3069  0.6919
  240MPD1    C3 3641   0.025   1.341  13.631 -0.4984  0.0462 -1.0291
  240MPD1    C4 3642   0.065   1.471  13.603 -0.5608 -0.0104 -0.3135
  240MPD1    C5 3643   4.697   1.574  13.599  0.8086 -1.3669  0.0693
  240MPD1     H 3644   4.572   1.219  13.651 -0.0430 -0.2760 -0.3053
  240MPD1    H1 3645   0.171   1.490  13.588 -0.6980  0.8915 -0.1295
  240MPD1    H2 3646   4.504   1.640  13.565 -1.8991 -1.1808  0.9512
  240MPD1    H3 3647   0.003   1.675  13.576 -0.4369 -1.6407 -2.7217
  240MPD1     N 3648   0.112   1.235  13.656  0.3013  0.3789  0.4086
  240MPD1    H5 3649   0.062   1.147  13.670  0.3652  0.6038  2.0320
  240MPD1    N1 3650   4.378   1.397  13.613 -0.4210 -0.1155 -0.2331
  240MPD1    H6 3651   4.354   1.301  13.588  1.6304 -0.5152 -0.6912
  240MPD1    H7 3652   4.333   1.470  13.558 -0.8630 -0.3801 -0.2216
  241MPD1     C 3653   0.955   0.783  13.332  0.6627 -0.9035 -0.4083
  241MPD1    C1 3654   0.842   0.701  13.337  0.6701 -0.4698 -0.2428
  241MPD1    C2 3655   0.744   0.749  13.420 -0.0116  0.4028  0.1146
  241MPD1    C3 3656   0.746   0.872  13.484  0.0288 -0.4733  0.6522
  241MPD1    C4 3657   0.850   0.954  13.465 -0.4508  0.4879  0.7109
  241MPD1    C5 3658   0.953   0.913  13.380  0.5349 -0.2297 -0.8672
  241MPD1     H 3659   0.661   0.684  13.441  2.2098 -2.2365  0.6982
  241MPD1    H1 3660   0.854   1.055  13.504  1.2035  0.5182  0.4929
  241MPD1    H2 3661   1.047   0.761  13.280  0.8052  0.5902 -0.7923
  241MPD1    H3 3662   1.043   0.968  13.356  0.2359 -0.9703 -3.6318
  241MPD1     N 3663   0.639   0.926  13.553  0.2092  0.4546  0.5014
  241MPD1    H5 3664   0.649   1.024  13.579  0.2465  0.0257  2.1119
  241MPD1    N1 3665   0.847   0.562  13.304 -0.5516 -0.2689  0.0181
  241MPD1    H6 3666   0.896   0.561  13.215  0.4609  1.6640  0.5290
  241MPD1    H7 3667   0.750   0.536  13.293 -0.2214 -1.9306  1.0700
  242MPD1     C 3668   0.282   4.099  15.934 -0.1241  0.0786 -0.5994
  242MPD1    C1 3669   0.332   3.968  15.939  1.1974  0.3299  0.2628
  242MPD1    C2 3670   0.372   3.902  15.825 -0.1099 -0.1148 -0.7853
  242MPD1    C3 3671   0.359   3.969  15.707 -0.0250  0.6138 -0.7454
  242MPD1    C4 3672   0.298   4.095  15.701 -0.3173 -0.1257  1.0383
  242MPD1    C5 3673   0.259   4.163  15.817 -0.2027  1.0521 -0.5765
  242MPD1     H 3674   0.412   3.801  15.829 -0.1059 -0.0505  0.6373
  242MPD1    H1 3675   0.274   4.148  15.610 -0.4338 -1.6081  0.2112
  242MPD1    H2 3676   0.253   4.150  16.026  1.5847  0.5147 -0.3066
  242MPD1    H3 3677   0.226   4.266  15.816  1.2361  1.5237  1.2090
  242MPD1     N 3678   0.401   3.900  15.593  0.1020  0.3866 -0.1885
  242MPD1    H5 3679   0.453   3.814  15.603 -2.1174 -0.7670  1.3974
  242MPD1    N1 3680   0.359   3.912  16.067  0.2530  0.4914 -0.2133
  242MPD1    H6 3681   0.363   3.811  16.057 -0.0589  0.5920 -1.3848
  242MPD1    H7 3682   0.296   3.941  16.141 -0.6853  1.7615 -1.5177
  243MPD1     C 3683   2.665   3.129   0.180 -0.0824  0.2953  0.5801
  243MPD1    C1 3684   2.575   3.206   0.103  0.2335 -0.4904  0.4718
  243MPD1    C2 3685   2.497   3.150   0.005 -0.1295 -0.3702 -0.5811
  243MPD1    C3 3686   2.486   3.010  17.687  0.3424 -1.0177 -0.0280
  243MPD1    C4 3687   2.573   2.935   0.065 -0.8537  0.1130  0.0278
  243MPD1    C5 3688   2.655   2.995   0.156 -0.3024  0.2102  0.4607
  243MPD1     H 3689   2.437   3.206  17.632  2.6331  1.5829 -1.3979
  243MPD1    H1 3690   2.569   2.827   0.076 -2.9426  0.6340  4.7111
  243MPD1    H2 3691   2.739   3.170   0.248 -1.4362  1.8362  1.1197
  243MPD1    H3 3692   2.721   2.936   0.218 -1.5323  0.2687  1.8517
  243MPD1     N 3693   2.405   2.953  17.583 -0.1372  0.6492  0.5606
  243MPD1    H5 3694   2.356   3.014  17.518 -3.1749 -0.5478  1.7190
  243MPD1    N1 3695   2.566   3.340   0.119  0.0495  0.3989 -0.1194
  243MPD1    H6 3696   2.606   3.365   0.209  0.5025 -3.2053  0.7006
  243MPD1    H7 3697   2.467   3.357   0.136  0.1626 -1.4391  2.3935
  244MPD1     C 3698   1.569   2.340  17.307 -0.2587 -0.2289  0.1367
  244MPD1    C1 3699   1.586   2.436  17.210  0.3030 -0.2231 -0.7892
  244MPD1    C2 3700   1.704   2.504  17.212 -0.2746 -0.0162 -0.5255
  244MPD1    C3 3701   1.795   2.487  17.315 -0.4516 -0.2395  0.4100
  244MPD1    C4 3702   1.765   2.401  17.418 -0.6813 -0.3079 -0.1221
  244MPD1    C5 3703   1.659   2.322  17.407 -0.7415  0.0331  0.3380
  244MPD1     H 3704   1.733   2.574  17.133  0.9769  0.2009  0.1197
  244MPD1    H1 3705   1.824   2.392  17.509 -0.3280 -1.0381 -0.4308
  244MPD1    H2 3706   1.484   2.274  17.307 -1.0991  0.8591 -0.1079
  244MPD1    H3 3707   1.642   2.252  17.488  3.0270 -0.8788  0.3393
  244MPD1     N 3708   1.916   2.567  17.307  0.4735  0.0416  0.3980
  244MPD1    H5 3709   1.913   2.630  17.228 -1.1193 -1.2652 -0.5651
  244MPD1    N1 3710   1.506   2.432  17.089 -1.1442  0.3600  0.2008
  244MPD1    H6 3711   1.415   2.389  17.102 -1.1149  0.1793 -0.2080
  244MPD1    H7 3712   1.501   2.517  17.034  2.4027  0.9707  0.7915
  245MPD1     C 3713   0.127   3.941  12.676  0.1092  0.0172  0.2039
  245MPD1    C1 3714   0.041   4.046  12.711 -0.2714 -0.1967 -0.0347
  245MPD1    C2 3715   4.672   4.017  12.809 -0.5235  0.4810 -0.5236
  245MPD1    C3 3716   4.668   3.908  12.892  0.6143 -0.7390 -0.4430
  245MPD1    C4 3717   0.036   3.812  12.860  0.3479 -0.0121 -0.4733
  245MPD1    C5 3718   0.124   3.826  12.753 -0.2254 -0.4178  0.1091
  245MPD1     H 3719   4.600   4.094  12.831  0.9011  2.7831 -3.9845
  245MPD1    H1 3720   0.048   3.715  12.907 -0.0051 -0.4317 -1.2562
  245MPD1    H2 3721   0.202   3.944  12.598 -0.1158 -2.6051 -0.1073
  245MPD1    H3 3722   0.184   3.739  12.731  0.1085 -0.8824  2.7929
  245MPD1     N 3723   4.567   3.887  12.989  0.4356 -0.5047 -0.0928
  245MPD1    H5 3724   4.482   3.941  12.983  2.1011  1.8358 -2.6918
  245MPD1    N1 3725   0.022   4.161  12.633  0.1764  0.5272 -0.0262
  245MPD1    H6 3726   0.117   4.177  12.600 -1.1371  1.8835 -3.1528
  245MPD1    H7 3727   4.717   4.233  12.699 -0.1212 -0.3130  0.7613
  246MPD1     C 3728   3.305   0.611   8.890  0.1001  0.1228 -0.5325
  246MPD1    C1 3729   3.337   0.482   8.919  0.3496 -0.6623  0.1687
  246MPD1    C2 3730   3.474   0.451   8.929 -0.3867 -0.2697 -0.2750
  246MPD1    C3 3731   3.572   0.547   8.897  0.2908  0.5764  0.2714
  246MPD1    C4 3732   3.531   0.672   8.880  0.1576 -0.4523 -0.0761
  246MPD1    C5 3733   3.400   0.700   8.864  0.5088 -0.0393  0.7755
  246MPD1     H 3734   3.513   0.350   8.940 -0.9103 -0.4666 -0.2110
  246MPD1    H1 3735   3.601   0.748   8.848 -0.2270  0.1775  0.5648
  246MPD1    H2 3736   3.203   0.646   8.877 -0.8394 -1.8540  1.5196
  246MPD1    H3 3737   3.377   0.804   8.844 -1.8203 -0.5867  0.6473
  246MPD1     N 3738   3.712   0.509   8.914  0.8353 -1.0618  0.0418
  246MPD1    H5 3739   3.728   0.418   8.955  0.8647 -0.8680  0.4642
  246MPD1    N1 3740   3.239   0.383   8.909  0.7483  0.2059 -0.1379
  246MPD1    H6 3741   3.266   0.289   8.938 -2.2630 -0.4643  0.5641
  246MPD1    H7 3742   3.156   0.400   8.966 -0.6368  0.3389 -2.2034
  247MPD1     C 3743   2.932   3.636  15.754 -0.3076  0.4605  0.1839
  247MPD1    C1 3744   2.859   3.600  15.864 -0.2761 -0.6789 -0.3269
  247MPD1    C2 3745   2.928   3.511  15.947  0.4405 -0.0445  0.3623
  247MPD1    C3 3746   3.056   3.462  15.921 -0.7366 -0.3113 -0.1512
  247MPD1    C4 3747   3.115   3.486  15.800  0.1947  0.0413  0.1991
  247MPD1    C5 3748   3.051   3.576  15.715  0.5695 -0.3508  0.3231
  247MPD1     H 3749   2.877   3.465  16.031 -1.9702 -1.3661 -1.8012
  247MPD1    H1 3750   3.209   3.443  15.768  0.7601  2.6414 -1.6130
  247MPD1    H2 3751   2.889   3.712  15.690 -0.9055 -0.7363 -0.8298
  247MPD1    H3 3752   3.104   3.613  15.628 -0.3661  2.6343  1.0190
  247MPD1     N 3753   3.122   3.368  16.000 -0.0616 -0.2067  0.0152
  247MPD1    H5 3754   3.206   3.327  15.960 -1.4372 -0.8745 -2.2049
  247MPD1    N1 3755   2.735   3.656  15.890  0.5547 -0.4614 -0.4137
  247MPD1    H6 3756   2.683   3.675  15.805  1.6422  2.2253 -0.5076
  247MPD1    H7 3757   2.688   3.587  15.947  0.8634  0.0268  0.4419
  248MPD1     C 3758   3.848   2.971   0.331  0.4652 -0.3642 -0.4161
  248MPD1    C1 3759   3.800   2.846   0.370  0.3736  0.2981 -0.1852
  248MPD1    C2 3760   3.678   2.845   0.438  0.2757 -0.6512 -0.2858
  248MPD1    C3 3761   3.607   2.957   0.467  0.9402  0.1627 -0.2893
  248MPD1    C4 3762   3.657   3.081   0.426  0.0994 -0.7952 -0.4159
  248MPD1    C5 3763   3.781   3.089   0.364 -0.7284  0.2388  0.4139
  248MPD1     H 3764   3.632   2.751   0.466  0.6800 -0.7902 -0.0813
  248MPD1    H1 3765   3.608   3.175   0.450  1.1746 -0.0723 -1.0455
  248MPD1    H2 3766   3.947   2.978   0.288  0.8142  0.2608  0.4983
  248MPD1    H3 3767   3.828   3.185   0.346 -1.0211  0.0849 -1.1631
  248MPD1     N 3768   3.485   2.947   0.542  0.8180 -0.1158  0.4805
  248MPD1    H5 3769   3.474   2.860   0.594 -0.6105 -1.7103 -2.4777
  248MPD1    N1 3770   3.892   2.739   0.360  1.0070  0.2814  0.1926
  248MPD1    H6 3771   3.927   2.730   0.265  0.6132 -1.3196  0.2113
  248MPD1    H7 3772   3.848   2.650   0.381 -2.2654  1.7264 -0.4855
  249MPD1     C 3773   1.191   1.428  10.086 -0.6991  0.3118 -0.1437
  249MPD1    C1 3774   1.054   1.406  10.096 -0.4232  0.6168 -0.2226
  249MPD1    C2 3775   0.969   1.512  10.125  0.1169  0.4197 -0.1463
  249MPD1    C3 3776   1.020   1.629  10.169 -0.4676  0.0269 -0.6308
  249MPD1    C4 3777   1.160   1.653  10.160 -0.0539 -0.7051  0.4032
  249MPD1    C5 3778   1.239   1.546  10.123  0.6620  0.6310  0.1841
  249MPD1     H 3779   0.863   1.489  10.124  0.0753  0.5463  1.4027
  249MPD1    H1 3780   1.207   1.742  10.199  0.9126 -1.7620  1.6535
  249MPD1    H2 3781   1.266   1.350  10.077  0.2349  1.3872 -1.6075
  249MPD1    H3 3782   1.346   1.562  10.130  0.7532  1.5966 -3.2467
  249MPD1     N 3783   0.928   1.727  10.202  0.0669  0.1592 -0.3724
  249MPD1    H5 3784   0.836   1.709  10.164  0.5267 -0.4631 -1.1970
  249MPD1    N1 3785   0.998   1.285  10.041  0.1522 -0.1180  0.2488
  249MPD1    H6 3786   1.061   1.206  10.029  1.6013  1.0573  0.1344
  249MPD1    H7 3787   0.918   1.257  10.097 -0.2367  1.4876  0.4995
  250MPD2     C 3788   2.113   2.084  13.591 -0.1993 -0.1403 -0.3238
  250MPD2    C1 3789   2.138   2.091  13.459 -0.3390  0.1677 -0.1270
  250MPD2    C2 3790   2.098   1.987  13.373  0.0249  0.1096  0.2069
  250MPD2    C3 3791   2.019   1.886  13.426 -0.0172 -0.9607 -0.3789
  250MPD2    C4 3792   1.987   1.881  13.560  0.1732 -0.1565 -0.8710
  250MPD2    C5 3793   2.033   1.988  13.636 -0.7188  0.0150 -0.7744
  250MPD2     H 3794   2.145   1.982  13.275  0.6347 -0.9809  0.5503
  250MPD2    H1 3795   1.938   1.798  13.610 -0.1270  0.2087 -0.5515
  250MPD2    H2 3796   2.144   2.162  13.661  2.0067  0.1139 -1.5657
  250MPD2    H3 3797   2.012   1.991  13.743 -1.1144  1.2104 -0.8916
  250MPD2     N 3798   1.992   1.774  13.354  0.1991  0.6568  0.3416
  250MPD2    H5 3799   1.945   1.694  13.396  0.9129 -0.3235 -0.7233
  250MPD2    N1 3800   2.228   2.189  13.422 -0.0109 -0.4605 -0.5029
  250MPD2    H7 3801   2.272   2.241  13.498 -0.3460 -1.5421  0.4233
  251TMC3    C1 3802   2.349   2.317  13.264  0.3197  0.0481 -0.4847
  251TMC3    C2 3803   2.331   2.429  13.181 -0.5742 -0.1416  0.0207
  251TMC3    C3 3804   2.443   2.506  13.143 -0.4743 -0.1017 -0.0755
  251TMC3    C4 3805   2.466   2.289  13.315  0.3266 -0.0013 -0.2624
  251TMC3    C5 3806   2.572   2.377  13.293  0.3700 -0.0365  0.2631
  251TMC3    C6 3807   2.559   2.485  13.212  0.1971 -0.5892  0.8706
  251TMC3     C 3808   2.236   2.240  13.297 -0.3383 -0.3298 -0.2916
  251TMC3     O 3809   2.148   2.239  13.208  0.3990  0.2623  0.5997
  251TMC3     H 3810   2.234   2.448  13.136 -0.0977  0.9644 -0.5239
  251TMC3    H1 3811   2.486   2.201  13.374  0.7622  0.3183  0.0709
  251TMC3    H2 3812   2.644   2.548  13.188 -1.0443  1.0135  0.7381
  251TMC3    C7 3813   2.671   2.377  13.401  0.0395 -0.5230 -0.6054
  251TMC3    C8 3814   2.411   2.642  13.084  0.4050  0.2045  0.0174
  251TMC3    O1 3815   2.688   2.274  13.459  0.3017 -0.1648 -0.1240
  251TMC3    O2 3816   2.292   2.657  13.064  0.0188 -0.3297 -0.2673
  252TMC3    C1 3817   2.572   2.950   9.482  0.2185  0.1798  0.4880
  252TMC3    C2 3818   2.667   2.997   9.406  0.5797 -0.1628 -0.4967
  252TMC3    C3 3819   2.793   2.940   9.413  0.1332 -0.7243 -0.3737
  252TMC3    C4 3820   2.595   2.848   9.569 -0.1020 -0.4384 -0.7752
  252TMC3    C5 3821   2.720   2.791   9.574 -0.2390  0.0232  0.1102
  252TMC3    C6 3822   2.819   2.829   9.488 -0.2731 -0.6570  0.9983
  252TMC3     C 3823   2.443   3.011   9.476  0.1548 -0.3490  0.3905
  252TMC3     O 3824   2.437   3.111   9.407 -0.8819  0.0656 -0.4714
  252TMC3     H 3825   2.664   3.098   9.367 -1.4126 -0.5612 -1.3325
  252TMC3    H1 3826   2.529   2.828   9.653 -0.3250 -1.9888 -1.3191
  252TMC3    H2 3827   2.911   2.771   9.483 -0.4699 -0.9596  0.8587
  252TMC3    C7 3828   2.727   2.670   9.641  0.0645  0.2592  0.5629
  252TMC3    C8 3829   2.896   3.005   9.333 -0.1809 -0.5675 -0.2040
  252TMC3    O1 3830   2.613   2.632   9.668  0.3162  1.0075 -0.3352
  252TMC3    O2 3831   2.857   3.074   9.240  0.4636  0.2421 -0.2162
  253MPD2     C 3832   3.813   2.126  15.793 -0.3257  0.1927 -0.4826
  253MPD2    C1 3833   3.684   2.110  15.734 -0.2534 -0.3708 -0.3588
  253MPD2    C2 3834   3.570   2.098  15.816  0.3287  0.8621  0.0336
  253MPD2    C3 3835   3.579   2.088  15.956  0.4720  0.8784  0.8422
  253MPD2    C4 3836   3.707   2.091  16.007 -0.2765 -0.8456  0.0041
  253MPD2    C5 3837   3.813   2.109  15.925 -0.5455  0.3708 -0.5653
  253MPD2     H 3838   3.472   2.089  15.771  0.4512 -1.9252  0.3092
  253MPD2    H1 3839   3.725   2.091  16.114  2.3232  0.4315 -0.4365
  253MPD2    H2 3840   3.905   2.135  15.736 -1.1613  2.5531 -1.4892
  253MPD2    H3 3841   3.910   2.098  15.974 -1.1582  1.0710  0.7988
  253MPD2     N 3842   3.467   2.081  16.042  0.0064 -0.4901  1.0704
  253MPD2    H5 3843   3.491   2.044  16.134  0.0439 -3.7498 -0.2419
  253MPD2    N1 3844   3.659   2.128  15.596  0.1495  0.2989 -0.0567
  253MPD2    H7 3845   3.569   2.113  15.552  0.7670  0.7376 -1.4571
  254TMC3    C1 3846   3.247   2.107  16.120  0.3670  0.7521 -0.3177
  254TMC3    C2 3847   3.131   2.177  16.113  0.5796 -0.2699 -0.0982
  254TMC3    C3 3848   3.059   2.195  16.227 -0.5244  0.1943  0.1149
  254TMC3    C4 3849   3.286   2.050  16.236 -0.2000 -0.5785  0.2954
  254TMC3    C5 3850   3.207   2.062  16.350  0.0672 -0.3985  0.1579
  254TMC3    C6 3851   3.084   2.124  16.341  1.0691 -0.0921  0.0807
  254TMC3     C 3852   3.338   2.123  16.010 -0.5482  0.0394  0.3479
  254TMC3     O 3853   3.290   2.172  15.907  0.0231  0.5032  0.1829
  254TMC3     H 3854   3.097   2.215  16.017  1.3493 -1.0224 -0.6706
  254TMC3    H1 3855   3.369   1.981  16.240 -0.5434 -0.9538  0.9382
  254TMC3    H2 3856   3.024   2.143  16.429 -0.3499 -0.6234 -0.7557
  254TMC3    C7 3857   3.240   1.991  16.473  0.3407 -0.1661 -0.2792
  254TMC3    C8 3858   2.930   2.261  16.216 -0.6646 -0.3227 -0.0099
  254TMC3    O1 3859   3.361   1.979  16.497 -0.0320  0.6476 -1.0177
  254TMC3    O2 3860   2.844   2.214  16.292  0.2459 -0.0022  0.3454
  255MPD2     C 3861   2.042   4.238  10.197 -0.5359 -0.3068 -0.0585
  255MPD2    C1 3862   1.935   4.238  10.109 -0.4797 -0.2250  0.2413
  255MPD2    C2 3863   1.868   4.122  10.104 -0.4653  0.1712  0.9700
  255MPD2    C3 3864   1.895   4.012  10.183 -0.2340 -0.3354 -0.3383
  255MPD2    C4 3865   1.990   4.026  10.279 -0.2353 -0.3330  0.2570
  255MPD2    C5 3866   2.063   4.137  10.287 -0.3020  0.0114 -0.8327
  255MPD2     H 3867   1.782   4.107  10.039  0.2864  0.9238 -0.1893
  255MPD2    H1 3868   2.017   3.951  10.353 -1.0330 -0.0925  0.7843
  255MPD2    H2 3869   2.098   4.329  10.217 -2.5540  1.2633 -1.4681
  255MPD2    H3 3870   2.146   4.144  10.356 -0.7436 -3.0051  0.0023
  255MPD2     N 3871   1.852   3.883  10.166 -0.3125 -0.4374 -0.1025
  255MPD2    H5 3872   1.890   3.813  10.230 -0.8174 -1.7357 -1.2153
  255MPD2    N1 3873   1.922   4.351  10.012  0.3550 -0.5915  0.0769
  255MPD2    H7 3874   1.980   4.435  10.015  0.5445 -0.6975 -0.5828
  256TMC3    C1 3875   1.872   4.441   9.807 -0.8730  0.6895  1.1504
  256TMC3    C2 3876   2.007   4.460   9.779  0.0189 -0.4141 -0.0291
  256TMC3    C3 3877   2.042   4.514   9.663 -0.0591 -0.5651  0.3293
  256TMC3    C4 3878   1.781   4.455   9.700  0.4016  0.7561 -0.6480
  256TMC3    C5 3879   1.823   4.501   9.582  0.0490 -0.6722  0.0175
  256TMC3    C6 3880   1.950   4.546   9.561 -0.2269  0.6572  0.8953
  256TMC3     C 3881   1.830   4.356   9.912 -0.7510 -1.2022 -0.1998
  256TMC3     O 3882   1.740   4.279   9.888 -0.1417  0.1359 -0.3393
  256TMC3     H 3883   2.077   4.443   9.860 -0.8712  0.0193  0.8343
  256TMC3    H1 3884   1.675   4.437   9.708  0.6665 -1.2092 -1.3653
  256TMC3    H2 3885   1.983   4.572   9.461 -2.0868  1.3954  0.4631
  256TMC3    C7 3886   1.730   4.497   9.469 -0.9415  0.0469 -0.3863
  256TMC3    C8 3887   2.178   4.502   9.616 -0.3116  0.1277 -0.1445
  256TMC3    O1 3888   1.630   4.428   9.498 -0.0183 -0.7999 -0.4885
  256TMC3    O2 3889   2.242   4.406   9.667  0.5319  0.0004 -0.6448
  257MPD2     C 3890   1.022   1.742  13.077  1.1106  0.2399 -0.2741
  257MPD2    C1 3891   1.141   1.808  13.105 -0.5386 -0.6766 -0.9144
  257MPD2    C2 3892   1.238   1.756  13.191 -0.1397  0.4752 -1.0080
  257MPD2    C3 3893   1.204   1.644  13.267  0.2017 -0.4136  0.0634
  257MPD2    C4 3894   1.081   1.578  13.245 -0.4575  0.3939  0.5197
  257MPD2    C5 3895   0.994   1.624  13.149 -0.1825 -0.0537 -0.2483
  257MPD2     H 3896   1.339   1.794  13.198 -0.1015 -0.1020  1.4477
  257MPD2    H1 3897   1.045   1.490  13.297  0.2481  0.4215  1.0487
  257MPD2    H2 3898   0.950   1.767  13.000 -0.2505 -0.6175  0.7351
  257MPD2    H3 3899   0.901   1.570  13.136  0.1755 -0.6713 -0.2706
  257MPD2     N 3900   1.296   1.598  13.370 -0.1616 -0.0126 -0.2087
  257MPD2    H5 3901   1.390   1.636  13.370  0.7229 -2.2218  1.3848
  257MPD2    N1 3902   1.157   1.925  13.029  0.0126  0.7350 -0.2383
  257MPD2    H7 3903   1.074   1.958  12.982  0.1927  0.8304 -0.4878
  258TMC3    C1 3904   1.353   1.497  13.566  0.6416 -0.7641  0.5563
  258TMC3    C2 3905   1.471   1.439  13.530 -0.3521 -0.2186 -0.2848
  258TMC3    C3 3906   1.522   1.351  13.613 -0.4087 -0.2059  0.1859
  258TMC3    C4 3907   1.299   1.463  13.685 -0.3856 -0.1210 -0.4729
  258TMC3    C5 3908   1.358   1.371  13.772 -0.1898  0.1398  1.0715
  258TMC3    C6 3909   1.474   1.316  13.738 -0.1629  0.9885 -0.5660
  258TMC3     C 3910   1.253   1.523  13.474  0.1882 -0.4878 -0.5557
  258TMC3     O 3911   1.142   1.484  13.503 -0.2326 -0.5386 -0.2723
  258TMC3     H 3912   1.516   1.461  13.434 -0.9668 -0.8901 -0.7227
  258TMC3    H1 3913   1.203   1.506  13.712 -0.6144  0.3379 -1.9771
  258TMC3    H2 3914   1.509   1.244  13.811 -0.6141  1.2034 -0.1344
  258TMC3    C7 3915   1.308   1.359  13.905 -0.0721 -0.0249  0.7345
  258TMC3    C8 3916   1.653   1.278  13.586  0.3561 -0.2702 -0.1053
  258TMC3    O1 3917   1.185   1.368  13.908  0.1375 -0.3039 -0.3423
  258TMC3    O2 3918   1.719   1.245  13.683 -0.0787 -0.0096 -0.5671
  259MPD2     C 3919   4.218   3.948   1.241 -0.4887 -0.6256 -0.0776
  259MPD2    C1 3920   4.298   3.855   1.309  0.0722 -0.0061  0.2996
  259MPD2    C2 3921   4.424   3.823   1.252 -0.8951 -0.0160 -0.8351
  259MPD2    C3 3922   4.470   3.884   1.132  0.2370  0.2367  0.9023
  259MPD2    C4 3923   4.385   3.975   1.071 -0.5295  0.1303 -0.2234
  259MPD2    C5 3924   4.264   3.997   1.125  0.6396 -0.2455  0.0922
  259MPD2     H 3925   4.481   3.744   1.299 -3.9636 -1.0276  1.1984
  259MPD2    H1 3926   4.423   4.030   0.987 -0.8339  1.5474  0.5677
  259MPD2    H2 3927   4.120   3.975   1.279  0.5965  4.1403 -0.6317
  259MPD2    H3 3928   4.207   4.075   1.077  1.7026  1.1367  1.0507
  259MPD2     N 3929   4.594   3.848   1.077  0.0039  0.0962 -0.5530
  259MPD2    H5 3930   4.639   3.768   1.121  0.0551  0.0486 -0.6907
  259MPD2    N1 3931   4.264   3.806   1.434 -0.9042  0.1781  0.2212
  259MPD2    H7 3932   4.168   3.828   1.461 -1.6708 -1.1865 -1.3378
  260TMC3    C1 3933   0.063   3.849   0.958  0.3865 -0.1315 -0.4437
  260TMC3    C2 3934   0.167   3.918   0.897  0.2397  0.1834 -0.6229
  260TMC3    C3 3935   0.288   3.865   0.902  0.2628 -0.1039 -0.5703
  260TMC3    C4 3936   0.091   3.726   1.020 -0.3571 -0.7512 -0.0267
  260TMC3    C5 3937   0.219   3.676   1.022 -0.2932  0.1392  0.7714
  260TMC3    C6 3938   0.317   3.747   0.964  0.4396  0.7383 -0.7180
  260TMC3     C 3939   4.660   3.913   0.978  0.0119  0.0369  0.2618
  260TMC3     O 3940   4.646   4.029   0.949  0.0610 -0.5712  0.0482
  260TMC3     H 3941   0.148   4.014   0.849  0.4905  0.7663  0.4423
  260TMC3    H1 3942   0.010   3.656   1.034 -0.9917 -0.2291 -1.0567
  260TMC3    H2 3943   0.415   3.701   0.977 -0.2772 -0.6588 -0.2999
  260TMC3    C7 3944   0.229   3.545   0.968 -0.7443 -0.2932 -0.4172
  260TMC3    C8 3945   0.365   3.879   0.783  0.2362  0.6843  0.0665
  260TMC3    O1 3946   0.314   3.524   0.880  0.3277 -0.3009 -0.2883
  260TMC3    O2 3947   0.346   3.979   0.717  0.3715  1.0172 -0.0540
  261MPD2     C 3948   1.575   1.593  12.744 -0.1419  1.1156  0.2261
  261MPD2    C1 3949   1.700   1.644  12.776 -0.4219  0.1818 -0.8207
  261MPD2    C2 3950   1.772   1.708  12.676 -0.3489  0.2645  0.0635
  261MPD2    C3 3951   1.715   1.721  12.549  0.2358 -0.4677  0.1586
  261MPD2    C4 3952   1.597   1.659  12.523 -0.1268  0.1223 -0.1177
  261MPD2    C5 3953   1.526   1.594  12.618  0.0780  0.8580 -0.2925
  261MPD2     H 3954   1.865   1.756  12.705 -0.6707  1.2461 -0.5431
  261MPD2    H1 3955   1.551   1.662  12.424 -2.3169 -0.6264  0.8706
  261MPD2    H2 3956   1.521   1.546  12.825 -0.2418  3.0558  1.2889
  261MPD2    H3 3957   1.427   1.558  12.592 -0.4098  0.5338  1.9516
  261MPD2     N 3958   1.796   1.780  12.447  0.4544  0.2837 -0.6180
  261MPD2    H5 3959   1.888   1.812  12.476  0.7911 -0.9247 -0.3521
  261MPD2    N1 3960   1.754   1.624  12.903 -0.5919  0.2285  0.1953
  261MPD2    H7 3961   1.849   1.660  12.910  0.0354 -0.9790 -2.2828
  262TMC3    C1 3962   1.857   1.882  12.251 -0.0242  0.1614 -0.3218
  262TMC3    C2 3963   1.825   1.995  12.175  0.0424  0.3515  0.3672
  262TMC3    C3 3964   1.934   2.070  12.141  0.1314 -0.0203 -0.3759
  262TMC3    C4 3965   1.984   1.837  12.266  0.3393 -0.1496 -0.3425
  262TMC3    C5 3966   2.080   1.897  12.188 -0.8659 -0.0812  0.7042
  262TMC3    C6 3967   2.063   2.027  12.145 -0.0468  0.2831 -0.5255
  262TMC3     C 3968   1.755   1.808  12.321 -0.0356 -0.4160  0.0783
  262TMC3     O 3969   1.651   1.799  12.259  0.3286  0.2122  0.0205
  262TMC3     H 3970   1.723   2.029  12.171 -0.0658 -0.0787 -0.6521
  262TMC3    H1 3971   2.009   1.742  12.311 -3.1480 -0.3822  1.1286
  262TMC3    H2 3972   2.143   2.073  12.088  2.4490 -1.9711  1.1763
  262TMC3    C7 3973   2.171   1.810  12.121 -0.3299  0.2791 -0.1287
  262TMC3    C8 3974   1.924   2.204  12.089 -0.2407 -0.6000  0.3578
  262TMC3    O1 3975   2.204   1.707  12.173 -0.7209  0.1343  0.4468
  262TMC3    O2 3976   2.028   2.265  12.085 -0.6864 -0.4534 -0.6133
  263MPD2     C 3977   3.128   0.752  11.681 -0.1603 -0.0352  0.2109
  263MPD2    C1 3978   3.114   0.870  11.746 -0.4100  0.3648  0.3065
  263MPD2    C2 3979   3.126   0.982  11.670  0.0297  0.3727  0.4811
  263MPD2    C3 3980   3.148   0.979  11.535 -0.5835  0.5579 -0.2971
  263MPD2    C4 3981   3.143   0.859  11.471  0.4078  0.6538  0.4621
  263MPD2    C5 3982   3.137   0.743  11.549 -0.4477  0.1571 -0.0675
  263MPD2     H 3983   3.113   1.075  11.724  2.9870  0.9189  0.2374
  263MPD2    H1 3984   3.168   0.851  11.366  0.8250 -2.2907  0.7865
  263MPD2    H2 3985   3.145   0.657  11.729 -0.7937  0.0686  0.6305
  263MPD2    H3 3986   3.141   0.647  11.499  1.7353  0.5470 -0.6367
  263MPD2     N 3987   3.179   1.105  11.473 -0.8327 -0.7729 -0.0327
  263MPD2    H5 3988   3.176   1.183  11.537  0.7881  0.0360 -0.9576
  263MPD2    N1 3989   3.067   0.870  11.882  0.0085  0.9075  0.0517
  263MPD2    H7 3990   3.028   0.784  11.919  1.7912 -0.2589 -0.7931
  264TMC3    C1 3991   3.253   1.257  11.314 -0.8037  0.5222 -0.3283
  264TMC3    C2 3992   3.179   1.362  11.371 -0.2713  0.6074  0.0245
  264TMC3    C3 3993   3.183   1.484  11.315  0.2572 -0.2652  0.0543
  264TMC3    C4 3994   3.336   1.273  11.206 -0.6166  0.4066 -0.0770
  264TMC3    C5 3995   3.335   1.397  11.146 -0.1279  0.3652  0.4044
  264TMC3    C6 3996   3.262   1.510  11.202  0.4594 -0.1923 -0.1820
  264TMC3     C 3997   3.224   1.118  11.345  0.1589  0.1288  0.4424
  264TMC3     O 3998   3.248   1.038  11.251  0.1457  0.3117 -0.2730
  264TMC3     H 3999   3.112   1.346  11.455  2.3558 -1.9905  1.5839
  264TMC3    H1 4000   3.400   1.190  11.178 -0.9916  0.9866 -2.6651
  264TMC3    H2 4001   3.266   1.608  11.157  1.6145 -0.4429 -0.6451
  264TMC3    C7 4002   3.375   1.398  11.005 -0.3276 -0.4488  0.2829
  264TMC3    C8 4003   3.144   1.598  11.396 -0.1182  0.7602 -0.3086
  264TMC3    O1 4004   3.395   1.507  10.954  0.6447 -0.3592 -0.5476
  264TMC3    O2 4005   3.110   1.694  11.335 -0.1050 -0.2544 -0.1913
  265MPD2     C 4006   0.194   1.650  15.642 -0.4019 -0.3136 -0.0695
  265MPD2    C1 4007   0.197   1.774  15.580 -0.2805 -0.6096 -0.1674
  265MPD2    C2 4008   0.232   1.780  15.447 -0.3007 -0.3612 -0.5201
  265MPD2    C3 4009   0.244   1.663  15.373  0.2072 -0.3002 -0.3524
  265MPD2    C4 4010   0.232   1.537  15.435  0.3598 -0.6391 -0.3908
  265MPD2    C5 4011   0.204   1.533  15.573 -0.2803  0.5059 -0.3458
  265MPD2     H 4012   0.231   1.879  15.404  2.1330  0.6266  1.7232
  265MPD2    H1 4013   0.242   1.444  15.378 -0.4265 -1.8225  1.4150
  265MPD2    H2 4014   0.193   1.641  15.750 -0.0451  2.2017  0.1524
  265MPD2    H3 4015   0.203   1.434  15.618  1.0214  1.3690  1.6149
  265MPD2     N 4016   0.274   1.661  15.235  0.1971  0.0880  0.4792
  265MPD2    H5 4017   0.293   1.570  15.194 -2.0431  0.4593 -1.3548
  265MPD2    N1 4018   0.181   1.899  15.650  0.5806 -0.1319  0.2042
  265MPD2    H7 4019   0.185   1.985  15.596  2.1409 -0.8141 -0.7499
  266TMC3    C1 4020   0.151   2.050  15.835 -0.3036 -0.5188 -0.5113
  266TMC3    C2 4021   0.191   2.064  15.963  0.3110 -0.0347 -0.3800
  266TMC3    C3 4022   0.177   2.184  16.017  0.0997  0.3199  0.5689
  266TMC3    C4 4023   0.081   2.153  15.771 -0.0985 -0.4520  0.2977
  266TMC3    C5 4024   0.073   2.268  15.838  0.1508 -0.2094 -0.0658
  266TMC3    C6 4025   0.132   2.293  15.957 -0.7193  0.1108 -0.6028
  266TMC3     C 4026   0.160   1.912  15.786 -0.1651 -0.5725  1.0845
  266TMC3     O 4027   0.145   1.828  15.873  0.1329  0.7923 -0.2584
  266TMC3     H 4028   0.246   1.982  16.008  0.2770  1.0977  1.6788
  266TMC3    H1 4029   0.036   2.134  15.674 -1.4773  0.8435  0.6964
  266TMC3    H2 4030   0.134   2.390  16.006 -0.3260 -0.1582 -0.0863
  266TMC3    C7 4031   0.020   2.382  15.761  0.0523  0.4670  0.0738
  266TMC3    C8 4032   0.245   2.197  16.146  0.0635  0.0149 -0.3162
  266TMC3    O1 4033   0.012   2.362  15.639  0.0370  0.5670 -0.6590
  266TMC3    O2 4034   0.324   2.116  16.179  0.0004  0.1125 -0.6382
  267MPD2     C 4035   1.333   3.343   0.087  0.3965  0.1917 -0.3174
  267MPD2    C1 4036   1.436   3.436   0.064  0.1202  0.6227 -0.2505
  267MPD2    C2 4037   1.404   3.563   0.019  0.2844 -0.1350  0.6777
  267MPD2    C3 4038   1.267   3.600  17.690  0.4588  0.2176 -0.6384
  267MPD2    C4 4039   1.173   3.510   0.016  0.1568  0.1384 -0.4595
  267MPD2    C5 4040   1.206   3.389   0.074 -0.4805  0.1681  0.2236
  267MPD2     H 4041   1.485   3.628  17.688  1.6112 -1.0519  2.2891
  267MPD2    H1 4042   1.068   3.532   0.006 -0.5232 -2.2975  1.2045
  267MPD2    H2 4043   1.355   3.242   0.122 -0.4917 -0.4715 -1.6584
  267MPD2    H3 4044   1.120   3.331   0.105 -3.1101  2.4387 -2.8858
  267MPD2     N 4045   1.230   3.723  17.631  0.0694  0.3896 -0.3707
  267MPD2    H5 4046   1.133   3.747  17.648  0.4338  1.1903  0.5552
  267MPD2    N1 4047   1.570   3.402   0.088 -0.6391  0.3089 -0.4020
  267MPD2    H7 4048   1.580   3.302   0.101  0.1646  0.1575 -2.1511
  268TMC3    C1 4049   1.802   3.404   0.106  0.3272  0.1615  0.0506
  268TMC3    C2 4050   1.921   3.446   0.045  0.0683  0.6394 -0.6812
  268TMC3    C3 4051   2.037   3.389   0.099 -0.3036  0.0259  0.2965
  268TMC3    C4 4052   1.796   3.306   0.200  1.2602 -0.3025  0.3408
  268TMC3    C5 4053   1.915   3.253   0.243 -0.0303  0.6738  0.3567
  268TMC3    C6 4054   2.034   3.296   0.197 -0.2572  0.5168 -0.3143
  268TMC3     C 4055   1.685   3.477   0.072 -0.5130 -0.7942 -0.2753
  268TMC3     O 4056   1.708   3.588   0.031  0.2578  0.3517 -0.0600
  268TMC3     H 4057   1.923   3.531  17.676  1.9308 -0.9626 -2.6698
  268TMC3    H1 4058   1.703   3.287   0.252  0.8886 -3.2257 -1.3306
  268TMC3    H2 4059   2.128   3.257   0.235  0.4096  3.1216  0.7396
  268TMC3    C7 4060   1.929   3.136   0.330 -0.6605  0.8729 -0.0928
  268TMC3    C8 4061   2.162   3.428   0.047  0.0912  0.8696  0.6411
  268TMC3    O1 4062   2.043   3.113   0.370 -0.0646  0.1668  0.4949
  268TMC3    O2 4063   2.258   3.422   0.126  0.1046 -0.4846  0.2738
  269MPD2     C 4064   2.980   2.345  15.723  0.0148  0.6087 -0.2922
  269MPD2    C1 4065   2.856   2.365  15.785 -0.3620  0.6198  0.3711
  269MPD2    C2 4066   2.814   2.495  15.762 -0.5639 -0.1119  0.0920
  269MPD2    C3 4067   2.887   2.595  15.708  0.6689  0.4993  0.0513
  269MPD2    C4 4068   2.998   2.568  15.642 -0.4214 -0.6130  0.3960
  269MPD2    C5 4069   3.053   2.443  15.661 -0.7963  0.9874 -0.6116
  269MPD2     H 4070   2.725   2.533  15.812 -0.3719 -0.2993  0.5797
  269MPD2    H1 4071   3.059   2.647  15.601 -2.4858  0.5380 -0.4432
  269MPD2    H2 4072   3.021   2.245  15.722 -1.2276  0.1114 -1.2062
  269MPD2    H3 4073   3.137   2.414  15.599 -1.4408  2.3242 -2.1209
  269MPD2     N 4074   2.822   2.721  15.706  0.3220  0.5377 -0.0648
  269MPD2    H5 4075   2.725   2.723  15.737  0.5664 -1.0877  0.7892
  269MPD2    N1 4076   2.781   2.258  15.841  0.1417  0.5568  0.6082
  269MPD2    H7 4077   2.829   2.169  15.832  0.8177  0.9210  0.6131
  270TMC3    C1 4078   2.582   2.136  15.904 -0.0281 -0.3678  0.4908
  270TMC3    C2 4079   2.448   2.141  15.881  0.0199  0.1151  0.2206
  270TMC3    C3 4080   2.382   2.039  15.941 -0.2023 -0.3786  0.4146
  270TMC3    C4 4081   2.653   2.044  15.976  0.2397 -0.2825  0.3882
  270TMC3    C5 4082   2.576   1.945  16.028 -1.1438  0.2450 -0.1246
  270TMC3    C6 4083   2.441   1.938  16.006 -0.6002 -0.2579 -0.5130
  270TMC3     C 4084   2.650   2.266  15.875  0.1124  0.5950  0.2745
  270TMC3     O 4085   2.586   2.369  15.887 -0.1936 -0.1720  0.3485
  270TMC3     H 4086   2.390   2.211  15.821 -2.0816 -0.8956  1.1049
  270TMC3    H1 4087   2.761   2.043  15.984  0.2548  1.0585  0.3606
  270TMC3    H2 4088   2.381   1.854  16.037 -1.3227  0.0788 -0.9911
  270TMC3    C7 4089   2.651   1.823  16.061 -0.4611  1.0493  0.3108
  270TMC3    C8 4090   2.277   1.986  15.861 -0.1827  0.7610  0.2124
  270TMC3    O1 4091   2.771   1.808  16.040 -1.0710  0.5248  0.2082
  270TMC3    O2 4092   2.183   1.924  15.908  0.5038  0.2148 -0.0407
  271MPD2     C 4093   1.884   1.853  14.103 -0.0538  0.0987  0.6325
  271MPD2    C1 4094   1.821   1.901  14.206 -0.1561 -0.4097 -0.0133
  271MPD2    C2 4095   1.720   1.993  14.176  0.2492  0.3043 -0.3238
  271MPD2    C3 4096   1.697   2.029  14.046  0.2359 -0.2782 -0.0306
  271MPD2    C4 4097   1.760   1.975  13.942 -0.1621  0.2916  0.2824
  271MPD2    C5 4098   1.857   1.893  13.978 -0.4018 -0.1992 -0.0601
  271MPD2     H 4099   1.672   2.049  14.255 -0.1416  1.4083 -1.3487
  271MPD2    H1 4100   1.722   1.991  13.842  3.0395  1.0467 -0.8392
  271MPD2    H2 4101   1.966   1.782  14.110  0.5415  0.7496  0.2073
  271MPD2    H3 4102   1.911   1.849  13.895 -0.3330 -1.7825  0.8145
  271MPD2     N 4103   1.602   2.133  14.014  0.3234  0.2419  0.4054
  271MPD2    H5 4104   1.596   2.159  13.916 -0.7078  1.5895  0.8243
  271MPD2    N1 4105   1.851   1.861  14.337  0.2660  0.3034 -0.4642
  271MPD2    H7 4106   1.814   1.918  14.413  2.5600 -0.2575  1.0718
  272TMC3    C1 4107   1.999   1.791  14.501  0.2823 -0.0637  0.0694
  272TMC3    C2 4108   2.127   1.741  14.514  0.0235  0.1757  0.0238
  272TMC3    C3 4109   2.199   1.762  14.630  0.2177  0.9091  0.3855
  272TMC3    C4 4110   1.937   1.849  14.610  0.4160  0.0653  0.0967
  272TMC3    C5 4111   2.004   1.853  14.729  0.1860  0.0253 -0.1997
  272TMC3    C6 4112   2.132   1.805  14.741  0.0404  0.1992 -0.1230
  272TMC3     C 4113   1.950   1.775  14.370  0.1961  0.0060 -0.7273
  272TMC3     O 4114   1.999   1.675  14.321  0.2526  0.0058  0.9133
  272TMC3     H 4115   2.187   1.705  14.431  0.7551 -2.0056  1.5268
  272TMC3    H1 4116   1.836   1.888  14.612 -0.3755 -1.8609 -1.5822
  272TMC3    H2 4117   2.180   1.805  14.838  1.8304  2.0494 -1.0105
  272TMC3    C7 4118   1.937   1.915  14.847  0.0745 -0.7177  0.6510
  272TMC3    C8 4119   2.338   1.726  14.634  0.8154  0.5166  0.0067
  272TMC3    O1 4120   1.814   1.932  14.845 -0.7907 -0.4999 -0.2366
  272TMC3    O2 4121   2.400   1.731  14.526 -0.0733  0.4990  0.1536
  273MPD2     C 4122   3.828   4.447  12.693  0.1114 -0.2091 -0.2318
  273MPD2    C1 4123   3.785   4.571  12.656 -0.0333  0.5130 -0.1035
  273MPD2    C2 4124   3.664   4.583  12.584 -0.1600 -0.2585  0.2886
  273MPD2    C3 4125   3.584   4.474  12.551  0.3425  0.9465  0.1179
  273MPD2    C4 4126   3.632   4.348  12.593 -0.0080  0.0375  0.4883
  273MPD2    C5 4127   3.754   4.339  12.660  0.0551 -0.0672 -0.4471
  273MPD2     H 4128   3.635   4.680  12.547 -0.4491 -0.3973  0.1514
  273MPD2    H1 4129   3.572   4.260  12.573  1.3105 -1.1439  1.7629
  273MPD2    H2 4130   3.918   4.423  12.750  0.2039 -1.0622 -0.7407
  273MPD2    H3 4131   3.786   4.237  12.682 -0.3641 -0.2792 -0.8135
  273MPD2     N 4132   3.463   4.482  12.473  0.5759 -0.4083 -0.3701
  273MPD2    H5 4133   3.423   4.388  12.469  1.0257 -0.7177  2.2617
  273MPD2    N1 4134   3.857   4.686  12.704 -0.1114 -0.6754  0.0860
  273MPD2    H7 4135   3.952   4.673  12.737 -0.0735  0.3797  0.3801
  274TMC3    C1 4136   3.283   4.576  12.365 -0.0262 -0.3787 -0.4919
  274TMC3    C2 4137   3.288   4.479  12.267  0.1084 -0.6478 -0.0485
  274TMC3    C3 4138   3.172   4.454  12.194  0.6676 -0.3640 -0.8088
  274TMC3    C4 4139   3.171   4.653  12.390  0.5242 -0.2285  0.2569
  274TMC3    C5 4140   3.051   4.621  12.328  0.5645  0.2136 -0.5121
  274TMC3    C6 4141   3.052   4.534  12.224  0.1644  0.4018  0.3390
  274TMC3     C 4142   3.396   4.599  12.440 -0.1307 -0.1813 -0.2613
  274TMC3     O 4143   3.424   4.715  12.467 -0.6013  0.0577  1.2257
  274TMC3     H 4144   3.379   4.423  12.249  0.0257 -0.7520 -0.1425
  274TMC3    H1 4145   3.177   0.003  12.468 -1.9744 -1.1404  1.3159
  274TMC3    H2 4146   2.956   4.517  12.177  0.8480 -1.2401 -0.4601
  274TMC3    C7 4147   2.933   4.702  12.351  0.5323 -0.1654 -0.4156
  274TMC3    C8 4148   3.185   4.377  12.076 -0.1797 -0.2454  0.5039
  274TMC3    O1 4149   2.821   4.658  12.337 -0.0489 -0.1397  1.1852
  274TMC3    O2 4150   3.281   4.302  12.067 -0.0406 -0.4411  0.1196
  275MPD2     C 4151   3.480   2.521  14.803 -0.7296 -0.2344  0.1405
  275MPD2    C1 4152   3.473   2.641  14.731  0.1209 -0.5292 -0.0353
  275MPD2    C2 4153   3.354   2.687  14.682 -0.0644  0.2863  0.3362
  275MPD2    C3 4154   3.244   2.600  14.693 -0.1713 -0.2903  0.2840
  275MPD2    C4 4155   3.256   2.478  14.755  0.9837  0.2660  0.3304
  275MPD2    C5 4156   3.370   2.442  14.818 -0.3452  1.4442  0.0924
  275MPD2     H 4157   3.345   2.777  14.623 -2.1189 -2.2988 -3.3233
  275MPD2    H1 4158   3.179   2.402  14.751  0.2517  1.0566 -0.6095
  275MPD2    H2 4159   3.567   2.492  14.861  0.5476  0.5397 -1.3680
  275MPD2    H3 4160   3.377   2.346  14.868  0.7267  2.5422  2.0113
  275MPD2     N 4161   3.117   2.645  14.646  0.8672  0.1634  0.1090
  275MPD2    H5 4162   3.038   2.584  14.660 -0.8297  2.0224 -1.4131
  275MPD2    N1 4163   3.587   2.709  14.699 -0.5467 -0.7434 -0.5256
  275MPD2    H7 4164   3.571   2.796  14.649 -1.6059 -0.7974 -0.2798
  276TMC3    C1 4165   3.819   2.734  14.662  0.5189  0.8979  0.7077
  276TMC3    C2 4166   3.911   2.647  14.607  0.4230 -0.3348 -0.3783
  276TMC3    C3 4167   4.040   2.680  14.599 -1.1244  0.0685 -0.4314
  276TMC3    C4 4168   3.870   2.845  14.730  0.0783 -0.1211 -0.1059
  276TMC3    C5 4169   4.005   2.872  14.731 -0.3845  0.1899  0.5646
  276TMC3    C6 4170   4.083   2.792  14.660  0.3609 -0.1777 -0.6098
  276TMC3     C 4171   3.715   2.663  14.723 -0.3739  0.7525 -0.7261
  276TMC3     O 4172   3.753   2.554  14.754 -0.0401  0.4104 -0.0412
  276TMC3     H 4173   3.864   2.556  14.575  0.0153  0.7980 -2.9660
  276TMC3    H1 4174   3.803   2.907  14.790  1.0218  2.3091 -1.5522
  276TMC3    H2 4175   4.187   2.819  14.646  1.0558 -2.1262  0.8076
  276TMC3    C7 4176   4.057   2.924  14.852 -0.3621  0.1074 -0.0105
  276TMC3    C8 4177   4.121   2.566  14.635  1.0596 -0.5464 -0.0493
  276TMC3    O1 4178   3.974   2.974  14.925 -0.0549 -0.4317 -0.3347
  276TMC3    O2 4179   4.239   2.565  14.609 -0.8402 -0.6817 -0.0792
  277MPD2     C 4180   0.442   1.772  13.358 -0.3852 -0.0601 -0.1929
  277MPD2    C1 4181   0.311   1.810  13.385 -0.6777  0.0630  0.8253
  277MPD2    C2 4182   0.254   1.781  13.507 -0.5088 -0.2818 -0.6909
  277MPD2    C3 4183   0.332   1.731  13.609  0.6168  0.5497  0.5571
  277MPD2    C4 4184   0.461   1.693  13.587  0.0685  0.2438  0.3342
  277MPD2    C5 4185   0.512   1.715  13.464  0.0114 -0.7889 -0.1891
  277MPD2     H 4186   0.150   1.806  13.527 -1.3247 -1.1678 -3.8504
  277MPD2    H1 4187   0.526   1.663  13.669  0.6511 -0.3572 -0.3473
  277MPD2    H2 4188   0.483   1.791  13.259  2.2071  0.5319  0.9942
  277MPD2    H3 4189   0.616   1.692  13.447 -0.2245 -1.1144 -1.1788
  277MPD2     N 4190   0.260   1.710  13.736 -0.5436 -0.4284 -0.4827
  277MPD2    H5 4191   0.166   1.746  13.743 -0.0246  1.0939 -1.3764
  277MPD2    N1 4192   0.236   1.858  13.277  0.6854  0.1585  0.4021
  277MPD2    H7 4193   0.276   1.850  13.184 -1.2419  0.4608 -0.4402
  278TMC3    C1 4194   0.220   1.652  13.951 -0.2780  0.0704 -0.9843
  278TMC3    C2 4195   0.180   1.540  14.011 -0.0677  0.0679  0.7089
  278TMC3    C3 4196   0.047   1.523  14.029 -0.5359  0.1510 -0.0758
  278TMC3    C4 4197   0.132   1.752  13.918 -0.0640 -0.7048 -1.5553
  278TMC3    C5 4198   4.723   1.738  13.949  0.6884  0.1776 -0.1051
  278TMC3    C6 4199   4.675   1.618  13.995 -0.1309 -0.2864 -0.5676
  278TMC3     C 4200   0.311   1.639  13.843  0.3193  0.0265 -0.0764
  278TMC3     O 4201   0.417   1.583  13.859 -0.2537  0.3054  0.4521
  278TMC3     H 4202   0.246   1.454  14.023  0.8395  0.4114 -1.6723
  278TMC3    H1 4203   0.163   1.855  13.915 -1.9979 -0.1240 -1.3732
  278TMC3    H2 4204   4.570   1.610  14.021  0.4285 -0.9861  1.5208
  278TMC3    C7 4205   4.640   1.827  13.860 -0.5103 -0.0173  0.2431
  278TMC3    C8 4206   0.005   1.382  14.057 -0.1176 -0.0197 -0.1665
  278TMC3    O1 4207   4.692   1.900  13.778 -0.2773 -0.5709  0.4298
  278TMC3    O2 4208   0.076   1.322  14.130  0.0517  0.2445 -0.5067
  279MPD2     C 4209   3.764   2.478   0.580  0.1825 -0.6389  0.5637
  279MPD2    C1 4210   3.711   2.415   0.469  0.2921  0.8203 -0.7368
  279MPD2    C2 4211   3.804   2.385   0.373  0.4256 -0.1337 -0.5399
  279MPD2    C3 4212   3.933   2.408   0.381 -0.1527  0.5003 -0.1067
  279MPD2    C4 4213   3.986   2.457   0.492  0.7513 -0.6498  0.1349
  279MPD2    C5 4214   3.899   2.502   0.592  0.1445 -0.2809 -0.2501
  279MPD2     H 4215   3.774   2.334   0.282 -2.2507  1.4426 -0.5511
  279MPD2    H1 4216   4.091   2.480   0.507  1.3102 -2.0315 -1.6845
  279MPD2    H2 4217   3.705   2.512   0.665  0.4891  1.4327 -0.0526
  279MPD2    H3 4218   3.928   2.544   0.687  1.4261 -0.4830 -0.5587
  279MPD2     N 4219   4.014   2.385   0.266 -0.3449 -0.0612  0.4178
  279MPD2    H5 4220   3.966   2.351   0.183 -0.1482 -0.4301  0.4545
  279MPD2    N1 4221   3.576   2.393   0.451  0.0595  0.5235  0.0093
  279MPD2    H7 4222   3.514   2.438   0.518  0.5657 -1.0345  1.5409
  280TMC3    C1 4223   3.384   2.305   0.346 -0.4934  0.3323  0.2052
  280TMC3    C2 4224   3.336   2.232   0.237  0.2604 -0.2231  0.4674
  280TMC3    C3 4225   3.204   2.241   0.201 -0.1140  0.4365 -0.8641
  280TMC3    C4 4226   3.304   2.404   0.409  1.0549  0.0850 -0.0005
  280TMC3    C5 4227   3.174   2.408   0.365 -0.3012 -0.2422  0.1529
  280TMC3    C6 4228   3.124   2.330   0.263  0.1781 -0.1300  0.7125
  280TMC3     C 4229   3.523   2.313   0.347 -0.5902  0.7350  0.4370
  280TMC3     O 4230   3.573   2.257   0.250  0.5341  0.4493  0.3632
  280TMC3     H 4231   3.393   2.152   0.191 -0.8061  0.7129 -2.4781
  280TMC3    H1 4232   3.332   2.479   0.483 -0.3569 -0.0157  0.6396
  280TMC3    H2 4233   3.018   2.334   0.241  0.0620 -1.1937  1.0954
  280TMC3    C7 4234   3.117   2.538   0.365  0.3226 -0.0867  0.2550
  280TMC3    C8 4235   3.176   2.244   0.058  0.2768  0.3919  0.6471
  280TMC3    O1 4236   3.104   2.595   0.475  0.1722  0.1638 -0.3463
  280TMC3    O2 4237   3.059   2.239   0.032 -0.2138  0.2720  0.0600
  281TMC3    C1 4238   2.523   2.358  13.819  0.4477 -0.5160 -0.0002
  281TMC3    C2 4239   2.656   2.389  13.843  0.4007  0.4418 -0.1353
  281TMC3    C3 4240   2.737   2.285  13.871 -0.2841  0.2827  0.1708
  281TMC3    C4 4241   2.476   2.232  13.839  0.2009 -0.2630  0.3804
  281TMC3    C5 4242   2.566   2.130  13.885 -0.6290  0.5138 -0.0489
  281TMC3    C6 4243   2.702   2.157  13.894  0.2046  0.0117  0.5915
  281TMC3     C 4244   2.464   2.424  13.701 -0.3173 -0.2884 -0.4105
  281TMC3     O 4245   2.388   2.348  13.638  0.0363 -0.0245 -0.1973
  281TMC3     H 4246   2.685   2.492  13.833  2.3542 -0.0596  0.5524
  281TMC3    H1 4247   2.372   2.208  13.821  0.4201  1.2016 -2.8298
  281TMC3    H2 4248   2.774   2.078  13.913 -0.3629 -0.0919  2.2982
  281TMC3    C7 4249   2.527   1.984  13.895 -0.0261  0.2278 -0.5620
  281TMC3    C8 4250   2.870   2.313  13.904  0.3506  0.0229  1.0606
  281TMC3    O1 4251   2.623   1.913  13.894  0.4669 -0.1618 -0.3982
  281TMC3    O2 4252   2.917   2.249  13.994  0.0798 -0.1078 -0.4733
  282MPD2     C 4253   0.335   3.513  15.595 -0.3997 -0.2765  0.7068
  282MPD2    C1 4254   0.220   3.586  15.583 -0.0446 -0.2120 -0.0847
  282MPD2    C2 4255   0.152   3.577  15.460  0.3969 -0.2133 -0.6603
  282MPD2    C3 4256   0.205   3.508  15.354  0.2001  0.2428 -0.3089
  282MPD2    C4 4257   0.313   3.433  15.376 -0.5363  0.2524 -0.7206
  282MPD2    C5 4258   0.381   3.432  15.500  0.2053  0.1979  0.5716
  282MPD2     H 4259   0.051   3.617  15.454 -0.4055 -2.0316  0.5440
  282MPD2    H1 4260   0.339   3.349  15.312  1.6493 -0.3770  1.0073
  282MPD2    H2 4261   0.385   3.513  15.692 -0.7476 -0.1737  0.8865
  282MPD2    H3 4262   0.458   3.359  15.520  0.0900 -0.1338 -0.2002
  282MPD2     N 4263   0.136   3.525  15.229  0.5320  0.3612 -0.5353
  282MPD2    H5 4264   0.065   3.597  15.227 -0.6319 -0.7603  0.0006
  282MPD2    N1 4265   0.153   3.643  15.691  0.4021  0.2716  0.5580
  282MPD2    H7 4266   0.068   3.695  15.669  0.0994  1.2129  3.9316
  283TMC3    C1 4267   0.057   3.650  15.905 -0.5990  0.1072  0.3288
  283TMC3    C2 4268   0.013   3.775  15.869 -0.1317  0.4821  0.0503
  283TMC3    C3 4269   4.616   3.804  15.914 -0.1100  0.4699 -0.0849
  283TMC3    C4 4270   4.708   3.552  15.959 -0.1801 -0.6548 -0.5305
  283TMC3    C5 4271   4.580   3.593  15.996  0.6802  0.0507 -0.0353
  283TMC3    C6 4272   4.529   3.715  15.976 -0.0670  0.2056  0.0303
  283TMC3     C 4273   0.170   3.602  15.823 -0.3796 -0.6740  0.2521
  283TMC3     O 4274   0.241   3.517  15.881  0.3324 -0.0581 -0.7164
  283TMC3     H 4275   0.086   3.847  15.834  1.4567 -1.1238  0.0487
  283TMC3    H1 4276   0.026   3.453  15.974  0.5893 -0.4970 -1.6848
  283TMC3    H2 4277   4.427   3.744  15.998  1.1706  2.2603  3.0216
  283TMC3    C7 4278   4.494   3.495  16.049 -0.2515  0.4324  0.1094
  283TMC3    C8 4279   4.571   3.946  15.912  0.2308  0.0821  0.4287
  283TMC3    O1 4280   4.411   3.527  16.130  0.0639  0.2586  0.3797
  283TMC3    O2 4281   4.483   3.985  15.991  0.4601  0.6762 -0.4145
  284MPD2     C 4282   3.470   2.900  12.389  0.0014 -0.0308 -0.6560
  284MPD2    C1 4283   3.335   2.886  12.396  0.7326 -0.1980 -0.2325
  284MPD2    C2 4284   3.290   2.770  12.460 -0.5231 -0.5218  0.0682
  284MPD2    C3 4285   3.372   2.677  12.521 -0.5839 -0.0018 -0.1202
  284MPD2    C4 4286   3.506   2.700  12.524 -0.5814 -0.7660 -0.3288
  284MPD2    C5 4287   3.556   2.812  12.458 -0.7407 -0.7088 -0.1668
  284MPD2     H 4288   3.182   2.761  12.455 -0.7037  1.8069 -0.4257
  284MPD2    H1 4289   3.572   2.637  12.583  0.3404 -0.5690 -1.1494
  284MPD2    H2 4290   3.528   2.975  12.337  0.4594 -0.2630 -0.4737
  284MPD2    H3 4291   3.662   2.830  12.443 -0.5075 -1.6991  0.3217
  284MPD2     N 4292   3.325   2.564  12.593  0.3075 -0.1150  0.1548
  284MPD2    H5 4293   3.398   2.501  12.625 -0.0112 -1.1565 -1.1339
  284MPD2    N1 4294   3.255   2.976  12.329 -0.2725 -0.1978  0.2496
  284MPD2    H7 4295   3.158   2.949  12.342  0.4802 -2.3449  1.3746
  285TMC3    C1 4296   3.176   3.153  12.184 -0.3423  0.1059 -0.1734
  285TMC3    C2 4297   3.081   3.067  12.119 -1.1484  0.4707  1.0157
  285TMC3    C3 4298   3.016   3.121  12.009  0.8087  0.0973 -0.1908
  285TMC3    C4 4299   3.190   3.283  12.145 -0.5711 -0.4282 -0.5704
  285TMC3    C5 4300   3.119   3.333  12.039 -0.6927 -0.4449 -0.2172
  285TMC3    C6 4301   3.032   3.252  11.974 -0.1584  0.6142  0.5418
  285TMC3     C 4302   3.283   3.089  12.256  0.3066  0.6140 -0.9707
  285TMC3     O 4303   3.392   3.151  12.251 -0.4869  0.2688 -0.4210
  285TMC3     H 4304   3.078   2.960  12.136 -2.1264  0.2947 -0.3043
  285TMC3    H1 4305   3.272   3.343  12.184  0.1429 -1.2260 -0.8423
  285TMC3    H2 4306   2.988   3.292  11.884  0.3552 -1.4234 -0.6185
  285TMC3    C7 4307   3.203   3.408  11.943 -0.1450 -0.1061  0.7623
  285TMC3    C8 4308   3.059   3.032  11.897  0.0870 -0.5054 -0.2634
  285TMC3    O1 4309   3.174   3.395  11.825  0.4467 -0.2964 -0.0289
  285TMC3    O2 4310   3.041   2.914  11.915 -0.2627 -0.4126  0.9394
  286MPD2     C 4311   3.012   1.958   1.459 -0.8133  0.6496 -0.5212
  286MPD2    C1 4312   3.014   1.925   1.325 -0.2986  0.2544  0.2208
  286MPD2    C2 4313   3.105   1.840   1.269  0.9586 -0.0333  0.7430
  286MPD2    C3 4314   3.196   1.788   1.357  0.4512 -0.1423 -0.3051
  286MPD2    C4 4315   3.191   1.809   1.495  0.1345 -0.2529 -0.1624
  286MPD2    C5 4316   3.105   1.903   1.546 -1.1501  0.5800 -0.0758
  286MPD2     H 4317   3.103   1.828   1.162  0.7069 -0.3176  0.7794
  286MPD2    H1 4318   3.261   1.764   1.564  0.2466  0.2355  0.0460
  286MPD2    H2 4319   2.946   2.036   1.497 -2.6154 -0.9734 -0.3079
  286MPD2    H3 4320   3.109   1.928   1.651  0.4176 -0.6056  0.1478
  286MPD2     N 4321   3.296   1.699   1.315  0.0807 -0.4626 -0.5276
  286MPD2    H5 4322   3.359   1.660   1.384  0.7911  0.7662 -0.4842
  286MPD2    N1 4323   2.918   1.969   1.232  0.0648  0.2861 -0.3130
  286MPD2    H7 4324   2.918   1.931   1.138  2.8181  2.4630 -1.1920
  287TMC3    C1 4325   3.415   1.551   1.166  0.4462  0.7322  0.0492
  287TMC3    C2 4326   3.447   1.526   1.034  0.0399  0.3840  0.0016
  287TMC3    C3 4327   3.540   1.425   1.015  0.1817  0.3871 -0.1458
  287TMC3    C4 4328   3.484   1.493   1.271  0.3467 -0.1114 -0.2948
  287TMC3    C5 4329   3.583   1.409   1.235 -0.0334 -0.3199  0.4659
  287TMC3    C6 4330   3.617   1.371   1.114 -0.3764  0.0487 -0.3655
  287TMC3     C 4331   3.301   1.641   1.189 -0.1713 -0.6748  0.2026
  287TMC3     O 4332   3.230   1.654   1.089  0.5759 -0.5658  0.1088
  287TMC3     H 4333   3.392   1.574   0.953  0.6897 -1.5716 -1.6161
  287TMC3    H1 4334   3.453   1.506   1.374 -2.0072 -1.5520 -0.8398
  287TMC3    H2 4335   3.691   1.294   1.093 -0.1012  0.7880 -2.1372
  287TMC3    C7 4336   3.636   1.337   1.351 -0.1533 -0.1782  0.1007
  287TMC3    C8 4337   3.565   1.366   0.888 -0.3804 -0.2164 -0.3891
  287TMC3    O1 4338   3.629   1.398   1.458 -0.4514  0.2667 -0.1128
  287TMC3    O2 4339   3.677   1.313   0.866 -0.5038  0.1162 -0.2164
  288TMC3    C1 4340   0.034   1.098  14.400 -1.0998 -0.4215  0.5402
  288TMC3    C2 4341   4.710   1.023  14.502  0.5843 -0.5207  0.5438
  288TMC3    C3 4342   4.681   1.081  14.621 -0.1578 -0.0744 -0.6652
  288TMC3    C4 4343   0.059   1.229  14.420  0.0657  1.0080 -0.1232
  288TMC3    C5 4344   0.021   1.287  14.538  0.5901  0.3847  0.3649
  288TMC3    C6 4345   4.695   1.215  14.644  0.5102  0.0730  0.1140
  288TMC3     C 4346   0.133   1.020  14.325  0.2251  0.2330  0.1554
  288TMC3     O 4347   0.130   0.898  14.336  0.3909 -0.1104 -0.0945
  288TMC3     H 4348   4.713   0.914  14.500  1.1897 -0.5183  1.4040
  288TMC3    H1 4349   0.116   1.291  14.352  2.9940 -1.9066 -0.3136
  288TMC3    H2 4350   4.660   1.263  14.735  0.9748  2.2174 -0.8221
  288TMC3    C7 4351   0.079   1.415  14.578 -0.1430 -0.9567  0.5925
  288TMC3    C8 4352   4.645   0.996  14.737 -0.3502  0.1018  1.0390
  288TMC3    O1 4353   0.085   1.429  14.700 -0.6381 -0.5111  0.1521
  288TMC3    O2 4354   4.588   0.891  14.710 -0.0721 -0.4196 -0.0269
  289MPD2     C 4355   0.276   0.473  14.049  0.0566  0.1532 -0.5071
  289MPD2    C1 4356   0.199   0.587  14.033 -0.2005 -0.0642 -0.2780
  289MPD2    C2 4357   0.068   0.586  14.079 -0.0230  1.2126 -0.5404
  289MPD2    C3 4358   0.012   0.471  14.138 -0.0054 -0.1424 -0.0987
  289MPD2    C4 4359   0.091   0.363  14.165 -0.7865  0.3808  0.1350
  289MPD2    C5 4360   0.222   0.361  14.114  0.3939 -0.3156 -0.1512
  289MPD2     H 4361   0.020   0.682  14.093  0.1679  1.4093 -1.2048
  289MPD2    H1 4362   0.055   0.282  14.227  0.7911 -1.8129 -1.8074
  289MPD2    H2 4363   0.377   0.467  14.010  0.3805 -0.9784  0.4917
  289MPD2    H3 4364   0.277   0.275  14.150  1.5678  0.6731  0.4453
  289MPD2     N 4365   4.607   0.475  14.198  1.1715  0.2138  0.1307
  289MPD2    H5 4366   4.574   0.394  14.250  0.3768  1.0282  0.8975
  289MPD2    N1 4367   0.257   0.704  13.978  0.7796 -0.0699 -0.7420
  289MPD2    H7 4368   0.359   0.708  13.978  0.8266 -1.5410 -3.2061
  290TMC3    C1 4369   4.397   0.560  14.270 -0.8360 -0.8468 -0.2872
  290TMC3    C2 4370   4.310   0.670  14.261  0.1194  0.3540 -0.6464
  290TMC3    C3 4371   4.173   0.653  14.291  0.4252  0.9704 -0.4711
  290TMC3    C4 4372   4.353   0.442  14.307 -0.2163  0.0238 -0.1496
  290TMC3    C5 4373   4.219   0.428  14.332  1.1270 -0.1426  0.4575
  290TMC3    C6 4374   4.122   0.531  14.311  0.6082 -0.6683 -0.2472
  290TMC3     C 4375   4.513   0.577  14.187 -0.5218 -0.1854  0.1742
  290TMC3     O 4376   4.506   0.675  14.112  0.3228  0.0816 -0.5417
  290TMC3     H 4377   4.342   0.765  14.220  0.4922  0.7256  0.4908
  290TMC3    H1 4378   4.428   0.364  14.298 -1.3693 -1.1453  0.5087
  290TMC3    H2 4379   4.018   0.518  14.336  0.6434 -0.6468 -0.0910
  290TMC3    C7 4380   4.170   0.299  14.390 -0.0658  0.3352 -0.1088
  290TMC3    C8 4381   4.090   0.764  14.247 -0.6651 -0.5285  0.3362
  290TMC3    O1 4382   4.050   0.299  14.420  0.0711  0.2669  0.0925
  290TMC3    O2 4383   3.974   0.742  14.222  0.5187  0.4043 -0.1206
  291MPD2     C 4384   4.255   0.238   0.565  0.4113  0.1666  0.1781
  291MPD2    C1 4385   4.145   0.266   0.487  0.4737  0.9391 -0.1809
  291MPD2    C2 4386   4.160   0.355   0.385 -1.0218  0.3109  0.6205
  291MPD2    C3 4387   4.282   0.418   0.361 -0.4604  0.7284 -0.2039
  291MPD2    C4 4388   4.390   0.394   0.447  0.2216 -0.5934  0.5608
  291MPD2    C5 4389   4.369   0.302   0.551  0.5465  0.4259  0.0269
  291MPD2     H 4390   4.077   0.355   0.315 -1.7596 -0.4226  1.5078
  291MPD2    H1 4391   4.491   0.430   0.433 -0.0076 -1.5367 -3.4798
  291MPD2    H2 4392   4.245   0.173   0.651 -2.0357  1.3910  0.8152
  291MPD2    H3 4393   4.456   0.278   0.612  0.4707  0.5215  0.1720
  291MPD2     N 4394   4.319   0.496   0.249 -0.7480 -0.3760 -0.6091
  291MPD2    H5 4395   4.402   0.555   0.248 -0.6160 -0.5572 -0.4026
  291MPD2    N1 4396   4.016   0.198   0.498 -0.6326  0.0971  0.1089
  291MPD2    H7 4397   3.938   0.226   0.439 -1.8724 -1.6056  0.9477
  292TMC3    C1 4398   3.869   0.023   0.545 -0.1023 -0.8371  0.9221
  292TMC3    C2 4399   3.759   0.101   0.551  0.2916 -0.4676 -0.4384
  292TMC3    C3 4400   3.641   0.030   0.553  0.1883 -0.0977  0.8564
  292TMC3    C4 4401   3.866   4.611   0.562  0.3622 -0.5614 -0.1283
  292TMC3    C5 4402   3.740   4.547   0.565  0.3450  0.1879  0.1255
  292TMC3    C6 4403   3.621   4.618   0.560 -0.7006  0.6191 -0.1105
  292TMC3     C 4404   4.003   0.078   0.553 -0.0317 -0.1085  0.0301
  292TMC3     O 4405   4.091   0.010   0.607 -0.1589 -0.6956  0.3192
  292TMC3     H 4406   3.767   0.209   0.559 -0.3935 -0.5684  1.8628
  292TMC3    H1 4407   3.961   4.558   0.566  0.3756 -0.5515 -0.3397
  292TMC3    H2 4408   3.523   4.571   0.561  0.3468 -1.5960 -1.5469
  292TMC3    C7 4409   3.729   4.405   0.536 -0.4749  0.2754 -0.7562
  292TMC3    C8 4410   3.522   0.113   0.585  0.3964 -0.6097  0.3671
  292TMC3    O1 4411   3.827   4.354   0.483 -0.3579  0.9312  0.2021
  292TMC3    O2 4412   3.523   0.235   0.558 -0.6273 -0.3164 -0.7749
  293MPD2     C 4413   1.517   2.003  12.506  0.1982 -0.1907 -0.2724
  293MPD2    C1 4414   1.435   1.937  12.600  0.6689  0.1287 -1.1220
  293MPD2    C2 4415   1.485   1.918  12.729 -0.0505  0.0077  0.4027
  293MPD2    C3 4416   1.603   1.981  12.769  0.3972 -0.7891 -0.2224
  293MPD2    C4 4417   1.671   2.057  12.677  0.5396  0.1882  0.1958
  293MPD2    C5 4418   1.627   2.070  12.544 -1.6501  0.0343 -0.2743
  293MPD2     H 4419   1.437   1.854  12.802 -1.7837 -1.5875 -2.1316
  293MPD2    H1 4420   1.767   2.097  12.707  2.0105 -0.7910 -3.2031
  293MPD2    H2 4421   1.502   1.999  12.399  0.7308 -2.0265 -0.2849
  293MPD2    H3 4422   1.694   2.114  12.471 -1.2178  0.0268  0.1161
  293MPD2     N 4423   1.645   1.971  12.906 -0.3315  0.0578  0.0272
  293MPD2    H5 4424   1.574   1.930  12.966  0.3440 -1.7985 -0.4394
  293MPD2    N1 4425   1.324   1.878  12.541 -0.3100  0.1523  0.0805
  293MPD2    H7 4426   1.312   1.905  12.444 -2.3079 -1.3064 -0.0747
  294TMC3    C1 4427   1.117   1.767  12.510  0.4555  0.4350 -0.0044
  294TMC3    C2 4428   1.033   1.661  12.546  0.1146  0.2875 -0.5781
  294TMC3    C3 4429   0.920   1.635  12.465  0.4839 -0.1191  0.2273
  294TMC3    C4 4430   1.088   1.857  12.403  0.1793  0.5800  0.2108
  294TMC3    C5 4431   0.985   1.815  12.322 -0.7963 -0.8183 -0.2126
  294TMC3    C6 4432   0.898   1.707  12.348  0.1607 -0.1569  0.1319
  294TMC3     C 4433   1.224   1.802  12.600  0.1781  0.0252 -0.4070
  294TMC3     O 4434   1.218   1.752  12.711 -0.2937  0.4390 -0.3843
  294TMC3     H 4435   1.052   1.618  12.643 -0.3848 -3.1964 -2.0011
  294TMC3    H1 4436   1.141   1.950  12.383  1.6054 -0.3243 -0.2628
  294TMC3    H2 4437   0.806   1.697  12.292 -0.3794 -1.1962  1.2100
  294TMC3    C7 4438   0.971   1.879  12.190  0.5666  0.2412  0.2976
  294TMC3    C8 4439   0.880   1.497  12.461 -0.3069 -0.7276 -0.7960
  294TMC3    O1 4440   0.855   1.898  12.160  0.1814  0.2049  0.5776
  294TMC3    O2 4441   0.890   1.445  12.570  0.2346  0.4301 -0.0308
  295MPD2     C 4442   1.142   0.111   0.129 -0.3130  0.2920 -0.0250
  295MPD2    C1 4443   1.198   0.231   0.157  0.1791  0.0923  0.9435
  295MPD2    C2 4444   1.132   0.329   0.237  0.3372 -0.0034 -0.1238
  295MPD2    C3 4445   1.017   0.287   0.303  0.5416  0.2643  0.4334
  295MPD2    C4 4446   0.956   0.174   0.264 -0.7068  0.7303  0.2721
  295MPD2    C5 4447   1.024   0.083   0.185 -0.3158  0.9255  0.8708
  295MPD2     H 4448   1.179   0.424   0.261 -0.0795  0.1290  0.1527
  295MPD2    H1 4449   0.860   0.140   0.301 -0.7432 -1.3471 -1.7348
  295MPD2    H2 4450   1.192   0.032   0.075 -0.8252  0.1495 -0.2874
  295MPD2    H3 4451   0.976   4.712   0.165 -0.9088  1.4789 -0.3478
  295MPD2     N 4452   0.948   0.371   0.389 -0.7432 -0.2869  0.5825
  295MPD2    H5 4453   0.864   0.335   0.433 -1.0531 -1.6938 -1.1655
  295MPD2    N1 4454   1.334   0.255   0.125  0.6325  0.2746 -0.3458
  295MPD2    H7 4455   1.375   0.338   0.167 -0.3129  2.0376 -2.8854
  296TMC3    C1 4456   0.917   0.547   0.547 -0.8832 -0.0383  0.4195
  296TMC3    C2 4457   0.988   0.620   0.643 -0.1663  0.0979 -0.3191
  296TMC3    C3 4458   0.918   0.654   0.755  0.0477 -0.6624  0.0889
  296TMC3    C4 4459   0.782   0.520   0.561 -0.2788  0.7589  0.7030
  296TMC3    C5 4460   0.716   0.570   0.675 -0.7771  0.1113 -0.3017
  296TMC3    C6 4461   0.782   0.650   0.774 -0.2902  0.4867  0.0715
  296TMC3     C 4462   0.999   0.491   0.437 -0.2029 -0.0592  0.1019
  296TMC3     O 4463   1.107   0.547   0.425  0.4017 -0.2156 -0.2200
  296TMC3     H 4464   1.096   0.629   0.636 -0.1697  0.3305 -0.0687
  296TMC3    H1 4465   0.727   0.479   0.477  0.5074  0.1084  0.4959
  296TMC3    H2 4466   0.738   0.660   0.873 -2.1954 -1.6373 -0.5900
  296TMC3    C7 4467   0.577   0.530   0.689 -0.0527 -0.1314  0.0826
  296TMC3    C8 4468   0.997   0.716   0.862 -0.1894 -0.0441  0.3545
  296TMC3    O1 4469   0.533   0.453   0.605  0.0666  0.5986 -0.0013
  296TMC3    O2 4470   0.933   0.800   0.929 -0.5412 -0.2144  0.3651
  297MPD2     C 4471   3.966   2.308  16.216  0.5067 -0.9115 -0.2513
  297MPD2    C1 4472   3.865   2.400  16.214 -0.4672  0.2678  0.2999
  297MPD2    C2 4473   3.883   2.513  16.292 -0.0920  0.1908  0.1429
  297MPD2    C3 4474   3.996   2.542  16.362 -0.3195 -0.3366  0.5546
  297MPD2    C4 4475   4.092   2.444  16.365  0.1378 -0.0463  0.3025
  297MPD2    C5 4476   4.077   2.325  16.300  0.1234  0.1584 -0.0373
  297MPD2     H 4477   3.806   2.588  16.284  1.4143  1.8274  0.9930
  297MPD2    H1 4478   4.190   2.458  16.410  0.5906 -0.3499 -0.5867
  297MPD2    H2 4479   3.960   2.216  16.159  0.2619 -0.6004 -0.7230
  297MPD2    H3 4480   4.153   2.246  16.302  1.0024  1.0098  0.1376
  297MPD2     N 4481   4.021   2.666  16.418  0.2265 -0.3936  0.2221
  297MPD2    H5 4482   3.950   2.734  16.393  1.1930  1.2092  1.9056
  297MPD2    N1 4483   3.752   2.374  16.133  0.3791 -0.1256  0.6898
  297MPD2    H7 4484   3.762   2.302  16.062  0.0722  1.7454 -1.2756
  298TMC3    C1 4485   3.544   2.440  16.038  0.1179 -1.0451  0.8812
  298TMC3    C2 4486   3.599   2.418  15.915  0.9368 -0.4592  0.1400
  298TMC3    C3 4487   3.517   2.448  15.808  0.2410  0.3920  0.3010
  298TMC3    C4 4488   3.417   2.494  16.056 -0.2202  0.0919 -0.2443
  298TMC3    C5 4489   3.346   2.538  15.947 -0.1852  0.0066  0.3622
  298TMC3    C6 4490   3.395   2.509  15.818  0.3467  0.0058  0.3724
  298TMC3     C 4491   3.634   2.441  16.153 -0.2601 -0.0282  0.2777
  298TMC3     O 4492   3.602   2.513  16.245 -0.4448 -0.4724 -0.3283
  298TMC3     H 4493   3.702   2.390  15.896  1.7956  0.7447  3.0457
  298TMC3    H1 4494   3.387   2.514  16.158 -2.5863 -2.2634 -0.4786
  298TMC3    H2 4495   3.338   2.546  15.734  1.5381  0.6440 -0.1474
  298TMC3    C7 4496   3.248   2.638  15.972 -0.1403 -0.1267 -0.2503
  298TMC3    C8 4497   3.598   2.446  15.682  0.0290  0.1709  0.7543
  298TMC3    O1 4498   3.178   2.640  16.071  0.2968  0.0047  0.1593
  298TMC3    O2 4499   3.719   2.414  15.682  0.5528  0.0556  1.3035
  299MPD2     C 4500   4.551   2.992  10.673  0.3733 -0.6220 -1.0144
  299MPD2    C1 4501   4.585   2.875  10.739  1.2148 -1.0279 -0.4205
  299MPD2    C2 4502   4.486   2.783  10.762 -0.2077  0.0883  0.0023
  299MPD2    C3 4503   4.356   2.797  10.705 -0.0541 -0.5887  0.6858
  299MPD2    C4 4504   4.326   2.909  10.630  0.1338 -0.2310 -0.3485
  299MPD2    C5 4505   4.421   3.007  10.625  0.2167 -0.1694  0.8796
  299MPD2     H 4506   4.500   2.698  10.828 -0.9490  1.6452  2.1828
  299MPD2    H1 4507   4.234   2.920  10.574  0.1660  1.4257 -0.0829
  299MPD2    H2 4508   4.621   3.072  10.650 -0.6131  0.2198 -1.1065
  299MPD2    H3 4509   4.415   3.096  10.563  2.1961 -0.0974  0.7880
  299MPD2     N 4510   4.260   2.694  10.715 -0.2230 -0.2405 -0.3739
  299MPD2    H5 4511   4.172   2.704  10.664 -0.6507 -0.9662  0.2261
  299MPD2    N1 4512   4.720   2.856  10.783  0.2442 -0.6263  0.2610
  299MPD2    H7 4513   0.062   2.932  10.769  0.3817 -0.6474  0.7731
  300TMC3    C1 4514   4.152   2.477  10.723 -0.2341 -0.5618 -0.0174
  300TMC3    C2 4515   4.066   2.522  10.625  0.2581 -0.0807  0.1766
  300TMC3    C3 4516   3.932   2.471  10.629 -0.0018  0.4868 -1.0809
  300TMC3    C4 4517   4.132   2.371  10.806  0.7597 -0.5048  0.5624
  300TMC3    C5 4518   4.005   2.323  10.799 -0.0206  0.2907  0.2257
  300TMC3    C6 4519   3.904   2.372  10.720 -0.0104 -0.1099 -0.2314
  300TMC3     C 4520   4.270   2.562  10.762 -0.1748  0.1230 -0.2584
  300TMC3     O 4521   4.368   2.507  10.815  0.1672 -0.5138  0.2305
  300TMC3     H 4522   4.098   2.600  10.556  3.4755  0.0882  1.8290
  300TMC3    H1 4523   4.201   2.355  10.888  0.7836 -0.7501  0.4956
  300TMC3    H2 4524   3.807   2.324  10.728 -2.0083  3.7348 -1.4224
  300TMC3    C7 4525   3.980   2.213  10.880  0.2622  0.7970 -0.2341
  300TMC3    C8 4526   3.835   2.493  10.526  0.0298  0.3364 -0.7185
  300TMC3    O1 4527   4.074   2.134  10.898  0.0968  0.6441 -0.1406
  300TMC3    O2 4528   3.746   2.411  10.511 -0.2412 -0.1379 -0.0013
  301MPD2     C 4529   1.555   3.670   1.443 -0.1060  0.2790  0.6341
  301MPD2    C1 4530   1.461   3.583   1.386 -0.3444 -0.0436  0.5640
  301MPD2    C2 4531   1.507   3.449   1.370 -0.3249 -0.2376 -0.2502
  301MPD2    C3 4532   1.639   3.409   1.403  0.0084  0.3596  0.5066
  301MPD2    C4 4533   1.721   3.500   1.468  0.3292  0.7687  0.5720
  301MPD2    C5 4534   1.678   3.626   1.490 -0.3346  0.3589  0.5189
  301MPD2     H 4535   1.437   3.374   1.333 -0.1892 -0.6209  0.2763
  301MPD2    H1 4536   1.819   3.473   1.508  0.2479 -1.7948 -0.9545
  301MPD2    H2 4537   1.539   3.776   1.460  0.5001  0.9998 -3.2067
  301MPD2    H3 4538   1.748   3.694   1.537 -0.0740  0.2847  0.2394
  301MPD2     N 4539   1.690   3.280   1.380 -0.9469 -0.9487 -0.2031
  301MPD2    H5 4540   1.778   3.253   1.423 -0.8922  0.3757  0.5033
  301MPD2    N1 4541   1.333   3.616   1.347 -0.5318 -0.6943 -0.3633
  301MPD2    H7 4542   1.274   3.535   1.330  0.0224 -0.9575 -1.0488
  302TMC3    C1 4543   1.713   3.068   1.286  0.0292 -0.2437  0.1612
  302TMC3    C2 4544   1.803   3.033   1.389 -0.0766  0.6778 -0.2876
  302TMC3    C3 4545   1.865   2.913   1.374  0.2582 -0.0722  0.0061
  302TMC3    C4 4546   1.684   2.983   1.182  0.0026  0.5521  0.4828
  302TMC3    C5 4547   1.753   2.869   1.176 -0.2274  0.5631 -0.2579
  302TMC3    C6 4548   1.848   2.830   1.265  0.3657 -0.7363  0.2677
  302TMC3     C 4549   1.633   3.184   1.299  0.0522 -0.6382  0.2677
  302TMC3     O 4550   1.534   3.198   1.229 -0.6420 -0.1558 -0.1598
  302TMC3     H 4551   1.807   3.078   1.487  0.1692  2.9778 -1.3697
  302TMC3    H1 4552   1.613   3.014   1.106  1.2060  1.2412 -0.3630
  302TMC3    H2 4553   1.903   2.741   1.238  0.5641  0.2082 -2.4290
  302TMC3    C7 4554   1.710   2.773   1.079 -0.7075  0.0803  0.0077
  302TMC3    C8 4555   1.970   2.870   1.466  0.1171 -0.1640  0.2539
  302TMC3    O1 4556   1.794   2.702   1.034 -0.5241  0.2716 -0.3188
  302TMC3    O2 4557   1.984   2.752   1.484 -0.2993 -0.5302  0.1927
  303MPD2     C 4558   2.458   2.158   9.664  0.5176 -0.2879  0.0761
  303MPD2    C1 4559   2.423   2.049   9.725  0.4679 -0.1642  0.1201
  303MPD2    C2 4560   2.470   1.927   9.693  0.0986  0.9316  0.5648
  303MPD2    C3 4561   2.564   1.916   9.594 -0.3859  0.4095 -1.0922
  303MPD2    C4 4562   2.616   2.033   9.540  0.2648  0.2759 -0.0728
  303MPD2    C5 4563   2.558   2.156   9.569  1.0488 -0.4221  0.3088
  303MPD2     H 4564   2.427   1.837   9.736  0.1621  0.2347 -0.8576
  303MPD2    H1 4565   2.684   2.036   9.456 -0.3930 -0.5844 -0.6420
  303MPD2    H2 4566   2.413   2.252   9.694  0.6291 -0.5128  0.9292
  303MPD2    H3 4567   2.580   2.241   9.506  0.7619 -1.8801 -1.7429
  303MPD2     N 4568   2.615   1.796   9.544  0.1230  0.3045 -0.0881
  303MPD2    H5 4569   2.696   1.807   9.483  1.0649 -0.7929  0.9669
  303MPD2    N1 4570   2.309   2.061   9.810 -0.1754  0.1464 -0.4765
  303MPD2    H7 4571   2.264   2.152   9.817  0.0472  0.3560 -1.7560
  304TMC3    C1 4572   2.118   1.990   9.934  0.3250 -0.5411  0.6678
  304TMC3    C2 4573   2.033   2.026   9.830  1.2156 -0.2911  0.7667
  304TMC3    C3 4574   1.904   1.979   9.826  0.1632  0.3991 -0.8118
  304TMC3    C4 4575   2.076   1.905  10.027 -0.4537 -1.0163 -0.4670
  304TMC3    C5 4576   1.948   1.852  10.026 -0.1614  0.5451  0.1472
  304TMC3    C6 4577   1.858   1.899   9.927  0.3666  0.5883 -0.0029
  304TMC3     C 4578   2.254   1.962   9.887 -0.1631 -0.0096  0.5078
  304TMC3     O 4579   2.296   1.848   9.917  0.0937 -0.2657  0.3161
  304TMC3     H 4580   2.077   2.066   9.740  0.2183  3.1863  1.8525
  304TMC3    H1 4581   2.146   1.848  10.087 -0.9558 -1.5614 -0.3935
  304TMC3    H2 4582   1.761   1.851   9.923 -0.8647  3.1681 -1.3886
  304TMC3    C7 4583   1.932   1.707  10.040  0.5082  0.1513 -0.1970
  304TMC3    C8 4584   1.868   1.920   9.701  0.8847 -0.2924  0.7074
  304TMC3    O1 4585   1.852   1.655   9.964  0.3419  0.1699 -0.2000
  304TMC3    O2 4586   1.893   1.980   9.599 -0.7705 -0.2768 -0.1143
  305MPD2     C 4587   0.131   3.710  13.763  0.1212  0.5044 -0.7467
  305MPD2    C1 4588   0.137   3.576  13.806  0.6000 -0.5854 -0.2938
  305MPD2    C2 4589   0.127   3.472  13.718  0.8414  0.2778  0.7208
  305MPD2    C3 4590   0.111   3.501  13.584  0.1067  0.9692  0.6962
  305MPD2    C4 4591   0.122   3.634  13.543 -0.3139  0.0185  0.4183
  305MPD2    C5 4592   0.127   3.737  13.630  0.3494  0.3380 -0.4549
  305MPD2     H 4593   0.125   3.368  13.748  2.5314  0.6881  2.2282
  305MPD2    H1 4594   0.119   3.663  13.439 -0.0164  1.7200  0.8994
  305MPD2    H2 4595   0.140   3.793  13.831 -2.6506 -0.8202  1.2595
  305MPD2    H3 4596   0.123   3.838  13.592  0.4578  1.1952  1.8491
  305MPD2     N 4597   0.112   3.415  13.475  0.7041  0.3280  0.0335
  305MPD2    H5 4598   0.129   3.462  13.387 -1.0475 -0.2290 -0.6055
  305MPD2    N1 4599   0.158   3.560  13.944 -0.3096  0.0584 -0.6838
  305MPD2    H7 4600   0.158   3.642  14.004 -0.0608 -0.8642  0.5818
  306TMC3    C1 4601   0.184   3.445  14.155 -0.6540 -0.8466 -0.8532
  306TMC3    C2 4602   0.251   3.350  14.223 -0.4963 -0.5344 -0.1560
  306TMC3    C3 4603   0.259   3.354  14.353 -0.6673 -0.4253  0.7800
  306TMC3    C4 4604   0.119   3.548  14.225 -1.0143  0.0802  0.0956
  306TMC3    C5 4605   0.137   3.545  14.357 -0.1106 -0.4074  0.5708
  306TMC3    C6 4606   0.196   3.448  14.423 -1.2588  0.1091  0.0460
  306TMC3     C 4607   0.184   3.441  14.011  0.3755  0.2155 -0.2683
  306TMC3     O 4608   0.208   3.332  13.964 -0.5504  0.3066 -0.1217
  306TMC3     H 4609   0.320   3.283  14.173 -0.2303 -0.1380 -0.3151
  306TMC3    H1 4610   0.074   3.632  14.173 -0.7423 -0.3693 -0.8759
  306TMC3    H2 4611   0.182   3.447  14.531 -1.6238 -0.2691 -0.0037
  306TMC3    C7 4612   0.066   3.648  14.433  0.2492  0.9044 -0.0947
  306TMC3    C8 4613   0.362   3.268  14.419 -0.2359 -0.6166  1.6880
  306TMC3    O1 4614   4.704   3.712  14.376 -0.7394 -0.4158 -0.3230
  306TMC3    O2 4615   0.422   3.183  14.350  0.5294 -0.2095 -0.4430
  307MPD2     C 4616   2.283   1.061   0.909  0.6386  0.1216 -0.2871
  307MPD2    C1 4617   2.245   1.187   0.881 -0.2330  0.3785  0.6593
  307MPD2    C2 4618   2.107   1.224   0.906  0.0505 -0.6814 -0.4910
  307MPD2    C3 4619   2.020   1.139   0.975 -0.8669 -0.1369  0.0009
  307MPD2    C4 4620   2.071   1.016   1.008  0.3947  0.2812 -0.2362
  307MPD2    C5 4621   2.204   0.981   0.979  0.5593  0.3871  0.9383
  307MPD2     H 4622   2.063   1.319   0.878  0.8603  0.0719  0.7854
  307MPD2    H1 4623   2.015   0.944   1.067 -2.0254  1.7028 -0.7965
  307MPD2    H2 4624   2.383   1.028   0.882  0.6342  0.3768 -0.6148
  307MPD2    H3 4625   2.232   0.886   1.021  1.7917 -0.1197 -1.0158
  307MPD2     N 4626   1.888   1.181   1.016  0.5464 -0.5094  0.0090
  307MPD2    H5 4627   1.868   1.278   0.994  0.9306 -0.2410  0.8589
  307MPD2    N1 4628   2.327   1.281   0.817 -0.0113 -0.3379 -0.2229
  307MPD2    H7 4629   2.289   1.371   0.791 -0.1860 -0.7375 -1.3446
  308TMC3    C1 4630   1.466   1.288   1.146  1.0915 -0.1200  0.9781
  308TMC3    C2 4631   1.510   1.418   1.177  0.2278  0.0441 -0.0760
  308TMC3    C3 4632   1.639   1.430   1.192 -0.2466  0.3242  0.5159
  308TMC3    C4 4633   1.548   1.184   1.112  0.0447  0.4953 -0.8716
  308TMC3    C5 4634   1.677   1.211   1.107 -0.0816 -0.1265 -0.4788
  308TMC3    C6 4635   1.728   1.330   1.151  0.4132 -0.0306 -0.6571
  308TMC3     C 4636   1.337   1.301   1.073 -0.2723  0.0944  0.1374
  308TMC3     O 4637   1.263   1.204   1.070 -0.3473  0.2070  0.6771
  308TMC3     H 4638   1.442   1.484   1.230  0.1874  1.0560 -1.3916
  308TMC3    H1 4639   1.505   1.093   1.072 -1.0111  0.2667  0.7595
  308TMC3    H2 4640   1.827   1.349   1.192  1.1143 -1.0328 -1.8797
  308TMC3    C7 4641   1.777   1.114   1.066 -0.7257 -0.8285  0.1303
  308TMC3    C8 4642   1.687   1.561   1.156  0.1068  0.4849 -0.2272
  308TMC3    O1 4643   1.758   0.994   1.087 -0.4468  0.1441 -0.4073
  308TMC3    O2 4644   1.592   1.619   1.100 -0.3401 -0.2736  0.1458
  309MPD2     C 4645   1.371   1.905  17.205 -0.3161 -0.4820  0.2040
  309MPD2    C1 4646   1.391   2.013  17.120 -0.0114  0.3651  0.0876
  309MPD2    C2 4647   1.314   2.122  17.136 -0.6187 -0.2282  0.4871
  309MPD2    C3 4648   1.221   2.135  17.242 -0.7682 -0.3702  0.0763
  309MPD2    C4 4649   1.195   2.024  17.328  0.0523  0.2163  0.3931
  309MPD2    C5 4650   1.267   1.909  17.298  0.0914 -0.2943 -0.2618
  309MPD2     H 4651   1.322   2.203  17.064  0.8376 -0.3687  0.4926
  309MPD2    H1 4652   1.130   2.032  17.414  1.0651 -1.9068  1.3456
  309MPD2    H2 4653   1.427   1.813  17.197 -0.2698 -0.3142 -1.4437
  309MPD2    H3 4654   1.251   1.830  17.370 -1.8228  1.0905  0.8080
  309MPD2     N 4655   1.148   2.254  17.271 -0.3151  0.0239  0.3817
  309MPD2    H5 4656   1.075   2.241  17.340 -0.8205 -1.1331 -0.3744
  309MPD2    N1 4657   1.498   2.019  17.033  0.1038  0.6191  0.2515
  309MPD2    H7 4658   1.509   2.093  16.965  0.0258 -0.8231 -1.3369
  310TMC3    C1 4659   1.700   1.944  16.919 -0.5280  0.0609 -0.8031
  310TMC3    C2 4660   1.662   2.002  16.801  0.0454  0.5411 -0.1486
  310TMC3    C3 4661   1.750   2.013  16.700  0.3900  0.3321 -0.0791
  310TMC3    C4 4662   1.825   1.903  16.934 -0.3265  0.7960 -0.6123
  310TMC3    C5 4663   1.918   1.931  16.826  0.1673 -0.7848  0.0948
  310TMC3    C6 4664   1.881   1.983  16.705  0.4896 -0.5754 -0.2715
  310TMC3     C 4665   1.591   1.915  17.013  0.4319 -0.0490  0.3066
  310TMC3     O 4666   1.618   1.815  17.080 -0.0649  0.3622 -0.4492
  310TMC3     H 4667   1.559   2.027  16.776 -0.5642 -1.8109 -0.0158
  310TMC3    H1 4668   1.855   1.857  17.028  3.8567  0.1387 -2.2691
  310TMC3    H2 4669   1.945   1.987  16.617 -0.6517  1.2827 -1.0220
  310TMC3    C7 4670   2.048   1.877  16.857  0.2688  0.7985 -0.0794
  310TMC3    C8 4671   1.712   2.074  16.583 -0.1276  0.1137  0.5962
  310TMC3    O1 4672   2.057   1.775  16.928 -0.1368 -0.0123  0.1188
  310TMC3    O2 4673   1.765   2.036  16.479  0.0410 -0.3442 -0.1696
  311MPD2     C 4674   4.239   3.378  13.092  0.6032 -0.4205  0.4547
  311MPD2    C1 4675   4.155   3.450  13.014  0.1067 -0.1019 -0.3994
  311MPD2    C2 4676   4.019   3.448  13.043  0.3087  0.3110  0.0943
  311MPD2    C3 4677   3.968   3.369  13.148  0.6223 -0.3191 -0.8473
  311MPD2    C4 4678   4.061   3.288  13.219  0.0447  0.3473 -0.3307
  311MPD2    C5 4679   4.192   3.289  13.188 -0.8213  0.7570  0.1453
  311MPD2     H 4680   3.959   3.516  12.985 -0.4172  0.3582  0.9060
  311MPD2    H1 4681   4.025   3.219  13.295  1.9378 -1.7591 -1.3299
  311MPD2    H2 4682   4.347   3.384  13.081  0.2294  1.3009 -2.3327
  311MPD2    H3 4683   4.272   3.235  13.237  1.1611  3.1209 -0.4932
  311MPD2     N 4684   3.830   3.379  13.180 -0.3809 -0.3950 -0.0678
  311MPD2    H5 4685   3.778   3.438  13.116 -0.0358  1.7773  1.6574
  311MPD2    N1 4686   4.205   3.533  12.907 -0.2830 -0.1826 -0.5816
  311MPD2    H7 4687   4.141   3.600  12.865 -1.1345  0.7657  2.2251
  312TMC3    C1 4688   3.624   3.347  13.294  0.6100 -0.7609 -0.0654
  312TMC3    C2 4689   3.547   3.338  13.180 -0.1703  0.1814  0.3790
  312TMC3    C3 4690   3.411   3.363  13.190 -0.1965 -0.5447 -0.2456
  312TMC3    C4 4691   3.566   3.368  13.414  0.8285  0.2122  0.2585
  312TMC3    C5 4692   3.429   3.380  13.416  0.1900 -0.1351  0.0544
  312TMC3    C6 4693   3.346   3.375  13.306  0.4570 -0.1836 -0.0706
  312TMC3     C 4694   3.771   3.325  13.284  0.0890  0.5176  0.5649
  312TMC3     O 4695   3.817   3.247  13.365 -0.5557  0.1878  0.0433
  312TMC3     H 4696   3.583   3.306  13.083 -0.7541 -1.5537  0.7230
  312TMC3    H1 4697   3.617   3.381  13.509  1.8445  0.5184 -0.3293
  312TMC3    H2 4698   3.237   3.380  13.309  0.4809 -1.0449  2.3420
  312TMC3    C7 4699   3.366   3.395  13.546 -0.1378  0.6205  0.1174
  312TMC3    C8 4700   3.333   3.301  13.081  0.8553 -0.0580 -0.1506
  312TMC3    O1 4701   3.253   3.451  13.541 -0.1017 -0.8475 -0.2959
  312TMC3    O2 4702   3.361   3.187  13.048  0.8788 -0.5859 -0.5029
  313MPD2     C 4703   3.462   2.367  11.022  1.1880  0.4214 -0.3173
  313MPD2    C1 4704   3.472   2.440  10.907  0.5163 -0.0128  0.3115
  313MPD2    C2 4705   3.510   2.387  10.787  0.1889 -0.5545  0.2309
  313MPD2    C3 4706   3.538   2.251  10.776 -0.0071 -0.0594  0.3204
  313MPD2    C4 4707   3.504   2.173  10.885 -0.0773 -0.0509 -0.3870
  313MPD2    C5 4708   3.466   2.229  11.003  0.1866  0.2781 -0.4220
  313MPD2     H 4709   3.516   2.448  10.698 -1.6920 -2.1369 -0.9924
  313MPD2    H1 4710   3.526   2.067  10.895  0.8567 -0.0836 -2.5645
  313MPD2    H2 4711   3.448   2.410  11.121  1.3101 -1.1336  0.3710
  313MPD2    H3 4712   3.466   2.156  11.083  0.8705 -2.0400 -2.5291
  313MPD2     N 4713   3.590   2.199  10.653  0.3174  0.2806 -0.8019
  313MPD2    H5 4714   3.625   2.259  10.579 -0.8867 -0.7135 -2.1629
  313MPD2    N1 4715   3.455   2.582  10.900 -0.2780  0.3766 -0.4290
  313MPD2    H7 4716   3.457   2.626  10.809  1.6145  3.7217  1.2442
  314TMC3    C1 4717   3.436   2.794  10.968 -0.2003  0.2642 -0.2646
  314TMC3    C2 4718   3.539   2.868  11.020  0.1174  0.3516  0.8625
  314TMC3    C3 4719   3.601   2.952  10.935 -0.0823 -0.1128 -0.2318
  314TMC3    C4 4720   3.397   2.811  10.835 -0.5303  0.2016 -0.0342
  314TMC3    C5 4721   3.473   2.879  10.748  0.0628  0.3975 -0.1457
  314TMC3    C6 4722   3.574   2.951  10.802  0.1333  0.4078 -0.6591
  314TMC3     C 4723   3.444   2.663  11.013 -0.1377 -0.5457  0.7894
  314TMC3     O 4724   3.483   2.643  11.125  0.2435  0.3140  0.3281
  314TMC3     H 4725   3.562   2.861  11.125  0.0150  1.6065  0.9641
  314TMC3    H1 4726   3.322   2.745  10.795  1.1357 -0.6546 -1.7326
  314TMC3    H2 4727   3.640   3.006  10.735  0.7994  0.4363  0.0231
  314TMC3    C7 4728   3.502   2.794  10.632  0.6829  0.7527  0.0363
  314TMC3    C8 4729   3.709   3.047  10.970 -0.2986  0.0725 -0.0464
  314TMC3    O1 4730   3.486   2.674  10.643  0.4022  0.0398  0.2337
  314TMC3    O2 4731   3.766   3.111  10.884  0.1771  0.0553  0.3354
  315MPD2     C 4732   2.410   2.157  17.432  0.7011 -0.7001 -0.3713
  315MPD2    C1 4733   2.513   2.203  17.514  0.1162 -0.2488 -0.0841
  315MPD2    C2 4734   2.551   2.339  17.490  0.4764  0.2648 -0.4262
  315MPD2    C3 4735   2.503   2.414  17.387  0.4281 -0.3961  0.4290
  315MPD2    C4 4736   2.399   2.359  17.314 -0.2932  0.6465  0.4371
  315MPD2    C5 4737   2.352   2.235  17.344 -0.4806  0.3093  0.1471
  315MPD2     H 4738   2.634   2.376  17.550  1.9961 -0.3488 -2.1483
  315MPD2    H1 4739   2.349   2.407  17.231 -1.5668  0.5875  1.1600
  315MPD2    H2 4740   2.355   2.066  17.456  2.5262 -2.2371 -1.9622
  315MPD2    H3 4741   2.265   2.203  17.288 -1.3216 -0.7944  2.0951
  315MPD2     N 4742   2.552   2.544  17.369  0.1122  0.2230  0.0895
  315MPD2    H5 4743   2.611   2.586  17.440  0.8520 -1.3569  0.4212
  315MPD2    N1 4744   2.579   2.139  17.616 -0.4099 -0.7290  0.0679
  315MPD2    H7 4745   2.659   2.184  17.660  0.1908 -1.7773  0.0494
  316TMC3    C1 4746   2.636   2.734  17.264  1.2705  0.2233  0.1905
  316TMC3    C2 4747   2.682   2.781  17.385 -1.0761  0.3229 -0.0990
  316TMC3    C3 4748   2.764   2.894  17.390 -0.1045 -0.5247 -0.1138
  316TMC3    C4 4749   2.664   2.809  17.148 -0.1722  0.4069 -0.4060
  316TMC3    C5 4750   2.748   2.927  17.158  0.3496  0.3029  0.2606
  316TMC3    C6 4751   2.798   2.966  17.282  0.1526  0.1284  0.1854
  316TMC3     C 4752   2.552   2.615  17.252 -0.2999  0.3616  0.1545
  316TMC3     O 4753   2.514   2.587  17.138  0.3738  0.0159 -0.0541
  316TMC3     H 4754   2.648   2.739  17.479 -0.2441 -0.4618 -0.1477
  316TMC3    H1 4755   2.621   2.777  17.053  1.4095  1.1499 -1.3834
  316TMC3    H2 4756   2.858   3.056  17.292  0.4156 -0.0765  0.4568
  316TMC3    C7 4757   2.714   3.034  17.068  0.2816 -0.2372  0.0703
  316TMC3    C8 4758   2.842   2.927  17.502  0.1142  0.1866 -0.2252
  316TMC3    O1 4759   2.739   3.144  17.114 -0.1571 -0.0319  0.3882
  316TMC3    O2 4760   2.888   3.040  17.517  0.0183 -0.0411 -0.1979
  317MPD2     C 4761   4.627   0.711  12.963  0.4004  0.3148  0.0940
  317MPD2    C1 4762   4.637   0.575  12.935  0.2220 -1.0880 -0.4193
  317MPD2    C2 4763   4.708   0.493  13.022 -0.3322 -0.1648  0.6526
  317MPD2    C3 4764   0.060   0.543  13.132  1.4463 -0.5244  0.4959
  317MPD2    C4 4765   0.052   0.684  13.151  0.4248  0.1527  0.2200
  317MPD2    C5 4766   4.694   0.756  13.071 -0.2118 -0.0882  1.1559
  317MPD2     H 4767   4.721   0.387  13.002 -0.6572 -0.8686  4.1816
  317MPD2    H1 4768   0.119   0.729  13.223 -0.1152 -0.6869  1.2461
  317MPD2    H2 4769   4.588   0.784  12.893  2.7299  2.5888  1.1672
  317MPD2    H3 4770   4.688   0.862  13.095 -1.3460  0.3058 -0.8976
  317MPD2     N 4771   0.135   0.461  13.219  0.4206 -0.5109  0.2289
  317MPD2    H5 4772   0.130   0.361  13.204  1.5960 -0.3036 -1.5777
  317MPD2    N1 4773   4.590   0.518  12.817  0.5744 -0.5123 -0.4823
  317MPD2    H7 4774   4.598   0.417  12.809  1.5662 -0.5697  1.3094
  318TMC3    C1 4775   0.287   0.398  13.386 -0.0401  0.8047 -0.6698
  318TMC3    C2 4776   0.222   0.285  13.406  0.9565 -0.1682  0.0314
  318TMC3    C3 4777   0.287   0.164  13.420  0.0991  0.2795  0.2021
  318TMC3    C4 4778   0.419   0.405  13.381  0.3286  0.2202 -0.0991
  318TMC3    C5 4779   0.491   0.286  13.403 -0.0884  0.6610  0.3940
  318TMC3    C6 4780   0.430   0.161  13.415 -0.1460 -0.3187 -0.4989
  318TMC3     C 4781   0.219   0.500  13.317 -0.4923  0.0669  0.8185
  318TMC3     O 4782   0.272   0.610  13.324 -0.4061  0.1917 -0.4426
  318TMC3     H 4783   0.115   0.294  13.391  0.7302 -5.2448 -1.3601
  318TMC3    H1 4784   0.472   0.497  13.361  1.6035 -0.7466 -1.1692
  318TMC3    H2 4785   0.488   0.069  13.411 -0.3087 -0.3340 -2.3217
  318TMC3    C7 4786   0.630   0.284  13.374 -0.1720  0.0154  0.2994
  318TMC3    C8 4787   0.228   0.041  13.455 -0.7002  0.2453  0.5043
  318TMC3    O1 4788   0.663   0.357  13.279 -0.0655  0.1458  0.3638
  318TMC3    O2 4789   0.300   4.672  13.479  0.0994  0.3439 -0.3869
  319MPD2     C 4790   0.949   2.046  17.047 -0.3984 -0.6487 -0.1792
  319MPD2    C1 4791   0.854   1.961  17.006 -0.3255 -0.6642 -0.5679
  319MPD2    C2 4792   0.839   1.940  16.875 -0.4285  0.7297  0.1169
  319MPD2    C3 4793   0.906   2.009  16.773 -0.3140  0.7492 -0.7907
  319MPD2    C4 4794   0.995   2.105  16.812 -0.2983 -0.4633  0.6649
  319MPD2    C5 4795   1.019   2.115  16.951  0.1032 -0.1363  0.3262
  319MPD2     H 4796   0.763   1.868  16.847  0.7445 -0.5223  0.1960
  319MPD2    H1 4797   1.050   2.174  16.750 -0.9903  0.4806  1.1014
  319MPD2    H2 4798   0.977   2.054  17.151 -2.3729  1.3911  0.1877
  319MPD2    H3 4799   1.097   2.181  16.986 -0.3813  0.7112 -0.1836
  319MPD2     N 4800   0.874   1.994  16.634 -0.1656  0.6181  0.4526
  319MPD2    H5 4801   0.937   2.046  16.574 -1.8159  0.3809 -1.4743
  319MPD2    N1 4802   0.788   1.881  17.098 -0.3778  0.4280 -0.0381
  319MPD2    H7 4803   0.712   1.821  17.069  1.4080 -0.2924 -3.2082
  320TMC3    C1 4804   0.824   1.886  16.444 -0.0336  0.0914  0.3571
  320TMC3    C2 4805   0.801   1.992  16.356 -0.4019  0.1692  0.3132
  320TMC3    C3 4806   0.760   1.968  16.230 -0.3432 -0.3249  0.8205
  320TMC3    C4 4807   0.799   1.760  16.397  0.0712 -0.1063  0.2576
  320TMC3    C5 4808   0.749   1.735  16.270 -0.3863 -0.4471 -0.3761
  320TMC3    C6 4809   0.729   1.839  16.187  0.9517  0.0036 -0.7077
  320TMC3     C 4810   0.788   1.899  16.581 -0.2029  0.1032 -0.4587
  320TMC3     O 4811   0.750   1.795  16.640 -0.3124 -0.0235 -1.0049
  320TMC3     H 4812   0.816   2.092  16.396 -0.4772 -0.3947  1.7425
  320TMC3    H1 4813   0.816   1.678  16.466 -1.8897  0.8960  1.9406
  320TMC3    H2 4814   0.693   1.825  16.086 -2.7234  1.6202  0.3893
  320TMC3    C7 4815   0.704   1.605  16.240  0.1879  0.8106  0.2231
  320TMC3    C8 4816   0.711   2.087  16.161  0.0387  0.5931 -0.2271
  320TMC3    O1 4817   0.697   1.573  16.117 -0.9234 -0.2952  0.6847
  320TMC3    O2 4818   0.694   2.182  16.233  0.5598 -0.7857  0.9341
  321TMC3    C1 4819   0.707   1.807  17.303  0.0333 -0.5899 -0.9645
  321TMC3    C2 4820   0.680   1.680  17.265 -1.1750  0.1689  0.0407
  321TMC3    C3 4821   0.583   1.607  17.327 -0.1166  0.2669  0.5498
  321TMC3    C4 4822   0.634   1.857  17.410 -0.2591 -0.8912 -0.9080
  321TMC3    C5 4823   0.541   1.791  17.474 -0.6347 -0.0775 -0.5273
  321TMC3    C6 4824   0.517   1.661  17.433 -0.8259  0.2164  0.5417
  321TMC3     C 4825   0.795   1.896  17.233 -0.5966  0.6184  0.0984
  321TMC3     O 4826   0.839   1.991  17.303  0.5745 -0.6434 -0.4755
  321TMC3     H 4827   0.723   1.641  17.173 -0.0590 -1.0326  1.0732
  321TMC3    H1 4828   0.653   1.958  17.445  1.5986 -1.6548  0.2375
  321TMC3    H2 4829   0.432   1.606  17.473 -2.5503  0.1455 -3.2860
  321TMC3    C7 4830   0.561   1.809  17.613  0.4782  0.3046 -0.1075
  321TMC3    C8 4831   0.626   1.475  17.371 -0.0896 -0.3776 -0.4507
  321TMC3    O1 4832   0.559   1.918  17.665 -0.2161  0.1916 -0.0027
  321TMC3    O2 4833   0.613   1.471  17.490 -0.4769  0.0380  0.9484
  322MPD2     C 4834   0.574   2.850  12.907  0.0970  0.7386  0.4865
  322MPD2    C1 4835   0.548   2.787  13.029  0.1451  0.4578 -0.1080
  322MPD2    C2 4836   0.580   2.655  13.040  0.0205 -0.4994 -0.6277
  322MPD2    C3 4837   0.649   2.594  12.933 -0.2996 -1.1679  0.0844
  322MPD2    C4 4838   0.665   2.657  12.812 -0.3341 -0.4046  0.1824
  322MPD2    C5 4839   0.627   2.787  12.804 -0.7406 -0.3632  0.1633
  322MPD2     H 4840   0.567   2.592  13.127  1.3795 -0.9520 -0.7560
  322MPD2    H1 4841   0.722   2.622  12.726  0.3455  0.4905  0.2647
  322MPD2    H2 4842   0.533   2.950  12.899 -0.4889  0.4441 -0.1298
  322MPD2    H3 4843   0.648   2.838  12.711 -0.9643 -0.5157  0.0283
  322MPD2     N 4844   0.719   2.474  12.975  0.3359 -0.0658 -0.6167
  322MPD2    H5 4845   0.682   2.440  13.064  0.4318  1.9953  0.2070
  322MPD2    N1 4846   0.486   2.861  13.131 -0.0488 -0.1870 -0.1952
  322MPD2    H7 4847   0.490   2.963  13.129 -1.5107 -0.1528 -1.7082
  323TMC3    C1 4848   0.377   2.881  13.339  0.4191  0.4933 -0.0760
  323TMC3    C2 4849   0.472   2.968  13.389 -0.9310 -0.0149  0.3291
  323TMC3    C3 4850   0.443   3.035  13.505 -0.6049  0.0834  0.4820
  323TMC3    C4 4851   0.275   2.843  13.422 -0.5657  0.3551 -0.4997
  323TMC3    C5 4852   0.240   2.919  13.526 -0.3012  0.2709 -0.3248
  323TMC3    C6 4853   0.321   3.017  13.567 -0.7822  0.2020 -0.7465
  323TMC3     C 4854   0.407   2.800  13.228  0.2227  0.2209 -0.9472
  323TMC3     O 4855   0.353   2.693  13.220  0.1580 -0.5223 -0.1420
  323TMC3     H 4856   0.572   2.983  13.351 -0.6431  0.9123  1.4648
  323TMC3    H1 4857   0.211   2.758  13.403 -1.2049  0.9100 -0.8621
  323TMC3    H2 4858   0.305   3.068  13.662  1.9511 -1.4532  0.5818
  323TMC3    C7 4859   0.141   2.864  13.616 -0.2380 -0.0542  0.2944
  323TMC3    C8 4860   0.557   3.064  13.588  0.0815  0.3084 -0.4290
  323TMC3    O1 4861   0.150   2.745  13.637 -0.2042 -0.2264  0.2673
  323TMC3    O2 4862   0.653   2.987  13.589  0.2760 -0.2349  0.1096
  324MPD2     C 4863   1.358   4.112  14.617  0.0757 -0.7670  0.1460
  324MPD2    C1 4864   1.332   4.243  14.601  0.0956  0.0147 -0.0979
  324MPD2    C2 4865   1.229   4.278  14.509 -0.3485 -0.1564  0.2111
  324MPD2    C3 4866   1.153   4.187  14.440 -0.4305  1.1640 -0.2823
  324MPD2    C4 4867   1.182   4.051  14.458  0.0254 -0.6775 -0.1593
  324MPD2    C5 4868   1.286   4.019  14.542  0.4483 -0.0207  0.2585
  324MPD2     H 4869   1.222   4.384  14.491 -0.4850  0.0359  1.4292
  324MPD2    H1 4870   1.116   3.978  14.414 -1.6462  0.4102  0.5230
  324MPD2    H2 4871   1.437   4.066  14.676  0.2964 -0.5613  0.0154
  324MPD2    H3 4872   1.316   3.918  14.565  1.1539  0.2379  0.4938
  324MPD2     N 4873   1.066   4.219  14.332  0.1270 -0.1368  0.0892
  324MPD2    H5 4874   1.029   4.132  14.296  0.6827  0.9641 -3.1797
  324MPD2    N1 4875   1.410   4.338  14.670  0.0520 -0.1404 -0.0144
  324MPD2    H7 4876   1.400   4.429  14.627 -0.4589 -0.7322 -1.1548
  325TMC3    C1 4877   0.941   4.328  14.172 -0.2621 -0.0860  0.0290
  325TMC3    C2 4878   0.902   4.201  14.127  0.6268 -0.2626  0.3048
  325TMC3    C3 4879   0.837   4.197  14.006  0.0285 -0.5787  0.6573
  325TMC3    C4 4880   0.921   4.437  14.103  0.4323 -0.3002  0.0775
  325TMC3    C5 4881   0.875   4.426  13.976 -0.0750 -0.1925 -0.3830
  325TMC3    C6 4882   0.830   4.308  13.923 -0.3852 -0.1154  0.0168
  325TMC3     C 4883   1.018   4.344  14.298  0.1368  0.1636 -0.0572
  325TMC3     O 4884   1.039   4.455  14.342  0.1883  0.6138 -1.0183
  325TMC3     H 4885   0.909   4.113  14.190 -0.3061 -1.2234 -0.9245
  325TMC3    H1 4886   0.973   4.525  14.141  0.5983 -0.6245  0.6001
  325TMC3    H2 4887   0.789   4.310  13.823  0.1306  0.7098 -0.1890
  325TMC3    C7 4888   0.853   4.542  13.896 -0.9622 -0.2471  0.2101
  325TMC3    C8 4889   0.805   4.064  13.952  0.6117  0.5425  0.0489
  325TMC3    O1 4890   0.884   4.546  13.776 -0.6362 -0.3268 -0.2490
  325TMC3    O2 4891   0.858   3.965  14.009 -0.7743  0.3552  0.1558
  326MPD2     C 4892   3.315   0.433  11.544  0.3970 -0.9365 -0.1283
  326MPD2    C1 4893   3.298   0.416  11.409  0.0024 -0.6434 -0.7161
  326MPD2    C2 4894   3.370   0.488  11.320 -0.5511  0.0192 -0.5136
  326MPD2    C3 4895   3.454   0.588  11.366  0.0025  0.7378 -0.9182
  326MPD2    C4 4896   3.452   0.623  11.499  0.7746  0.1089 -0.0576
  326MPD2    C5 4897   3.380   0.549  11.587  0.6756 -0.2339 -0.4377
  326MPD2     H 4898   3.348   0.475  11.214 -1.3192  0.7829 -0.4515
  326MPD2    H1 4899   3.500   0.715  11.531 -3.1347  1.7464  1.0551
  326MPD2    H2 4900   3.272   0.367  11.619 -1.6860  0.7576  0.1665
  326MPD2    H3 4901   3.383   0.587  11.689 -0.6570  0.5333 -0.6885
  326MPD2     N 4902   3.531   0.665  11.278 -0.2186  0.2582  0.3124
  326MPD2    H5 4903   3.560   0.756  11.312 -0.0938  0.1742  0.4290
  326MPD2    N1 4904   3.223   0.301  11.355  0.7477 -0.1040  0.2512
  326MPD2    H7 4905   3.224   0.290  11.254 -0.4816 -1.3755  0.3775
  327TMC3    C1 4906   3.105   0.097  11.346 -1.0094 -0.3398 -0.6369
  327TMC3    C2 4907   3.068   0.113  11.211  0.2951 -0.0632  0.5801
  327TMC3    C3 4908   3.028   0.003  11.135 -0.1109  0.0740 -0.1507
  327TMC3    C4 4909   3.094   4.694  11.401  0.3288  0.1967  0.2201
  327TMC3    C5 4910   3.055   4.587  11.322 -0.0664  0.8432 -0.1230
  327TMC3    C6 4911   3.025   4.596  11.187 -0.1824 -0.9691 -0.4883
  327TMC3     C 4912   3.168   0.197  11.429  0.0785 -0.4028  0.0781
  327TMC3     O 4913   3.172   0.179  11.551  0.1337 -0.6443 -0.1277
  327TMC3     H 4914   3.056   0.210  11.163  0.2454 -0.8533 -1.0009
  327TMC3    H1 4915   3.120   4.683  11.506  0.0035  0.6946  0.3516
  327TMC3    H2 4916   2.974   4.519  11.131 -0.6560 -0.5635 -0.6138
  327TMC3    C7 4917   3.052   4.454  11.373 -0.1838  0.1714  0.5442
  327TMC3    C8 4918   2.979   0.031  11.003 -0.2360 -0.3909 -0.1022
  327TMC3    O1 4919   3.106   4.369  11.304  1.2712  0.2968 -0.1290
  327TMC3    O2 4920   2.950   0.145  10.974  0.2050 -1.0598  0.8151
  328MPD2     C 4921   0.379   0.427  17.338 -0.0458  0.2322 -0.5899
  328MPD2    C1 4922   0.332   0.384  17.213 -0.0374  0.5818 -0.2015
  328MPD2    C2 4923   0.299   0.476  17.115 -0.9270  0.3997  0.2774
  328MPD2    C3 4924   0.299   0.608  17.139  0.7898 -0.6560  0.0464
  328MPD2    C4 4925   0.322   0.648  17.273 -0.4455  0.3801 -0.1571
  328MPD2    C5 4926   0.370   0.561  17.362  0.9930  0.4143  0.4106
  328MPD2     H 4927   0.257   0.447  17.019  1.9623  0.4575 -1.0115
  328MPD2    H1 4928   0.336   0.754  17.293  0.7216  0.6180 -2.1787
  328MPD2    H2 4929   0.422   0.355  17.407  0.4863  0.5429 -0.5925
  328MPD2    H3 4930   0.385   0.604  17.460 -0.7542 -0.6759  1.1721
  328MPD2     N 4931   0.264   0.711  17.048 -0.4263 -0.3243  0.0748
  328MPD2    H5 4932   0.239   0.791  17.104 -1.5522  0.6400 -1.8084
  328MPD2    N1 4933   0.319   0.243  17.197  0.2412  0.3061  0.2717
  328MPD2    H7 4934   0.330   0.199  17.287 -0.7195 -2.7446 -1.1140
  329TMC3    C1 4935   0.247   0.051  17.101  0.3983 -0.3387 -0.0362
  329TMC3    C2 4936   0.120   0.021  17.048  0.5552  0.0811 -0.1592
  329TMC3    C3 4937   0.045   4.647  17.104  0.2354 -0.3613  0.1614
  329TMC3    C4 4938   0.303   4.699  17.195  0.4270 -0.1286 -0.2101
  329TMC3    C5 4939   0.222   4.614  17.257 -0.1556  0.4150 -0.7506
  329TMC3    C6 4940   0.097   4.575  17.211 -0.3964 -0.4253 -0.1829
  329TMC3     C 4941   0.295   0.180  17.078  0.3167 -0.6062  0.6984
  329TMC3     O 4942   0.297   0.230  16.966  0.0163 -0.4965  0.4168
  329TMC3     H 4943   0.088   0.093  16.973  0.9619  0.5133  0.0826
  329TMC3    H1 4944   0.403   4.718  17.231  0.7282  2.3402 -2.3578
  329TMC3    H2 4945   0.027   4.520  17.273  0.9794 -0.3318  1.4401
  329TMC3    C7 4946   0.278   4.531  17.367  0.3038  0.5691 -0.1421
  329TMC3    C8 4947   4.629   4.648  17.093 -0.3743 -0.4150  0.8087
  329TMC3    O1 4948   0.382   4.572  17.416  1.1127  0.3453 -0.2745
  329TMC3    O2 4949   4.595   4.650  16.974 -0.0601  0.1688 -0.1562
  330TMC3    C1 4950   3.533   4.385   9.339  0.5037  0.2809  0.7505
  330TMC3    C2 4951   3.427   4.303   9.313 -0.8019  0.2326 -0.2835
  330TMC3    C3 4952   3.444   4.172   9.334  0.0629  0.2639 -0.1355
  330TMC3    C4 4953   3.656   4.335   9.369 -0.0433 -0.8442 -0.5492
  330TMC3    C5 4954   3.664   4.198   9.389 -0.7810  0.5563 -0.1336
  330TMC3    C6 4955   3.560   4.115   9.368  0.3330  0.2817  0.1299
  330TMC3     C 4956   3.515   4.527   9.303 -0.0610  0.2504  0.4712
  330TMC3     O 4957   3.612   4.590   9.337  0.0131 -0.3271  0.4328
  330TMC3     H 4958   3.327   4.342   9.297 -1.0807  0.5038  2.2214
  330TMC3    H1 4959   3.740   4.403   9.363  1.1060 -2.0505  1.9079
  330TMC3    H2 4960   3.574   4.007   9.374 -2.2218 -0.0758 -0.4093
  330TMC3    C7 4961   3.790   4.147   9.435  0.1895  0.3532 -0.7573
  330TMC3    C8 4962   3.325   4.093   9.312  0.3096 -1.2166 -0.3478
  330TMC3    O1 4963   3.891   4.214   9.407 -0.6455 -0.6618 -0.1677
  330TMC3    O2 4964   3.236   4.138   9.242 -0.2841 -0.5070 -0.2595
  331MPD2     C 4965   1.184   3.223  12.651 -0.0769 -0.0592 -0.3013
  331MPD2    C1 4966   1.306   3.270  12.624  0.6002 -0.2118  0.0036
  331MPD2    C2 4967   1.411   3.184  12.589  0.2521  0.0048 -0.3971
  331MPD2    C3 4968   1.398   3.049  12.582  0.0831  0.9821 -0.8298
  331MPD2    C4 4969   1.271   2.997  12.614 -0.1298  0.0749 -0.7880
  331MPD2    C5 4970   1.173   3.084  12.654 -0.1171  0.2503  0.4228
  331MPD2     H 4971   1.512   3.220  12.574 -0.1119  1.7629  1.4714
  331MPD2    H1 4972   1.248   2.891  12.615  0.3216 -0.0241 -0.8936
  331MPD2    H2 4973   1.104   3.294  12.666 -0.5699 -0.3562 -1.5492
  331MPD2    H3 4974   1.077   3.040  12.678 -0.7081  1.8104  0.9612
  331MPD2     N 4975   1.512   2.971  12.540  0.2813  0.2515  0.0224
  331MPD2    H5 4976   1.594   3.027  12.518  2.3549 -2.2234  1.3512
  331MPD2    N1 4977   1.334   3.409  12.633 -0.5386  0.8932  0.3497
  331MPD2    H7 4978   1.255   3.473  12.636 -1.1759  0.0376  1.8508
  332TMC3    C1 4979   1.653   2.797  12.476  0.4295  0.3696 -0.3476
  332TMC3    C2 4980   1.707   2.868  12.370 -0.3323 -0.3715 -0.4664
  332TMC3    C3 4981   1.846   2.845  12.361  0.3975  0.0080 -0.3504
  332TMC3    C4 4982   1.724   2.717  12.564  0.3702 -0.2246 -0.7727
  332TMC3    C5 4983   1.862   2.713  12.550  0.3099  0.2285 -0.1534
  332TMC3    C6 4984   1.925   2.769  12.442 -0.1921  0.2651  0.1254
  332TMC3     C 4985   1.524   2.834  12.531 -0.0531  0.1278  0.3742
  332TMC3     O 4986   1.442   2.750  12.566  0.2755 -0.1294  0.0099
  332TMC3     H 4987   1.658   2.950  12.319 -0.5626 -0.3906 -0.2737
  332TMC3    H1 4988   1.670   2.682  12.652  0.0162 -0.3883 -1.0540
  332TMC3    H2 4989   2.032   2.760  12.426 -0.3779  0.4907 -1.2308
  332TMC3    C7 4990   1.937   2.624  12.648 -0.2131 -0.7983 -0.5951
  332TMC3    C8 4991   1.920   2.921  12.260 -0.0995  0.1222  0.6517
  332TMC3    O1 4992   1.871   2.562  12.725 -0.0962 -0.7300 -0.5271
  332TMC3    O2 4993   2.042   2.904  12.262 -0.9150 -0.6997  0.4914
  333MPD2     C 4994   2.132   3.617  11.152  0.8413 -0.7906  0.4313
  333MPD2    C1 4995   2.140   3.503  11.074  0.2390 -0.7674  0.7779
  333MPD2    C2 4996   2.087   3.386  11.128 -0.2802 -0.5868  0.5848
  333MPD2    C3 4997   2.027   3.391  11.251  0.1074 -0.1602 -0.5602
  333MPD2    C4 4998   2.030   3.504  11.326 -0.3766 -0.2998  0.6759
  333MPD2    C5 4999   2.074   3.618  11.273 -0.6608  1.1278 -0.5746
  333MPD2     H 5000   2.081   3.297  11.065 -0.2514 -0.8415  0.9423
  333MPD2    H1 5001   2.001   3.511  11.430  2.1605 -1.2973  1.4487
  333MPD2    H2 5002   2.176   3.709  11.113  2.1246 -1.4681  0.2753
  333MPD2    H3 5003   2.078   3.709  11.331  0.2047 -0.6249  2.0915
  333MPD2     N 5004   1.954   3.276  11.287 -0.2235  0.5171 -0.3235
  333MPD2    H5 5005   1.948   3.198  11.223 -2.7561  0.1376  0.3629
  333MPD2    N1 5006   2.186   3.520  10.939  0.1709  0.4500  0.6475
  333MPD2    H7 5007   2.207   3.616  10.914  1.1792  0.3124  0.9678
  334TMC3    C1 5008   2.232   3.464  10.707 -0.0441 -0.7409  0.5291
  334TMC3    C2 5009   2.309   3.379  10.632  0.2933 -0.1726 -0.4052
  334TMC3    C3 5010   2.387   3.438  10.533  0.1520 -0.3930  0.3401
  334TMC3    C4 5011   2.222   3.600  10.681  0.4530  0.5777 -0.3376
  334TMC3    C5 5012   2.291   3.645  10.574  0.0018 -0.5971 -0.4986
  334TMC3    C6 5013   2.370   3.565  10.498 -0.0438  0.4266 -0.2031
  334TMC3     C 5014   2.190   3.421  10.843 -0.1990  0.8930 -0.1501
  334TMC3     O 5015   2.171   3.303  10.853  0.1683 -0.1602 -0.3658
  334TMC3     H 5016   2.314   3.273  10.652  0.7361 -0.0245  0.3049
  334TMC3    H1 5017   2.147   3.658  10.732  2.8364  0.0382  3.7283
  334TMC3    H2 5018   2.446   3.614  10.440  0.0181  0.0509 -0.4403
  334TMC3    C7 5019   2.295   3.789  10.558  0.1980 -0.1908  0.5386
  334TMC3    C8 5020   2.501   3.368  10.479 -0.3434 -0.4760  0.0048
  334TMC3    O1 5021   2.250   3.848  10.654 -0.6216  0.5665  0.5188
  334TMC3    O2 5022   2.496   3.250  10.454 -0.1398 -0.4442  0.7970
  335TMC3    C1 5023   1.110   0.450  17.554 -0.3092  0.2643  0.1881
  335TMC3    C2 5024   1.040   0.374  17.460  0.0994  0.4959 -0.1919
  335TMC3    C3 5025   1.118   0.298  17.373 -0.0194 -0.6716  0.1869
  335TMC3    C4 5026   1.245   0.456  17.563 -0.7586 -0.8077  0.0278
  335TMC3    C5 5027   1.317   0.384  17.470  0.6492  0.1159 -0.5958
  335TMC3    C6 5028   1.259   0.309  17.367 -0.0080 -0.5056  0.0273
  335TMC3     C 5029   1.043   0.508  17.666  0.0140  0.7171  0.5330
  335TMC3     O 5030   1.099   0.594   0.032  0.6424 -0.1314 -0.3008
  335TMC3     H 5031   0.933   0.380  17.442 -0.4559  3.4578  4.0718
  335TMC3    H1 5032   1.286   0.515  17.644 -2.0718  1.3820 -0.8954
  335TMC3    H2 5033   1.313   0.264  17.285  0.3414  1.8324 -1.0255
  335TMC3    C7 5034   1.456   0.388  17.463  0.1746  0.1228  0.3318
  335TMC3    C8 5035   1.052   0.228  17.261  0.7097 -0.1810 -0.7767
  335TMC3    O1 5036   1.508   0.332  17.366  0.7099  0.3546  0.6777
  335TMC3    O2 5037   1.122   0.210  17.155  0.7155 -0.1317 -0.2393
  336MPD2     C 5038   0.772   2.878  15.542 -0.1787  0.1296  0.8025
  336MPD2    C1 5039   0.705   2.834  15.655 -0.2234 -0.2630  0.1386
  336MPD2    C2 5040   0.763   2.734  15.736  0.4053 -0.8559 -0.3551
  336MPD2    C3 5041   0.882   2.678  15.700 -0.0428  0.4042 -0.1364
  336MPD2    C4 5042   0.948   2.713  15.592 -1.0910  0.2705 -0.0974
  336MPD2    C5 5043   0.890   2.809  15.519  0.1923  0.3615 -0.1357
  336MPD2     H 5044   0.714   2.701  15.827  0.4238  0.6133  0.1823
  336MPD2    H1 5045   1.033   2.655  15.557 -0.2449 -0.4283  3.0814
  336MPD2    H2 5046   0.752   2.955  15.469 -0.5073 -1.1522 -0.4649
  336MPD2    H3 5047   0.948   2.830  15.430 -2.3501  2.3868 -1.3121
  336MPD2     N 5048   0.934   2.564  15.776 -0.1011  0.3222  0.3943
  336MPD2    H5 5049   1.009   2.517  15.728  1.0292  1.4166  1.0884
  336MPD2    N1 5050   0.597   2.902  15.709  0.2619  0.4352  0.1575
  336MPD2    H7 5051   0.576   2.886  15.807  1.4305  0.1318  0.3629
  337TMC3    C1 5052   0.431   3.066  15.722  0.2534  0.5731 -0.0077
  337TMC3    C2 5053   0.304   3.093  15.674  0.4022  0.5548 -0.4933
  337TMC3    C3 5054   0.219   3.168  15.752  0.5950 -0.1878  0.2336
  337TMC3    C4 5055   0.463   3.091  15.853 -0.3124 -0.0102 -0.1247
  337TMC3    C5 5056   0.381   3.182  15.920 -0.1237  0.1297  0.4268
  337TMC3    C6 5057   0.265   3.221  15.873 -0.1644  0.7160  0.3891
  337TMC3     C 5058   0.531   3.001  15.642 -0.5091  0.8572 -0.4519
  337TMC3     O 5059   0.532   3.033  15.521  0.2635 -0.3223  0.2430
  337TMC3     H 5060   0.278   3.056  15.575  0.5040 -1.0800  0.0886
  337TMC3    H1 5061   0.561   3.080  15.897  0.2745  3.5267 -0.5740
  337TMC3    H2 5062   0.203   3.282  15.937 -0.0628  1.2303 -0.0028
  337TMC3    C7 5063   0.449   3.250  16.035 -0.1114  0.2723  0.5434
  337TMC3    C8 5064   0.097   3.223  15.706 -0.2837  0.8498 -0.1743
  337TMC3    O1 5065   0.537   3.185  16.085 -0.1498 -0.0848 -0.3543
  337TMC3    O2 5066   0.027   3.292  15.779 -0.0634  0.0935 -0.5321
  338MPD2     C 5067   1.208   2.407   1.049  0.1691  0.4412  0.3375
  338MPD2    C1 5068   1.100   2.331   1.007  0.4712 -0.0047  0.1594
  338MPD2    C2 5069   0.978   2.345   1.071 -0.0840  0.6184  0.1418
  338MPD2    C3 5070   0.973   2.418   1.190 -0.9552 -0.3841  0.4892
  338MPD2    C4 5071   1.080   2.483   1.241  0.2413  0.8270 -0.9428
  338MPD2    C5 5072   1.198   2.469   1.168  0.5759  0.4698 -0.4540
  338MPD2     H 5073   0.887   2.299   1.034 -0.4980  0.4073  1.4463
  338MPD2    H1 5074   1.081   2.551   1.326 -0.0004 -1.6825  1.0818
  338MPD2    H2 5075   1.301   2.416   0.995 -0.4536 -1.0217 -1.0015
  338MPD2    H3 5076   1.280   2.529   1.205 -0.1197  0.4468  1.1237
  338MPD2     N 5077   0.841   2.446   1.242  0.3873  0.9919  0.4771
  338MPD2    H5 5078   0.766   2.418   1.181 -0.2595  1.7818  0.9014
  338MPD2    N1 5079   1.107   2.247   0.895  0.4665  0.5994  0.4313
  338MPD2    H7 5080   1.019   2.202   0.872  1.7752 -2.0125  0.5314
  339TMC3    C1 5081   0.668   2.571   1.339  0.3705 -0.0171  0.0207
  339TMC3    C2 5082   0.633   2.655   1.444 -0.6618 -0.0270  0.3046
  339TMC3    C3 5083   0.558   2.768   1.430 -0.1660 -0.6008  0.0636
  339TMC3    C4 5084   0.615   2.597   1.214  0.0225 -0.9060  0.1746
  339TMC3    C5 5085   0.526   2.703   1.206  0.4612 -0.1071 -0.0218
  339TMC3    C6 5086   0.503   2.789   1.307 -0.2774 -0.1697 -0.2672
  339TMC3     C 5087   0.808   2.531   1.345 -0.4991 -0.3775  0.1838
  339TMC3     O 5088   0.872   2.566   1.444  0.0593 -0.0866 -0.1396
  339TMC3     H 5089   0.671   2.632   1.543  0.4933  0.5146 -0.0144
  339TMC3    H1 5090   0.661   2.563   1.123 -1.2434 -0.4483 -0.6463
  339TMC3    H2 5091   0.429   2.865   1.291 -1.8167 -1.5496  0.2912
  339TMC3    C7 5092   0.498   2.753   1.067  0.0044 -0.2905 -0.0015
  339TMC3    C8 5093   0.482   2.810   1.540 -0.3759 -0.3306 -0.1984
  339TMC3    O1 5094   0.483   2.874   1.047  0.1771 -0.5727 -0.0020
  339TMC3    O2 5095   0.460   2.931   1.559 -0.7309  0.1765  0.4606
  340MPD2     C 5096   1.570   4.535   8.986  0.4441 -0.0481 -0.9547
  340MPD2    C1 5097   1.507   4.481   9.097 -0.0795  0.2584 -0.2579
  340MPD2    C2 5098   1.569   4.488   9.222 -0.4628 -0.3829 -0.1995
  340MPD2    C3 5099   1.692   4.560   9.240 -0.6537 -0.3510 -0.4730
  340MPD2    C4 5100   1.748   4.625   9.132 -0.4151 -0.4550  0.1465
  340MPD2    C5 5101   1.683   4.613   9.011  0.0021 -0.6193  0.0928
  340MPD2     H 5102   1.517   4.431   9.298  2.1430 -0.7906  1.2831
  340MPD2    H1 5103   1.832   4.692   9.143  0.6346 -1.8438  0.4799
  340MPD2    H2 5104   1.527   4.546   8.887  0.9122  0.2765 -1.1158
  340MPD2    H3 5105   1.715   4.671   8.925 -0.0718 -0.0833  0.4215
  340MPD2     N 5106   1.768   4.562   9.354 -0.5380 -0.0286 -0.7522
  340MPD2    H5 5107   1.863   4.596   9.342  0.3980 -2.8371 -1.3399
  340MPD2    N1 5108   1.380   4.423   9.070  0.4572  0.4571 -0.2450
  340MPD2    H7 5109   1.357   4.423   8.972  1.2024  1.0927 -0.4223
  341TMC3    C1 5110   1.192   4.287   9.107 -0.0221 -0.2666  0.5115
  341TMC3    C2 5111   1.095   4.271   9.203 -0.5434  0.3464 -0.6282
  341TMC3    C3 5112   1.026   4.155   9.191 -0.6693 -0.8186  0.4174
  341TMC3    C4 5113   1.233   4.193   9.014 -0.2334 -0.6242 -1.2777
  341TMC3    C5 5114   1.160   4.078   9.004  0.0683  0.6005  0.4441
  341TMC3    C6 5115   1.058   4.057   9.096 -0.0276  0.1215  0.1898
  341TMC3     C 5116   1.302   4.352   9.162 -0.6884  0.1608 -0.4953
  341TMC3     O 5117   1.307   4.351   9.286 -0.7973  1.3020  0.0832
  341TMC3     H 5118   1.073   4.351   9.273 -1.3234  1.3124 -1.9788
  341TMC3    H1 5119   1.335   4.196   8.979 -0.0054 -2.0891 -0.7020
  341TMC3    H2 5120   1.004   3.963   9.108 -1.3505  0.8528 -0.0692
  341TMC3    C7 5121   1.223   3.962   8.952  1.1411  0.2785  0.6722
  341TMC3    C8 5122   0.964   4.099   9.316  1.0740 -0.7531 -0.2795
  341TMC3    O1 5123   1.164   3.857   8.980  0.6940  0.3366  0.3159
  341TMC3    O2 5124   0.878   4.012   9.298 -0.3675 -0.6177 -0.0252
  342MPD2     C 5125   3.733   2.983  17.638  0.4441  0.2834 -0.3834
  342MPD2    C1 5126   3.821   3.066  17.571 -0.0638 -0.4646 -0.1624
  342MPD2    C2 5127   3.805   3.208  17.583  0.0371  0.1283  0.3808
  342MPD2    C3 5128   3.698   3.259  17.656 -0.5927 -0.4247  0.7699
  342MPD2    C4 5129   3.615   3.171   0.025  0.3244  0.1787 -0.4273
  342MPD2    C5 5130   3.627   3.032   0.010  0.3638  1.0261 -0.4748
  342MPD2     H 5131   3.877   3.276  17.539 -0.0929 -1.0303 -1.6046
  342MPD2    H1 5132   3.527   3.203   0.081  0.9193  0.9274  0.0814
  342MPD2    H2 5133   3.755   2.877  17.647 -1.9422 -0.2361 -0.6286
  342MPD2    H3 5134   3.557   2.968   0.064  1.2968  0.7371  0.4034
  342MPD2     N 5135   3.666   3.396  17.671 -0.2318  0.5576  0.2722
  342MPD2    H5 5136   3.580   3.414   0.023 -1.7843 -1.2605 -1.7538
  342MPD2    N1 5137   3.921   3.000  17.485 -0.4751 -0.1454  0.5891
  342MPD2    H7 5138   3.925   2.898  17.488 -0.1067 -0.1080  1.2323
  343TMC3    C1 5139   4.102   2.956  17.348 -0.2998  0.2935  0.3466
  343TMC3    C2 5140   4.236   2.977  17.330 -0.3568  0.1916 -0.3329
  343TMC3    C3 5141   4.314   2.877  17.270  0.3393  0.1472  0.1371
  343TMC3    C4 5142   4.043   2.846  17.297  0.7349 -0.1479  0.0873
  343TMC3    C5 5143   4.118   2.752  17.231  0.5265 -0.1945  0.3326
  343TMC3    C6 5144   4.255   2.771  17.209 -0.2938  0.1169  0.6055
  343TMC3     C 5145   4.017   3.057  17.409  0.6243  0.3612 -0.2835
  343TMC3     O 5146   4.051   3.173  17.403  0.1205  0.2646 -0.2361
  343TMC3     H 5147   4.286   3.056  17.385 -0.9899  0.6920 -0.4753
  343TMC3    H1 5148   3.936   2.830  17.304  1.0817 -2.6000 -0.1637
  343TMC3    H2 5149   4.311   2.687  17.169 -0.1327 -0.2464  1.5873
  343TMC3    C7 5150   4.041   2.636  17.180  0.1725 -0.1301 -0.6279
  343TMC3    C8 5151   4.460   2.904  17.273 -0.5365 -0.4939  0.0549
  343TMC3    O1 5152   3.938   2.613  17.233  0.4609  0.4857  0.1759
  343TMC3    O2 5153   4.516   2.979  17.348 -0.0347  0.1359 -0.1336
  344MPD2     C 5154   0.643   3.190  10.913 -0.2247  0.3615  0.4656
  344MPD2    C1 5155   0.541   3.160  10.825  0.7311  0.3647 -0.0659
  344MPD2    C2 5156   0.526   3.238  10.713 -1.4712  0.2077 -0.3397
  344MPD2    C3 5157   0.603   3.354  10.691  0.5893  1.0134 -0.4158
  344MPD2    C4 5158   0.704   3.379  10.783  0.6069 -0.6645  0.0652
  344MPD2    C5 5159   0.720   3.298  10.894 -0.2668  0.3668  0.3874
  344MPD2     H 5160   0.454   3.211  10.637 -0.9826 -0.3095 -0.6215
  344MPD2    H1 5161   0.769   3.465  10.772 -1.0643  0.7508  1.1940
  344MPD2    H2 5162   0.658   3.153  11.014 -2.8236  0.7272  0.9957
  344MPD2    H3 5163   0.794   3.319  10.970  0.6814 -1.7144  0.0491
  344MPD2     N 5164   0.599   3.448  10.584 -0.3664 -0.0907 -0.4172
  344MPD2    H5 5165   0.665   3.525  10.583  0.7088 -1.0023  0.1879
  344MPD2    N1 5166   0.455   3.047  10.851  0.0492 -0.4882 -0.3564
  344MPD2    H7 5167   0.379   3.028  10.787 -0.5469 -1.0352  0.5139
  345TMC3    C1 5168   0.573   3.563  10.387 -0.5262 -0.2627 -0.4411
  345TMC3    C2 5169   0.698   3.616  10.407 -0.0310 -0.4068 -1.0499
  345TMC3    C3 5170   0.749   3.714  10.321 -0.6516  0.3644 -0.2046
  345TMC3    C4 5171   0.493   3.609  10.289  0.0079 -0.4375 -0.1735
  345TMC3    C5 5172   0.538   3.722  10.220  0.5241 -0.2765 -0.4948
  345TMC3    C6 5173   0.667   3.772  10.227 -0.1122  0.2723 -0.3842
  345TMC3     C 5174   0.520   3.454  10.471  0.0209 -0.6550  0.0695
  345TMC3     O 5175   0.426   3.386  10.428  0.7814 -0.2477  0.7983
  345TMC3     H 5176   0.766   3.565  10.474  1.1013  1.8852 -0.4607
  345TMC3    H1 5177   0.388   3.583  10.286 -0.7526  3.0619 -3.0716
  345TMC3    H2 5178   0.702   3.854  10.165 -1.1960  1.7607  0.9926
  345TMC3    C7 5179   0.457   3.777  10.115  0.4884  0.8715 -0.6638
  345TMC3    C8 5180   0.877   3.774  10.357 -0.4468 -0.3248  0.2621
  345TMC3    O1 5181   0.497   3.885  10.077  0.3396  0.2080 -0.5187
  345TMC3    O2 5182   0.907   3.744  10.470 -0.2259  0.0279  0.3361
  346MPD2     C 5183   0.232   4.469  14.395  0.1474  0.1844  0.0028
  346MPD2    C1 5184   0.262   4.551  14.285  0.2509 -0.3398  0.3966
  346MPD2    C2 5185   0.316   4.671  14.305  1.0419 -0.2271 -0.0670
  346MPD2    C3 5186   0.360   4.721  14.425 -0.3799 -0.2879  0.3486
  346MPD2    C4 5187   0.333   4.638  14.536 -0.3539 -0.1262 -0.4801
  346MPD2    C5 5188   0.265   4.515  14.523  0.4606 -0.6190  0.2021
  346MPD2     H 5189   0.350   4.722  14.215 -0.9843  1.4552  0.1164
  346MPD2    H1 5190   0.361   4.664  14.637 -3.0853  1.3246 -0.0700
  346MPD2    H2 5191   0.184   4.374  14.377  1.0135 -0.7494  2.5451
  346MPD2    H3 5192   0.238   4.459  14.612  0.0604 -0.7211  0.0159
  346MPD2     N 5193   0.417   0.130  14.427  0.0032 -0.1247 -0.1363
  346MPD2    H5 5194   0.438   0.182  14.343  2.2166  0.9945  1.1204
  346MPD2    N1 5195   0.236   4.518  14.151  0.0831 -0.2558  0.1455
  346MPD2    H7 5196   0.267   4.588  14.084 -0.0007 -2.1695 -1.9093
  347TMC3    C1 5197   0.520   0.315  14.506  1.4932 -0.0958 -0.3184
  347TMC3    C2 5198   0.499   0.357  14.379  0.0651  0.2533 -0.4807
  347TMC3    C3 5199   0.590   0.433  14.308  0.1669 -0.1815 -0.0851
  347TMC3    C4 5200   0.650   0.320  14.548 -0.3184 -0.2573 -0.1274
  347TMC3    C5 5201   0.746   0.391  14.481 -0.3041  0.2886 -0.2792
  347TMC3    C6 5202   0.713   0.454  14.363 -0.0026  1.0003 -0.1390
  347TMC3     C 5203   0.455   0.195  14.539 -0.3333  0.0690  0.2435
  347TMC3     O 5204   0.463   0.149  14.652 -0.0582  0.7743  0.2831
  347TMC3     H 5205   0.401   0.350  14.333 -0.2447  0.4156  0.1535
  347TMC3    H1 5206   0.674   0.273  14.643 -0.7303  1.1018  0.6438
  347TMC3    H2 5207   0.792   0.504  14.309  0.2714  0.5865 -0.1257
  347TMC3    C7 5208   0.870   0.423  14.554  0.6604  0.0675 -0.5785
  347TMC3    C8 5209   0.593   0.348  14.190  0.5753 -0.0070 -0.3594
  347TMC3    O1 5210   0.923   0.332  14.622  0.2452 -0.2335  0.6336
  347TMC3    O2 5211   0.513   0.256  14.183  0.3997  0.5223 -0.1145
  348MPD2     C 5212   4.206   4.496  11.774  0.3609  1.2218 -0.2474
  348MPD2    C1 5213   4.130   4.397  11.727  0.7726  0.0170  0.2753
  348MPD2    C2 5214   4.015   4.416  11.662  0.1019 -0.6464 -0.0621
  348MPD2    C3 5215   3.961   4.536  11.645  0.2428 -0.6993 -0.0696
  348MPD2    C4 5216   4.034   4.650  11.681  0.2348 -1.2133  0.7457
  348MPD2    C5 5217   4.152   4.623  11.752  0.4358  0.0673 -0.4601
  348MPD2     H 5218   3.953   4.331  11.634 -1.9692  0.6092  0.7373
  348MPD2    H1 5219   3.995   0.026  11.670  1.0175 -1.2513 -2.3854
  348MPD2    H2 5220   4.301   4.480  11.824  0.5398  2.2496 -0.2494
  348MPD2    H3 5221   4.213   4.703  11.793  0.5712 -0.8765  1.1987
  348MPD2     N 5222   3.843   4.575  11.585 -0.5683  0.3721  0.0385
  348MPD2    H5 5223   3.831   4.676  11.593 -0.1295  0.4450 -0.2020
  348MPD2    N1 5224   4.170   4.260  11.749 -0.2023  0.1351  0.2156
  348MPD2    H7 5225   4.102   4.197  11.707 -0.2536  1.1543 -1.2134
  349TMC3    C1 5226   4.311   4.084  11.780  0.2196  0.5015  0.0425
  349TMC3    C2 5227   4.356   4.011  11.882  0.0810  0.3621  0.3920
  349TMC3    C3 5228   4.364   3.877  11.876 -0.4166 -0.3642  0.0294
  349TMC3    C4 5229   4.284   4.018  11.657  0.1030  0.4018 -0.1066
  349TMC3    C5 5230   4.307   3.888  11.648  0.2869 -0.3283  0.2495
  349TMC3    C6 5231   4.347   3.820  11.757 -0.2286 -0.4498  0.2719
  349TMC3     C 5232   4.286   4.221  11.809  0.0079 -0.5809 -0.1572
  349TMC3     O 5233   4.358   4.280  11.889  0.2272 -0.4089  0.0424
  349TMC3     H 5234   4.364   4.054  11.981  0.8540  0.6965  0.1783
  349TMC3    H1 5235   4.236   4.072  11.577 -0.7271  0.4875  0.4515
  349TMC3    H2 5236   4.348   3.711  11.756 -2.2444 -0.4910  1.2583
  349TMC3    C7 5237   4.248   3.812  11.537  0.2338 -0.4305  1.1518
  349TMC3    C8 5238   4.363   3.803  12.002  0.5393 -0.0120 -0.0435
  349TMC3    O1 5239   4.207   3.699  11.556  0.6133 -0.2604  0.0749
  349TMC3    O2 5240   4.283   3.829  12.090 -0.2437 -0.0896 -0.0313
  350MPD2     C 5241   3.073   1.788  10.013  0.6238  0.4601  0.0056
  350MPD2    C1 5242   3.184   1.705  10.017 -0.6087  0.3708 -0.1734
  350MPD2    C2 5243   3.303   1.751  10.068 -0.2320 -0.0554 -0.0980
  350MPD2    C3 5244   3.325   1.886  10.099  0.0158 -0.3321  0.5553
  350MPD2    C4 5245   3.216   1.972  10.082  0.4672 -0.1615  0.2152
  350MPD2    C5 5246   3.095   1.921  10.034  0.8870  1.1232 -0.1794
  350MPD2     H 5247   3.377   1.673  10.076 -0.4573 -0.2498  0.0992
  350MPD2    H1 5248   3.235   2.079  10.089  0.0992  0.0106 -1.5467
  350MPD2    H2 5249   2.977   1.756   9.974 -0.2569  3.5461 -0.4163
  350MPD2    H3 5250   3.012   1.988  10.018  0.0576  0.3978  1.1088
  350MPD2     N 5251   3.448   1.924  10.155 -0.4654 -0.2178 -0.3493
  350MPD2    H5 5252   3.520   1.854  10.172  0.3055  0.5072 -0.6430
  350MPD2    N1 5253   3.178   1.563   9.980 -0.0065 -0.3492 -0.2914
  350MPD2    H7 5254   3.257   1.504  10.006 -0.6131 -0.8819  0.3418
  351TMC3    C1 5255   3.109   1.369   9.856 -0.1117  0.0850  0.4646
  351TMC3    C2 5256   3.237   1.320   9.855 -0.6196 -0.3691  0.2102
  351TMC3    C3 5257   3.254   1.190   9.813  0.6879 -0.8667 -0.2916
  351TMC3    C4 5258   2.993   1.296   9.821  0.0841  0.1095  0.4534
  351TMC3    C5 5259   3.021   1.172   9.778 -0.0607  0.1974  0.1813
  351TMC3    C6 5260   3.144   1.120   9.771 -0.1105 -0.4156 -0.4846
  351TMC3     C 5261   3.078   1.509   9.897 -0.4759 -0.7896  0.4288
  351TMC3     O 5262   2.967   1.551   9.862 -0.1568 -0.2441  0.6485
  351TMC3     H 5263   3.323   1.379   9.885  0.1732 -1.3248 -0.1951
  351TMC3    H1 5264   2.893   1.338   9.826 -0.3304 -1.1268  2.2773
  351TMC3    H2 5265   3.151   1.015   9.744 -0.6770  0.0012 -2.2627
  351TMC3    C7 5266   2.908   1.091   9.732  0.1622  0.2780  0.5080
  351TMC3    C8 5267   3.395   1.149   9.782 -0.4303  0.4048  0.1239
  351TMC3    O1 5268   2.798   1.135   9.757 -0.5327 -0.0474 -0.5273
  351TMC3    O2 5269   3.489   1.215   9.823 -0.3525  0.4765  0.0545
  352MPD2     C 5270   0.499   4.325   1.464 -0.5539  0.5142 -0.7568
  352MPD2    C1 5271   0.568   4.301   1.343 -0.1196  0.0326 -0.4437
  352MPD2    C2 5272   0.660   4.200   1.342 -0.1597  0.0029 -0.2905
  352MPD2    C3 5273   0.671   4.111   1.455 -0.6426  0.3579 -0.0434
  352MPD2    C4 5274   0.583   4.121   1.556  0.0853  0.6931  0.3473
  352MPD2    C5 5275   0.501   4.232   1.567 -0.2876 -0.1069  0.1611
  352MPD2     H 5276   0.711   4.176   1.250  2.7404  0.0063  1.3362
  352MPD2    H1 5277   0.587   4.048   1.636 -1.3479  0.9100  0.6157
  352MPD2    H2 5278   0.443   4.417   1.466 -0.8299  0.3290  0.0963
  352MPD2    H3 5279   0.439   4.249   1.654 -0.4861 -0.6049  0.1142
  352MPD2     N 5280   0.765   4.001   1.448 -0.1221 -0.0499  0.3859
  352MPD2    H5 5281   0.766   3.936   1.526  1.8507 -1.0942 -0.4832
  352MPD2    N1 5282   0.541   4.383   1.232  0.2382 -0.6130 -0.3690
  352MPD2    H7 5283   0.463   4.448   1.239  0.4980 -0.3147 -0.2648
  353TMC3    C1 5284   0.947   3.863   1.387  0.1912 -0.0891  0.0747
  353TMC3    C2 5285   1.074   3.850   1.354 -0.4613 -0.5460  0.2705
  353TMC3    C3 5286   1.134   3.732   1.373 -0.0943 -0.0510 -0.1582
  353TMC3    C4 5287   0.870   3.750   1.427  0.6700 -0.2443 -0.8054
  353TMC3    C5 5288   0.932   3.631   1.414 -0.2862 -0.8452 -0.7541
  353TMC3    C6 5289   1.062   3.622   1.389 -0.2587 -0.0178 -0.0825
  353TMC3     C 5290   0.871   3.988   1.365  0.2253  0.8519 -0.4606
  353TMC3     O 5291   0.910   4.068   1.281 -0.0253  0.2051 -0.4941
  353TMC3     H 5292   1.133   3.940   1.340 -1.4347 -0.0767 -0.8217
  353TMC3    H1 5293   0.762   3.749   1.438  0.8565  0.0235  1.0554
  353TMC3    H2 5294   1.110   3.525   1.394  1.7514  0.7979 -3.2178
  353TMC3    C7 5295   0.852   3.513   1.426  0.2826  0.5243 -0.4561
  353TMC3    C8 5296   1.279   3.739   1.372 -0.8362 -0.2948  0.5596
  353TMC3    O1 5297   0.749   3.520   1.496 -0.1378 -0.3825  0.1606
  353TMC3    O2 5298   1.338   3.844   1.375 -0.4445 -0.2057  0.9320
  354TMC3    C1 5299   2.654   0.865  13.995 -0.7485 -0.4580  0.4450
  354TMC3    C2 5300   2.790   0.899  13.980  0.0597  0.9282  0.2029
  354TMC3    C3 5301   2.808   1.008  13.894 -0.3920 -0.5543  0.9772
  354TMC3    C4 5302   2.553   0.915  13.924  0.5372 -0.3201  0.3936
  354TMC3    C5 5303   2.580   1.018  13.839  0.3845  0.1378  0.2061
  354TMC3    C6 5304   2.706   1.070  13.832 -0.0973  0.2195  0.0726
  354TMC3     C 5305   2.627   0.792  14.121 -0.5070  0.2770  0.0481
  354TMC3     O 5306   2.509   0.774  14.148  0.5385 -0.4660  0.4493
  354TMC3     H 5307   2.879   0.856  14.025  0.2664 -0.0343 -1.1075
  354TMC3    H1 5308   2.462   0.857  13.929  1.6309 -1.8424  2.4696
  354TMC3    H2 5309   2.718   1.169  13.788 -0.8477  0.0352 -0.5586
  354TMC3    C7 5310   2.461   1.094  13.794  0.0098 -0.7721 -0.4391
  354TMC3    C8 5311   2.941   1.058  13.862  0.2855  0.0008  0.2481
  354TMC3    O1 5312   2.367   1.073  13.869 -0.5251 -0.1039 -0.8431
  354TMC3    O2 5313   3.036   1.007  13.920  0.6322 -0.1726 -0.9848
  355MPD2     C 5314   3.443   1.110  12.010 -0.0157  0.0886  0.1872
  355MPD2    C1 5315   3.455   1.187  11.902  0.2348  0.0813 -0.3274
  355MPD2    C2 5316   3.579   1.248  11.880 -0.0212 -0.4407  0.1724
  355MPD2    C3 5317   3.675   1.250  11.977  0.3567 -0.1637  0.0866
  355MPD2    C4 5318   3.664   1.171  12.085  0.1144 -0.3329 -0.4365
  355MPD2    C5 5319   3.547   1.094  12.094  0.0651  0.0650 -0.1253
  355MPD2     H 5320   3.586   1.308  11.790 -1.1464  0.2653  0.5522
  355MPD2    H1 5321   3.747   1.166  12.154  1.1891 -2.5300 -1.8917
  355MPD2    H2 5322   3.352   1.053  12.027 -0.5834  0.4198 -1.7341
  355MPD2    H3 5323   3.535   1.025  12.177 -3.4525 -0.1188 -0.7895
  355MPD2     N 5324   3.784   1.345  11.978 -0.6031 -0.4764  0.5231
  355MPD2    H5 5325   3.844   1.338  12.060 -0.0422 -1.5460  0.0222
  355MPD2    N1 5326   3.337   1.208  11.825  0.0969  0.1381 -0.2766
  355MPD2    H7 5327   3.262   1.145  11.852  0.7008 -0.6300 -0.4240
  356TMC3    C1 5328   3.892   1.551  11.921  0.4687 -0.5194 -0.5668
  356TMC3    C2 5329   3.900   1.652  11.832 -0.2715  0.0629  0.9369
  356TMC3    C3 5330   3.917   1.781  11.872 -0.3354 -0.5709  0.8286
  356TMC3    C4 5331   3.894   1.584  12.052 -0.1414 -0.4809 -0.5970
  356TMC3    C5 5332   3.914   1.712  12.090 -0.3845  0.5587  0.8245
  356TMC3    C6 5333   3.932   1.809  12.001 -1.1394 -0.5865 -0.2204
  356TMC3     C 5334   3.810   1.438  11.880  0.5353 -0.3907  0.9301
  356TMC3     O 5335   3.772   1.429  11.762  0.0462 -0.7952  0.0238
  356TMC3     H 5336   3.865   1.627  11.732 -0.5831 -3.0783  1.8332
  356TMC3    H1 5337   3.869   1.505  12.123 -1.5649  0.9343  0.4791
  356TMC3    H2 5338   3.931   1.914  12.031  0.0205 -0.7143  0.2563
  356TMC3    C7 5339   3.927   1.732  12.237 -0.1080 -0.6915  0.0504
  356TMC3    C8 5340   3.893   1.879  11.773  0.3575  0.2566 -0.5403
  356TMC3    O1 5341   3.883   1.644  12.312  0.3076  0.5502  0.2596
  356TMC3    O2 5342   3.832   1.846  11.669 -0.1385 -0.3773  0.2225
  357MPD2     C 5343   2.516   0.828   0.765  0.0220 -0.0246  0.5623
  357MPD2    C1 5344   2.611   0.842   0.868 -0.2347  0.3083  0.3173
  357MPD2    C2 5345   2.594   0.761   0.976 -0.4364  0.5783  0.2166
  357MPD2    C3 5346   2.498   0.661   0.982  0.4097  0.1565  0.0431
  357MPD2    C4 5347   2.407   0.653   0.878  0.1444 -0.8227 -0.5261
  357MPD2    C5 5348   2.417   0.732   0.774  0.1137  0.6092 -0.2119
  357MPD2     H 5349   2.660   0.767   1.063  0.7612  0.1349 -0.6604
  357MPD2    H1 5350   2.318   0.592   0.891  1.2518 -2.1180  0.9782
  357MPD2    H2 5351   2.520   0.893   0.679  1.0538  1.8336  2.0240
  357MPD2    H3 5352   2.349   0.715   0.692 -0.9907 -2.2941  1.2911
  357MPD2     N 5353   2.479   0.575   1.096  0.2051 -0.7748 -0.3331
  357MPD2    H5 5354   2.397   0.515   1.101  0.2680 -0.8988 -0.8265
  357MPD2    N1 5355   2.704   0.947   0.856 -0.0568  0.1134 -0.3552
  357MPD2    H7 5356   2.701   1.007   0.775  1.1743 -1.0610 -1.2652
  358TMC3    C1 5357   2.902   1.057   0.875  0.2255 -0.7340  0.7365
  358TMC3    C2 5358   2.951   1.029   0.749  0.1680 -0.0318 -0.5533
  358TMC3    C3 5359   3.089   1.044   0.735 -0.2067  0.1943 -0.0373
  358TMC3    C4 5360   2.980   1.119   0.973 -0.5145 -0.1975  0.2522
  358TMC3    C5 5361   3.107   1.145   0.942 -0.2711 -0.2013 -0.0932
  358TMC3    C6 5362   3.162   1.109   0.831  0.1408  0.3436  0.6231
  358TMC3     C 5363   2.808   0.967   0.944  0.0392  0.3703 -0.9628
  358TMC3     O 5364   2.841   0.909   1.049  0.6114 -0.3725  0.4959
  358TMC3     H 5365   2.900   0.967   0.677 -0.0397  0.2182 -0.6182
  358TMC3    H1 5366   2.939   1.143   1.071  1.5839  0.6550  0.9420
  358TMC3    H2 5367   3.270   1.119   0.823  0.3125 -1.6120  0.5517
  358TMC3    C7 5368   3.194   1.195   1.048 -0.2961  0.1078  0.3021
  358TMC3    C8 5369   3.159   0.939   0.661  0.0762  0.0537  0.6669
  358TMC3    O1 5370   3.315   1.167   1.039  0.9001 -0.1535  0.0139
  358TMC3    O2 5371   3.119   0.910   0.551 -0.7154  0.9171  0.2478
  359MPD2     C 5372   3.774   0.812  12.718  0.1763 -0.2816 -0.3424
  359MPD2    C1 5373   3.735   0.685  12.674 -0.2746  0.0133 -0.6472
  359MPD2    C2 5374   3.601   0.673  12.635 -0.4290  0.2729 -0.6242
  359MPD2    C3 5375   3.509   0.775  12.645 -0.9931  0.1843  0.3870
  359MPD2    C4 5376   3.549   0.902  12.694 -0.5811 -0.3718  0.1157
  359MPD2    C5 5377   3.684   0.924  12.733  0.4300 -0.1704 -0.0944
  359MPD2     H 5378   3.566   0.574  12.608 -0.6442 -0.1172  1.0971
  359MPD2    H1 5379   3.488   0.991  12.704 -0.6094 -0.3052 -0.6764
  359MPD2    H2 5380   3.875   0.829  12.754 -0.7106  3.0598  0.6039
  359MPD2    H3 5381   3.713   1.021  12.772 -1.5737 -0.3359  1.8401
  359MPD2     N 5382   3.374   0.756  12.611 -0.7123 -0.6093 -0.0018
  359MPD2    H5 5383   3.300   0.818  12.643  1.2219  1.0447  1.2493
  359MPD2    N1 5384   3.821   0.568  12.683 -0.0854 -0.1572  0.5755
  359MPD2    H7 5385   3.776   0.481  12.656 -2.4957  1.5778 -0.9966
  360TMC3    C1 5386   3.986   0.416  12.738 -0.3440 -0.0627  0.3711
  360TMC3    C2 5387   4.114   0.379  12.759 -0.4355 -0.3869  0.5226
  360TMC3    C3 5388   4.149   0.247  12.732 -0.9504  0.8518 -0.6146
  360TMC3    C4 5389   3.888   0.317  12.744  0.1599  0.1064 -0.3722
  360TMC3    C5 5390   3.926   0.183  12.729  0.0772 -0.2779  0.3467
  360TMC3    C6 5391   4.057   0.144  12.719 -0.3819  0.0072 -0.4105
  360TMC3     C 5392   3.947   0.560  12.735 -0.5699  0.0743 -0.3451
  360TMC3     O 5393   4.027   0.643  12.774  0.2437  0.1900 -0.3780
  360TMC3     H 5394   4.195   0.448  12.738 -1.1822  1.3586  3.3018
  360TMC3    H1 5395   3.781   0.328  12.751  0.2969  1.4016 -0.3217
  360TMC3    H2 5396   4.083   0.044  12.686  1.5947 -0.2698  2.0251
  360TMC3    C7 5397   3.819   0.091  12.691  0.9907  0.3824  0.9464
  360TMC3    C8 5398   4.290   0.209  12.705  0.0794  0.4858 -0.3708
  360TMC3    O1 5399   3.702   0.126  12.669 -0.7102  0.1706 -0.2556
  360TMC3    O2 5400   4.368   0.259  12.787  0.4398 -0.2233 -0.4275
  361MPD2     C 5401   4.500   3.653  16.923 -0.4019  0.0190  0.1666
  361MPD2    C1 5402   4.558   3.759  17.005 -0.4243 -0.2192  0.6142
  361MPD2    C2 5403   4.678   3.730  17.075 -0.1616  0.4128 -0.1016
  361MPD2    C3 5404   0.021   3.617  17.045 -0.2000 -0.3022  0.3782
  361MPD2    C4 5405   4.702   3.519  16.954 -0.7649  0.7510  0.2413
  361MPD2    C5 5406   4.586   3.555  16.887  0.3667 -0.6437  0.7941
  361MPD2     H 5407   4.702   3.804  17.151 -1.5337  1.5456 -0.7722
  361MPD2    H1 5408   0.042   3.435  16.930  2.7043  3.1547  1.0817
  361MPD2    H2 5409   4.409   3.663  16.865  0.2467 -1.1921 -1.0682
  361MPD2    H3 5410   4.547   3.478  16.821  0.0049  2.6339 -2.7463
  361MPD2     N 5411   0.137   3.585  17.112 -0.5915 -0.7418  0.2443
  361MPD2    H5 5412   0.162   3.488  17.095  1.9868  0.0929 -0.5933
  361MPD2    N1 5413   4.487   3.877  17.030  0.2023 -0.2615  0.4201
  361MPD2    H7 5414   4.544   3.946  17.077  0.1096 -0.2652  0.5366
  362TMC3    C1 5415   4.361   4.061  16.969 -0.5676  0.2332 -0.5846
  362TMC3    C2 5416   4.416   4.129  17.073  0.6318  0.5951 -0.5549
  362TMC3    C3 5417   4.412   4.265  17.065  0.2812 -0.3037  0.4610
  362TMC3    C4 5418   4.299   4.122  16.855 -0.9868 -0.0891 -0.0363
  362TMC3    C5 5419   4.307   4.257  16.854 -0.3674 -0.0243 -1.1347
  362TMC3    C6 5420   4.360   4.334  16.957  0.3015  0.1165 -0.3796
  362TMC3     C 5421   4.369   3.915  16.976  0.3009 -0.1230 -0.5493
  362TMC3     O 5422   4.295   3.850  16.902  0.2810 -0.8031  0.3698
  362TMC3     H 5423   4.450   4.085  17.165  3.7775  1.1858 -1.4296
  362TMC3    H1 5424   4.281   4.058  16.769  0.1229 -0.7296  0.2101
  362TMC3    H2 5425   4.365   4.441  16.939 -0.8075 -0.0828 -1.8518
  362TMC3    C7 5426   4.286   4.322  16.723  0.5916  0.1010 -0.5247
  362TMC3    C8 5427   4.400   4.323  17.194 -0.4835 -0.2232  0.0879
  362TMC3    O1 5428   4.349   4.423  16.696 -0.0914 -0.3888 -0.0736
  362TMC3    O2 5429   4.480   4.294  17.282  0.2857 -0.4859 -0.8528
  363TMC3    C1 5430   4.139   2.404   9.831 -0.0768 -0.5733  0.1408
  363TMC3    C2 5431   4.240   2.320   9.854 -0.0897  1.0162  0.6770
  363TMC3    C3 5432   4.235   2.191   9.812 -0.6675 -1.0092 -0.1866
  363TMC3    C4 5433   4.026   2.353   9.763  0.3046  0.6772  0.3549
  363TMC3    C5 5434   4.019   2.222   9.721  0.1796  0.0229  0.2135
  363TMC3    C6 5435   4.120   2.140   9.761 -0.5748  0.7908 -0.1172
  363TMC3     C 5436   4.171   2.541   9.809  0.4686 -0.3493 -0.0340
  363TMC3     O 5437   4.101   2.608   9.733  0.0751 -0.2909 -0.0467
  363TMC3     H 5438   4.336   2.350   9.895  1.2037 -3.3836  0.7893
  363TMC3    H1 5439   3.956   2.430   9.731  0.5709  1.3040  1.2694
  363TMC3    H2 5440   4.111   2.040   9.721  1.0038 -0.3230  2.2958
  363TMC3    C7 5441   3.905   2.171   9.648 -0.3333  0.7461  0.6687
  363TMC3    C8 5442   4.355   2.119   9.792  0.1672 -0.2748  0.6339
  363TMC3    O1 5443   3.891   2.049   9.652  0.4065  0.2710  0.0856
  363TMC3    O2 5444   4.450   2.195   9.769 -0.7525  0.6331 -0.3013
  364MPD2     C 5445   2.855   4.619  10.529 -0.3928  0.6045 -0.1547
  364MPD2    C1 5446   2.872   0.025  10.576 -0.2899 -0.4561  0.4897
  364MPD2    C2 5447   2.883   0.040  10.710  0.3994 -0.4049 -0.2807
  364MPD2    C3 5448   2.910   4.644  10.788 -0.4794 -0.7171 -0.4111
  364MPD2    C4 5449   2.904   4.514  10.738  0.3827  0.8564  0.1233
  364MPD2    C5 5450   2.871   4.503  10.603  0.3065  0.0691  0.4916
  364MPD2     H 5451   2.885   0.136  10.760  0.8579 -0.8984  0.6551
  364MPD2    H1 5452   2.915   4.420  10.791 -0.1083  0.3448 -0.6818
  364MPD2    H2 5453   2.837   4.600  10.423 -1.1715  0.5613 -0.0158
  364MPD2    H3 5454   2.871   4.410  10.547  0.4034 -0.8525  1.9920
  364MPD2     N 5455   2.956   4.645  10.923 -0.4531 -0.3831  0.0435
  364MPD2    H5 5456   2.985   4.556  10.962  0.9867 -0.1347 -0.4620
  364MPD2    N1 5457   2.876   0.131  10.482 -0.3546  0.2743  0.3469
  364MPD2    H7 5458   2.854   0.107  10.386 -1.4939  1.0181  0.4290
  365TMC3    C1 5459   2.881   0.353  10.412  0.2037  1.2237  0.3196
  365TMC3    C2 5460   2.844   0.306  10.287 -0.5265  0.0722  0.0635
  365TMC3    C3 5461   2.885   0.382  10.178  0.0976 -0.1135  0.1006
  365TMC3    C4 5462   2.968   0.458  10.419 -0.3051 -0.2193 -0.0189
  365TMC3    C5 5463   3.010   0.520  10.304  0.0279  0.4875 -0.3178
  365TMC3    C6 5464   2.970   0.486  10.184 -0.2425  0.2599  0.1293
  365TMC3     C 5465   2.876   0.264  10.529  0.4257 -0.4513 -0.4071
  365TMC3     O 5466   2.918   0.318  10.635 -0.2670  0.0636 -0.6967
  365TMC3     H 5467   2.785   0.215  10.286 -0.0120 -0.2570 -1.0514
  365TMC3    H1 5468   3.010   0.495  10.512  0.2085  0.5530 -0.5569
  365TMC3    H2 5469   3.017   0.540  10.103  0.1531 -0.6948 -0.2839
  365TMC3    C7 5470   3.094   0.639  10.325 -0.1411 -0.2130 -0.2427
  365TMC3    C8 5471   2.809   0.374  10.056  0.0318  0.3766 -0.7517
  365TMC3    O1 5472   3.173   0.663  10.236 -0.5047 -0.2148  0.1425
  365TMC3    O2 5473   2.818   0.467   9.985 -0.3532  0.3137  0.2434
  366MPD2     C 5474   0.577   1.803  15.363  0.7706 -0.3137  0.5359
  366MPD2    C1 5475   0.605   1.899  15.274 -0.6965 -0.3099  0.5838
  366MPD2    C2 5476   0.669   1.861  15.157  0.0779  0.0794 -0.1078
  366MPD2    C3 5477   0.710   1.729  15.140 -0.0549 -0.0559 -0.5281
  366MPD2    C4 5478   0.674   1.634  15.238  0.9084 -0.0644  0.8919
  366MPD2    C5 5479   0.611   1.672  15.350 -0.7018  0.2668  0.0044
  366MPD2     H 5480   0.686   1.930  15.076 -1.2559  0.9157  0.3350
  366MPD2    H1 5481   0.694   1.530  15.215  1.2415 -0.2502  1.9968
  366MPD2    H2 5482   0.540   1.835  15.460 -1.7947  1.3577 -0.9659
  366MPD2    H3 5483   0.603   1.596  15.426  2.9499  1.4657  1.5823
  366MPD2     N 5484   0.780   1.677  15.024  0.3937  0.1816  0.4511
  366MPD2    H5 5485   0.781   1.576  15.011  2.7021  0.3408 -0.6077
  366MPD2    N1 5486   0.587   2.040  15.304 -0.2434  0.0190 -0.4583
  366MPD2    H7 5487   0.610   2.106  15.230 -3.9676  0.2668 -1.3956
  367TMC3    C1 5488   0.576   2.232  15.431 -0.3147  0.6616 -0.0036
  367TMC3    C2 5489   0.703   2.270  15.480  0.4325 -0.4327  0.0657
  367TMC3    C3 5490   0.767   2.379  15.430 -0.4987  1.3923  0.1049
  367TMC3    C4 5491   0.524   2.307  15.326 -0.4231  0.2193 -0.3700
  367TMC3    C5 5492   0.597   2.404  15.270  0.1403 -0.6130  0.3610
  367TMC3    C6 5493   0.724   2.448  15.319 -0.4523  0.0317 -0.0945
  367TMC3     C 5494   0.554   2.092  15.428 -0.4920  0.1757 -0.0813
  367TMC3     O 5495   0.534   2.038  15.532 -0.3002 -0.0895 -0.5362
  367TMC3     H 5496   0.751   2.206  15.552 -0.6368 -1.6736 -0.3295
  367TMC3    H1 5497   0.430   2.279  15.280 -0.7470 -0.9592  1.0044
  367TMC3    H2 5498   0.776   2.530  15.270 -1.7513  0.9014  0.0053
  367TMC3    C7 5499   0.542   2.502  15.175  0.1040 -0.4707 -0.6066
  367TMC3    C8 5500   0.900   2.387  15.464  0.0304 -0.7843  0.6499
  367TMC3    O1 5501   0.424   2.524  15.186 -0.5083 -0.3899 -0.1123
  367TMC3    O2 5502   0.936   2.350  15.577  0.6983 -0.4820  0.3347
  368MPD2     C 5503   2.065   4.071  13.218  0.2187 -0.1072 -0.0236
  368MPD2    C1 5504   2.024   4.200  13.206  0.0061 -0.3080 -0.1760
  368MPD2    C2 5505   2.108   4.291  13.157 -0.2850  0.4392 -0.3391
  368MPD2    C3 5506   2.236   4.256  13.109  0.0160  0.0970  0.1730
  368MPD2    C4 5507   2.280   4.124  13.126 -0.5562 -0.8117 -0.4700
  368MPD2    C5 5508   2.192   4.038  13.186 -0.4533 -0.9548  0.7546
  368MPD2     H 5509   2.077   4.395  13.155 -1.8685 -0.0144  0.7880
  368MPD2    H1 5510   2.380   4.093  13.097 -0.1483  0.5960 -0.5888
  368MPD2    H2 5511   2.000   3.993  13.257  0.5350 -0.2925  0.1334
  368MPD2    H3 5512   2.226   3.937  13.205  1.8450 -0.3749 -0.2707
  368MPD2     N 5513   2.323   4.347  13.035 -0.0067  0.4874  0.7751
  368MPD2    H5 5514   2.401   4.307  12.983 -1.1626 -0.5737 -0.1459
  368MPD2    N1 5515   1.888   4.222  13.237 -0.1226  0.2765 -0.5432
  368MPD2    H7 5516   1.831   4.139  13.250  0.4820 -0.2876 -1.5049
  369TMC3    C1 5517   1.683   4.344  13.233 -0.2164 -0.3579 -0.4014
  369TMC3    C2 5518   1.634   4.432  13.143  0.2300  0.7620  0.0661
  369TMC3    C3 5519   1.532   4.393  13.060 -0.4959  0.3002  0.2586
  369TMC3    C4 5520   1.631   4.217  13.246 -0.4527  0.7194  0.0869
  369TMC3    C5 5521   1.543   4.178  13.149 -0.0877 -0.4403  0.3636
  369TMC3    C6 5522   1.487   4.261  13.062 -0.2269  0.0925  0.6971
  369TMC3     C 5523   1.828   4.345  13.231 -0.9244  0.1123 -1.0289
  369TMC3     O 5524   1.879   4.459  13.213  0.2771  0.1969 -0.2869
  369TMC3     H 5525   1.671   4.533  13.129 -0.3756  0.9138 -0.4506
  369TMC3    H1 5526   1.646   4.154  13.334 -0.6592  1.1748  0.4441
  369TMC3    H2 5527   1.410   4.220  12.998 -1.1584  0.5966  1.4856
  369TMC3    C7 5528   1.474   4.051  13.187 -0.1582 -0.1822 -0.1283
  369TMC3    C8 5529   1.550   4.431  12.924  0.2410  0.1540  0.0617
  369TMC3    O1 5530   1.447   4.035  13.308 -0.1918  0.1673  0.1646
  369TMC3    O2 5531   1.453   4.410  12.849  0.1131 -0.5502  0.0965
  370TMC3    C1 5532   1.143   4.569  16.169 -0.2632 -0.8440  0.7088
  370TMC3    C2 5533   1.078   4.497  16.271 -0.0799 -0.7714  0.5076
  370TMC3    C3 5534   1.048   4.364  16.255 -0.7754  0.6589  0.2280
  370TMC3    C4 5535   1.179   4.499  16.061  0.2339  0.5629  0.0066
  370TMC3    C5 5536   1.148   4.369  16.042  0.2255  0.3906  0.3083
  370TMC3    C6 5537   1.093   4.294  16.147 -0.4600  0.1966  0.3862
  370TMC3     C 5538   1.251   4.648  16.212  0.4011 -0.1171  0.5780
  370TMC3     O 5539   1.281   4.623  16.330 -0.0450  0.0348  0.0341
  370TMC3     H 5540   1.064   4.546  16.367  0.1001  0.0818  0.0986
  370TMC3    H1 5541   1.225   4.558  15.983 -0.6864 -1.0187 -1.7425
  370TMC3    H2 5542   1.058   4.192  16.137 -1.3556  0.4831  0.6255
  370TMC3    C7 5543   1.204   4.310  15.913  0.0513 -0.0848  0.0293
  370TMC3    C8 5544   1.000   4.284  16.372  0.3942 -0.1476  0.0718
  370TMC3    O1 5545   1.190   4.382  15.817 -0.2623  0.7003  0.6953
  370TMC3    O2 5546   0.991   4.163  16.361  0.2841 -0.0846 -0.0801
  371TMC3    C1 5547   2.777   2.949  15.680 -0.5845  0.3757 -0.4608
  371TMC3    C2 5548   2.665   2.925  15.762 -0.1824 -0.3871  0.2806
  371TMC3    C3 5549   2.575   3.030  15.773  1.1208 -0.4732  0.1322
  371TMC3    C4 5550   2.800   3.066  15.613 -0.0378 -0.3871  0.3955
  371TMC3    C5 5551   2.693   3.157  15.613  0.0322 -0.2776  0.0109
  371TMC3    C6 5552   2.582   3.133  15.687  0.2611 -0.0163 -0.6940
  371TMC3     C 5553   2.867   2.837  15.645  0.7902 -0.1566 -0.1074
  371TMC3     O 5554   2.950   2.847  15.552  0.5599  0.5871  0.7790
  371TMC3     H 5555   2.680   2.854  15.842 -0.6960 -0.1215  0.6143
  371TMC3    H1 5556   2.891   3.089  15.559  1.4166  1.1315  3.4764
  371TMC3    H2 5557   2.521   3.221  15.699  1.5167  0.6241  1.0299
  371TMC3    C7 5558   2.711   3.296  15.574 -0.3515 -0.1510  0.6676
  371TMC3    C8 5559   2.461   2.998  15.853 -0.2535 -1.2214 -0.3013
  371TMC3    O1 5560   2.621   3.375  15.603  0.6485 -0.0762 -0.0068
  371TMC3    O2 5561   2.466   2.885  15.899  0.0049 -0.1337 -0.4796
  372MPD2     C 5562   2.519   0.069  13.224  0.0714 -0.9137  0.2032
  372MPD2    C1 5563   2.597   4.682  13.241 -0.7949 -0.0203 -0.3607
  372MPD2    C2 5564   2.538   4.568  13.289 -0.6303  0.0081 -0.7495
  372MPD2    C3 5565   2.410   4.561  13.336  0.4813  0.5103  0.6965
  372MPD2    C4 5566   2.333   4.671  13.301 -0.2371 -0.5660 -0.3766
  372MPD2    C5 5567   2.385   0.061  13.243  0.4680 -0.0566  0.4890
  372MPD2     H 5568   2.606   4.485  13.306 -0.3301  1.1085  3.4489
  372MPD2    H1 5569   2.225   4.662  13.313 -0.2622  0.2794 -0.0101
  372MPD2    H2 5570   2.552   0.164  13.184  0.7611 -1.7887 -1.3221
  372MPD2    H3 5571   2.331   0.155  13.237 -0.2034 -0.5171 -0.5721
  372MPD2     N 5572   2.363   4.443  13.387  0.2282 -0.4416  0.6975
  372MPD2    H5 5573   2.422   4.365  13.413 -0.5615 -1.4836 -0.6505
  372MPD2    N1 5574   2.741   4.685  13.230 -0.7411 -0.1890  0.9882
  372MPD2    H7 5575   2.791   4.626  13.297  0.2026 -1.0197 -0.4605
  373TMC3    C1 5576   2.200   4.317  13.519 -0.0284 -1.0690 -0.7511
  373TMC3    C2 5577   2.100   4.328  13.615  0.9412  0.3578 -1.2799
  373TMC3    C3 5578   2.061   4.212  13.678  1.1044 -0.1860 -0.9382
  373TMC3    C4 5579   2.256   4.194  13.501 -0.2773 -0.1153  0.5327
  373TMC3    C5 5580   2.207   4.078  13.560 -0.0467  0.2636  0.1237
  373TMC3    C6 5581   2.103   4.084  13.649  0.0614 -0.0320 -0.6030
  373TMC3     C 5582   2.238   4.442  13.455 -0.8316  0.5488 -0.6209
  373TMC3     O 5583   2.153   4.529  13.478  0.4243 -0.0956  0.3342
  373TMC3     H 5584   2.055   4.423  13.644 -2.3914 -2.5574  3.2190
  373TMC3    H1 5585   2.320   4.167  13.418  0.5499  1.6671  0.5694
  373TMC3    H2 5586   2.061   3.997  13.698  0.7906  0.3375  0.6705
  373TMC3    C7 5587   2.270   3.943  13.530  0.8767 -0.2407 -0.4525
  373TMC3    C8 5588   1.929   4.214  13.733  0.3364  0.0356 -0.4447
  373TMC3    O1 5589   2.380   3.933  13.479 -0.3475 -0.1832  0.2812
  373TMC3    O2 5590   1.853   4.275  13.659 -0.4622 -0.4249  0.2985
  374TMC3    C1 5591   3.033   3.977   9.698 -0.2351  0.1967  0.6461
  374TMC3    C2 5592   3.126   4.075   9.669 -0.1412  0.9608  0.2353
  374TMC3    C3 5593   3.082   4.180   9.595  0.3058  0.1295  0.1343
  374TMC3    C4 5594   2.906   3.984   9.656 -0.2996 -0.4786  0.1330
  374TMC3    C5 5595   2.867   4.096   9.582  0.8801 -0.0944  0.2457
  374TMC3    C6 5596   2.953   4.191   9.545  0.8468  0.1957  0.0502
  374TMC3     C 5597   3.071   3.872   9.791 -0.5568  0.2831 -0.2861
  374TMC3     O 5598   3.170   3.908   9.849 -0.7345 -0.2929  0.6068
  374TMC3     H 5599   3.229   4.062   9.704 -0.3579 -2.4651 -0.3465
  374TMC3    H1 5600   2.833   3.912   9.691  1.2835 -0.8853  2.6255
  374TMC3    H2 5601   2.917   4.275   9.487 -2.4024 -0.1246  1.5862
  374TMC3    C7 5602   2.720   4.115   9.555 -0.1746  0.1720 -0.2703
  374TMC3    C8 5603   3.167   4.290   9.572  0.8404 -0.4058  0.3101
  374TMC3    O1 5604   2.702   4.220   9.490  0.0887  0.7571 -0.2544
  374TMC3    O2 5605   3.154   4.347   9.467 -0.3927  0.0522  0.1698
  375MPD2     C 5606   2.833   0.318  17.276  0.5792  0.0265  0.4429
  375MPD2    C1 5607   2.731   0.283  17.185  0.9600  0.3305 -0.4125
  375MPD2    C2 5608   2.763   0.271  17.057 -0.4411 -0.1113  0.0574
  375MPD2    C3 5609   2.893   0.282  17.013  0.3406 -0.2575 -0.1500
  375MPD2    C4 5610   2.992   0.316  17.108  0.6345  0.3678  0.3173
  375MPD2    C5 5611   2.964   0.313  17.241  0.2782 -0.4855 -0.2702
  375MPD2     H 5612   2.683   0.241  16.990  1.4423  1.7005 -2.9863
  375MPD2    H1 5613   3.096   0.318  17.077  0.9187 -1.8088  1.1563
  375MPD2    H2 5614   2.810   0.330  17.381 -0.3370 -0.6870  0.3278
  375MPD2    H3 5615   3.041   0.329  17.315 -1.3193 -2.7966  1.9157
  375MPD2     N 5616   2.935   0.250  16.884 -0.3507 -0.2261  0.0147
  375MPD2    H5 5617   3.033   0.260  16.859 -0.8051 -1.2370 -2.1985
  375MPD2    N1 5618   2.595   0.276  17.224 -0.1496  0.5111 -0.6307
  375MPD2    H7 5619   2.520   0.276  17.156 -2.3215  2.4146  1.7591
  376TMC3    C1 5620   2.925   0.188  16.654 -0.2256  0.0200  0.0898
  376TMC3    C2 5621   3.042   0.111  16.669  0.1680  0.3027 -0.2004
  376TMC3    C3 5622   3.062   0.024  16.563  0.1292 -0.0351 -0.8332
  376TMC3    C4 5623   2.843   0.166  16.544 -0.3957 -0.1938  0.2592
  376TMC3    C5 5624   2.883   0.087  16.436  0.1870 -0.2178 -0.4802
  376TMC3    C6 5625   2.988   0.010  16.446  0.3787  0.1700 -1.1991
  376TMC3     C 5626   2.851   0.223  16.776 -0.5650  0.3471  0.2267
  376TMC3     O 5627   2.731   0.211  16.776 -0.3749  0.4861 -0.1430
  376TMC3     H 5628   3.105   0.122  16.756 -1.6321 -0.7173  1.2294
  376TMC3    H1 5629   2.757   0.232  16.544 -0.9789 -0.9532  2.7683
  376TMC3    H2 5630   3.020   4.666  16.368 -1.3380 -0.9425 -0.9377
  376TMC3    C7 5631   2.833   0.078  16.300  1.1093  0.2518 -0.0960
  376TMC3    C8 5632   3.189   4.688  16.540  0.1574 -0.2813 -0.3245
  376TMC3    O1 5633   2.908   0.064  16.206  0.5485 -0.4564 -0.4689
  376TMC3    O2 5634   3.228   4.707  16.426 -0.6804  0.1835  0.0020
  377MPD2     C 5635   0.830   4.409  12.612 -0.1031 -0.4287  0.2444
  377MPD2    C1 5636   0.898   4.304  12.671  1.0988 -0.1290 -0.4852
  377MPD2    C2 5637   0.867   4.263  12.799  0.3725 -0.2041 -0.2149
  377MPD2    C3 5638   0.750   4.319  12.856  0.3835 -0.1318 -0.0288
  377MPD2    C4 5639   0.689   4.419  12.795 -0.1667 -0.2913  0.0431
  377MPD2    C5 5640   0.733   4.471  12.676 -0.3734 -0.8183  0.1736
  377MPD2     H 5641   0.924   4.190  12.855 -0.1641  0.0618  0.6845
  377MPD2    H1 5642   0.596   4.457  12.836 -1.1015 -0.2779 -2.1086
  377MPD2    H2 5643   0.839   4.450  12.512  1.2526  0.1545  0.6120
  377MPD2    H3 5644   0.688   4.557  12.628  1.3002 -1.4544 -2.5190
  377MPD2     N 5645   0.690   4.290  12.981  0.2131  0.2712 -0.4103
  377MPD2    H5 5646   0.596   4.323  12.998  0.3276  1.3993 -1.9422
  377MPD2    N1 5647   1.011   4.262  12.596  0.6126  0.4172  0.1148
  377MPD2    H7 5648   1.033   4.307  12.507 -1.1283  2.8012  0.8978
  378TMC3    C1 5649   1.371   4.259  12.421  0.1438  0.4511  0.6097
  378TMC3    C2 5650   1.242   4.218  12.451  0.0720 -0.2811 -0.1533
  378TMC3    C3 5651   1.220   4.139  12.561  0.1407 -0.4647 -0.1772
  378TMC3    C4 5652   1.474   4.234  12.509  0.5877  0.1332 -0.1747
  378TMC3    C5 5653   1.449   4.171  12.627 -0.1502  0.6270 -0.7637
  378TMC3    C6 5654   1.326   4.116  12.650  0.3649  0.3705 -0.1689
  378TMC3     C 5655   1.388   4.354  12.311  0.3590 -0.1570  0.7823
  378TMC3     O 5656   1.290   4.418  12.266  0.0182  0.0182  0.0291
  378TMC3     H 5657   1.165   4.240  12.377  0.6551  1.2543 -0.3037
  378TMC3    H1 5658   1.563   4.295  12.500  0.6640  0.1872  0.9258
  378TMC3    H2 5659   1.305   4.063  12.742 -0.9079 -0.9929 -1.2468
  378TMC3    C7 5660   1.557   4.127  12.717 -0.1372  0.4892 -0.1407
  378TMC3    C8 5661   1.093   4.153  12.633  0.1969 -0.2183  0.3438
  378TMC3    O1 5662   1.517   4.080  12.823 -0.4676 -0.1034 -0.1120
  378TMC3    O2 5663   1.076   4.067  12.724 -0.1307 -0.8166  0.1274
  379MPD2     C 5664   1.421   2.456  16.370  0.2755 -0.7229 -0.2810
  379MPD2    C1 5665   1.506   2.364  16.311 -0.4841 -0.4172  0.6667
  379MPD2    C2 5666   1.572   2.265  16.387  0.0738  0.5804 -0.3920
  379MPD2    C3 5667   1.570   2.273  16.526  0.7764 -0.4295  0.0044
  379MPD2    C4 5668   1.496   2.373  16.587  0.9260 -0.0427  0.5335
  379MPD2    C5 5669   1.424   2.463  16.509 -0.3110  0.0454  0.6344
  379MPD2     H 5670   1.617   2.177  16.344 -1.1103 -0.1313 -0.1797
  379MPD2    H1 5671   1.488   2.374  16.695  1.0715  2.6462  0.5116
  379MPD2    H2 5672   1.360   2.533  16.323 -1.2540 -0.6314  1.8816
  379MPD2    H3 5673   1.353   2.530  16.557 -0.8574 -1.0666  1.3988
  379MPD2     N 5674   1.638   2.187  16.615  0.2433 -0.1432 -0.1409
  379MPD2    H5 5675   1.641   2.211  16.714  2.2420  3.5860 -1.1228
  379MPD2    N1 5676   1.522   2.378  16.168  0.5872 -0.1869 -0.4065
  379MPD2    H7 5677   1.454   2.438  16.121  0.7525  1.3444  1.2913
  380TMC3    C1 5678   1.630   2.377  15.964  0.7407 -1.1757  0.1836
  380TMC3    C2 5679   1.757   2.386  15.908  0.4895 -0.4306 -0.1162
  380TMC3    C3 5680   1.758   2.424  15.780  0.0258 -0.7316  0.1833
  380TMC3    C4 5681   1.515   2.397  15.895 -0.5837 -0.1605 -0.9077
  380TMC3    C5 5682   1.527   2.435  15.762  0.3335  0.4410  0.3869
  380TMC3    C6 5683   1.649   2.450  15.707  0.2060 -0.0850 -1.4302
  380TMC3     C 5684   1.626   2.333  16.099  0.1143 -0.5110 -0.2159
  380TMC3     O 5685   1.721   2.269  16.145  0.1801  0.1777  0.5978
  380TMC3     H 5686   1.847   2.345  15.951  1.2281 -0.0863 -1.3478
  380TMC3    H1 5687   1.419   2.390  15.945 -0.2449 -0.5265 -0.3081
  380TMC3    H2 5688   1.660   2.508  15.616 -0.9890  1.1727 -0.7580
  380TMC3    C7 5689   1.405   2.453  15.683  0.2568 -0.2707  0.0991
  380TMC3    C8 5690   1.884   2.467  15.718 -0.1995 -0.1440 -0.8031
  380TMC3    O1 5691   1.298   2.462  15.734  0.0099 -0.6234 -0.5696
  380TMC3    O2 5692   1.892   2.466  15.596  0.5405 -0.2194 -0.4293
  381TMC3    C1 5693   1.141   3.614  16.259  1.0206 -0.2511 -0.0548
  381TMC3    C2 5694   1.161   3.743  16.227 -0.5120 -0.2042 -0.2573
  381TMC3    C3 5695   1.148   3.842  16.319  0.3064 -1.0043  0.3359
  381TMC3    C4 5696   1.092   3.586  16.382 -0.1853 -0.0559  0.1530
  381TMC3    C5 5697   1.060   3.689  16.464  0.5048  0.2088  0.0442
  381TMC3    C6 5698   1.089   3.826  16.443  0.2536  0.2219 -0.0362
  381TMC3     C 5699   1.203   3.502  16.181  1.0671  0.3234 -0.7803
  381TMC3     O 5700   1.220   3.400  16.247 -0.3247  0.3212  0.0582
  381TMC3     H 5701   1.190   3.769  16.126 -1.6137 -2.1745 -1.0815
  381TMC3    H1 5702   1.069   3.482  16.401 -0.6348 -0.0457 -0.3411
  381TMC3    H2 5703   1.068   3.904  16.514  0.0619  0.8017 -0.7321
  381TMC3    C7 5704   1.050   3.647  16.604  0.0279 -0.0709  0.2338
  381TMC3    C8 5705   1.205   3.971  16.290  0.2545 -0.0001  0.2915
  381TMC3    O1 5706   1.117   3.545  16.627  0.3047  0.6101 -0.2756
  381TMC3    O2 5707   1.226   4.003  16.171  0.3082  0.3844 -1.1820
  382MPD2     C 5708   0.509   2.059  17.001 -0.4194 -0.1681 -0.0077
  382MPD2    C1 5709   0.457   2.108  17.120 -0.0899 -0.2362  0.1757
  382MPD2    C2 5710   0.381   2.018  17.193 -0.2666 -0.3935 -0.1630
  382MPD2    C3 5711   0.357   1.889  17.141  0.0253 -0.0714 -0.0985
  382MPD2    C4 5712   0.417   1.846  17.023 -0.3053 -0.1176  0.0077
  382MPD2    C5 5713   0.491   1.933  16.951  0.0577 -0.7794  0.2282
  382MPD2     H 5714   0.336   2.059  17.283  1.1576  1.4869 -0.3188
  382MPD2    H1 5715   0.393   1.744  16.996 -1.1092  0.0281  0.1745
  382MPD2    H2 5716   0.578   2.126  16.952 -0.9387 -0.1247 -0.6749
  382MPD2    H3 5717   0.542   1.907  16.859  1.5654  1.6248  0.3729
  382MPD2     N 5718   0.270   1.802  17.208 -0.5433 -0.0294 -0.4370
  382MPD2    H5 5719   0.264   1.708  17.170  2.5048 -0.5762  0.3910
  382MPD2    N1 5720   0.485   2.238  17.181  0.5849 -0.2171  0.0517
  382MPD2    H7 5721   0.452   2.243  17.276 -0.2863 -1.0561 -0.2025
  383TMC3    C1 5722   0.138   1.711  17.375 -0.4317  0.0678  0.7041
  383TMC3    C2 5723   0.089   1.628  17.276 -0.5371 -0.2353  0.3095
  383TMC3    C3 5724   0.088   1.493  17.307  0.4028 -0.1310 -0.2710
  383TMC3    C4 5725   0.145   1.668  17.502 -0.0253 -1.0762 -0.7073
  383TMC3    C5 5726   0.125   1.539  17.537 -0.1513 -0.1453 -0.5486
  383TMC3    C6 5727   0.102   1.449  17.438 -0.1990  0.7759  0.0536
  383TMC3     C 5728   0.220   1.828  17.336  0.0004 -0.8623 -0.8710
  383TMC3     O 5729   0.255   1.907  17.423  0.0217 -1.1207  0.0376
  383TMC3     H 5730   0.054   1.664  17.180 -0.5642 -1.3817 -0.1127
  383TMC3    H1 5731   0.168   1.751  17.567  1.9479 -0.1888 -2.5427
  383TMC3    H2 5732   0.112   1.343  17.461 -0.3808  0.9355  0.8707
  383TMC3    C7 5733   0.198   1.501  17.653  0.5707 -0.1914  0.5457
  383TMC3    C8 5734   0.026   1.414  17.208  0.3651  0.1009  0.3744
  383TMC3    O1 5735   0.290   1.580  17.673 -0.8012 -0.3186  0.4598
  383TMC3    O2 5736   4.710   1.457  17.106  0.2136 -0.4463 -0.1265
  384MPD2     C 5737   2.281   2.257  11.882  0.4273 -0.4689 -0.6668
  384MPD2    C1 5738   2.370   2.260  11.988 -0.1358  0.0018 -0.1743
  384MPD2    C2 5739   2.498   2.212  11.984  0.4763 -0.9322  0.2441
  384MPD2    C3 5740   2.535   2.147  11.864 -0.5324  0.5887 -0.7966
  384MPD2    C4 5741   2.440   2.126  11.763  0.3081  0.2545  0.1878
  384MPD2    C5 5742   2.317   2.190  11.769  0.6572  0.3511 -0.9613
  384MPD2     H 5743   2.561   2.207  12.073  0.7249  0.8643  0.1693
  384MPD2    H1 5744   2.454   2.067  11.673 -0.4907 -0.3750  0.4761
  384MPD2    H2 5745   2.182   2.296  11.904  0.3713 -0.1939 -1.4002
  384MPD2    H3 5746   2.245   2.166  11.692 -0.0444 -2.3331  0.5452
  384MPD2     N 5747   2.658   2.080  11.866  0.5903  0.3124  0.0798
  384MPD2    H5 5748   2.704   2.081  11.957 -0.8297 -0.7091  0.8062
  384MPD2    N1 5749   2.311   2.296  12.109  1.2018 -0.2742  0.7852
  384MPD2    H7 5750   2.211   2.281  12.110  1.0840  0.4373 -2.3775
  385TMC3    C1 5751   2.812   1.910  11.812  0.1180  0.2663  0.3872
  385TMC3    C2 5752   2.789   1.787  11.761 -0.5243 -0.4741  0.6336
  385TMC3    C3 5753   2.789   1.682  11.851 -0.4261 -0.0911 -0.0035
  385TMC3    C4 5754   2.839   1.930  11.947 -0.7720 -0.6509 -1.0522
  385TMC3    C5 5755   2.826   1.826  12.036  0.0295 -0.1437 -0.1577
  385TMC3    C6 5756   2.808   1.694  11.988  0.0606 -0.7069 -0.5269
  385TMC3     C 5757   2.705   2.000  11.766 -0.5991  0.8568  0.3024
  385TMC3     O 5758   2.677   2.004  11.642 -0.3866 -0.1602 -0.0973
  385TMC3     H 5759   2.734   1.773  11.668  1.7197 -1.2611 -0.5809
  385TMC3    H1 5760   2.857   2.030  11.983 -0.1472 -0.8004 -0.9441
  385TMC3    H2 5761   2.808   1.606  12.052  0.4703  0.2050  0.7230
  385TMC3    C7 5762   2.728   1.863  12.139 -0.8121  0.7127  0.0582
  385TMC3    C8 5763   2.792   1.541  11.800  0.4243  0.3000 -0.1557
  385TMC3    O1 5764   2.706   1.980  12.143 -0.2104 -0.0310 -0.3685
  385TMC3    O2 5765   2.754   1.456  11.876 -0.0281 -0.0450  0.0541
  386TMC3    C1 5766   2.476   4.472  11.942 -0.1674  0.6632 -0.5084
  386TMC3    C2 5767   2.530   4.458  11.819 -0.0234 -0.1855  0.0935
  386TMC3    C3 5768   2.445   4.472  11.708 -0.7590 -0.3354 -0.5893
  386TMC3    C4 5769   2.344   4.515  11.946  0.0233  0.2110  0.4368
  386TMC3    C5 5770   2.261   4.528  11.833 -0.5305  0.2731  0.0884
  386TMC3    C6 5771   2.318   4.525  11.712 -0.2211 -0.0409 -0.3249
  386TMC3     C 5772   2.540   4.430  12.072  0.3733 -0.4494 -0.3746
  386TMC3     O 5773   2.484   4.479  12.171 -0.6952 -0.5234  0.0904
  386TMC3     H 5774   2.630   4.419  11.807 -1.0075 -2.4478 -0.7380
  386TMC3    H1 5775   2.303   4.511  12.046 -1.8935 -0.9880 -0.4190
  386TMC3    H2 5776   2.253   4.537  11.627  0.9360 -1.6745 -1.4225
  386TMC3    C7 5777   2.145   4.614  11.867 -0.4336 -0.7489  0.6632
  386TMC3    C8 5778   2.483   4.455  11.568  0.1084 -0.8892 -0.2948
  386TMC3    O1 5779   2.124   4.634  11.984 -0.1583 -0.5162 -0.3465
  386TMC3    O2 5780   2.404   4.481  11.481  0.4703 -0.5457  0.0636
  387MPD2     C 5781   4.546   0.320   9.540 -0.2565 -0.2663 -0.3232
  387MPD2    C1 5782   4.670   0.301   9.590 -0.0415  0.0785 -0.4785
  387MPD2    C2 5783   4.716   0.175   9.627  0.4997  0.2643  0.2927
  387MPD2    C3 5784   4.632   0.065   9.622 -0.0286  0.1698  0.1928
  387MPD2    C4 5785   4.508   0.090   9.567 -0.4156  0.2177 -0.0277
  387MPD2    C5 5786   4.471   0.215   9.525 -0.1291 -0.6750 -0.3280
  387MPD2     H 5787   0.092   0.162   9.666  0.7166  1.1532  0.0330
  387MPD2    H1 5788   4.432   0.013   9.567  0.8561 -1.0402  0.3458
  387MPD2    H2 5789   4.509   0.420   9.522 -0.9064 -0.6623 -1.1674
  387MPD2    H3 5790   4.370   0.237   9.493  1.3789  1.9647 -3.2439
  387MPD2     N 5791   4.674   4.668   9.680 -0.3605  0.5955  0.4858
  387MPD2    H5 5792   0.039   4.669   9.727  1.0111  1.1197 -2.1180
  387MPD2    N1 5793   0.030   0.406   9.632 -0.1682 -0.6376 -0.2599
  387MPD2    H7 5794   0.125   0.378   9.656 -0.8284 -0.3200  2.7286
  388TMC3    C1 5795   0.111   0.591   9.732 -0.4034  0.1247  0.2356
  388TMC3    C2 5796   0.095   0.719   9.770  0.3272 -0.5322  0.6022
  388TMC3    C3 5797   0.175   0.771   9.872  0.3367  0.2301  0.3446
  388TMC3    C4 5798   0.188   0.505   9.810  0.1060  0.4148 -0.0894
  388TMC3    C5 5799   0.250   0.556   9.917 -0.6210  0.1199  0.2257
  388TMC3    C6 5800   0.252   0.689   9.948 -0.1785  0.0913  0.7423
  388TMC3     C 5801   0.006   0.538   9.647 -0.0085 -0.2075 -0.4297
  388TMC3     O 5802   4.623   0.592   9.630  0.1586 -0.7217  0.7186
  388TMC3     H 5803   0.009   0.775   9.736 -0.6531 -1.3295  1.7851
  388TMC3    H1 5804   0.194   0.398   9.797 -2.3238  0.4217 -1.3316
  388TMC3    H2 5805   0.317   0.723  10.028  1.1417  0.1323 -0.3464
  388TMC3    C7 5806   0.302   0.469  10.024  0.3540 -0.8940  0.7973
  388TMC3    C8 5807   0.171   0.919   9.902  0.3149 -0.3025  0.1690
  388TMC3    O1 5808   0.409   0.496  10.072  0.6198 -0.9045 -0.0087
  388TMC3    O2 5809   0.102   0.981   9.826  0.0360  0.2251  0.5318
  389MPD2     C 5810   4.118   3.098  11.567  0.0459 -0.4186  0.2536
  389MPD2    C1 5811   4.089   2.989  11.483 -0.9353  0.2279 -0.9181
  389MPD2    C2 5812   3.985   2.901  11.529  0.1206 -0.2030 -0.6777
  389MPD2    C3 5813   3.923   2.928  11.650  0.5296 -0.0491  0.2092
  389MPD2    C4 5814   3.955   3.040  11.725  0.9207 -0.4911 -0.0315
  389MPD2    C5 5815   4.051   3.128  11.684  0.5222  0.0712 -0.4789
  389MPD2     H 5816   3.950   2.823  11.462 -0.1639 -0.3261 -0.3826
  389MPD2    H1 5817   3.903   3.057  11.818  3.2789  1.4947  0.9481
  389MPD2    H2 5818   4.195   3.165  11.534  0.3187  0.2376  2.1873
  389MPD2    H3 5819   4.080   3.215  11.742  1.3949  0.7056 -1.8652
  389MPD2     N 5820   3.833   2.838  11.710  0.4890 -0.1003  0.6707
  389MPD2    H5 5821   3.813   2.862  11.807 -0.4979  1.8698 -0.0231
  389MPD2    N1 5822   4.142   2.978  11.357  0.3650  0.0171 -0.4277
  389MPD2    H7 5823   4.217   3.045  11.340  0.1496 -0.0808 -1.8171
  390TMC3    C1 5824   3.696   2.653  11.745  0.7942  0.6385  0.1232
  390TMC3    C2 5825   3.707   2.521  11.742  0.7063  0.2299  0.0533
  390TMC3    C3 5826   3.667   2.449  11.844  0.2558 -0.8283 -0.0051
  390TMC3    C4 5827   3.642   2.718  11.858  0.2872  0.1473 -0.1908
  390TMC3    C5 5828   3.580   2.640  11.950 -0.1338  0.0041 -0.0122
  390TMC3    C6 5829   3.603   2.504  11.947 -0.3670  0.1774  0.5284
  390TMC3     C 5830   3.776   2.726  11.647 -0.7422 -0.3572  0.4464
  390TMC3     O 5831   3.805   2.673  11.541  0.7384  0.6183  0.1874
  390TMC3     H 5832   3.758   2.466  11.663  3.2702  2.1713  0.3469
  390TMC3    H1 5833   3.628   2.825  11.855 -2.3168 -0.1852 -0.2408
  390TMC3    H2 5834   3.560   2.443  12.025  2.8020 -0.5029  1.7496
  390TMC3    C7 5835   3.455   2.691  12.006 -0.0187  0.0168  0.5586
  390TMC3    C8 5836   3.680   2.306  11.844  0.2042  0.1546  0.2945
  390TMC3    O1 5837   3.426   2.809  11.979  0.4728  0.2464 -0.0976
  390TMC3    O2 5838   3.677   2.238  11.744 -0.7414 -0.6113 -0.6243
  391MPD2     C 5839   3.515   4.197  11.052 -0.3993 -0.0530 -0.1961
  391MPD2    C1 5840   3.502   4.333  11.044 -0.6372 -0.7457 -0.1785
  391MPD2    C2 5841   3.520   4.391  10.921  0.2999  0.3834  0.5447
  391MPD2    C3 5842   3.555   4.320  10.806 -0.1044 -0.1463 -0.3868
  391MPD2    C4 5843   3.570   4.183  10.816 -0.4592  0.2678 -0.1713
  391MPD2    C5 5844   3.547   4.125  10.940 -0.2482 -0.1883  0.1101
  391MPD2     H 5845   3.513   4.496  10.896 -2.3346 -0.4855 -2.2746
  391MPD2    H1 5846   3.588   4.130  10.723  1.1871 -0.9845  0.8754
  391MPD2    H2 5847   3.511   4.145  11.148 -1.8732  0.2861 -0.0788
  391MPD2    H3 5848   3.541   4.017  10.944  0.7495 -0.2944 -1.4245
  391MPD2     N 5849   3.557   4.396  10.691 -0.7018  0.5036 -0.3280
  391MPD2    H5 5850   3.544   4.496  10.689  0.6182  0.6773 -0.4104
  391MPD2    N1 5851   3.466   4.399  11.165  0.0302 -0.3161 -0.1847
  391MPD2    H7 5852   3.464   4.345  11.251  1.3200 -1.8649 -1.1169
  392TMC3    C1 5853   3.567   4.436  10.456 -0.0479  0.4912 -0.0201
  392TMC3    C2 5854   3.547   4.394  10.330 -0.1111  0.4175 -0.1979
  392TMC3    C3 5855   3.571   4.484  10.226  0.3613 -0.0561 -0.5525
  392TMC3    C4 5856   3.592   4.565  10.485  0.8755 -0.6214 -0.1970
  392TMC3    C5 5857   3.627   4.648  10.383 -0.3423  0.0413 -0.1018
  392TMC3    C6 5858   3.610   4.615  10.252  0.4430 -0.0965  0.2350
  392TMC3     C 5859   3.565   4.342  10.565  0.4388 -0.1936 -0.5799
  392TMC3     O 5860   3.566   4.228  10.526 -0.4533 -0.1769 -0.0890
  392TMC3     H 5861   3.508   4.293  10.323  1.7008 -0.4097  1.5571
  392TMC3    H1 5862   3.598   4.605  10.586 -0.1607 -0.1191 -0.3411
  392TMC3    H2 5863   3.653   4.684  10.180  1.4556 -2.5182 -1.4723
  392TMC3    C7 5864   3.678   0.058  10.426  1.1643  0.4697 -0.0527
  392TMC3    C8 5865   3.532   4.451  10.090  0.1630 -0.1263  0.1632
  392TMC3    O1 5866   3.678   0.088  10.544 -0.2449 -0.5442  0.5039
  392TMC3    O2 5867   3.524   4.330  10.076 -0.6353 -0.1414 -0.2432
  393TMC3    C1 5868   2.796   1.618  10.346  0.5748 -0.4669  0.5077
  393TMC3    C2 5869   2.688   1.536  10.374 -0.2633  0.4345 -1.0701
  393TMC3    C3 5870   2.715   1.406  10.387  0.6775  0.2149 -0.0339
  393TMC3    C4 5871   2.926   1.571  10.317  0.2659 -0.0989 -0.5505
  393TMC3    C5 5872   2.941   1.432  10.329  0.0044  0.0464  0.0944
  393TMC3    C6 5873   2.835   1.353  10.369  0.3296  0.0685  0.7727
  393TMC3     C 5874   2.775   1.760  10.330  0.4212 -0.4642 -0.4034
  393TMC3     O 5875   2.657   1.797  10.312 -0.1010  0.0808  0.0390
  393TMC3     H 5876   2.586   1.572  10.380 -0.7212 -0.6321 -2.4457
  393TMC3    H1 5877   3.001   1.637  10.276  1.4643 -1.1771 -0.0717
  393TMC3    H2 5878   2.851   1.251  10.400 -0.7266 -0.7270 -1.3200
  393TMC3    C7 5879   3.073   1.370  10.294 -0.5313  0.0774  0.3039
  393TMC3    C8 5880   2.612   1.314  10.435 -0.8123 -0.1203  0.4034
  393TMC3    O1 5881   3.069   1.264  10.240  0.2921  0.8304 -0.4469
  393TMC3    O2 5882   2.645   1.196  10.448  0.1535  0.7623 -0.3154
  394TMC3    C1 5883   4.156   2.942  11.128 -0.9203  0.3960 -0.5419
  394TMC3    C2 5884   4.073   2.969  11.025  0.3318  0.1341  0.1968
  394TMC3    C3 5885   4.124   3.051  10.930  0.6186 -0.1980  0.2074
  394TMC3    C4 5886   4.286   2.989  11.134 -0.0628 -0.3225 -0.7305
  394TMC3    C5 5887   4.330   3.062  11.031 -0.8527 -0.0513  0.6362
  394TMC3    C6 5888   4.247   3.104  10.937  0.5085  0.2075  0.0159
  394TMC3     C 5889   4.094   2.903  11.251 -0.6887  0.0221 -0.4965
  394TMC3     O 5890   3.991   2.839  11.237 -0.0494 -0.9240  0.4115
  394TMC3     H 5891   3.972   2.931  11.015  0.5093  0.2513 -2.0322
  394TMC3    H1 5892   4.349   2.984  11.222 -0.7295  0.8531 -0.1793
  394TMC3    H2 5893   4.294   3.154  10.853 -2.0816  1.7824 -0.4912
  394TMC3    C7 5894   4.471   3.079  11.005 -0.3357 -0.5220  0.3030
  394TMC3    C8 5895   4.066   3.056  10.798  0.2899 -0.1678 -0.1072
  394TMC3    O1 5896   4.502   3.185  10.955  0.6171  0.4146  0.3052
  394TMC3    O2 5897   4.096   3.156  10.737 -0.3756  0.1989  0.3381
  395TMC3    C1 5898   3.705   4.246  14.860 -0.5444 -1.0983 -0.5712
  395TMC3    C2 5899   3.606   4.203  14.947  0.4903 -0.4116  0.2658
  395TMC3    C3 5900   3.567   4.302  15.035  0.8089  0.0489 -0.4397
  395TMC3    C4 5901   3.725   4.380  14.830  0.2184  0.3784  0.3642
  395TMC3    C5 5902   3.684   4.472  14.927 -0.3478 -0.9695  0.2646
  395TMC3    C6 5903   3.609   4.435  15.034  0.1652 -0.7952 -0.4131
  395TMC3     C 5904   3.752   4.150  14.756 -0.5662  0.7314  0.0821
  395TMC3     O 5905   3.674   4.059  14.744 -0.1462 -0.4489  0.0329
  395TMC3     H 5906   3.578   4.100  14.968  2.7486 -1.1648 -0.3724
  395TMC3    H1 5907   3.758   4.411  14.731  0.4721  0.2830  0.4197
  395TMC3    H2 5908   3.576   4.511  15.104  0.5796 -1.8542  0.9421
  395TMC3    C7 5909   3.759   4.593  14.942 -0.4798 -0.1125  0.1189
  395TMC3    C8 5910   3.439   4.278  15.107 -0.9021  0.4620 -0.1606
  395TMC3    O1 5911   3.735   4.663  15.040  0.5455 -0.0335  0.5199
  395TMC3    O2 5912   3.407   4.360  15.190 -0.6299  0.6521  0.0925
  396MPD2     C 5913   3.495   1.063  17.525  0.4469  0.2117 -0.7867
  396MPD2    C1 5914   3.554   1.071  17.402 -0.0433 -0.4990 -0.7094
  396MPD2    C2 5915   3.558   1.177  17.319  0.4955  0.3205  0.0591
  396MPD2    C3 5916   3.501   1.291  17.373  0.3173 -0.3010  0.0657
  396MPD2    C4 5917   3.431   1.292  17.487 -0.0444  0.4121  0.5229
  396MPD2    C5 5918   3.443   1.185  17.570 -0.2319 -0.0675 -0.7021
  396MPD2     H 5919   3.609   1.180  17.224 -0.6762 -0.4491 -0.5975
  396MPD2    H1 5920   3.377   1.374  17.534  0.6798  0.7072  0.8532
  396MPD2    H2 5921   3.485   0.974  17.585  0.8617 -0.5864 -1.9098
  396MPD2    H3 5922   3.391   1.189  17.666 -1.7431 -0.4124 -1.5025
  396MPD2     N 5923   3.529   1.407  17.303  0.9422 -0.3876  0.2205
  396MPD2    H5 5924   3.566   1.391  17.210  1.7522  1.6859  0.1959
  396MPD2    N1 5925   3.605   0.947  17.356  0.7074  0.4933 -0.4566
  396MPD2    H7 5926   3.593   0.863  17.411  1.5853  0.4939 -0.2669
  397TMC3    C1 5927   3.694   0.792  17.191 -0.0292 -0.9041  0.3246
  397TMC3    C2 5928   3.681   0.776  17.059 -0.3705  0.0773 -0.1775
  397TMC3    C3 5929   3.628   0.660  17.013 -0.0419  0.2659  0.2651
  397TMC3    C4 5930   3.652   0.694  17.280 -0.3896  0.4536 -0.0769
  397TMC3    C5 5931   3.609   0.576  17.232 -0.4869  0.3059 -0.2870
  397TMC3    C6 5932   3.597   0.561  17.097 -0.2429 -0.8120  0.3538
  397TMC3     C 5933   3.659   0.927  17.224 -0.6949 -0.3348  0.1309
  397TMC3     O 5934   3.673   0.998  17.129  0.0235  0.7033 -0.1464
  397TMC3     H 5935   3.719   0.853  16.993  0.1827 -0.7338 -0.8081
  397TMC3    H1 5936   3.697   0.698  17.378  0.5263  1.0450 -0.5211
  397TMC3    H2 5937   3.571   0.466  17.051 -0.1900 -1.1783  1.0843
  397TMC3    C7 5938   3.620   0.456  17.305 -0.1007 -0.4157 -0.2436
  397TMC3    C8 5939   3.578   0.649  16.884 -0.3783  0.9811 -0.4615
  397TMC3    O1 5940   3.646   0.352  17.250  0.3708 -0.8245 -0.2235
  397TMC3    O2 5941   3.549   0.539  16.836  0.7454  0.4549 -0.0300
  398MPD2     C 5942   1.205   1.680   0.378 -0.6567  0.6857 -0.0807
  398MPD2    C1 5943   1.303   1.640   0.469  0.5351  0.5334  0.7540
  398MPD2    C2 5944   1.401   1.726   0.503  0.3873 -0.7111 -0.4389
  398MPD2    C3 5945   1.406   1.853   0.456 -0.3393  0.5287 -0.2656
  398MPD2    C4 5946   1.314   1.894   0.360  0.0147  0.2362 -0.2089
  398MPD2    C5 5947   1.210   1.812   0.331  0.1550 -0.0475 -1.1471
  398MPD2     H 5948   1.479   1.691   0.570  1.8602  2.5442 -0.4586
  398MPD2    H1 5949   1.305   1.999   0.334 -0.2084  1.0101  3.0258
  398MPD2    H2 5950   1.119   1.618   0.358 -0.2204  1.4536 -4.3398
  398MPD2    H3 5951   1.122   1.855   0.285 -1.0350  0.4163  1.5673
  398MPD2     N 5952   1.502   1.942   0.517  0.9858  0.1157 -0.2273
  398MPD2    H5 5953   1.564   1.905   0.588  2.7983  1.5881 -1.0316
  398MPD2    N1 5954   1.290   1.509   0.515  0.1275  0.7382  1.3383
  398MPD2    H7 5955   1.203   1.464   0.488  1.5535 -0.5977 -1.0035
  399TMC3    C1 5956   1.309   1.319   0.640  0.1359 -0.0815  0.1385
  399TMC3    C2 5957   1.394   1.224   0.683  0.6506 -0.1193  0.4084
  399TMC3    C3 5958   1.348   1.101   0.697  0.3063  0.5236  0.0253
  399TMC3    C4 5959   1.176   1.293   0.630 -0.0218  0.8456  1.1189
  399TMC3    C5 5960   1.126   1.171   0.657  1.1118  0.1281 -0.6608
  399TMC3    C6 5961   1.211   1.073   0.698  0.1386 -0.7846 -0.3550
  399TMC3     C 5962   1.362   1.453   0.617 -0.2222 -0.2122 -0.3728
  399TMC3     O 5963   1.465   1.486   0.676  0.9202 -0.4536  0.1286
  399TMC3     H 5964   1.501   1.243   0.693  0.0722  2.7211  1.2576
  399TMC3    H1 5965   1.116   1.383   0.627  0.1109  0.9172  0.6160
  399TMC3    H2 5966   1.164   0.978   0.719  0.4643 -0.5424  1.3859
  399TMC3    C7 5967   0.981   1.147   0.657 -0.7734 -0.2469 -0.3432
  399TMC3    C8 5968   1.438   0.996   0.730 -0.6126 -0.6368  0.2588
  399TMC3    O1 5969   0.940   1.041   0.698 -0.2279 -0.2269 -0.5360
  399TMC3    O2 5970   1.540   1.025   0.790 -0.3800 -0.3235  0.0363
  400TMC3    C1 5971   0.109   0.794  16.901  0.5677  0.3644  0.9101
  400TMC3    C2 5972   0.017   0.757  16.806 -0.1472 -0.1884 -0.3739
  400TMC3    C3 5973   4.677   0.860  16.738 -1.3575 -0.9305  0.0828
  400TMC3    C4 5974   0.150   0.921  16.909  0.3954  0.3473 -0.2984
  400TMC3    C5 5975   0.094   1.021  16.836 -0.1613  0.0532 -0.3901
  400TMC3    C6 5976   4.706   0.994  16.755  0.4636  0.2597  0.2707
  400TMC3     C 5977   0.209   0.693  16.923  0.5717 -0.1135  0.8010
  400TMC3     O 5978   0.207   0.590  16.859 -0.3828  0.4814 -0.5177
  400TMC3     H 5979   4.706   0.655  16.791 -1.4584  0.2859 -0.5151
  400TMC3    H1 5980   0.237   0.933  16.973 -0.9127  1.7681  1.2151
  400TMC3    H2 5981   4.680   1.062  16.676 -1.7478 -0.4597  0.3922
  400TMC3    C7 5982   0.171   1.146  16.830 -0.4008 -0.8524 -0.1474
  400TMC3    C8 5983   4.570   0.841  16.640 -1.2094  0.2179  0.3939
  400TMC3    O1 5984   0.274   1.141  16.891 -0.0850 -0.4431  0.2431
  400TMC3    O2 5985   4.485   0.927  16.626  0.9603 -0.1632  0.0056
  401MPD2     C 5986   2.389   4.319   0.685 -0.2961 -0.1840  0.5567
  401MPD2    C1 5987   2.487   4.223   0.710  0.1512  0.2382 -0.9279
  401MPD2    C2 5988   2.470   4.091   0.688 -0.2988  0.3587 -0.1408
  401MPD2    C3 5989   2.361   4.041   0.621 -0.6983 -0.4606 -0.3169
  401MPD2    C4 5990   2.265   4.132   0.574  0.4964  0.6419  0.3249
  401MPD2    C5 5991   2.280   4.268   0.612  0.4382 -0.3003 -0.2365
  401MPD2     H 5992   2.552   4.024   0.710 -1.4723 -1.0283 -0.0082
  401MPD2    H1 5993   2.185   4.099   0.509 -0.1526 -1.4400  2.2190
  401MPD2    H2 5994   2.403   4.427   0.689  1.4147 -0.3648 -0.4192
  401MPD2    H3 5995   2.196   4.330   0.583  1.5717  0.6009 -1.6281
  401MPD2     N 5996   2.347   3.900   0.606 -0.3010  0.1196 -0.0078
  401MPD2    H5 5997   2.417   3.846   0.656  0.0109 -0.0964 -0.6785
  401MPD2    N1 5998   2.608   4.266   0.778 -0.4644 -0.2043 -0.0486
  401MPD2    H7 5999   2.681   4.196   0.778  1.8772  2.2631 -1.9133
  402TMC3    C1 6000   2.230   3.717   0.641 -0.0597  0.1925 -0.8013
  402TMC3    C2 6001   2.275   3.726   0.770  0.1346 -0.1870  0.5203
  402TMC3    C3 6002   2.338   3.624   0.831  0.2338 -0.1837 -0.0740
  402TMC3    C4 6003   2.245   3.603   0.571  0.2476 -0.1450  0.1127
  402TMC3    C5 6004   2.332   3.513   0.622  0.7982 -0.2238  0.1263
  402TMC3    C6 6005   2.372   3.518   0.754 -0.7398  0.4602 -0.1879
  402TMC3     C 6006   2.240   3.838   0.567 -0.0153  0.5011  0.2587
  402TMC3     O 6007   2.154   3.876   0.490 -0.0184 -0.7775  0.2009
  402TMC3     H 6008   2.233   3.807   0.827  2.2878  0.6954  0.8370
  402TMC3    H1 6009   2.223   3.596   0.465 -1.4317 -1.3772  0.5389
  402TMC3    H2 6010   2.433   3.439   0.796 -0.3116  0.5400 -0.6534
  402TMC3    C7 6011   2.352   3.389   0.542 -0.8145 -0.1699 -0.0058
  402TMC3    C8 6012   2.445   3.658   0.923 -0.4401 -0.5735 -0.6805
  402TMC3    O1 6013   2.254   3.347   0.485  0.3314  0.4092  0.3956
  402TMC3    O2 6014   2.544   3.582   0.936 -0.4104 -0.3737 -0.0806
  403MPD2     C 6015   1.902   2.572  13.201 -0.0401 -0.2697 -0.1501
  403MPD2    C1 6016   1.870   2.493  13.309  0.8470 -0.1131  0.3702
  403MPD2    C2 6017   1.892   2.547  13.436  0.0988 -0.3328  0.1755
  403MPD2    C3 6018   1.936   2.682  13.452 -0.2511 -0.0681  0.0726
  403MPD2    C4 6019   1.960   2.762  13.340  0.0825 -0.0773  0.5935
  403MPD2    C5 6020   1.946   2.704  13.214 -0.1137 -0.4678 -0.4767
  403MPD2     H 6021   1.882   2.480  13.521 -1.5401  1.9770  1.7745
  403MPD2    H1 6022   1.992   2.866  13.343  0.2692 -0.0573 -1.7735
  403MPD2    H2 6023   1.887   2.533  13.101  0.4262 -2.5107  0.6502
  403MPD2    H3 6024   1.963   2.771  13.131  0.1090  0.2714  0.1611
  403MPD2     N 6025   1.952   2.734  13.586  0.5109 -0.1567  0.1995
  403MPD2    H5 6026   1.928   2.676  13.665 -0.9883 -0.6189 -0.5756
  403MPD2    N1 6027   1.825   2.362  13.286 -0.3401 -0.0621 -0.2614
  403MPD2    H7 6028   1.824   2.341  13.186 -0.4977 -1.4848  0.0397
  404TMC3    C1 6029   1.767   2.141  13.304  0.3226 -0.2530  0.6019
  404TMC3    C2 6030   1.684   2.053  13.362 -0.4924  0.0714  0.4794
  404TMC3    C3 6031   1.635   1.945  13.293  0.4806  0.5313 -0.4211
  404TMC3    C4 6032   1.811   2.129  13.175 -0.1786 -0.1735 -0.6591
  404TMC3    C5 6033   1.751   2.025  13.101  0.3574 -0.2127  0.0838
  404TMC3    C6 6034   1.672   1.927  13.162 -0.5915 -0.3957 -1.1241
  404TMC3     C 6035   1.789   2.266  13.374  0.3043 -0.1801 -0.0787
  404TMC3     O 6036   1.767   2.272  13.496 -0.2985  0.2667 -0.3893
  404TMC3     H 6037   1.666   2.070  13.468  1.4361 -2.7045  1.2457
  404TMC3    H1 6038   1.874   2.202  13.126 -0.7688  0.3807 -0.5957
  404TMC3    H2 6039   1.644   1.835  13.112 -0.4533 -0.6651 -0.7049
  404TMC3    C7 6040   1.757   2.028  12.955  0.2714 -1.0479 -0.1822
  404TMC3    C8 6041   1.587   1.833  13.370 -0.7294  0.0129  0.8433
  404TMC3    O1 6042   1.846   2.102  12.911  0.1181 -0.0106 -0.7331
  404TMC3    O2 6043   1.592   1.719  13.332  0.3054 -0.5581  0.6931
  405MPD2     C 6044   2.368   2.804  14.832  0.1815  0.3830 -0.3072
  405MPD2    C1 6045   2.290   2.706  14.766  0.2630  0.4730 -0.1132
  405MPD2    C2 6046   2.234   2.734  14.642  0.0557 -0.1861 -0.1347
  405MPD2    C3 6047   2.246   2.861  14.585  0.5901 -0.4261 -0.0071
  405MPD2    C4 6048   2.325   2.953  14.647 -0.6099  0.0584 -0.1096
  405MPD2    C5 6049   2.387   2.925  14.765  0.8718 -0.4706 -0.5039
  405MPD2     H 6050   2.163   2.663  14.601  1.5721 -2.2830  0.8887
  405MPD2    H1 6051   2.334   3.053  14.606 -2.0379  0.6601  1.0228
  405MPD2    H2 6052   2.425   2.783  14.922 -1.8374 -1.7635  0.4828
  405MPD2    H3 6053   2.451   2.993  14.821  0.8145 -1.7228  1.0751
  405MPD2     N 6054   2.172   2.883  14.468  0.4926  0.1555 -0.5949
  405MPD2    H5 6055   2.115   2.810  14.427  1.5641 -0.6457 -0.6457
  405MPD2    N1 6056   2.260   2.575  14.819  0.0188  0.2817  0.5022
  405MPD2    H7 6057   2.202   2.515  14.761 -0.5334  0.5903  0.7357
  406TMC3    C1 6058   1.835   3.059  14.233 -0.1934 -0.2501 -0.3137
  406TMC3    C2 6059   1.800   2.940  14.179  0.3024  0.0667 -0.6726
  406TMC3    C3 6060   1.890   2.839  14.188  0.0602 -0.3308  1.1052
  406TMC3    C4 6061   1.958   3.081  14.285  0.0268 -0.3128  0.5396
  406TMC3    C5 6062   2.055   2.978  14.287 -0.3816  0.0133 -0.4919
  406TMC3    C6 6063   2.019   2.856  14.230  0.2942  0.4731  0.9204
  406TMC3     C 6064   1.731   3.153  14.266 -0.4944  0.1827 -1.1243
  406TMC3     O 6065   1.754   3.275  14.267 -0.5052 -0.0193 -0.3787
  406TMC3     H 6066   1.699   2.925  14.143  0.0734  1.9057 -0.8106
  406TMC3    H1 6067   1.977   3.175  14.335  2.4552 -0.8666  0.6665
  406TMC3    H2 6068   2.086   2.772  14.240 -0.0225  0.4634  2.9657
  406TMC3    C7 6069   2.160   2.994  14.387  0.0576 -1.1101 -0.4870
  406TMC3    C8 6070   1.839   2.705  14.178  0.0140  0.9039  0.4386
  406TMC3    O1 6071   2.206   3.105  14.400  0.2806 -0.4465  0.9512
  406TMC3    O2 6072   1.747   2.686  14.099  0.5710  0.1680 -0.0131
  407MPD2     C 6073   4.479   4.316  10.090  0.3317 -0.1678  0.3910
  407MPD2    C1 6074   4.410   4.433  10.042  0.1258  0.3237 -0.0875
  407MPD2    C2 6075   4.435   4.553  10.106  0.5517  0.5638  0.1531
  407MPD2    C3 6076   4.531   4.553  10.212 -0.0931  0.3497  0.0912
  407MPD2    C4 6077   4.599   4.443  10.255 -0.8299 -0.4759  0.7145
  407MPD2    C5 6078   4.567   4.326  10.196 -0.2063  0.0130  0.5064
  407MPD2     H 6079   4.381   4.642  10.076 -0.8631 -0.8923 -1.6488
  407MPD2    H1 6080   4.683   4.448  10.324  0.3525 -0.1910 -0.7431
  407MPD2    H2 6081   4.463   4.225  10.033  1.1144  1.3125 -2.1694
  407MPD2    H3 6082   4.629   4.240  10.218  0.1103  0.2362  0.4862
  407MPD2     N 6083   4.552   4.671  10.291  0.2439 -0.0714  0.3887
  407MPD2    H5 6084   4.622   4.663  10.365 -0.8805 -1.1019  1.3447
  407MPD2    N1 6085   4.330   4.427   9.927  0.0109 -0.0238 -0.4946
  407MPD2    H7 6086   4.318   4.522   9.892  0.2918  0.2503  0.1617
  408TMC3    C1 6087   4.254   4.353   9.719 -0.0143 -0.6838 -0.1228
  408TMC3    C2 6088   4.309   4.259   9.633 -0.0280  0.1968 -0.4116
  408TMC3    C3 6089   4.286   4.285   9.502  0.4911  0.2494  0.2469
  408TMC3    C4 6090   4.195   4.469   9.680 -0.3527  0.6300  0.4251
  408TMC3    C5 6091   4.178   4.485   9.545 -0.4824  0.7559 -0.2396
  408TMC3    C6 6092   4.231   4.402   9.453 -0.5170  1.0640 -0.5961
  408TMC3     C 6093   4.285   4.326   9.858 -0.8229 -0.7167 -0.4613
  408TMC3     O 6094   4.287   4.207   9.892 -0.0538  0.1270  0.1060
  408TMC3     H 6095   4.347   4.166   9.673  0.6742  1.2479  1.4022
  408TMC3    H1 6096   4.146   4.540   9.746  1.4236  0.6106  1.7475
  408TMC3    H2 6097   4.222   4.422   9.347 -3.7003 -0.9181 -0.6945
  408TMC3    C7 6098   4.157   4.617   9.479  0.3643  0.6209 -0.3430
  408TMC3    C8 6099   4.386   4.228   9.415  0.2573  0.2152 -0.5867
  408TMC3    O1 6100   4.136   4.621   9.355  0.1786 -0.3010 -0.0248
  408TMC3    O2 6101   4.383   4.108   9.396 -0.8017  0.1618 -0.1789
  409MPD2     C 6102   3.816   0.558  16.638  0.2183  0.6124  0.1813
  409MPD2    C1 6103   3.931   0.580  16.708 -0.0286 -0.3673 -0.7805
  409MPD2    C2 6104   3.998   0.699  16.695 -0.5625  0.2880 -0.5367
  409MPD2    C3 6105   3.957   0.795  16.607 -0.0649  0.1149  0.2882
  409MPD2    C4 6106   3.852   0.766  16.519 -0.2708 -0.2817  0.1728
  409MPD2    C5 6107   3.786   0.646  16.536  0.0199  0.4834  0.4761
  409MPD2     H 6108   4.075   0.713  16.770  0.0748  0.6052 -1.2455
  409MPD2    H1 6109   3.821   0.824  16.433 -0.9807  0.5573  0.9984
  409MPD2    H2 6110   3.749   0.479  16.670  1.8371 -1.2531 -1.0827
  409MPD2    H3 6111   3.691   0.633  16.485 -0.3605 -2.6644  2.0214
  409MPD2     N 6112   4.022   0.917  16.597  0.1782 -0.0151  0.2406
  409MPD2    H5 6113   3.995   0.975  16.518 -0.6107  0.8200  1.1212
  409MPD2    N1 6114   3.969   0.507  16.820  0.1186  0.2855  0.3469
  409MPD2    H7 6115   4.052   0.546  16.864  0.3314 -0.2407  0.4081
  410TMC3    C1 6116   4.188   1.082  16.630 -0.2417  0.1480  0.0911
  410TMC3    C2 6117   4.252   1.149  16.729 -0.1782 -0.3681  0.1079
  410TMC3    C3 6118   4.363   1.218  16.691 -0.0096 -0.5953 -0.2743
  410TMC3    C4 6119   4.230   1.103  16.494 -0.2116  0.3047  0.1035
  410TMC3    C5 6120   4.336   1.184  16.468  0.1020 -0.5317 -0.5021
  410TMC3    C6 6121   4.408   1.244  16.564 -0.2840  0.2812 -0.1486
  410TMC3     C 6122   4.128   0.956  16.677  0.3213 -0.4884 -0.3750
  410TMC3     O 6123   4.158   0.923  16.794 -0.1386 -0.0997  0.0201
  410TMC3     H 6124   4.215   1.142  16.831  0.9806  1.5738  0.6467
  410TMC3    H1 6125   4.193   1.040  16.414  0.7263  0.7667 -0.6934
  410TMC3    H2 6126   4.496   1.303  16.540 -0.4836  1.2551  1.5117
  410TMC3    C7 6127   4.354   1.240  16.338 -0.5823  0.1168  0.1916
  410TMC3    C8 6128   4.461   1.225  16.793 -0.4548  0.6299  0.1803
  410TMC3    O1 6129   4.466   1.280  16.308 -0.0235  0.0489 -0.9082
  410TMC3    O2 6130   4.547   1.311  16.788  0.0925 -0.0658  0.0972
  411MPD2     C 6131   4.290   0.897  14.591 -0.7027  0.1753 -0.2912
  411MPD2    C1 6132   4.158   0.932  14.616  0.3806  1.0559  0.6833
  411MPD2    C2 6133   4.067   0.830  14.652  0.2700  0.2758  0.3657
  411MPD2    C3 6134   4.113   0.696  14.649  0.4537  0.3047 -0.3241
  411MPD2    C4 6135   4.241   0.666  14.610  0.0611 -0.0204 -0.0202
  411MPD2    C5 6136   4.330   0.770  14.584 -0.1550 -0.3534  0.3529
  411MPD2     H 6137   3.970   0.867  14.683  1.1441  2.1343  0.8814
  411MPD2    H1 6138   4.290   0.573  14.634 -0.3027 -0.7103 -1.9353
  411MPD2    H2 6139   4.363   0.971  14.562 -1.3886  1.0405  0.2054
  411MPD2    H3 6140   4.433   0.753  14.558 -1.4010 -2.1251 -3.4225
  411MPD2     N 6141   4.027   0.581  14.677 -0.0354  0.4095 -0.8005
  411MPD2    H5 6142   4.060   0.486  14.659  1.2797  0.8800 -0.8590
  411MPD2    N1 6143   4.128   1.070  14.610 -0.7771 -0.5341 -0.1843
  411MPD2    H7 6144   4.196   1.140  14.583 -1.6914  0.9351  1.2734
  412TMC3    C1 6145   3.821   0.468  14.756  0.0568 -0.8206 -0.4387
  412TMC3    C2 6146   3.713   0.475  14.844 -0.1597 -0.2520  0.4385
  412TMC3    C3 6147   3.657   0.352  14.875 -0.1025 -0.8614 -0.3193
  412TMC3    C4 6148   3.865   0.352  14.702 -0.2752  0.3292  0.1380
  412TMC3    C5 6149   3.790   0.241  14.717  0.0487 -0.6642 -0.7822
  412TMC3    C6 6150   3.690   0.234  14.813 -0.3669  0.0303  0.1892
  412TMC3     C 6151   3.899   0.593  14.737 -0.8206  0.6632  0.5425
  412TMC3     O 6152   3.839   0.692  14.774 -0.1579  0.1698  0.1758
  412TMC3     H 6153   3.687   0.561  14.906  3.0449  1.1999 -0.2277
  412TMC3    H1 6154   3.949   0.346  14.633 -0.1755 -0.1624  0.3021
  412TMC3    H2 6155   3.647   0.135  14.829 -1.5054  0.2943 -1.2234
  412TMC3    C7 6156   3.758   0.157  14.599 -0.0374  0.3890 -0.0606
  412TMC3    C8 6157   3.517   0.356  14.907  0.2337 -0.0885 -0.2365
  412TMC3    O1 6158   3.679   0.064  14.616 -0.4555  0.1349 -0.1360
  412TMC3    O2 6159   3.439   0.434  14.854  0.3963  0.2111  0.0513
  413MPD2     C 6160   0.918   3.535  15.579  0.3033  0.0104  0.0510
  413MPD2    C1 6161   0.884   3.552  15.449  0.5182  0.4080 -0.0906
  413MPD2    C2 6162   0.992   3.547  15.359 -0.2104 -0.5399 -0.0154
  413MPD2    C3 6163   1.122   3.506  15.394 -0.3419  0.2478  0.1523
  413MPD2    C4 6164   1.145   3.486  15.525  0.2344  0.2761 -0.2192
  413MPD2    C5 6165   1.044   3.504  15.619 -0.1841  0.3030 -0.5214
  413MPD2     H 6166   0.978   3.567  15.253  1.5890  1.1608  0.0746
  413MPD2    H1 6167   1.246   3.460  15.555  0.0810  1.3385  1.2517
  413MPD2    H2 6168   0.843   3.534  15.657  1.1553  0.6662  0.8822
  413MPD2    H3 6169   1.056   3.480  15.724 -1.1862 -0.6496 -0.6216
  413MPD2     N 6170   1.231   3.500  15.304  0.0734 -0.2741 -0.3729
  413MPD2    H5 6171   1.322   3.480  15.345  1.0579 -0.4853 -2.5992
  413MPD2    N1 6172   0.756   3.604  15.412 -0.3661  0.3005  0.1320
  413MPD2    H7 6173   0.689   3.604  15.489 -1.6324  0.4893 -0.9717
  414TMC3    C1 6174   1.342   3.462  15.104  0.4249 -0.3804  0.4394
  414TMC3    C2 6175   1.405   3.360  15.173 -0.0970 -0.5017  0.2911
  414TMC3    C3 6176   1.491   3.285  15.102 -0.1076  0.2665 -0.1301
  414TMC3    C4 6177   1.354   3.478  14.968  0.2834 -0.4680  0.1011
  414TMC3    C5 6178   1.431   3.386  14.896  0.2179  0.3662 -0.4705
  414TMC3    C6 6179   1.500   3.286  14.966 -0.5554  0.8784 -0.3036
  414TMC3     C 6180   1.231   3.524  15.168  0.4138  0.0136 -0.0594
  414TMC3     O 6181   1.141   3.548  15.087 -0.4727  0.1768 -0.6711
  414TMC3     H 6182   1.379   3.326  15.273  2.8818 -0.0303  1.2074
  414TMC3    H1 6183   1.296   3.553  14.917  0.7869  0.1559  0.4527
  414TMC3    H2 6184   1.567   3.221  14.910 -2.5988  0.3616 -2.1238
  414TMC3    C7 6185   1.500   3.454  14.787 -0.1423  1.0119  0.2181
  414TMC3    C8 6186   1.588   3.207  15.177 -0.3686 -0.0533  0.3704
  414TMC3    O1 6187   1.487   3.576  14.794 -0.0929 -0.0399  0.0710
  414TMC3    O2 6188   1.636   3.116  15.111 -0.2302 -0.3327 -0.1706
  415TMC3    C1 6189   2.633   1.558   9.515 -1.1641  0.8074 -0.2266
  415TMC3    C2 6190   2.770   1.562   9.545  0.2214  0.7808 -0.4737
  415TMC3    C3 6191   2.847   1.451   9.514 -0.2057 -0.5891  0.7790
  415TMC3    C4 6192   2.571   1.443   9.484 -0.4785  0.0869 -0.4642
  415TMC3    C5 6193   2.650   1.328   9.464 -0.5437  0.1169  0.4072
  415TMC3    C6 6194   2.792   1.328   9.477 -0.1781  0.8466  0.4110
  415TMC3     C 6195   2.552   1.675   9.558  0.3298 -1.1934  0.9024
  415TMC3     O 6196   2.436   1.657   9.589  0.3839 -0.1209 -0.2091
  415TMC3     H 6197   2.815   1.660   9.556  1.1943  0.1880  0.8253
  415TMC3    H1 6198   2.463   1.447   9.482 -0.4528  1.3708  0.9367
  415TMC3    H2 6199   2.847   1.235   9.484  2.6329  2.5293  0.6229
  415TMC3    C7 6200   2.594   1.202   9.423 -0.6421 -1.3779 -0.3726
  415TMC3    C8 6201   2.992   1.444   9.511  0.2568 -0.2425 -0.3851
  415TMC3    O1 6202   2.663   1.113   9.370 -0.0923 -0.4019  0.0876
  415TMC3    O2 6203   3.040   1.347   9.460 -0.0197  0.0250  0.4463
  416MPD2     C 6204   2.735   0.434  12.470 -0.5462  0.5014  0.0984
  416MPD2    C1 6205   2.857   0.460  12.415 -0.2277  0.0129  0.1877
  416MPD2    C2 6206   2.936   0.349  12.390 -0.7024  0.0662 -0.3422
  416MPD2    C3 6207   2.885   0.221  12.408  0.0245 -0.0259  0.1941
  416MPD2    C4 6208   2.759   0.200  12.449  0.1523 -0.7518 -1.0234
  416MPD2    C5 6209   2.683   0.312  12.476 -0.2263 -0.1130 -0.3709
  416MPD2     H 6210   3.042   0.358  12.366 -0.8181  2.0495 -0.1207
  416MPD2    H1 6211   2.721   0.104  12.484  1.5551 -0.6747  0.7118
  416MPD2    H2 6212   2.667   0.516  12.494 -0.5675  1.1571 -2.2412
  416MPD2    H3 6213   2.580   0.305  12.509  0.0629 -2.5674  0.0155
  416MPD2     N 6214   2.975   0.108  12.378 -0.4658  0.2169  0.1494
  416MPD2    H5 6215   3.072   0.131  12.361 -0.5289 -0.0551 -0.5782
  416MPD2    N1 6216   2.889   0.597  12.387  0.8984 -0.6035 -0.2117
  416MPD2    H7 6217   2.817   0.665  12.406 -0.0043 -1.4195 -0.7237
  417TMC3    C1 6218   2.969   0.777  12.257 -0.1981 -0.0885 -0.5199
  417TMC3    C2 6219   2.917   0.868  12.339  0.4164 -0.9362 -0.3878
  417TMC3    C3 6220   2.918   1.003  12.300  0.5406 -0.7115 -0.4284
  417TMC3    C4 6221   3.034   0.804  12.145 -0.0238 -0.3042 -0.5760
  417TMC3    C5 6222   3.044   0.941  12.111 -0.2029  0.1498  0.6302
  417TMC3    C6 6223   2.986   1.042  12.187  0.0780  0.7233 -0.5095
  417TMC3     C 6224   2.992   0.643  12.308  0.2329 -0.1558 -0.1970
  417TMC3     O 6225   3.092   0.584  12.273 -0.2029  0.4734  0.5116
  417TMC3     H 6226   2.877   0.833  12.434 -2.4935 -0.7418 -1.5322
  417TMC3    H1 6227   3.099   0.733  12.095  0.5474 -0.6037  0.5853
  417TMC3    H2 6228   3.006   1.146  12.164 -0.4233  0.9041 -0.1241
  417TMC3    C7 6229   3.077   0.977  11.971  0.1083  0.4542 -0.3823
  417TMC3    C8 6230   2.925   1.100  12.407  0.1778  0.0215 -0.4713
  417TMC3    O1 6231   3.104   1.096  11.949  0.7695 -0.1040 -0.6557
  417TMC3    O2 6232   2.973   1.056  12.513 -0.3127 -0.4219  0.5286
  418TMC3    C1 6233   1.839   2.188   0.564 -0.4721  0.5211  0.2464
  418TMC3    C2 6234   1.727   2.187   0.486 -0.4072  0.5999  0.4195
  418TMC3    C3 6235   1.621   2.136   0.558  0.1206  0.0254 -0.1484
  418TMC3    C4 6236   1.849   2.147   0.695  0.4127 -0.0020  0.1359
  418TMC3    C5 6237   1.735   2.100   0.752 -0.4821  0.1017  0.2983
  418TMC3    C6 6238   1.615   2.099   0.690 -0.9792  0.3790 -0.3634
  418TMC3     C 6239   1.963   2.203   0.494  0.3137  0.0276 -0.5696
  418TMC3     O 6240   1.955   2.268   0.391 -0.2131  0.9105 -0.6867
  418TMC3     H 6241   1.722   2.194   0.378  0.2063 -2.4870  0.2066
  418TMC3    H1 6242   1.938   2.186   0.743  0.6359 -1.9172  1.2579
  418TMC3    H2 6243   1.520   2.064   0.728 -1.2253  0.7408 -0.6515
  418TMC3    C7 6244   1.739   2.018   0.870  0.1294 -0.4597 -0.4656
  418TMC3    C8 6245   1.528   2.069   0.468  0.0588 -0.5809 -0.2229
  418TMC3    O1 6246   1.629   1.987   0.915 -0.5347 -0.1715 -0.4842
  418TMC3    O2 6247   1.491   2.123   0.363 -0.2473  0.2582 -0.4155
  419MPD2     C 6248   1.539   0.621  12.156 -1.0181  0.1184 -0.5288
  419MPD2    C1 6249   1.400   0.639  12.152  0.0719 -0.4160  0.1062
  419MPD2    C2 6250   1.329   0.594  12.268  0.2476  0.4386  0.1590
  419MPD2    C3 6251   1.384   0.540  12.379  0.0553  0.2408 -0.1017
  419MPD2    C4 6252   1.520   0.518  12.376 -0.2258  0.3999 -0.0484
  419MPD2    C5 6253   1.593   0.558  12.268  0.1204  0.0185  0.5550
  419MPD2     H 6254   1.221   0.601  12.276  0.3371  0.3404  1.4298
  419MPD2    H1 6255   1.579   0.490  12.462  0.2703  0.3814 -0.3911
  419MPD2    H2 6256   1.605   0.663  12.081  1.0775  2.1350  2.3981
  419MPD2    H3 6257   1.701   0.549  12.270  0.1612  0.2402 -0.3359
  419MPD2     N 6258   1.295   0.506  12.486 -0.0300 -0.8333  0.3350
  419MPD2    H5 6259   1.198   0.529  12.467  1.0325  1.9302 -1.7058
  419MPD2    N1 6260   1.323   0.713  12.055  0.0368  0.1858 -0.6023
  419MPD2    H7 6261   1.222   0.717  12.058 -0.0566 -2.8602 -0.3309
  420TMC3    C1 6262   1.220   0.392  12.675  0.2801 -0.6735  0.2137
  420TMC3    C2 6263   1.113   0.356  12.598  0.5768  0.4254 -0.5319
  420TMC3    C3 6264   0.992   0.357  12.669  0.1651 -0.4277 -0.4317
  420TMC3    C4 6265   1.221   0.406  12.810  0.4991 -0.1224  0.5724
  420TMC3    C5 6266   1.103   0.388  12.870  0.4293  0.5206  0.0240
  420TMC3    C6 6267   0.981   0.378  12.807  0.4553  0.8035  0.2601
  420TMC3     C 6268   1.327   0.455  12.607  1.0634  0.3662 -0.3676
  420TMC3     O 6269   1.435   0.456  12.663 -0.3837 -0.2451  0.2556
  420TMC3     H 6270   1.113   0.316  12.497  1.0742  0.4347 -0.5355
  420TMC3    H1 6271   1.310   0.450  12.853  2.3387 -2.7172 -0.5166
  420TMC3    H2 6272   0.894   0.351  12.865 -0.8598  0.4045 -1.8965
  420TMC3    C7 6273   1.100   0.423  13.012  1.8745 -0.6104 -0.1961
  420TMC3    C8 6274   0.879   0.352  12.584 -0.2125  0.2119 -0.3297
  420TMC3    O1 6275   0.994   0.456  13.065  0.4166 -0.2748 -0.3114
  420TMC3    O2 6276   0.899   0.320  12.466  0.1545 -0.4446 -0.7665
  421TMC3    C1 6277   2.064   2.860  13.750 -0.0448 -0.0745 -0.3588
  421TMC3    C2 6278   2.114   2.977  13.793  0.5899 -0.3198 -0.4913
  421TMC3    C3 6279   2.197   2.983  13.895 -0.6470  0.2229 -0.3691
  421TMC3    C4 6280   2.117   2.745  13.800  0.2924  0.1948  0.0845
  421TMC3    C5 6281   2.218   2.750  13.891  0.2542  0.3570  0.0939
  421TMC3    C6 6282   2.261   2.868  13.941 -0.2720 -0.4286 -0.5323
  421TMC3     C 6283   2.006   2.856  13.618 -0.1574  0.2589 -1.0143
  421TMC3     O 6284   2.032   2.953  13.554  0.4509  0.3714  0.7915
  421TMC3     H 6285   2.076   3.066  13.745 -0.2282 -1.0627 -1.2262
  421TMC3    H1 6286   2.104   2.651  13.747 -0.5974 -0.2152  1.0372
  421TMC3    H2 6287   2.337   2.865  14.018 -1.5180  0.6034  0.7510
  421TMC3    C7 6288   2.241   2.628  13.974  0.2846  0.9056 -0.2546
  421TMC3    C8 6289   2.270   3.104  13.933 -0.2210 -0.1205  0.0790
  421TMC3    O1 6290   2.331   2.631  14.056  0.2907  0.0113  0.2854
  421TMC3    O2 6291   2.391   3.105  13.938  0.4060  0.2721 -0.0351
  422TMC3    C1 6292   4.481   3.737  12.577 -0.3385 -0.5934  0.4293
  422TMC3    C2 6293   4.449   3.859  12.619 -0.3526  0.2120  0.3201
  422TMC3    C3 6294   4.349   3.863  12.713 -0.0598  1.0137  0.5931
  422TMC3    C4 6295   4.443   3.630  12.661  0.4501 -0.6691  0.8673
  422TMC3    C5 6296   4.361   3.636  12.763 -0.0352 -0.1549  0.6270
  422TMC3    C6 6297   4.305   3.758  12.783 -0.6949 -0.4371  0.8817
  422TMC3     C 6298   4.563   3.740  12.458 -0.0171 -0.2037 -0.0815
  422TMC3     O 6299   4.540   3.831  12.377 -0.0035 -0.0066  0.2580
  422TMC3     H 6300   4.479   3.940  12.553 -1.9453  1.2033  0.8217
  422TMC3    H1 6301   4.474   3.530  12.631 -1.4184 -1.1435  0.4682
  422TMC3    H2 6302   4.226   3.773  12.856 -1.4229 -2.1225  0.4354
  422TMC3    C7 6303   4.324   3.520  12.846 -0.0613 -0.1919  0.0036
  422TMC3    C8 6304   4.338   3.999  12.765  0.1271 -0.1929 -0.5122
  422TMC3    O1 6305   4.414   3.436  12.852  0.9435  0.0877 -0.1151
  422TMC3    O2 6306   4.332   4.008  12.887  0.0083  1.0101 -0.0955
  423MPD2     C 6307   1.042   0.068   0.686  0.6697 -0.2543 -0.3032
  423MPD2    C1 6308   0.967   4.670   0.702  0.0635 -0.2899 -0.0252
  423MPD2    C2 6309   0.996   4.565   0.615  0.7804  0.3996 -1.0651
  423MPD2    C3 6310   1.086   4.580   0.513  0.2538 -0.0332 -0.7307
  423MPD2    C4 6311   1.162   4.695   0.498  0.1043 -0.9576 -0.7616
  423MPD2    C5 6312   1.142   0.079   0.592 -0.4492 -0.5771  0.0603
  423MPD2     H 6313   0.942   4.473   0.631  0.2448  0.8092 -0.5090
  423MPD2    H1 6314   1.243   4.705   0.427  0.4260  0.7813 -0.1748
  423MPD2    H2 6315   1.041   0.149   0.757 -1.5582 -0.3393 -0.2404
  423MPD2    H3 6316   1.216   0.158   0.594  0.4936 -1.4710  0.4408
  423MPD2     N 6317   1.113   4.474   0.421  0.2011 -0.3218  0.4865
  423MPD2    H5 6318   1.167   4.500   0.340  0.9414 -0.7332  0.8522
  423MPD2    N1 6319   0.856   4.651   0.785 -0.5849  0.0850 -0.1860
  423MPD2    H7 6320   0.811   4.560   0.787 -2.1636  0.8833  0.1773
  424TMC3    C1 6321   0.677   4.699   0.936  0.6457 -0.1388  0.2257
  424TMC3    C2 6322   0.687   4.568   0.976 -0.5234 -0.1375 -0.2203
  424TMC3    C3 6323   0.585   4.514   1.037  0.3122 -0.0649  0.1222
  424TMC3    C4 6324   0.561   0.040   0.929 -0.5881  0.6090 -0.6339
  424TMC3    C5 6325   0.457   4.701   0.996  0.5340  0.4535 -0.4909
  424TMC3    C6 6326   0.467   4.575   1.057  1.1381  0.4167  0.3402
  424TMC3     C 6327   0.792   0.028   0.858  0.3098 -0.6528  0.0148
  424TMC3     O 6328   0.785   0.149   0.838  0.3341 -0.4923  0.2976
  424TMC3     H 6329   0.791   4.536   0.985 -0.5953  0.3859  2.4638
  424TMC3    H1 6330   0.546   0.132   0.873 -2.9331 -1.2437 -2.9757
  424TMC3    H2 6331   0.380   4.523   1.095  1.0187  1.2751  1.2336
  424TMC3    C7 6332   0.333   4.712   0.924  0.0029  0.3136  0.1078
  424TMC3    C8 6333   0.623   4.396   1.117 -0.3527  0.4713  0.8223
  424TMC3    O1 6334   0.341   0.011   0.804  0.3691  0.5148 -0.4688
  424TMC3    O2 6335   0.730   4.341   1.086  0.0481  0.2915  0.4421
  425MPD2     C 6336   4.322   4.048  17.479 -0.7803  0.2905 -0.4006
  425MPD2    C1 6337   4.285   3.928  17.430  0.7993 -0.1098 -0.4441
  425MPD2    C2 6338   4.157   3.888  17.435  0.7312 -0.5154  1.1521
  425MPD2    C3 6339   4.060   3.971  17.494  0.2827  0.1776  0.4554
  425MPD2    C4 6340   4.101   4.086  17.559  0.1999 -0.4362 -0.1943
  425MPD2    C5 6341   4.235   4.123  17.550  0.0737  1.2869  0.0907
  425MPD2     H 6342   4.135   3.792  17.390 -0.0321 -0.3774  1.2403
  425MPD2    H1 6343   4.030   4.150  17.609  0.7431 -0.5453  0.7170
  425MPD2    H2 6344   4.425   4.082  17.477 -0.6191 -0.0315  2.5743
  425MPD2    H3 6345   4.259   4.215  17.603  1.6873  1.2965 -0.6575
  425MPD2     N 6346   3.936   3.911  17.523  0.3984  0.6167  0.2827
  425MPD2    H5 6347   3.922   3.815  17.495  0.0321  0.5119  0.8079
  425MPD2    N1 6348   4.388   3.844  17.376 -0.3340  0.1908 -0.5910
  425MPD2    H7 6349   4.484   3.864  17.402 -0.0247 -1.0262 -0.7915
  426TMC3    C1 6350   4.472   3.627  17.336 -0.4700 -0.0512  0.0349
  426TMC3    C2 6351   4.471   3.511  17.264 -0.0055 -0.6370 -0.3961
  426TMC3    C3 6352   4.557   3.407  17.290 -0.5488  0.5241 -0.6569
  426TMC3    C4 6353   4.577   3.644  17.432  0.2685  0.0933 -0.4636
  426TMC3    C5 6354   4.665   3.539  17.455  0.2028 -0.1916 -0.5467
  426TMC3    C6 6355   4.650   3.422  17.391  0.0989 -0.9729  0.4411
  426TMC3     C 6356   4.371   3.722  17.319 -0.5790 -0.1888 -0.2409
  426TMC3     O 6357   4.277   3.689  17.251 -0.7847  0.9387  0.0129
  426TMC3     H 6358   4.406   3.508  17.178 -0.1238 -2.1060 -0.2535
  426TMC3    H1 6359   4.592   3.725  17.503 -2.0445 -2.6816  3.1675
  426TMC3    H2 6360   4.714   3.338  17.416 -0.5841 -1.5879  0.1211
  426TMC3    C7 6361   0.032   3.530  17.564 -0.1669 -0.6736  0.4888
  426TMC3    C8 6362   4.553   3.298  17.192  0.0848  0.2472 -0.1585
  426TMC3    O1 6363   0.140   3.472  17.546 -0.3296  0.3702  0.1818
  426TMC3    O2 6364   4.662   3.253  17.157 -0.0439 -0.3268  0.0204
  427MPD2     C 6365   3.353   1.351  15.451 -0.1591 -0.3518  0.4493
  427MPD2    C1 6366   3.317   1.216  15.426 -0.0676  0.5859 -0.2590
  427MPD2    C2 6367   3.184   1.188  15.407 -0.0623 -0.1949  0.7388
  427MPD2    C3 6368   3.085   1.285  15.426  0.6002 -1.1440 -0.1263
  427MPD2    C4 6369   3.122   1.416  15.453 -0.2448  1.1089  0.2213
  427MPD2    C5 6370   3.256   1.444  15.457  0.4566  0.7060 -0.1687
  427MPD2     H 6371   3.151   1.087  15.387 -0.4726 -0.1692  1.2941
  427MPD2    H1 6372   3.055   1.501  15.449 -0.2980  1.0941  0.9006
  427MPD2    H2 6373   3.455   1.389  15.455  0.3258 -1.5640 -0.0773
  427MPD2    H3 6374   3.287   1.546  15.474 -1.0988  0.9132  1.4875
  427MPD2     N 6375   2.946   1.261  15.404  0.0986  0.0244  0.2491
  427MPD2    H5 6376   2.888   1.341  15.382 -0.6279 -0.1505  1.4964
  427MPD2    N1 6377   3.422   1.127  15.420  0.1022  0.3296 -0.1448
  427MPD2    H7 6378   3.517   1.159  15.438 -0.7682  2.1440  1.3041
  428TMC3    C1 6379   3.542   0.921  15.388  0.1217  0.7165 -0.5032
  428TMC3    C2 6380   3.531   0.792  15.347  0.8770 -0.8747  0.6843
  428TMC3    C3 6381   3.632   0.744  15.272  0.9904 -1.0781 -0.3588
  428TMC3    C4 6382   3.660   0.987  15.368 -0.4807  0.4121  0.1954
  428TMC3    C5 6383   3.763   0.936  15.294  0.2064 -0.3772 -0.2600
  428TMC3    C6 6384   3.753   0.807  15.253 -0.3236  0.2940  0.6968
  428TMC3     C 6385   3.415   0.993  15.383 -0.1950 -0.5777  0.3896
  428TMC3     O 6386   3.327   0.922  15.349 -0.1973 -0.3573 -0.0764
  428TMC3     H 6387   3.441   0.735  15.364  0.2633  0.2084  1.0631
  428TMC3    H1 6388   3.671   1.088  15.404  0.5755  0.9348 -1.5824
  428TMC3    H2 6389   3.840   0.761  15.208 -0.7070  0.5462 -0.3051
  428TMC3    C7 6390   3.891   0.982  15.329 -0.4105 -1.0131  0.6821
  428TMC3    C8 6391   3.658   0.595  15.261 -0.5516  0.1243  0.0103
  428TMC3    O1 6392   3.896   1.026  15.445 -0.4883 -0.2491 -0.1124
  428TMC3    O2 6393   3.772   0.554  15.236  0.6188  0.1450  0.2173
  429MPD2     C 6394   4.163   1.795  17.420  0.0985 -0.0855 -0.0185
  429MPD2    C1 6395   4.118   1.705  17.323 -0.2302 -0.3924  0.1618
  429MPD2    C2 6396   4.158   1.728  17.192  0.0712  0.1384 -0.0820
  429MPD2    C3 6397   4.246   1.832  17.158  0.3469 -0.0786 -0.2880
  429MPD2    C4 6398   4.290   1.922  17.258 -0.7030 -0.2600 -0.6320
  429MPD2    C5 6399   4.241   1.901  17.391 -0.3123  1.0177 -0.1705
  429MPD2     H 6400   4.126   1.656  17.118 -1.2896  0.4090  0.2545
  429MPD2    H1 6401   4.354   2.008  17.245  0.3736 -0.8962  0.4774
  429MPD2    H2 6402   4.127   1.797  17.522  0.1690  0.1042  0.0024
  429MPD2    H3 6403   4.271   1.973  17.467 -1.4170  0.5983  0.6643
  429MPD2     N 6404   4.282   1.854  17.027  0.2170  0.0260 -0.3589
  429MPD2    H5 6405   4.228   1.814  16.951  1.3744 -0.3232 -0.9935
  429MPD2    N1 6406   4.024   1.607  17.350 -0.2911  0.1450  0.6303
  429MPD2    H7 6407   3.997   1.548  17.272 -0.3441  0.1354  0.6560
  430TMC3    C1 6408   4.432   1.904  16.850  0.3215  0.0963 -0.4961
  430TMC3    C2 6409   4.322   1.913  16.765  0.1605  0.0057  0.7724
  430TMC3    C3 6410   4.345   1.914  16.634 -0.6752 -0.3847 -0.1128
  430TMC3    C4 6411   4.557   1.867  16.806 -0.0719  0.0551 -0.4674
  430TMC3    C5 6412   4.574   1.858  16.668 -1.1177  0.1207 -0.0221
  430TMC3    C6 6413   4.467   1.877  16.576 -0.1842 -0.4619 -0.2348
  430TMC3     C 6414   4.414   1.893  16.990  0.5083  0.5423 -0.8296
  430TMC3     O 6415   4.511   1.892  17.066 -0.1059  0.4647 -1.2507
  430TMC3     H 6416   4.224   1.931  16.808 -0.5240 -1.1537 -0.3216
  430TMC3    H1 6417   4.640   1.837  16.869  1.6268  0.7114 -2.3818
  430TMC3    H2 6418   4.471   1.861  16.469 -1.6546 -2.0879 -0.0677
  430TMC3    C7 6419   4.654   1.743  16.641  0.8887 -0.3033 -0.0252
  430TMC3    C8 6420   4.229   1.887  16.549  0.7165  0.2718  0.1197
  430TMC3    O1 6421   4.606   1.655  16.566 -0.3272  0.1449 -0.1981
  430TMC3    O2 6422   4.241   1.810  16.459 -0.2266  0.5187 -0.5237
  431MPD2     C 6423   0.815   1.221  12.419 -0.9606  0.0965 -0.4326
  431MPD2    C1 6424   0.866   1.303  12.318  0.9615  0.3351 -0.3717
  431MPD2    C2 6425   0.915   1.251  12.207  0.2469  0.1965 -0.5611
  431MPD2    C3 6426   0.920   1.111  12.182 -0.8665 -0.5146  0.2010
  431MPD2    C4 6427   0.881   1.033  12.285 -0.8500  0.7645 -0.9796
  431MPD2    C5 6428   0.829   1.088  12.399 -0.1680 -0.0950 -0.6174
  431MPD2     H 6429   0.952   1.319  12.131  1.7549 -0.3417 -0.2989
  431MPD2    H1 6430   0.894   0.925  12.279  0.8861  0.8863  0.9188
  431MPD2    H2 6431   0.780   1.255  12.516  0.2998  1.3182 -0.4081
  431MPD2    H3 6432   0.800   1.021  12.478  0.9662  0.8647  0.6134
  431MPD2     N 6433   0.981   1.048  12.076 -0.0965 -0.2591 -0.0139
  431MPD2    H5 6434   0.989   0.947  12.075  0.6040 -0.2144  0.8719
  431MPD2    N1 6435   0.879   1.445  12.331 -0.5234 -0.5714 -0.1082
  431MPD2    H7 6436   0.901   1.503  12.251  0.6407 -1.3381 -0.3478
  432TMC3    C1 6437   1.123   1.038  11.889 -0.5924 -0.4491  0.3559
  432TMC3    C2 6438   1.147   1.079  11.765 -0.2489  0.1564  0.2988
  432TMC3    C3 6439   1.243   0.997  11.695 -0.3840  0.0399 -0.1853
  432TMC3    C4 6440   1.185   0.930  11.954  0.0797 -0.0392  0.5263
  432TMC3    C5 6441   1.273   0.857  11.880 -0.1395 -0.0161 -0.2127
  432TMC3    C6 6442   1.309   0.892  11.754 -0.2724 -0.2094  0.5066
  432TMC3     C 6443   1.034   1.121  11.970 -0.5557 -0.2410 -0.3627
  432TMC3     O 6444   1.022   1.239  11.931 -0.1731  0.2361 -0.1675
  432TMC3     H 6445   1.087   1.155  11.717 -0.8457 -1.1207 -0.9676
  432TMC3    H1 6446   1.163   0.897  12.055 -1.3643 -3.2015 -0.8265
  432TMC3    H2 6447   1.394   0.843  11.707 -0.4181  1.6678 -1.6993
  432TMC3    C7 6448   1.378   0.785  11.947 -0.1850 -0.6329  0.5412
  432TMC3    C8 6449   1.310   1.047  11.579 -0.0111 -0.5226  1.0359
  432TMC3    O1 6450   1.493   0.784  11.908 -0.4147  0.0073  0.0440
  432TMC3    O2 6451   1.351   0.964  11.499  0.7342  0.1467  0.3984
  433MPD2     C 6452   4.370   0.226  11.158  1.1547  0.0453  0.1620
  433MPD2    C1 6453   4.410   0.096  11.176  0.5953  0.3410 -0.0369
  433MPD2    C2 6454   4.454   0.060  11.308 -0.0146  0.1869  0.7737
  433MPD2    C3 6455   4.438   0.146  11.412 -0.3279  0.4784 -1.0963
  433MPD2    C4 6456   4.402   0.280  11.395 -0.7324  0.6878  0.1427
  433MPD2    C5 6457   4.370   0.311  11.268  0.0017 -0.5578  0.0173
  433MPD2     H 6458   4.478   4.679  11.324 -1.8569 -0.2302  0.7741
  433MPD2    H1 6459   4.383   0.343  11.481 -1.5136 -1.6775  1.7236
  433MPD2    H2 6460   4.341   0.275  11.066 -1.8195 -0.9456  0.5876
  433MPD2    H3 6461   4.325   0.409  11.252  0.3652 -0.4061 -0.0851
  433MPD2     N 6462   4.484   0.096  11.537 -0.0736 -0.4267 -0.0594
  433MPD2    H5 6463   4.523   0.003  11.532  1.5901  0.2598  0.0737
  433MPD2    N1 6464   4.436   0.019  11.065 -0.7544  0.0210 -0.0011
  433MPD2    H7 6465   4.432   0.061  10.973  0.3736 -1.3291 -0.6619
  434TMC3    C1 6466   4.507   4.531  10.964  0.4617  0.1579  0.6785
  434TMC3    C2 6467   4.584   4.420  10.997 -0.3160 -0.0543  0.1919
  434TMC3    C3 6468   4.638   4.350  10.903 -0.7843  0.1911 -0.4326
  434TMC3    C4 6469   4.466   4.548  10.829  0.0152  0.3484 -0.6760
  434TMC3    C5 6470   4.516   4.457  10.738  0.3325  0.9893  0.0591
  434TMC3    C6 6471   4.605   4.356  10.774 -0.8213  0.0156  0.3748
  434TMC3     C 6472   4.441   4.605  11.072  0.3854  0.2254 -0.9483
  434TMC3     O 6473   4.393   4.536  11.156 -0.6770  0.4677 -0.2839
  434TMC3     H 6474   4.608   4.401  11.101 -1.0250 -0.7383  0.2355
  434TMC3    H1 6475   4.395   4.626  10.803 -0.9336 -0.4274 -0.4166
  434TMC3    H2 6476   4.639   4.286  10.698 -1.6982 -0.7664  0.7079
  434TMC3    C7 6477   4.438   4.454  10.612 -0.0535 -0.4811 -0.2521
  434TMC3    C8 6478   0.013   4.254  10.947  0.3849  0.6260  0.4407
  434TMC3    O1 6479   4.380   4.550  10.566 -0.5359  0.1924 -0.4547
  434TMC3    O2 6480   4.705   4.205  11.047  0.1004  0.4120  0.2014
  435MPD2     C 6481   1.305   4.500  15.407 -0.4069  0.0153  0.2520
  435MPD2    C1 6482   1.282   4.523  15.540  0.3147  0.1612 -0.2625
  435MPD2    C2 6483   1.386   4.497  15.630  0.9687  0.7147 -0.1219
  435MPD2    C3 6484   1.510   4.453  15.588 -0.0239  0.4118 -0.0541
  435MPD2    C4 6485   1.534   4.443  15.450  0.0475 -0.1436  0.0030
  435MPD2    C5 6486   1.429   4.461  15.366  0.2925  0.0325 -0.1968
  435MPD2     H 6487   1.365   4.505  15.736 -1.1121 -0.1092 -0.4775
  435MPD2    H1 6488   1.632   4.429  15.406 -0.6092  1.0321 -1.8286
  435MPD2    H2 6489   1.234   4.512  15.325 -0.4372  0.4279  0.3388
  435MPD2    H3 6490   1.439   4.453  15.258  0.8785  0.6848 -0.1904
  435MPD2     N 6491   1.611   4.429  15.679 -0.0697  0.1898 -0.2654
  435MPD2    H5 6492   1.588   4.455  15.774 -1.4862  0.0094 -0.5573
  435MPD2    N1 6493   1.153   4.559  15.592 -0.3203  0.1803  0.4331
  435MPD2    H7 6494   1.152   4.568  15.693 -2.6183  1.0764  0.3411
  436TMC3    C1 6495   0.788   4.584  15.780 -0.4048 -0.4491  0.3499
  436TMC3    C2 6496   0.906   4.554  15.709  0.4484 -0.7052  0.1356
  436TMC3    C3 6497   0.923   4.618  15.592  0.0037  0.5899  0.4438
  436TMC3    C4 6498   0.695   4.666  15.729  0.3442  0.1726 -0.0248
  436TMC3    C5 6499   0.714   4.720  15.604 -0.0246 -0.8242  0.9089
  436TMC3    C6 6500   0.828   4.694  15.530 -0.2466 -0.1965  0.0826
  436TMC3     C 6501   0.776   4.525  15.916  0.2027 -0.1309  0.3098
  436TMC3     O 6502   0.851   4.430  15.932  0.4034  0.1770  0.4659
  436TMC3     H 6503   0.971   4.475  15.742 -0.0412  0.1589  3.1469
  436TMC3    H1 6504   0.600   4.668  15.781 -0.2338 -1.8727 -0.9834
  436TMC3    H2 6505   0.839   0.008  15.429  2.2211  2.7203  1.4456
  436TMC3    C7 6506   0.600   0.038  15.532 -0.0470 -0.7504 -0.7666
  436TMC3    C8 6507   1.042   4.585  15.516  0.2006 -0.5405  0.0649
  436TMC3    O1 6508   0.606   0.030  15.412  0.4120  0.2967  0.0371
  436TMC3    O2 6509   1.034   4.602  15.395 -0.2608 -0.1324 -0.1518
  437TMC3    C1 6510   0.263   1.973  12.404  0.2136  0.2611 -0.2639
  437TMC3    C2 6511   0.152   2.000  12.330 -0.2497 -0.1164  0.4793
  437TMC3    C3 6512   0.147   2.120  12.269  0.0755  0.5468  0.0534
  437TMC3    C4 6513   0.371   2.056  12.410 -0.2622 -0.2533 -0.9198
  437TMC3    C5 6514   0.363   2.174  12.335 -0.0268 -0.0993 -0.4767
  437TMC3    C6 6515   0.250   2.208  12.267 -0.3049 -0.0003  0.1877
  437TMC3     C 6516   0.265   1.852  12.489  0.4302 -0.4528 -0.0510
  437TMC3     O 6517   0.373   1.817  12.533  0.5036  0.4040 -0.0409
  437TMC3     H 6518   0.069   1.932  12.316 -1.6279  2.2147 -2.9641
  437TMC3    H1 6519   0.454   2.025  12.473  0.0769  0.7717 -0.8627
  437TMC3    H2 6520   0.241   2.306  12.221 -0.0309 -0.8848 -1.7397
  437TMC3    C7 6521   0.489   2.233  12.275  0.2028 -0.2427  0.2534
  437TMC3    C8 6522   0.017   2.157  12.220  0.3000 -0.8195 -0.2001
  437TMC3    O1 6523   0.490   2.297  12.170 -0.3109  0.5727 -1.0944
  437TMC3    O2 6524   4.650   2.110  12.284 -0.1435  0.1241  0.0591
  438MPD2     C 6525   2.041   2.342  16.953  0.0704 -0.0860 -0.4407
  438MPD2    C1 6526   2.167   2.287  16.951 -0.3196  0.8525 -1.4799
  438MPD2    C2 6527   2.195   2.180  17.030 -0.3356  0.1064  0.4063
  438MPD2    C3 6528   2.097   2.114  17.107  0.6689 -0.2741 -0.0039
  438MPD2    C4 6529   1.978   2.173  17.113  0.1682  0.4347 -0.2533
  438MPD2    C5 6530   1.946   2.290  17.041  0.8487 -0.1576  0.6536
  438MPD2     H 6531   2.297   2.143  17.030 -1.1247 -2.0146  1.1755
  438MPD2    H1 6532   1.904   2.130  17.178 -0.1023  0.3790 -0.5967
  438MPD2    H2 6533   2.019   2.429  16.891  0.7291 -0.2200 -0.8619
  438MPD2    H3 6534   1.847   2.333  17.052  0.4788 -0.3746 -1.8188
  438MPD2     N 6535   2.133   2.000  17.184  0.1258  0.6131 -0.2053
  438MPD2    H5 6536   2.058   1.964  17.242  1.7088  1.7840  2.5851
  438MPD2    N1 6537   2.276   2.340  16.880 -0.4341 -0.4253  0.5641
  438MPD2    H7 6538   2.366   2.304  16.909  0.0850 -1.5102 -2.4016
  439TMC3    C1 6539   2.376   2.464  16.689  0.7507  0.3472 -0.3335
  439TMC3    C2 6540   2.351   2.540  16.580 -0.1073 -0.8809 -0.4758
  439TMC3    C3 6541   2.458   2.605  16.526 -0.3435  0.0874 -0.6057
  439TMC3    C4 6542   2.501   2.442  16.743  0.0567  1.0647  0.2052
  439TMC3    C5 6543   2.612   2.494  16.674 -0.1188  0.0096  0.2833
  439TMC3    C6 6544   2.587   2.586  16.571 -0.2780 -0.0365  0.0460
  439TMC3     C 6545   2.259   2.423  16.771  0.3444  0.0666  0.6612
  439TMC3     O 6546   2.155   2.450  16.719  0.1529  0.1193  0.5215
  439TMC3     H 6547   2.249   2.554  16.547  0.0199  0.2431 -0.3777
  439TMC3    H1 6548   2.515   2.410  16.845  0.1911  0.7867  0.1013
  439TMC3    H2 6549   2.663   2.645  16.521 -2.5090  3.3682  0.7429
  439TMC3    C7 6550   2.740   2.441  16.712  0.1039  0.3922  0.0307
  439TMC3    C8 6551   2.451   2.636  16.387 -0.5003 -0.1721  0.1607
  439TMC3    O1 6552   2.752   2.350  16.794  0.2791 -0.0337 -0.1343
  439TMC3    O2 6553   2.404   2.737  16.335  0.4107 -0.0469 -0.3728
  440MPD2     C 6554   1.640   2.729  14.802 -0.1576 -0.1041  0.4856
  440MPD2    C1 6555   1.663   2.840  14.882 -0.0159 -0.0215  0.4330
  440MPD2    C2 6556   1.790   2.864  14.937  0.2088 -0.6560 -0.3798
  440MPD2    C3 6557   1.903   2.786  14.900 -0.5027 -0.4979 -0.4712
  440MPD2    C4 6558   1.875   2.677  14.811  0.2170 -0.5234  0.2694
  440MPD2    C5 6559   1.750   2.655  14.764  0.4401 -0.5290 -0.6932
  440MPD2     H 6560   1.799   2.940  15.014  1.0152 -0.6540 -0.4693
  440MPD2    H1 6561   1.955   2.612  14.777 -0.6343 -1.5320  0.2022
  440MPD2    H2 6562   1.539   2.700  14.776  0.3557 -1.2440 -0.2586
  440MPD2    H3 6563   1.738   2.570  14.699 -2.0905  0.2599 -1.2603
  440MPD2     N 6564   2.028   2.809  14.962  0.6416 -0.1179  0.0007
  440MPD2    H5 6565   2.101   2.748  14.927  0.2549 -1.6285  1.8582
  440MPD2    N1 6566   1.549   2.909  14.933 -0.1590  0.1135  0.2568
  440MPD2    H7 6567   1.556   2.960  15.020  2.0875  0.2421 -0.0178
  441TMC3    C1 6568   2.195   2.903  15.102  0.1558  0.5317  0.1910
  441TMC3    C2 6569   2.233   3.018  15.159 -0.7460 -0.4367 -0.1610
  441TMC3    C3 6570   2.284   3.018  15.286  0.8071  0.1520 -0.3285
  441TMC3    C4 6571   2.199   2.785  15.169 -0.1964  0.2400  0.3500
  441TMC3    C5 6572   2.265   2.783  15.290  0.2908  0.2372  0.4066
  441TMC3    C6 6573   2.320   2.898  15.344 -0.8414 -0.2620  0.0418
  441TMC3     C 6574   2.068   2.918  15.037  0.0982 -0.2487 -0.1671
  441TMC3     O 6575   2.005   3.020  15.066 -0.0117 -0.3537  0.5015
  441TMC3     H 6576   2.221   3.111  15.106 -1.5383 -0.8485 -0.7226
  441TMC3    H1 6577   2.116   2.716  15.158 -0.0059  0.4024 -2.1840
  441TMC3    H2 6578   2.375   2.902  15.437 -1.6142 -3.0651  0.6297
  441TMC3    C7 6579   2.252   2.663  15.373 -0.6888 -0.2674  0.5992
  441TMC3    C8 6580   2.203   3.093  15.382 -0.3618  0.0587  0.1800
  441TMC3    O1 6581   2.156   2.586  15.352  0.2624 -0.4719 -0.3432
  441TMC3    O2 6582   2.246   3.083  15.495  0.0628 -0.3168  0.5264
  442MPD2     C 6583   4.006   3.552  16.934 -0.6734 -0.1826  0.2325
  442MPD2    C1 6584   3.909   3.466  16.883  0.2954 -0.2207 -0.4981
  442MPD2    C2 6585   3.945   3.359  16.805  0.3979 -0.1930  0.4674
  442MPD2    C3 6586   4.073   3.338  16.766 -0.1065  0.2091 -0.2108
  442MPD2    C4 6587   4.173   3.423  16.818  0.2796 -0.6815  0.3147
  442MPD2    C5 6588   4.135   3.527  16.899  0.2117  0.2644 -0.1348
  442MPD2     H 6589   3.866   3.289  16.780  0.8766 -0.0865 -1.3056
  442MPD2    H1 6590   4.278   3.400  16.807  0.0507 -1.6737  0.1636
  442MPD2    H2 6591   3.986   3.637  16.999 -3.8533 -2.3471  2.0507
  442MPD2    H3 6592   4.215   3.591  16.936 -1.0211  1.3336  0.6704
  442MPD2     N 6593   4.112   3.236  16.680 -0.0916  0.3751  0.0933
  442MPD2    H5 6594   4.208   3.250  16.651 -0.1188  3.3570  1.5019
  442MPD2    N1 6595   3.766   3.485  16.901  0.0905  0.1384 -0.0104
  442MPD2    H7 6596   3.703   3.418  16.857  0.1064  1.0911 -1.4695
  443TMC3    C1 6597   3.557   3.585  16.952 -0.2692  0.8489 -0.8195
  443TMC3    C2 6598   3.505   3.704  16.912  0.0621  0.8793  0.0810
  443TMC3    C3 6599   3.405   3.696  16.819 -0.0250  0.2245  1.1441
  443TMC3    C4 6600   3.504   3.469  16.917  0.0107  0.1836 -0.6221
  443TMC3    C5 6601   3.394   3.462  16.843 -0.1352  0.2429 -0.6968
  443TMC3    C6 6602   3.340   3.579  16.792  0.1119 -0.3805  0.3867
  443TMC3     C 6603   3.706   3.592  16.962 -1.2033 -0.6651 -0.1650
  443TMC3     O 6604   3.748   3.692  17.018  0.0983 -0.5906  0.0748
  443TMC3     H 6605   3.571   3.789  16.900  0.7520  0.5901  1.7687
  443TMC3    H1 6606   3.532   3.380  16.973 -1.2735  1.3176  1.8207
  443TMC3    H2 6607   3.246   3.582  16.739 -0.4598 -3.3480  1.2107
  443TMC3    C7 6608   3.306   3.350  16.860  0.6460  0.2350 -0.0029
  443TMC3    C8 6609   3.440   3.775  16.700 -0.1868  0.2539 -1.6179
  443TMC3    O1 6610   3.331   3.272  16.951  0.2393 -0.1589 -0.8093
  443TMC3    O2 6611   3.493   3.883  16.710  0.2246 -0.2274  0.0670
  444MPD2     C 6612   0.017   2.906  17.181 -0.5423  0.7846  0.3889
  444MPD2    C1 6613   4.645   2.823  17.129 -0.5534 -0.3016  0.1559
  444MPD2    C2 6614   4.685   2.710  17.055 -0.2574  0.1134 -0.5510
  444MPD2    C3 6615   0.096   2.684  17.028  0.3240  0.0119 -0.9029
  444MPD2    C4 6616   0.190   2.771  17.077 -0.2598 -0.1163 -0.4939
  444MPD2    C5 6617   0.148   2.890  17.144 -0.1518  0.2142 -0.6724
  444MPD2     H 6618   4.605   2.643  17.026 -2.4114  2.9116 -1.0724
  444MPD2    H1 6619   0.297   2.762  17.061 -0.5528  1.1852 -3.0913
  444MPD2    H2 6620   4.714   3.006  17.215 -1.5844  0.3235  0.8998
  444MPD2    H3 6621   0.217   2.967  17.176 -0.6203  0.2151  0.3690
  444MPD2     N 6622   0.127   2.575  16.949  0.2954 -1.2969 -0.8607
  444MPD2    H5 6623   0.042   2.532  16.912 -0.3263 -0.7482 -0.0633
  444MPD2    N1 6624   4.508   2.835  17.165  0.8585 -0.3303  0.1476
  444MPD2    H7 6625   4.446   2.766  17.124 -0.0211  0.7082 -0.2888
  445TMC3    C1 6626   0.273   2.407  16.847 -0.2230 -0.3680  0.3137
  445TMC3    C2 6627   0.159   2.337  16.797  0.6577 -0.1684 -0.7434
  445TMC3    C3 6628   0.190   2.232  16.716 -0.9361  0.2578 -0.2387
  445TMC3    C4 6629   0.405   2.368  16.820 -0.3121  0.6170 -1.0535
  445TMC3    C5 6630   0.420   2.260  16.742 -0.2400 -0.1609  0.0537
  445TMC3    C6 6631   0.312   2.184  16.691  0.7495  0.6631 -0.2943
  445TMC3     C 6632   0.255   2.524  16.940 -0.2856  0.6749 -0.2346
  445TMC3     O 6633   0.359   2.574  16.985 -1.0863 -0.4653 -0.2635
  445TMC3     H 6634   0.060   2.375  16.820  0.8968  0.0264 -0.0281
  445TMC3    H1 6635   0.482   2.433  16.860  0.3966 -0.1300 -1.2177
  445TMC3    H2 6636   0.328   2.093  16.634  0.9906  1.1890 -1.0672
  445TMC3    C7 6637   0.542   2.249  16.666 -0.0252 -0.1896 -0.2729
  445TMC3    C8 6638   0.084   2.196  16.624  0.1687  0.6708  1.3390
  445TMC3    O1 6639   0.547   2.169  16.575 -0.8121 -0.1226 -0.0125
  445TMC3    O2 6640   4.697   2.214  16.670  0.2643  0.0419  0.1880
  446MPD2     C 6641   4.576   3.844  11.420 -0.1889 -0.0321 -0.2644
  446MPD2    C1 6642   4.592   3.864  11.284 -0.6399 -0.0707  0.3465
  446MPD2    C2 6643   4.669   3.973  11.246  0.1487 -0.1695 -0.2691
  446MPD2    C3 6644   0.003   4.057  11.335 -0.2433  0.1919  0.2403
  446MPD2    C4 6645   4.689   4.047  11.468  0.2131  0.1949 -0.4142
  446MPD2    C5 6646   4.619   3.936  11.509 -0.7046 -0.7501 -0.1493
  446MPD2     H 6647   4.685   3.984  11.140 -0.6800 -1.5465 -0.5459
  446MPD2    H1 6648   0.004   4.113  11.545  0.0476 -1.2430  0.8996
  446MPD2    H2 6649   4.531   3.752  11.455  0.3396  0.3436  1.4491
  446MPD2    H3 6650   4.599   3.928  11.615  0.2939  0.5059  0.1442
  446MPD2     N 6651   0.088   4.164  11.301 -0.1603  0.1868  0.6248
  446MPD2    H5 6652   0.093   4.197  11.205 -2.0508 -0.4979  0.2925
  446MPD2    N1 6653   4.518   3.794  11.188 -0.9806  0.1573  0.2336
  446MPD2    H7 6654   4.526   3.815  11.089 -0.8805  0.3260  0.2775
  447TMC3    C1 6655   0.276   4.305  11.320  0.4599 -0.2667  0.1596
  447TMC3    C2 6656   0.242   4.388  11.215 -0.0373  0.8214 -0.2638
  447TMC3    C3 6657   0.337   4.465  11.146 -0.2618 -0.8212 -0.3809
  447TMC3    C4 6658   0.405   4.292  11.355  0.1283  0.1100  0.5904
  447TMC3    C5 6659   0.498   4.369  11.289 -0.0293  1.1180 -0.0030
  447TMC3    C6 6660   0.471   4.458  11.186 -0.6172  0.0223 -0.1507
  447TMC3     C 6661   0.185   4.220  11.390 -0.2575  0.6002  0.0427
  447TMC3     O 6662   0.227   4.180  11.501 -0.5049  0.1543 -0.0507
  447TMC3     H 6663   0.141   4.403  11.180 -0.1800 -1.7309 -0.9861
  447TMC3    H1 6664   0.435   4.214  11.424  0.5336  1.6447  2.1400
  447TMC3    H2 6665   0.554   4.509  11.139 -1.8015  2.9126  0.9321
  447TMC3    C7 6666   0.641   4.366  11.328 -0.4408 -0.4551  0.8755
  447TMC3    C8 6667   0.300   4.536  11.026  0.3287  0.9524  1.2129
  447TMC3    O1 6668   0.718   4.381  11.232 -0.0556 -0.0422 -0.0178
  447TMC3    O2 6669   0.178   4.549  11.012 -0.4700  0.4453  0.2908
  448TMC3    C1 6670   2.062   3.819  16.851 -0.3134 -0.2703 -0.7406
  448TMC3    C2 6671   2.094   3.771  16.730  0.0220 -0.6261 -0.4401
  448TMC3    C3 6672   2.182   3.669  16.717 -0.2324  0.1636 -0.1280
  448TMC3    C4 6673   2.126   3.767  16.963  0.1868 -0.6339  0.2041
  448TMC3    C5 6674   2.192   3.647  16.949 -0.4180 -0.9665  0.4049
  448TMC3    C6 6675   2.225   3.599  16.826 -0.1615  0.8818 -0.2846
  448TMC3     C 6676   2.015   3.955  16.858 -0.3575  0.3818  0.6071
  448TMC3     O 6677   2.005   4.017  16.754 -0.2523  0.7710  0.6393
  448TMC3     H 6678   2.049   3.819  16.644 -0.1303 -0.8724 -0.4964
  448TMC3    H1 6679   2.133   3.818  17.058 -1.8522  0.0900 -0.0415
  448TMC3    H2 6680   2.290   3.513  16.816 -2.5488 -1.1769  1.7690
  448TMC3    C7 6681   2.291   3.610  17.054 -0.2898  0.5499  0.4481
  448TMC3    C8 6682   2.205   3.597  16.590 -0.3249  0.4493  0.2700
  448TMC3    O1 6683   2.393   3.551  17.026  0.1398  0.6770  0.5489
  448TMC3    O2 6684   2.253   3.487  16.603  0.0467  0.8168 -0.4246
  449MPD2     C 6685   4.140   2.110  14.062 -0.3408  0.1786 -0.2760
  449MPD2    C1 6686   4.038   2.202  14.054 -0.5462 -0.0891 -0.2280
  449MPD2    C2 6687   3.912   2.178  14.114  0.0481  0.1768 -0.8088
  449MPD2    C3 6688   3.900   2.064  14.188 -0.1198  0.3432 -0.2292
  449MPD2    C4 6689   4.001   1.978  14.212  0.5733 -0.0680  0.1768
  449MPD2    C5 6690   4.118   1.999  14.139  0.4144 -0.2044 -0.2261
  449MPD2     H 6691   3.826   2.243  14.108 -0.6856 -0.5923  1.2128
  449MPD2    H1 6692   3.995   1.888  14.273  0.8648  0.3771  0.8669
  449MPD2    H2 6693   4.230   2.118  14.002 -1.2674  0.2277 -1.6460
  449MPD2    H3 6694   4.199   1.927  14.144 -0.0530 -0.8168 -1.4197
  449MPD2     N 6695   3.772   2.046  14.245 -0.3209 -0.0896 -0.4409
  449MPD2    H5 6696   3.698   2.098  14.198  0.0545  0.4175 -0.4753
  449MPD2    N1 6697   4.051   2.316  13.972  0.3595  0.1694 -0.2355
  449MPD2    H7 6698   3.966   2.370  13.968  0.7301  0.6919 -0.9512
  450TMC3    C1 6699   4.121   2.451  13.796  0.6843 -0.1670 -0.2575
  450TMC3    C2 6700   4.129   2.406  13.670  0.3079  0.2377 -0.2877
  450TMC3    C3 6701   4.026   2.429  13.579  0.1524 -0.2107 -0.4702
  450TMC3    C4 6702   4.018   2.532  13.837  0.2534 -0.5982 -0.6468
  450TMC3    C5 6703   3.910   2.547  13.754 -0.1322 -0.2006 -0.2402
  450TMC3    C6 6704   3.914   2.484  13.629 -0.4959 -0.3231  0.6043
  450TMC3     C 6705   4.158   2.353  13.892 -0.1663 -0.0302  0.0377
  450TMC3     O 6706   4.262   2.296  13.873 -0.1895  0.0294 -0.0181
  450TMC3     H 6707   4.209   2.339  13.643  0.5983  0.0452  1.0721
  450TMC3    H1 6708   4.016   2.570  13.938  0.7497 -1.1613 -0.4304
  450TMC3    H2 6709   3.834   2.496  13.557  1.4403 -0.7097 -1.5904
  450TMC3    C7 6710   3.791   2.524  13.832 -1.0173 -0.5576  0.2570
  450TMC3    C8 6711   4.007   2.347  13.464 -0.0868  0.0134  0.0082
  450TMC3    O1 6712   3.810   2.471  13.939 -0.4081  0.1331 -0.4107
  450TMC3    O2 6713   3.891   2.323  13.435  1.0863 -0.2465  0.2474
  451MPD2     C 6714   4.225   1.797   1.240  0.2017 -0.5351  0.0514
  451MPD2    C1 6715   4.347   1.794   1.314  0.0828 -0.2247 -0.4217
  451MPD2    C2 6716   4.407   1.668   1.346  0.1655 -0.5163  0.2348
  451MPD2    C3 6717   4.356   1.547   1.293 -0.1012 -0.2906 -0.6492
  451MPD2    C4 6718   4.245   1.560   1.209  0.1728  0.0502  0.4986
  451MPD2    C5 6719   4.182   1.680   1.179  0.4782  0.0783  0.1356
  451MPD2     H 6720   4.492   1.669   1.413 -0.3495 -0.6081  0.8886
  451MPD2    H1 6721   4.190   1.473   1.175 -0.8216  0.7987  0.1712
  451MPD2    H2 6722   4.178   1.886   1.199 -0.3264 -1.1653 -0.7264
  451MPD2    H3 6723   4.095   1.677   1.114 -0.9470 -0.4038  2.0725
  451MPD2     N 6724   4.403   1.420   1.321 -0.2783  0.3939  0.1295
  451MPD2    H5 6725   4.367   1.351   1.256  0.9015  1.3354 -1.5127
  451MPD2    N1 6726   4.387   1.919   1.369 -0.0091  0.2825  0.2281
  451MPD2    H7 6727   4.319   1.994   1.358 -0.4491 -0.5334 -2.6609
  452TMC3    C1 6728   4.504   1.244   1.417  0.0493 -0.8327  0.1009
  452TMC3    C2 6729   4.567   1.190   1.527 -0.2827 -0.4469 -0.2771
  452TMC3    C3 6730   4.559   1.057   1.542  0.0475 -0.0535 -0.1378
  452TMC3    C4 6731   4.462   1.169   1.312  0.0290  0.1366  0.1333
  452TMC3    C5 6732   4.457   1.032   1.332 -0.1930  0.7020  0.1634
  452TMC3    C6 6733   4.512   0.969   1.440  0.2599 -0.0685  0.2389
  452TMC3     C 6734   4.501   1.387   1.414  0.3735 -0.1776 -0.3779
  452TMC3     O 6735   4.548   1.455   1.505 -0.4202 -0.0099 -0.3704
  452TMC3     H 6736   4.594   1.249   1.613  0.3400 -3.6479  1.7180
  452TMC3    H1 6737   4.415   1.209   1.222  0.7044 -0.6672 -0.5809
  452TMC3    H2 6738   4.499   0.863   1.452 -1.7969  0.0299 -1.1655
  452TMC3    C7 6739   4.467   0.960   1.201 -0.9033  0.3538 -0.3508
  452TMC3    C8 6740   4.565   0.998   1.677 -0.2090 -0.7391  0.5895
  452TMC3    O1 6741   4.484   1.029   1.098  0.2399 -0.0698 -0.4143
  452TMC3    O2 6742   4.477   0.917   1.696 -0.8388 -0.0534 -0.0074
  453TMC3    C1 6743   2.266   2.977  11.872 -0.1729  0.7991 -0.1707
  453TMC3    C2 6744   2.163   2.891  11.889 -0.0946  0.1302  0.1656
  453TMC3    C3 6745   2.089   2.856  11.773  0.3423 -0.5654 -0.9202
  453TMC3    C4 6746   2.298   3.027  11.750  0.0299  0.5714 -0.1394
  453TMC3    C5 6747   2.209   3.007  11.649 -0.4694 -0.0305  0.5798
  453TMC3    C6 6748   2.100   2.926  11.659  0.3568 -0.9583  0.1390
  453TMC3     C 6749   2.357   3.016  11.980 -0.0222 -0.0954  0.1216
  453TMC3     O 6750   2.420   3.122  11.970  0.1722 -0.3361  0.3677
  453TMC3     H 6751   2.135   2.845  11.984  2.3286 -2.3917 -0.3073
  453TMC3    H1 6752   2.390   3.084  11.742 -0.5837  1.2066 -2.6378
  453TMC3    H2 6753   2.033   2.899  11.578 -1.9051  1.2535  1.2705
  453TMC3    C7 6754   2.243   3.055  11.523 -0.6373  0.6048 -0.0230
  453TMC3    C8 6755   1.964   2.778  11.782  0.8262 -0.1524 -0.2133
  453TMC3    O1 6756   2.244   2.963  11.437 -0.4125 -0.7106 -0.3242
  453TMC3    O2 6757   1.882   2.799  11.701  0.5081 -0.2289 -0.2195
  454MPD2     C 6758   0.685   2.740  16.628 -0.6059 -0.3003 -0.5742
  454MPD2    C1 6759   0.603   2.843  16.586  0.0576  0.5572 -0.1121
  454MPD2    C2 6760   0.529   2.921  16.680  0.3205  0.7474  0.2965
  454MPD2    C3 6761   0.530   2.875  16.813  0.8328 -0.6088  0.3518
  454MPD2    C4 6762   0.582   2.756  16.848 -0.4782 -0.1114  0.2706
  454MPD2    C5 6763   0.674   2.700  16.761 -0.0933 -0.2228 -0.4636
  454MPD2     H 6764   0.481   3.015  16.658 -0.5635  0.3985  0.7078
  454MPD2    H1 6765   0.574   2.714  16.948 -2.6673 -1.5978 -0.5368
  454MPD2    H2 6766   0.750   2.690  16.558  0.6693 -1.2218  1.2805
  454MPD2    H3 6767   0.733   2.613  16.787 -1.1198 -1.2332 -1.5332
  454MPD2     N 6768   0.456   2.937  16.910  0.8066  0.1031 -0.3085
  454MPD2    H5 6769   0.475   2.907  17.005 -0.0436  3.0555  0.8046
  454MPD2    N1 6770   0.581   2.882  16.452 -0.3207 -0.2660 -0.2894
  454MPD2    H7 6771   0.511   2.954  16.437 -2.5753 -2.5339 -0.5531
  455TMC3    C1 6772   0.256   2.986  16.781 -0.2287 -0.6963 -0.0866
  455TMC3    C2 6773   0.156   3.069  16.742  0.9255  0.5433  0.3564
  455TMC3    C3 6774   0.054   3.025  16.660 -0.4656 -0.8345  0.1818
  455TMC3    C4 6775   0.250   2.858  16.737 -0.5335 -0.5927 -0.0594
  455TMC3    C5 6776   0.138   2.807  16.675 -0.2877 -0.2195  0.3593
  455TMC3    C6 6777   0.039   2.892  16.628  0.1170 -0.2427  0.1738
  455TMC3     C 6778   0.344   3.020  16.890  0.0620  1.1056 -0.3257
  455TMC3     O 6779   0.308   3.103  16.975 -0.2365 -0.4254  0.0172
  455TMC3     H 6780   0.144   3.166  16.788  2.8026 -0.1532  2.3194
  455TMC3    H1 6781   0.307   2.784  16.791 -1.0855 -1.0506 -0.1048
  455TMC3    H2 6782   4.688   2.864  16.554  0.5375  0.2983 -0.4570
  455TMC3    C7 6783   0.145   2.686  16.593 -0.2149 -0.0109 -0.1909
  455TMC3    C8 6784   4.658   3.101  16.688  0.3385  0.4428 -0.2992
  455TMC3    O1 6785   0.039   2.645  16.546 -0.3795 -0.5702 -0.4104
  455TMC3    O2 6786   4.649   3.225  16.696 -1.0566  0.6220  0.1911
  456MPD2     C 6787   3.219   2.953  15.781  0.3314  0.5053 -0.5853
  456MPD2    C1 6788   3.181   2.853  15.872 -0.8735  0.7100  0.3512
  456MPD2    C2 6789   3.060   2.866  15.938  0.1529 -0.3175  0.1614
  456MPD2    C3 6790   2.986   2.984  15.923 -0.3818 -0.9537 -0.7788
  456MPD2    C4 6791   3.032   3.079  15.836 -0.1978  0.4206 -0.4979
  456MPD2    C5 6792   3.141   3.059  15.759 -0.5456  0.3751 -0.4021
  456MPD2     H 6793   3.017   2.779  15.985 -1.0637  0.3122  0.2100
  456MPD2    H1 6794   2.985   3.177  15.831  0.4146  0.6503 -1.6593
  456MPD2    H2 6795   3.320   2.950  15.740  1.1318  1.3343  1.3366
  456MPD2    H3 6796   3.191   3.141  15.709 -1.9650  1.2527 -0.3794
  456MPD2     N 6797   2.875   3.001  16.004  0.0532 -0.5493 -0.3636
  456MPD2    H5 6798   2.868   2.931  16.077  1.4867  1.0852  1.3686
  456MPD2    N1 6799   3.253   2.734  15.870 -0.2791 -0.2323  0.2055
  456MPD2    H7 6800   3.330   2.725  15.804 -0.9894  2.3488 -0.9589
  457TMC3    C1 6801   2.690   3.100  16.112  0.1698  0.2484  0.4004
  457TMC3    C2 6802   2.582   3.184  16.100  0.6994  0.1165 -0.1235
  457TMC3    C3 6803   2.471   3.149  16.175 -0.1990 -0.3507  0.2181
  457TMC3    C4 6804   2.699   3.006  16.213  0.3566  1.1138  0.6368
  457TMC3    C5 6805   2.584   2.976  16.280  0.1910 -0.2174 -0.0505
  457TMC3    C6 6806   2.466   3.037  16.254 -0.0541  0.2280 -0.5411
  457TMC3     C 6807   2.788   3.104  16.003  0.1135 -0.8225  0.4791
  457TMC3     O 6808   2.774   3.192  15.922 -0.5419 -0.9381 -0.3244
  457TMC3     H 6809   2.582   3.261  16.023 -1.8824  0.8030  0.5611
  457TMC3    H1 6810   2.778   2.935  16.234 -0.1335 -0.5091 -3.0974
  457TMC3    H2 6811   2.375   3.002  16.301 -0.4507  1.1520 -0.6150
  457TMC3    C7 6812   2.610   2.983  16.419  0.5023 -0.3305 -0.0221
  457TMC3    C8 6813   2.389   3.257  16.235  0.5761 -0.3711  0.0239
  457TMC3    O1 6814   2.699   2.914  16.459  0.2426  0.4619 -0.2936
  457TMC3    O2 6815   2.364   3.236  16.353 -0.4854 -0.1989  0.0652
  458MPD2     C 6816   1.006   2.240  12.284 -0.5119  0.6717  0.4777
  458MPD2    C1 6817   0.963   2.214  12.410  0.0145  0.3800  0.0615
  458MPD2    C2 6818   0.825   2.210  12.436 -0.5563  0.1478 -0.6322
  458MPD2    C3 6819   0.734   2.219  12.330  0.3754 -0.3259 -0.2054
  458MPD2    C4 6820   0.777   2.248  12.204 -0.0885  0.7367 -0.0507
  458MPD2    C5 6821   0.912   2.268  12.185 -0.2370 -0.1741 -0.0236
  458MPD2     H 6822   0.789   2.205  12.538  1.4527 -0.2915  0.0512
  458MPD2    H1 6823   0.705   2.263  12.124 -0.7349  0.2866  0.4514
  458MPD2    H2 6824   1.109   2.263  12.259 -0.6217  1.4542  0.7299
  458MPD2    H3 6825   0.942   2.300  12.086  0.7438 -0.7346  0.0901
  458MPD2     N 6826   0.592   2.202  12.360  1.1603 -0.2852  0.3883
  458MPD2    H5 6827   0.569   2.170  12.454  0.9657  0.7228  0.6841
  458MPD2    N1 6828   1.056   2.200  12.514  0.3090 -0.0837 -0.0245
  458MPD2    H7 6829   1.152   2.221  12.488  0.3336 -1.5667 -1.1534
  459TMC3    C1 6830   1.144   2.173  12.724 -0.1423  0.2997 -0.0569
  459TMC3    C2 6831   1.244   2.260  12.683 -0.2418  0.6199 -0.2319
  459TMC3    C3 6832   1.357   2.265  12.766  0.1648 -0.1031 -0.0016
  459TMC3    C4 6833   1.141   2.089  12.832  0.3593 -0.0370 -0.8392
  459TMC3    C5 6834   1.261   2.093  12.902  0.9447  0.5607  0.3475
  459TMC3    C6 6835   1.359   2.185  12.875  0.3338 -0.0167 -0.3771
  459TMC3     C 6836   1.024   2.173  12.647 -0.7190 -0.2221 -0.0201
  459TMC3     O 6837   0.930   2.120  12.696 -0.4980 -0.0272 -0.7809
  459TMC3     H 6838   1.229   2.333  12.605  0.9379  0.9474 -0.1556
  459TMC3    H1 6839   1.067   2.010  12.825  1.0386 -0.7900  0.4953
  459TMC3    H2 6840   1.443   2.194  12.943 -0.2510 -1.8032  0.5994
  459TMC3    C7 6841   1.278   1.988  13.006 -0.6035 -0.2188  0.2726
  459TMC3    C8 6842   1.483   2.320  12.717  0.3236  0.0714 -0.0123
  459TMC3    O1 6843   1.389   1.967  13.053 -0.1553 -0.2658  0.1253
  459TMC3    O2 6844   1.585   2.311  12.784 -0.6980  0.4104 -0.1008
  460MPD2     C 6845   0.484   4.594  10.724 -0.3602 -0.1719  0.2979
  460MPD2    C1 6846   0.380   4.611  10.812  0.2263 -0.4619  0.5916
  460MPD2    C2 6847   0.275   4.698  10.783  0.3387  0.0604 -0.0415
  460MPD2    C3 6848   0.275   0.038  10.662  0.5193  0.3998 -0.4756
  460MPD2    C4 6849   0.390   0.034  10.580  0.4757  0.2771  0.0001
  460MPD2    C5 6850   0.485   4.671  10.613  0.0530  0.1137 -1.1278
  460MPD2     H 6851   0.189   4.715  10.847  1.6906  2.8438  1.0516
  460MPD2    H1 6852   0.383   0.072  10.478 -0.5912 -0.8618 -0.3519
  460MPD2    H2 6853   0.558   4.518  10.745 -1.6082 -2.2317 -2.8276
  460MPD2    H3 6854   0.575   4.656  10.554  1.2439 -2.9789  1.4426
  460MPD2     N 6855   0.158   0.117  10.629 -0.1636  0.7369  0.3705
  460MPD2    H5 6856   0.084   0.120  10.699  0.3783 -0.9252  1.0296
  460MPD2    N1 6857   0.400   4.543  10.937 -0.4746  0.8743  0.0055
  460MPD2    H7 6858   0.480   4.481  10.945 -1.3512  0.1604  3.5115
  461TMC3    C1 6859   0.021   0.247  10.498 -0.2166  0.0195 -0.1100
  461TMC3    C2 6860   4.661   0.148  10.457  0.7258 -0.1550 -0.0898
  461TMC3    C3 6861   4.576   0.174  10.351 -0.7675  0.1117  0.1807
  461TMC3    C4 6862   0.031   0.361  10.425  0.4061  0.1612 -0.6261
  461TMC3    C5 6863   4.670   0.382  10.317  0.0958  0.7811  0.1620
  461TMC3    C6 6864   4.580   0.292  10.285  0.7976  0.2112  1.2284
  461TMC3     C 6865   0.153   0.197  10.517 -0.4921 -0.6013 -0.0943
  461TMC3     O 6866   0.242   0.246  10.447  0.1519 -0.2729  0.0066
  461TMC3     H 6867   4.639   0.060  10.518 -2.5781 -0.0512 -1.1229
  461TMC3    H1 6868   0.108   0.433  10.452 -0.9587  1.6520 -0.6804
  461TMC3    H2 6869   4.514   0.312  10.201 -0.2241 -2.0199  1.4909
  461TMC3    C7 6870   4.665   0.509  10.243 -0.5356  0.0064 -0.4855
  461TMC3    C8 6871   4.510   0.075  10.271  0.5365 -0.4136 -0.1844
  461TMC3    O1 6872   4.616   0.507  10.132 -0.1501 -0.3229 -0.4933
  461TMC3    O2 6873   4.420   0.113  10.202 -0.4767 -0.0644 -0.3180
  462TMC3    C1 6874   4.336   0.766  17.633 -0.2203 -0.2180  0.2437
  462TMC3    C2 6875   4.338   0.709  17.505  0.0092 -0.1248  0.3742
  462TMC3    C3 6876   4.308   0.577  17.492 -0.2352  0.4693  0.1750
  462TMC3    C4 6877   4.331   0.688   0.048 -0.1192 -0.1954 -0.5128
  462TMC3    C5 6878   4.297   0.555   0.023 -0.0497  0.1527  0.0251
  462TMC3    C6 6879   4.281   0.497  17.600 -0.0693 -0.2157 -1.3847
  462TMC3     C 6880   4.324   0.908  17.643 -0.3234 -0.1024 -0.1899
  462TMC3     O 6881   4.335   0.950   0.061  0.6259  0.1533 -0.2240
  462TMC3     H 6882   4.360   0.767  17.416  3.4405 -0.2150  1.1480
  462TMC3    H1 6883   4.325   0.733   0.146  2.0376 -0.5365 -0.2109
  462TMC3    H2 6884   4.271   0.389  17.598  0.9109 -0.3750  2.5993
  462TMC3    C7 6885   4.250   0.476   0.136  0.0854 -0.1046  0.4180
  462TMC3    C8 6886   4.324   0.514  17.360 -0.0620 -0.3452  0.2824
  462TMC3    O1 6887   4.167   0.389   0.114 -0.2408  0.4664  0.5648
  462TMC3    O2 6888   4.296   0.581  17.262 -0.3196 -0.0976  0.1665
  463MPD2     C 6889   0.200   0.311   2.057  0.3101  0.2963 -0.7662
  463MPD2    C1 6890   0.107   0.286   1.963 -0.3434  0.1899 -0.5182
  463MPD2    C2 6891   0.074   0.382   1.870 -0.5998 -0.1965 -0.6993
  463MPD2    C3 6892   0.139   0.503   1.871  0.4671  0.2311  0.4098
  463MPD2    C4 6893   0.244   0.523   1.963 -0.8303 -0.4742  0.2225
  463MPD2    C5 6894   0.268   0.426   2.056  0.5947 -0.6281  0.3465
  463MPD2     H 6895   4.722   0.366   1.795 -0.5093 -1.1024 -0.5873
  463MPD2    H1 6896   0.306   0.610   1.943  1.0747 -1.6886  0.9389
  463MPD2    H2 6897   0.233   0.245   2.136  0.4726  2.5763  1.0520
  463MPD2    H3 6898   0.349   0.445   2.126 -0.6039  3.3314  0.7140
  463MPD2     N 6899   0.119   0.606   1.772  0.6800  0.1288  1.0331
  463MPD2    H5 6900   0.183   0.684   1.763  0.3836  0.1574 -0.9034
  463MPD2    N1 6901   0.041   0.163   1.950  0.1730  0.1254 -0.2172
  463MPD2    H7 6902   4.692   0.155   1.880  1.0453 -2.8553 -0.7663
  464TMC3    C1 6903   4.707   4.659   1.995 -0.0859  0.2258  0.3597
  464TMC3    C2 6904   4.697   4.628   1.861  0.3922 -0.1404  0.1786
  464TMC3    C3 6905   4.619   4.520   1.829  0.6647  0.0163 -0.3068
  464TMC3    C4 6906   4.657   4.577   2.094 -0.2499  0.4813 -0.1722
  464TMC3    C5 6907   4.600   4.461   2.050  0.0696  0.1418 -0.6456
  464TMC3    C6 6908   4.570   4.430   1.917  0.0675 -0.6805  0.3645
  464TMC3     C 6909   0.061   0.049   2.026  0.0196 -0.0410  0.3680
  464TMC3     O 6910   0.140   0.022   2.117 -0.0796 -0.4514  0.0362
  464TMC3     H 6911   0.013   4.698   1.789  1.8547 -1.3001 -0.1504
  464TMC3    H1 6912   4.647   4.613   2.196 -1.1931 -1.0872  0.2914
  464TMC3    H2 6913   4.523   4.338   1.885  1.7670 -1.8299  1.1450
  464TMC3    C7 6914   4.560   4.355   2.149 -0.3917 -0.8125 -0.2657
  464TMC3    C8 6915   4.577   4.516   1.691 -0.1400  0.2238  0.3420
  464TMC3    O1 6916   4.548   4.379   2.270  0.0920 -0.2319 -0.0059
  464TMC3    O2 6917   4.653   4.565   1.609 -0.5264  0.2989  0.2250
  465MPD2     C 6918   2.345   2.835  16.818 -0.3717  0.1398  0.1079
  465MPD2    C1 6919   2.216   2.832  16.870 -0.1890 -0.0968  0.1496
  465MPD2    C2 6920   2.103   2.848  16.789 -0.0230  0.3229 -0.1147
  465MPD2    C3 6921   2.118   2.868  16.656 -0.3245  0.3847 -0.3401
  465MPD2    C4 6922   2.246   2.860  16.601  0.2606  0.5143 -0.2838
  465MPD2    C5 6923   2.360   2.851  16.684 -0.3917  0.2382 -0.4883
  465MPD2     H 6924   2.005   2.867  16.830  0.0288  3.0010 -1.1897
  465MPD2    H1 6925   2.262   2.858  16.494 -0.6089 -2.7635 -0.3674
  465MPD2    H2 6926   2.431   2.827  16.884 -0.3389  0.5897  0.1211
  465MPD2    H3 6927   2.458   2.843  16.639 -0.9057  2.3729 -2.0011
  465MPD2     N 6928   2.006   2.894  16.572 -0.6062 -0.0034  0.2367
  465MPD2    H5 6929   1.915   2.879  16.614 -0.5069 -1.2443  0.0198
  465MPD2    N1 6930   2.187   2.818  17.006  0.1512 -0.2133 -0.5799
  465MPD2    H7 6931   2.090   2.796  17.028  0.0592  1.5066  0.6709
  466TMC3    C1 6932   1.643   2.911  16.425  0.5390  0.1927  0.9410
  466TMC3    C2 6933   1.608   3.038  16.388 -0.8135 -0.1032  0.3082
  466TMC3    C3 6934   1.709   3.119  16.348  0.1323 -0.6515 -0.2820
  466TMC3    C4 6935   1.783   2.879  16.435 -0.0511 -0.4209  0.3563
  466TMC3    C5 6936   1.873   2.963  16.390  0.0416 -0.4598 -0.0165
  466TMC3    C6 6937   1.844   3.089  16.352 -0.1225  0.6222 -0.3379
  466TMC3     C 6938   1.554   2.838  16.517 -0.9431  0.6533 -0.0001
  466TMC3     O 6939   1.604   2.779  16.610 -0.2598  0.1286 -0.3532
  466TMC3     H 6940   1.507   3.061  16.358 -0.4259 -0.3475 -1.1492
  466TMC3    H1 6941   1.810   2.781  16.472 -1.2360 -0.4165  1.2271
  466TMC3    H2 6942   1.919   3.163  16.325 -0.4884  0.4086 -1.9259
  466TMC3    C7 6943   2.006   2.937  16.438 -0.0650  0.5793 -0.5043
  466TMC3    C8 6944   1.678   3.250  16.310  0.6360 -0.1184 -0.0317
  466TMC3    O1 6945   2.109   2.974  16.377  0.5708  0.0124 -0.0329
  466TMC3    O2 6946   1.765   3.311  16.244 -0.5708 -0.0355  0.0475
  467TMC3    C1 6947   2.869   1.295  14.149  0.1807  0.3172  0.4122
  467TMC3    C2 6948   2.786   1.342  14.053 -0.1615 -0.7989  0.2979
  467TMC3    C3 6949   2.658   1.367  14.088  0.2686  0.0408 -0.1995
  467TMC3    C4 6950   2.829   1.267  14.275 -0.0571 -0.6673 -0.1973
  467TMC3    C5 6951   2.693   1.283  14.300  0.5622 -0.0293  0.2039
  467TMC3    C6 6952   2.608   1.339  14.209  0.5988 -0.2968 -0.2554
  467TMC3     C 6953   3.001   1.343  14.138 -0.1233  0.5058  0.1052
  467TMC3     O 6954   3.023   1.442  14.072  0.1577  0.0658  0.3110
  467TMC3     H 6955   2.824   1.374  13.957  1.3438 -3.2796  0.0813
  467TMC3    H1 6956   2.892   1.226  14.354  1.7506  1.3382 -0.5864
  467TMC3    H2 6957   2.509   1.379  14.228  0.5840 -0.3876 -0.1411
  467TMC3    C7 6958   2.651   1.260  14.436  0.0870 -0.0392  0.5715
  467TMC3    C8 6959   2.601   1.473  14.014 -0.2024 -0.0170 -0.2498
  467TMC3    O1 6960   2.737   1.223  14.516 -0.1194 -0.3251 -0.4440
  467TMC3    O2 6961   2.680   1.550  13.970  0.1095  0.2849 -0.1896
  468MPD2     C 6962   2.405   4.216  10.300 -0.0687 -0.2102  0.6744
  468MPD2    C1 6963   2.404   4.187  10.434 -0.1226 -0.2954  0.0488
  468MPD2    C2 6964   2.372   4.062  10.474 -0.4175 -0.1994  0.3811
  468MPD2    C3 6965   2.344   3.960  10.382 -0.1671  0.0962 -0.3996
  468MPD2    C4 6966   2.350   3.992  10.244 -0.0133  0.1335  0.5423
  468MPD2    C5 6967   2.380   4.124  10.209  0.8707  0.4755  0.3831
  468MPD2     H 6968   2.358   4.041  10.579 -3.0304  1.7671  0.4280
  468MPD2    H1 6969   2.338   3.915  10.170 -0.4756  0.7087  0.0116
  468MPD2    H2 6970   2.420   4.316  10.263  1.6057 -0.3091  1.0975
  468MPD2    H3 6971   2.388   4.160  10.107  1.0486  0.5125  0.4107
  468MPD2     N 6972   2.316   3.828  10.426  0.5226  0.4367  0.2040
  468MPD2    H5 6973   2.296   3.762  10.352 -0.6334  1.1837 -0.1545
  468MPD2    N1 6974   2.438   4.277  10.534  0.5244 -0.0256  0.2667
  468MPD2    H7 6975   2.440   4.236  10.626 -3.2845 -3.1310 -1.0022
  469TMC3    C1 6976   2.523   4.462  10.641  0.4986 -0.2348 -0.2696
  469TMC3    C2 6977   2.570   4.383  10.738 -0.6925 -0.2233  0.5204
  469TMC3    C3 6978   2.603   4.441  10.855  0.1400  1.0709  0.1429
  469TMC3    C4 6979   2.508   4.597  10.648 -1.1533  0.0753  0.5293
  469TMC3    C5 6980   2.531   4.655  10.769 -0.8278 -0.3217  0.5908
  469TMC3    C6 6981   2.583   4.577  10.874  0.3688  0.1785 -0.6949
  469TMC3     C 6982   2.463   4.411  10.519 -0.7642 -0.3932  0.3986
  469TMC3     O 6983   2.476   4.478  10.416 -0.0871 -1.0949 -0.5149
  469TMC3     H 6984   2.593   4.277  10.728  1.6419  0.2933  0.3631
  469TMC3    H1 6985   2.470   4.650  10.561 -0.7065 -3.7143 -1.9521
  469TMC3    H2 6986   2.629   4.626  10.959  3.5538  0.3815 -2.5460
  469TMC3    C7 6987   2.473   0.068  10.789  0.1478  0.2992  0.1573
  469TMC3    C8 6988   2.677   4.368  10.950 -0.5752 -0.2029  0.5991
  469TMC3    O1 6989   2.436   0.129  10.691 -0.4371 -0.0305  0.1199
  469TMC3    O2 6990   2.745   4.273  10.913 -0.4570  0.1888 -0.5168
  470TMC3    C1 6991   4.103   1.237   1.424 -0.5835 -0.5167  0.7195
  470TMC3    C2 6992   4.021   1.334   1.389  0.2626 -0.3182 -0.8586
  470TMC3    C3 6993   4.022   1.442   1.469 -0.4996 -0.1580  0.2798
  470TMC3    C4 6994   4.192   1.245   1.528 -0.2882 -0.4602  0.5564
  470TMC3    C5 6995   4.202   1.362   1.596 -0.4538 -0.3324  0.5309
  470TMC3    C6 6996   4.114   1.464   1.573 -0.6324  0.5893  0.2290
  470TMC3     C 6997   4.137   1.134   1.333  0.3290 -0.3313 -0.5311
  470TMC3     O 6998   4.157   1.172   1.219 -0.2020  0.2591  0.2773
  470TMC3     H 6999   3.954   1.323   1.304 -1.4398 -1.0331  0.5635
  470TMC3    H1 7000   4.271   1.172   1.536  0.0877 -0.0618  0.4491
  470TMC3    H2 7001   4.101   1.540   1.649  1.5901 -0.8570  2.0866
  470TMC3    C7 7002   4.279   1.369   1.721 -0.5886 -0.3076  0.7670
  470TMC3    C8 7003   3.924   1.546   1.448  0.3170  0.3682 -0.0223
  470TMC3    O1 7004   4.278   1.475   1.782 -0.4275  0.1093  0.2423
  470TMC3    O2 7005   3.907   1.623   1.538 -0.0266 -0.1313 -0.7471
  471MPD2     C 7006   3.757   2.019  16.388  0.0962  0.6355 -1.1868
  471MPD2    C1 7007   3.829   1.899  16.366 -0.8740  0.7017  0.3184
  471MPD2    C2 7008   3.956   1.879  16.424  0.1745  0.1910  0.0940
  471MPD2    C3 7009   4.003   1.976  16.508  0.5346 -0.3692  0.0095
  471MPD2    C4 7010   3.928   2.096  16.528 -0.4536 -0.1886  0.1719
  471MPD2    C5 7011   3.810   2.121  16.463  0.3632  0.4698 -0.9252
  471MPD2     H 7012   4.021   1.799  16.391  0.5621  0.7533 -0.5145
  471MPD2    H1 7013   3.981   2.174  16.582  1.1766 -1.4329  0.3775
  471MPD2    H2 7014   3.661   2.046  16.347  0.2083 -0.9054 -2.4748
  471MPD2    H3 7015   3.764   2.218  16.468 -0.6783  0.0764 -2.9473
  471MPD2     N 7016   4.130   1.971  16.576  0.3287  0.0168 -0.5078
  471MPD2    H5 7017   4.158   2.039  16.646  1.1957 -0.3368 -0.5207
  471MPD2    N1 7018   3.779   1.799  16.286  0.4344 -0.4160  0.5562
  471MPD2    H7 7019   3.839   1.720  16.264 -1.2976 -0.4693 -4.1721
  472TMC3    C1 7020   3.623   1.669  16.159 -1.1086  0.5116 -0.3388
  472TMC3    C2 7021   3.497   1.611  16.177  0.2037 -0.4365 -0.2054
  472TMC3    C3 7022   3.487   1.487  16.123 -0.3662  0.1929  0.4616
  472TMC3    C4 7023   3.731   1.616  16.086  0.0327 -0.3123  0.8031
  472TMC3    C5 7024   3.707   1.494  16.030 -0.7813 -0.8626 -0.2696
  472TMC3    C6 7025   3.593   1.427  16.055  0.1094  0.3370 -0.0116
  472TMC3     C 7026   3.651   1.792  16.236  0.4486 -0.8721 -0.3432
  472TMC3     O 7027   3.563   1.874  16.242  0.0578 -0.1954  0.1392
  472TMC3     H 7028   3.423   1.664  16.237 -0.4415 -0.6395 -0.8279
  472TMC3    H1 7029   3.819   1.676  16.065 -0.7055  0.6170  0.3856
  472TMC3    H2 7030   3.578   1.335  16.000 -0.6874  0.2772  0.3034
  472TMC3    C7 7031   3.823   1.411  15.996  0.2951  0.2317  0.3192
  472TMC3    C8 7032   3.359   1.424  16.141 -0.2196 -0.4906 -0.3040
  472TMC3    O1 7033   3.818   1.292  16.007  0.9243  0.1868  0.1493
  472TMC3    O2 7034   3.279   1.499  16.196 -0.0208  0.0278 -0.4393
  473MPD2     C 7035   4.515   3.610  13.819  0.7029  0.4151  1.0536
  473MPD2    C1 7036   4.529   3.739  13.774  0.5000  0.3541 -0.1997
  473MPD2    C2 7037   4.526   3.847  13.871 -0.0344 -0.1309 -0.0157
  473MPD2    C3 7038   4.538   3.822  14.003 -0.2146  0.0671 -0.2741
  473MPD2    C4 7039   4.543   3.689  14.032 -0.8593  0.6564  0.2000
  473MPD2    C5 7040   4.523   3.585  13.946  0.8130 -0.1109 -0.5616
  473MPD2     H 7041   4.521   3.951  13.839  0.8750  0.2559  1.1152
  473MPD2    H1 7042   4.542   3.657  14.136 -0.2066 -2.1804 -0.6517
  473MPD2    H2 7043   4.495   3.526  13.753  1.0612  1.2187 -0.0756
  473MPD2    H3 7044   4.521   3.480  13.972 -0.5306  0.4030  1.4171
  473MPD2     N 7045   4.548   3.910  14.113  0.2992 -0.3746  0.0690
  473MPD2    H5 7046   4.544   3.866  14.205  0.3296  0.4356  0.4619
  473MPD2    N1 7047   4.510   3.776  13.643  0.9270  0.4186 -0.6218
  473MPD2    H7 7048   4.504   3.876  13.625  1.3810  0.2942 -1.4695
  474TMC3    C1 7049   4.572   4.119  14.224 -0.5235 -0.6105 -0.5496
  474TMC3    C2 7050   4.527   4.248  14.241 -0.3750  0.3113  0.8714
  474TMC3    C3 7051   4.573   4.312  14.352  0.3854 -0.6119  0.4810
  474TMC3    C4 7052   4.654   4.055  14.310  0.1903  0.5879  0.3380
  474TMC3    C5 7053   4.688   4.121  14.426  0.0722 -0.2882 -0.3929
  474TMC3    C6 7054   4.632   4.246  14.457 -0.1774  0.2065 -0.2792
  474TMC3     C 7055   4.553   4.048  14.099  0.0003  0.0687  0.0863
  474TMC3     O 7056   4.558   4.117  13.998 -0.6154 -0.1996  0.3339
  474TMC3     H 7057   4.480   4.308  14.163  1.4785 -0.5658 -0.9282
  474TMC3    H1 7058   4.709   3.965  14.289  0.0517  0.6101 -0.1174
  474TMC3    H2 7059   4.651   4.314  14.539  3.0027  1.7434 -2.2766
  474TMC3    C7 7060   0.085   4.084  14.493 -0.2715  0.5800 -0.4022
  474TMC3    C8 7061   4.515   4.444  14.384 -0.2361  0.2683  0.4822
  474TMC3    O1 7062   0.174   4.022  14.434 -0.1040  0.1219 -0.0669
  474TMC3    O2 7063   4.591   4.527  14.430 -0.1720 -0.1418 -0.0767
  475MPD2     C 7064   3.573   1.436  10.172 -0.4035  0.3916 -0.6196
  475MPD2    C1 7065   3.528   1.543  10.253  0.4617 -0.0075  0.8937
  475MPD2    C2 7066   3.400   1.546  10.301 -0.0064  0.5225 -0.0543
  475MPD2    C3 7067   3.317   1.435  10.277 -0.7319  1.0916  1.0226
  475MPD2    C4 7068   3.363   1.328  10.211  0.2497 -0.1528  0.7092
  475MPD2    C5 7069   3.487   1.326  10.165 -0.0799 -0.2621  0.1487
  475MPD2     H 7070   3.363   1.641  10.337  0.2820  0.9033 -0.7490
  475MPD2    H1 7071   3.315   1.232  10.200  2.4558 -1.0270 -1.2278
  475MPD2    H2 7072   3.671   1.432  10.127 -0.8531  1.0144 -1.6386
  475MPD2    H3 7073   3.528   1.248  10.101 -0.6965  0.9644 -1.7415
  475MPD2     N 7074   3.183   1.454  10.320  0.1181 -0.8407  0.0275
  475MPD2    H5 7075   3.157   1.541  10.365 -0.3085 -1.2126  0.4971
  475MPD2    N1 7076   3.620   1.649  10.269 -0.2226  0.1319  0.0337
  475MPD2    H7 7077   3.702   1.662  10.211 -1.6671 -0.3594 -2.1445
  476TMC3    C1 7078   3.708   1.845  10.357 -0.4342 -0.8208 -0.0263
  476TMC3    C2 7079   3.670   1.920  10.253  0.0028 -0.1099  0.7626
  476TMC3    C3 7080   3.610   2.038  10.269 -0.1452 -0.1458 -0.3754
  476TMC3    C4 7081   3.714   1.906  10.480  1.1178 -0.9418  0.2069
  476TMC3    C5 7082   3.661   2.034  10.503 -0.4723 -0.5920  0.2720
  476TMC3    C6 7083   3.615   2.103  10.391 -0.3874 -0.2366  0.0954
  476TMC3     C 7084   3.609   1.741  10.366 -0.6354 -0.8272  0.6756
  476TMC3     O 7085   3.543   1.740  10.470  0.0441  0.1332  0.9918
  476TMC3     H 7086   3.677   1.878  10.154 -1.1618 -1.5901  1.3170
  476TMC3    H1 7087   3.743   1.855  10.571 -1.8882 -0.6043  1.3404
  476TMC3    H2 7088   3.550   2.187  10.411 -1.0570 -1.0110  1.1372
  476TMC3    C7 7089   3.613   2.066  10.631 -0.0715  0.1650  0.2335
  476TMC3    C8 7090   3.482   2.046  10.201 -0.1643  0.7756  0.1629
  476TMC3    O1 7091   3.621   1.970  10.707  0.2812  0.2087  0.1240
  476TMC3    O2 7092   3.420   2.152  10.199 -0.3514 -0.4823 -0.0602
  477MPD2     C 7093   1.006   3.929  11.628  0.0986 -0.5645  0.2479
  477MPD2    C1 7094   0.910   3.862  11.691 -0.4417  0.6801  0.7233
  477MPD2    C2 7095   0.945   3.775  11.794  0.4240  0.6065  0.3247
  477MPD2    C3 7096   1.074   3.763  11.840  0.1601  0.1778  0.2781
  477MPD2    C4 7097   1.169   3.840  11.775 -0.0784 -0.2501 -0.4454
  477MPD2    C5 7098   1.133   3.919  11.674  0.4935  0.8285  0.0563
  477MPD2     H 7099   0.870   3.712  11.842  1.5555 -0.1981  1.0461
  477MPD2    H1 7100   1.267   3.822  11.819 -0.2065  1.5537  0.5533
  477MPD2    H2 7101   0.995   3.983  11.534  0.0670 -1.6191 -0.3506
  477MPD2    H3 7102   1.206   3.976  11.616  1.4029 -0.0800  0.3087
  477MPD2     N 7103   1.107   3.682  11.946 -0.8672 -0.9183 -0.3609
  477MPD2    H5 7104   1.207   3.674  11.964 -1.1802  0.3063  1.8913
  477MPD2    N1 7105   0.782   3.862  11.631  0.2372  0.1526 -0.4031
  477MPD2    H7 7106   0.769   3.913  11.545  1.8885  0.8598 -0.2242
  478TMC3    C1 7107   0.564   3.789  11.572 -0.9354  0.1121 -0.7121
  478TMC3    C2 7108   0.432   3.769  11.618 -0.0825  0.2428 -0.2932
  478TMC3    C3 7109   0.332   3.836  11.566  0.0707 -0.4219  0.6577
  478TMC3    C4 7110   0.578   3.850  11.447  0.1635  0.3240  0.2391
  478TMC3    C5 7111   0.468   3.904  11.388  0.5977  0.2783 -0.5385
  478TMC3    C6 7112   0.345   3.903  11.449  0.6599 -0.0935  0.1773
  478TMC3     C 7113   0.674   3.780  11.662 -0.0285  0.0977 -0.1081
  478TMC3     O 7114   0.662   3.692  11.744  0.6046  0.4040 -0.0240
  478TMC3     H 7115   0.418   3.716  11.712  1.7459 -1.0845 -0.7627
  478TMC3    H1 7116   0.669   3.849  11.389  0.2288 -1.6498  0.3984
  478TMC3    H2 7117   0.255   3.938  11.399 -0.0289 -1.5832  0.4019
  478TMC3    C7 7118   0.494   3.961  11.254 -0.6420  0.4248  0.1802
  478TMC3    C8 7119   0.219   3.851  11.662 -0.4273  0.2054  0.4921
  478TMC3    O1 7120   0.611   3.992  11.236 -0.1103 -0.2836 -0.1312
  478TMC3    O2 7121   0.190   3.749  11.717 -0.3562  0.2534  0.5887
  479MPD2     C 7122   4.162   1.085  15.114 -0.3173 -0.5473 -0.5778
  479MPD2    C1 7123   4.100   1.060  15.230  0.2882  0.4587 -0.2809
  479MPD2    C2 7124   4.174   1.055  15.345  0.1314 -0.0470  0.0352
  479MPD2    C3 7125   4.305   1.100  15.348 -0.0651  0.2550 -0.6743
  479MPD2    C4 7126   4.366   1.131  15.231  0.3050  0.1707 -0.0912
  479MPD2    C5 7127   4.294   1.124  15.112  0.3135 -0.2353  0.1960
  479MPD2     H 7128   4.128   1.017  15.435  0.7430 -0.4558  0.1767
  479MPD2    H1 7129   4.468   1.165  15.222  0.5010 -0.8598 -1.6931
  479MPD2    H2 7130   4.093   1.075  15.032 -1.5761 -0.2750  0.4403
  479MPD2    H3 7131   4.334   1.145  15.013  0.8500 -1.2423  0.1987
  479MPD2     N 7132   4.385   1.091  15.461 -0.0509  0.6929  0.6085
  479MPD2    H5 7133   4.482   1.118  15.448 -0.1354 -0.0244 -1.4951
  479MPD2    N1 7134   3.971   0.997  15.221  0.2561  0.5592  0.3647
  479MPD2    H7 7135   3.925   0.984  15.131 -1.2749  0.8762  1.0891
  480TMC3    C1 7136   4.060   1.076  15.814  0.1492  0.1195  0.3832
  480TMC3    C2 7137   3.990   1.183  15.764 -0.2514  0.2690 -0.4243
  480TMC3    C3 7138   4.043   1.258  15.663 -0.8270  0.1994 -0.0127
  480TMC3    C4 7139   4.178   1.041  15.761  0.1429  0.2815  0.2783
  480TMC3    C5 7140   4.224   1.105  15.648 -0.3655 -0.2484 -0.0579
  480TMC3    C6 7141   4.162   1.218  15.606 -0.4751 -0.4259 -0.1272
  480TMC3     C 7142   4.004   0.987  15.918  0.2738  0.0272  0.0805
  480TMC3     O 7143   4.074   0.889  15.941 -0.1781 -0.0764 -0.0275
  480TMC3     H 7144   3.894   1.221  15.798 -0.1146  0.8773 -0.7238
  480TMC3    H1 7145   4.239   0.961  15.803 -0.8283  0.1763  1.4713
  480TMC3    H2 7146   4.213   1.274  15.529  0.8299  1.2203  1.9327
  480TMC3    C7 7147   4.352   1.066  15.591  0.4911  0.8664 -0.1772
  480TMC3    C8 7148   3.944   1.327  15.582  0.0238  0.0070  0.7364
  480TMC3    O1 7149   4.425   1.000  15.668 -0.4066 -0.5565 -0.4299
  480TMC3    O2 7150   3.844   1.369  15.638 -0.7817 -0.3885 -0.3410
  481MPD2     C 7151   0.939   1.045  14.136  0.0174 -1.0094 -0.4219
  481MPD2    C1 7152   0.896   0.921  14.145 -0.1282  0.4899  0.9673
  481MPD2    C2 7153   0.838   0.873  14.266  0.2411  0.3762 -0.5387
  481MPD2    C3 7154   0.811   0.960  14.373 -1.2541 -0.2932 -0.0097
  481MPD2    C4 7155   0.867   1.086  14.368  0.1590  0.0301 -0.1988
  481MPD2    C5 7156   0.929   1.127  14.249 -0.3988 -0.2427  0.5330
  481MPD2     H 7157   0.807   0.770  14.280  0.7555  0.1696 -0.9683
  481MPD2    H1 7158   0.856   1.156  14.450  1.5988 -2.5374  2.1796
  481MPD2    H2 7159   0.976   1.088  14.044 -0.1094  1.8539  0.8873
  481MPD2    H3 7160   0.958   1.231  14.248 -0.2927 -0.2617  1.7414
  481MPD2     N 7161   0.748   0.918  14.494 -0.4353  0.1024  0.3147
  481MPD2    H5 7162   0.759   0.979  14.575 -1.9997  1.1841 -0.2950
  481MPD2    N1 7163   0.903   0.846  14.028  0.3715  0.0554  0.2910
  481MPD2    H7 7164   0.945   0.896  13.949 -1.4087  0.8269 -0.1568
  482TMC3    C1 7165   0.857   0.665  13.876  0.2648  0.2551  0.5424
  482TMC3    C2 7166   0.747   0.587  13.843  0.2790  0.0378 -0.4910
  482TMC3    C3 7167   0.752   0.513  13.735  0.2972 -0.5585  0.0173
  482TMC3    C4 7168   0.968   0.670  13.800 -0.4953 -0.2831  0.5289
  482TMC3    C5 7169   0.970   0.590  13.692 -0.0639 -0.9499  0.3653
  482TMC3    C6 7170   0.861   0.516  13.651  0.3994  0.1495 -0.2025
  482TMC3     C 7171   0.858   0.717  14.012 -0.5222  0.2197  0.2062
  482TMC3     O 7172   0.810   0.640  14.095  0.3036 -0.3079 -0.2677
  482TMC3     H 7173   0.670   0.580  13.919 -0.0368 -1.3403 -0.9362
  482TMC3    H1 7174   1.050   0.730  13.835 -0.1200 -0.0733 -0.7095
  482TMC3    H2 7175   0.851   0.460  13.559 -2.2353 -1.8148  1.2780
  482TMC3    C7 7176   1.097   0.559  13.636  0.0908 -0.1171 -0.5326
  482TMC3    C8 7177   0.643   0.416  13.725 -0.3241  0.5239  0.1101
  482TMC3    O1 7178   1.193   0.558  13.712 -0.0236 -0.2953  0.0717
  482TMC3    O2 7179   0.667   0.299  13.711 -0.5757 -0.1655  0.5694
  483TMC3    C1 7180   2.765   4.393   0.921  0.5620 -1.4113  0.1460
  483TMC3    C2 7181   2.823   4.515   0.944 -0.3585 -0.4774 -0.6478
  483TMC3    C3 7182   2.939   4.517   1.022  0.5378  0.2250 -0.4218
  483TMC3    C4 7183   2.807   4.272   0.978  0.1930 -0.7529 -0.4130
  483TMC3    C5 7184   2.921   4.280   1.048  0.0450 -0.0304  1.0414
  483TMC3    C6 7185   2.987   4.399   1.075 -0.0955 -0.3364 -0.3180
  483TMC3     C 7186   2.644   4.393   0.837  0.0098 -0.1857  0.3430
  483TMC3     O 7187   2.588   4.500   0.826  0.7693 -0.3111 -0.0591
  483TMC3     H 7188   2.782   4.602   0.895 -1.3378 -0.1506  0.7602
  483TMC3    H1 7189   2.747   4.183   0.962 -3.2648  0.9313  3.2780
  483TMC3    H2 7190   3.074   4.396   1.140  0.0759 -2.1456 -0.6245
  483TMC3    C7 7191   2.987   4.155   1.084 -0.4837  0.4635 -0.4277
  483TMC3    C8 7192   3.039   4.616   0.978 -0.4529 -0.4962 -0.7102
  483TMC3    O1 7193   3.078   4.172   1.163 -0.3693  0.1590 -0.1811
  483TMC3    O2 7194   3.150   4.584   1.011  0.3734  0.0517  0.0532
  484MPD2     C 7195   1.522   2.504  12.392 -0.0449  0.9861 -0.8790
  484MPD2    C1 7196   1.565   2.427  12.496 -0.4206 -0.0767  0.2337
  484MPD2    C2 7197   1.698   2.378  12.496 -0.3439 -0.7820  0.8988
  484MPD2    C3 7198   1.793   2.424  12.401 -0.0775  0.5712 -0.3926
  484MPD2    C4 7199   1.747   2.510  12.306  0.3201  0.1779 -0.2543
  484MPD2    C5 7200   1.615   2.543  12.301  0.4426  0.2583 -0.0030
  484MPD2     H 7201   1.733   2.310  12.572  1.2009  0.4399  1.2740
  484MPD2    H1 7202   1.810   2.562  12.235  1.3824 -0.6950  0.0620
  484MPD2    H2 7203   1.420   2.539  12.379 -1.3557 -2.2170  0.6067
  484MPD2    H3 7204   1.583   2.614  12.225  0.0630  0.3255  0.2224
  484MPD2     N 7205   1.933   2.400  12.410 -0.9279  0.3123  0.3432
  484MPD2    H5 7206   1.988   2.457  12.348 -0.5931  1.0892  1.3492
  484MPD2    N1 7207   1.469   2.379  12.593  0.1986 -0.1753 -0.3962
  484MPD2    H7 7208   1.375   2.407  12.569  0.0575  0.1012  0.4960
  485TMC3    C1 7209   2.130   2.276  12.424  0.2852  0.0866 -0.8461
  485TMC3    C2 7210   2.210   2.203  12.504  0.9744 -0.2973  0.9469
  485TMC3    C3 7211   2.342   2.231  12.501 -0.1559  0.0256 -0.2106
  485TMC3    C4 7212   2.182   2.355  12.321  0.0354  0.4214 -0.4550
  485TMC3    C5 7213   2.314   2.381  12.334  0.1178 -0.0568 -0.3542
  485TMC3    C6 7214   2.388   2.338  12.434  0.5265 -0.5752 -0.5715
  485TMC3     C 7215   1.986   2.278  12.449 -0.6592  0.1226  0.1969
  485TMC3     O 7216   1.940   2.184  12.511 -0.1720 -0.0772  1.0533
  485TMC3     H 7217   2.161   2.139  12.577 -0.0407 -1.1417 -0.4769
  485TMC3    H1 7218   2.122   2.399  12.243 -0.0259  2.7175  0.8914
  485TMC3    H2 7219   2.491   2.366  12.447  0.5975 -1.9918  1.9460
  485TMC3    C7 7220   2.381   2.358  12.212  0.1922 -0.3465  0.4773
  485TMC3    C8 7221   2.430   2.122  12.506  0.6300  0.1528  0.1199
  485TMC3    O1 7222   2.498   2.395  12.217 -0.4660  0.3029  0.1641
  485TMC3    O2 7223   2.548   2.150  12.495  0.2548  0.5546  0.1676
  486MPD2     C 7224   3.532   1.128  13.783 -0.1005 -0.3299  0.8971
  486MPD2    C1 7225   3.486   1.120  13.656  0.0398 -0.6510 -0.1022
  486MPD2    C2 7226   3.545   1.207  13.558  1.2466  0.3733 -0.0641
  486MPD2    C3 7227   3.626   1.311  13.595 -0.0485 -0.4100 -0.3861
  486MPD2    C4 7228   3.665   1.321  13.728 -0.6724  0.2963  0.2485
  486MPD2    C5 7229   3.619   1.228  13.821 -0.4120 -0.4567 -0.4754
  486MPD2     H 7230   3.508   1.196  13.456 -0.2142 -0.6596  0.5819
  486MPD2    H1 7231   3.734   1.391  13.773 -1.2553  0.4776  0.8704
  486MPD2    H2 7232   3.494   1.052  13.850 -1.4456 -1.2249 -0.8576
  486MPD2    H3 7233   3.645   1.231  13.926 -0.9240  1.1218 -0.3898
  486MPD2     N 7234   3.680   1.410  13.505  0.2963 -0.4999 -0.6436
  486MPD2    H5 7235   3.691   1.499  13.551 -0.1927 -0.0593 -1.3750
  486MPD2    N1 7236   3.377   1.025  13.631 -0.3875 -0.2934 -0.1272
  486MPD2    H7 7237   3.347   0.972  13.712  2.8297 -1.0740  0.5578
  487TMC3    C1 7238   3.195   0.914  13.516  0.2944  0.5153 -0.5818
  487TMC3    C2 7239   3.090   0.944  13.440  0.2607 -0.2114 -0.6176
  487TMC3    C3 7240   2.989   0.859  13.445  0.5327 -0.6449 -0.0362
  487TMC3    C4 7241   3.203   0.798  13.596 -0.1925  0.3126  0.3613
  487TMC3    C5 7242   3.099   0.716  13.599  0.4718  0.1298 -0.0900
  487TMC3    C6 7243   2.992   0.741  13.519 -0.0980 -0.0994  0.3896
  487TMC3     C 7244   3.298   1.020  13.521 -0.8415 -0.5915 -0.7203
  487TMC3     O 7245   3.313   1.084  13.415 -0.0870  0.9490 -0.5897
  487TMC3     H 7246   3.087   1.032  13.378  3.2286 -0.0869 -0.5903
  487TMC3    H1 7247   3.285   0.786  13.666  1.6551  0.3057 -1.8186
  487TMC3    H2 7248   2.921   0.663  13.494  0.4823 -0.1875 -0.9955
  487TMC3    C7 7249   3.072   0.648  13.723 -0.1556 -0.8371 -0.0647
  487TMC3    C8 7250   2.850   0.912  13.453 -0.1287 -0.0520  0.3524
  487TMC3    O1 7251   3.168   0.615  13.790 -0.1916 -0.5387  1.0799
  487TMC3    O2 7252   2.784   0.840  13.532  0.0558 -0.3907  0.1551
  488MPD2     C 7253   3.699   2.692  16.555  0.0025 -0.4593 -0.0396
  488MPD2    C1 7254   3.641   2.818  16.575  0.1183 -0.3784 -0.1097
  488MPD2    C2 7255   3.559   2.829  16.688  0.3634  0.4592  0.0576
  488MPD2    C3 7256   3.540   2.720  16.771  1.1363  0.1266  0.0545
  488MPD2    C4 7257   3.590   2.595  16.741 -0.4595 -0.5276  0.3142
  488MPD2    C5 7258   3.676   2.582  16.635  0.0831 -0.2876  0.2167
  488MPD2     H 7259   3.502   2.920  16.702  3.3584  2.1311  1.4166
  488MPD2    H1 7260   3.560   2.506  16.795  0.4711 -0.5149  0.8579
  488MPD2    H2 7261   3.780   2.672  16.485  1.0776  0.7716  0.8674
  488MPD2    H3 7262   3.716   2.483  16.615  0.2904  0.1023 -1.2306
  488MPD2     N 7263   3.449   2.735  16.876  0.3755  0.3494 -0.1319
  488MPD2    H5 7264   3.405   2.825  16.890  1.2586  0.6006  1.0677
  488MPD2    N1 7265   3.661   2.938  16.495 -0.1349  0.5164 -0.3428
  488MPD2    H7 7266   3.609   3.022  16.519 -0.0817  0.5423 -0.3175
  489TMC3    C1 7267   3.321   2.667  17.060  0.4586  0.4530 -0.9849
  489TMC3    C2 7268   3.216   2.741  17.013  0.4844  0.2419  0.2953
  489TMC3    C3 7269   3.132   2.804  17.111  0.0339 -0.2616  1.1152
  489TMC3    C4 7270   3.356   2.673  17.189  0.3039 -0.3669 -0.6279
  489TMC3    C5 7271   3.279   2.742  17.281 -0.3141  0.2862 -0.6800
  489TMC3    C6 7272   3.164   2.802  17.241  0.3063  0.0720 -0.1317
  489TMC3     C 7273   3.431   2.639  16.972  0.1442  0.3092 -0.7399
  489TMC3     O 7274   3.501   2.546  17.006  0.1365 -0.4982 -0.0367
  489TMC3     H 7275   3.201   2.762  16.908  0.9733 -1.2208 -0.0656
  489TMC3    H1 7276   3.441   2.615  17.224  1.5718  0.8506 -1.6872
  489TMC3    H2 7277   3.100   2.845  17.317 -1.9100  1.5646 -2.8980
  489TMC3    C7 7278   3.304   2.727  17.427  0.3146  0.3610 -0.3713
  489TMC3    C8 7279   3.074   2.930  17.065 -1.0064  0.4017  0.0478
  489TMC3    O1 7280   3.218   2.785  17.492 -0.1721 -0.2343  0.0206
  489TMC3    O2 7281   3.082   3.029  17.136  0.1288  0.0317 -0.2692
  490MPD2     C 7282   4.119   2.987   0.045  0.5935 -0.4390  0.8706
  490MPD2    C1 7283   4.242   2.929   0.021 -0.1050 -0.1449  0.6518
  490MPD2    C2 7284   4.361   2.980   0.054  0.7892  0.4010  0.0979
  490MPD2    C3 7285   4.362   3.102   0.121  1.2367  0.4585  0.2955
  490MPD2    C4 7286   4.237   3.163   0.144  0.2069 -0.1961  0.0038
  490MPD2    C5 7287   4.125   3.105   0.113  0.0846  0.1977 -0.0409
  490MPD2     H 7288   4.453   2.931   0.024  0.3892  1.1333 -2.2944
  490MPD2    H1 7289   4.235   3.264   0.185  2.0819  1.0512 -2.9555
  490MPD2    H2 7290   4.019   2.950   0.026  0.8438 -1.4515  1.5122
  490MPD2    H3 7291   4.035   3.162   0.131 -0.7506 -0.6845 -1.4148
  490MPD2     N 7292   4.482   3.156   0.151  0.4556  0.0292  0.2608
  490MPD2    H5 7293   4.567   3.104   0.131 -0.4348 -1.8580  1.4280
  490MPD2    N1 7294   4.242   2.803  17.659 -0.3133 -0.1389 -0.1177
  490MPD2    H7 7295   4.333   2.757  17.664 -0.7450 -0.7653  2.0848
  491TMC3    C1 7296   4.152   2.590  17.643  1.0584  0.8896  0.2015
  491TMC3    C2 7297   4.189   2.548   0.071 -0.6339 -0.7456  0.7319
  491TMC3    C3 7298   4.156   2.423   0.112  0.2532  0.6211  0.2032
  491TMC3    C4 7299   4.078   2.508  17.565  0.0574 -0.1719  0.3374
  491TMC3    C5 7300   4.066   2.378  17.601  0.0644 -0.5053  0.1328
  491TMC3    C6 7301   4.088   2.333   0.034 -0.2506  1.1353  0.8704
  491TMC3     C 7302   4.133   2.731  17.616 -0.0361 -0.2137 -0.0822
  491TMC3     O 7303   4.018   2.760  17.593 -0.4018  0.1692  0.5743
  491TMC3     H 7304   4.239   2.611   0.144  1.8906 -2.3109  0.3615
  491TMC3    H1 7305   4.034   2.542  17.472  0.4187  0.4048  0.3793
  491TMC3    H2 7306   4.060   2.232   0.063  0.4554  0.3850 -1.0483
  491TMC3    C7 7307   4.019   2.278  17.507 -0.1172 -0.2011 -0.2536
  491TMC3    C8 7308   4.143   2.405   0.249  0.5293 -0.3770  0.3132
  491TMC3    O1 7309   3.984   2.167  17.551  0.3189  0.3707 -0.0386
  491TMC3    O2 7310   4.228   2.455   0.323 -0.1966 -0.1723  0.3992
  492MPD2     C 7311   0.408   2.688  11.510  0.2480  0.0174  0.1982
  492MPD2    C1 7312   0.340   2.611  11.422 -0.0569 -0.0548  0.5063
  492MPD2    C2 7313   0.271   2.501  11.466 -0.1224 -0.3896 -0.4794
  492MPD2    C3 7314   0.266   2.472  11.606 -0.2275  0.6764 -0.1990
  492MPD2    C4 7315   0.333   2.556  11.695  0.1086 -0.3423 -0.2505
  492MPD2    C5 7316   0.405   2.662  11.643 -0.3795  0.6405  0.0544
  492MPD2     H 7317   0.222   2.430  11.400 -1.3466 -0.9923  1.0792
  492MPD2    H1 7318   0.345   2.540  11.802 -1.5313 -1.4552 -0.2382
  492MPD2    H2 7319   0.474   2.769  11.482 -0.4135  0.2543 -0.6770
  492MPD2    H3 7320   0.472   2.724  11.701  1.5662 -0.3733 -1.1461
  492MPD2     N 7321   0.192   2.368  11.659  0.4408 -0.0315 -0.6335
  492MPD2    H5 7322   0.203   2.349  11.758  1.1455  1.4699 -0.4040
  492MPD2    N1 7323   0.362   2.641  11.279  0.1210  0.5696  0.0059
  492MPD2    H7 7324   0.422   2.718  11.252  0.8962 -0.3812 -0.9944
  493TMC3    C1 7325   0.320   2.639  11.050  0.3992 -0.0993 -0.4192
  493TMC3    C2 7326   0.407   2.747  11.046 -0.3071 -0.1504  0.3171
  493TMC3    C3 7327   0.375   2.852  10.959  0.9820 -0.8722  0.3621
  493TMC3    C4 7328   0.215   2.635  10.969 -0.3044  0.4256  0.8409
  493TMC3    C5 7329   0.180   2.743  10.892  0.0606  0.4345  0.1413
  493TMC3    C6 7330   0.257   2.852  10.886 -0.2026  0.6103 -0.2109
  493TMC3     C 7331   0.299   2.574  11.180  0.1570  0.2381 -0.1411
  493TMC3     O 7332   0.220   2.483  11.186  0.2377 -0.3799 -1.0534
  493TMC3     H 7333   0.505   2.741  11.091  0.3815 -0.1544 -1.1675
  493TMC3    H1 7334   0.149   2.550  10.980  0.3041 -0.1105  0.3600
  493TMC3    H2 7335   0.219   2.940  10.837  0.0915  0.4188 -0.7843
  493TMC3    C7 7336   0.045   2.744  10.854 -0.3191  0.8353 -0.5340
  493TMC3    C8 7337   0.467   2.962  10.954  0.2835 -1.0730  0.2929
  493TMC3    O1 7338   4.708   2.640  10.871 -0.4372  0.9791  0.3199
  493TMC3    O2 7339   0.539   2.961  11.055 -0.3976 -0.3571 -0.6123
  494TMC3    C1 7340   0.750   3.974   0.768 -0.5509 -0.0802 -0.3445
  494TMC3    C2 7341   0.740   3.840   0.759 -0.4168 -0.1063  0.0270
  494TMC3    C3 7342   0.789   3.784   0.643 -0.5889  0.0051  1.1495
  494TMC3    C4 7343   0.790   4.045   0.656 -0.4692  0.3927 -0.5820
  494TMC3    C5 7344   0.817   3.983   0.540 -0.0809  0.2722  0.2902
  494TMC3    C6 7345   0.830   3.849   0.530  0.3007 -0.5474 -0.8187
  494TMC3     C 7346   0.653   4.045   0.856  0.1393  0.1668  0.2108
  494TMC3     O 7347   0.625   4.156   0.814 -0.3088 -1.0166  0.0364
  494TMC3     H 7348   0.697   3.780   0.838 -1.3978  1.4116  0.6431
  494TMC3    H1 7349   0.793   4.153   0.662 -1.7651  0.3253  1.4600
  494TMC3    H2 7350   0.871   3.811   0.437  0.0145 -0.7046 -0.8817
  494TMC3    C7 7351   0.794   4.060   0.413 -0.7560 -0.1713 -0.3979
  494TMC3    C8 7352   0.817   3.644   0.651  0.1247  0.3497 -0.7546
  494TMC3    O1 7353   0.781   3.994   0.311 -0.6390 -0.1393  0.4760
  494TMC3    O2 7354   0.764   3.566   0.730 -0.3108 -0.1608  0.0902
  495TMC3    C1 7355   3.994   1.261  14.622 -0.2827 -0.4415  0.8044
  495TMC3    C2 7356   3.885   1.321  14.566 -0.2942  0.5697 -0.5913
  495TMC3    C3 7357   3.843   1.439  14.623  0.1815  0.3322  0.5699
  495TMC3    C4 7358   4.076   1.318  14.719 -0.1577 -0.4101 -0.2416
  495TMC3    C5 7359   4.025   1.428  14.776  0.3172  0.3454 -0.4415
  495TMC3    C6 7360   3.915   1.493  14.727  0.2400 -0.3633  0.1557
  495TMC3     C 7361   3.999   1.118  14.602 -0.3755  0.0256  0.4955
  495TMC3     O 7362   3.899   1.048  14.578  0.1791 -0.7137 -0.1438
  495TMC3     H 7363   3.828   1.267  14.491 -0.4827  1.3040 -0.9738
  495TMC3    H1 7364   4.142   1.252  14.775  0.3825 -1.7395 -2.4467
  495TMC3    H2 7365   3.882   1.591  14.759 -0.8559 -0.4787 -0.6327
  495TMC3    C7 7366   4.033   1.422  14.920  0.1050  0.7256 -0.3442
  495TMC3    C8 7367   3.709   1.429  14.679 -0.2541  0.4821 -0.5505
  495TMC3    O1 7368   4.136   1.401  14.982 -0.4628  0.0584  0.3627
  495TMC3    O2 7369   3.702   1.409  14.802 -0.6030  0.3465 -0.0189
  496MPD2     C 7370   1.166   1.767  16.011  0.0502 -0.3123  0.2666
  496MPD2    C1 7371   1.102   1.642  16.002 -0.1261 -0.2469  0.3732
  496MPD2    C2 7372   1.068   1.568  16.115  0.3324  0.0272 -0.1681
  496MPD2    C3 7373   1.104   1.621  16.237  0.5481  0.1482  0.2030
  496MPD2    C4 7374   1.173   1.746  16.245  0.1022 -0.3468  0.9632
  496MPD2    C5 7375   1.210   1.812  16.130  0.3535  0.1332 -0.1785
  496MPD2     H 7376   1.008   1.478  16.106  1.0386 -0.4471 -0.1696
  496MPD2    H1 7377   1.195   1.798  16.337  0.6804 -0.1745  0.7303
  496MPD2    H2 7378   1.199   1.797  15.912 -2.6505 -1.6307 -1.0242
  496MPD2    H3 7379   1.254   1.910  16.143 -1.5302  0.9005  0.4356
  496MPD2     N 7380   1.072   1.560  16.354 -0.1913 -0.1323 -0.2367
  496MPD2    H5 7381   1.079   1.614  16.439  0.3362 -2.3707  1.1259
  496MPD2    N1 7382   1.082   1.612  15.871  0.2347 -0.1414  0.2174
  496MPD2    H7 7383   1.127   1.679  15.809  0.1944 -0.9766 -0.7126
  497TMC3    C1 7384   1.003   1.393  16.521  0.3532  0.2703 -0.3150
  497TMC3    C2 7385   0.978   1.260  16.541 -0.7063 -0.1221  0.3165
  497TMC3    C3 7386   0.968   1.216  16.669 -0.0727 -0.2239  0.6119
  497TMC3    C4 7387   1.031   1.478  16.625  0.1589  0.8732 -0.3158
  497TMC3    C5 7388   1.021   1.426  16.751 -0.1844  0.0960  0.5507
  497TMC3    C6 7389   0.988   1.296  16.776  0.5897  0.0792  0.3714
  497TMC3     C 7390   1.009   1.436  16.374 -0.1699 -0.9212  0.8199
  497TMC3     O 7391   0.996   1.353  16.288 -0.3583 -0.1913  0.1595
  497TMC3     H 7392   0.948   1.200  16.455 -1.3557  1.5751 -0.6282
  497TMC3    H1 7393   1.045   1.585  16.615  1.8367  0.5165 -1.7693
  497TMC3    H2 7394   0.978   1.263  16.879 -0.1944  0.0631  0.2942
  497TMC3    C7 7395   1.032   1.520  16.860  0.1678  0.2650 -0.3876
  497TMC3    C8 7396   0.883   1.099  16.698  0.6290  0.4902 -0.0678
  497TMC3    O1 7397   0.960   1.619  16.856 -0.6864 -0.0094  0.3588
  497TMC3    O2 7398   0.829   1.081  16.810  0.5251  0.4158  0.1808
  498MPD2     C 7399   3.456   1.623   9.642 -0.0065 -0.8124  0.3284
  498MPD2    C1 7400   3.358   1.716   9.666 -1.1817  0.3350  0.6279
  498MPD2    C2 7401   3.227   1.696   9.632 -0.1192  0.3483 -0.0644
  498MPD2    C3 7402   3.191   1.570   9.577 -0.1798  0.1790  0.0899
  498MPD2    C4 7403   3.293   1.484   9.539 -0.5187 -0.1648 -0.5934
  498MPD2    C5 7404   3.429   1.517   9.561 -0.5732 -0.6959 -0.2785
  498MPD2     H 7405   3.147   1.767   9.643 -1.7449 -1.3646 -0.7854
  498MPD2    H1 7406   3.270   1.401   9.473 -0.6617 -1.8080  1.5172
  498MPD2    H2 7407   3.550   1.641   9.694 -0.5811  2.4144  0.2588
  498MPD2    H3 7408   3.507   1.446   9.538  0.6037  1.1755 -2.0684
  498MPD2     N 7409   3.055   1.554   9.560 -0.1044 -0.2834 -0.6438
  498MPD2    H5 7410   2.994   1.621   9.605 -1.0318 -1.7738  0.3466
  498MPD2    N1 7411   3.381   1.840   9.729  0.2536  0.4605 -0.0312
  498MPD2    H7 7412   3.300   1.897   9.751 -0.2450 -0.8620  1.5466
  499TMC3    C1 7413   3.490   2.028   9.819 -0.4189  0.8523  0.4378
  499TMC3    C2 7414   3.602   2.073   9.872  0.4700  0.0112 -0.1840
  499TMC3    C3 7415   3.611   2.208   9.903  0.6469 -0.4503 -0.3737
  499TMC3    C4 7416   3.396   2.121   9.790  0.3563 -0.5730  1.2560
  499TMC3    C5 7417   3.404   2.253   9.813  0.3083 -0.1785 -0.6477
  499TMC3    C6 7418   3.509   2.299   9.886 -0.7674 -0.3560 -0.3723
  499TMC3     C 7419   3.506   1.892   9.770 -0.3036 -0.2738 -0.2463
  499TMC3     O 7420   3.616   1.846   9.766  1.2032 -0.0215 -0.4348
  499TMC3     H 7421   3.679   2.003   9.903 -0.5889 -1.2654 -0.4421
  499TMC3    H1 7422   3.323   2.082   9.719  0.0613  0.4799  0.9794
  499TMC3    H2 7423   3.524   2.406   9.894 -2.2381 -0.2321  0.6886
  499TMC3    C7 7424   3.290   2.351   9.800  0.6189 -0.9386 -0.3163
  499TMC3    C8 7425   3.736   2.251   9.967  0.1420  0.0499  0.1968
  499TMC3    O1 7426   3.310   2.470   9.823 -0.4860  0.3491 -0.1482
  499TMC3    O2 7427   3.802   2.164  10.018 -0.1547 -0.0346  0.5501
  500MPD2     C 7428   3.815   3.480  10.406  0.8798  0.0395 -0.8447
  500MPD2    C1 7429   3.912   3.493  10.311  0.0754  0.3012  0.1812
  500MPD2    C2 7430   3.887   3.470  10.175 -0.2764  0.1031 -0.8299
  500MPD2    C3 7431   3.753   3.435  10.141  0.4444 -0.2327 -0.3916
  500MPD2    C4 7432   3.658   3.413  10.242 -0.4818 -0.0556  0.4890
  500MPD2    C5 7433   3.690   3.438  10.375 -0.3582 -0.2382  0.2541
  500MPD2     H 7434   3.964   3.474  10.100  0.4120  1.0726 -0.0747
  500MPD2    H1 7435   3.554   3.388  10.225 -0.9614  1.0138  1.8113
  500MPD2    H2 7436   3.835   3.498  10.511  1.1419  1.3720 -1.1195
  500MPD2    H3 7437   3.622   3.408  10.454 -0.6469 -0.6401 -0.1474
  500MPD2     N 7438   3.721   3.388  10.014 -0.0996 -0.6062 -0.3223
  500MPD2    H5 7439   3.627   3.349  10.009 -0.8233  1.0015  0.5515
  500MPD2    N1 7440   4.038   3.537  10.341 -1.0514  0.1636  0.5580
  500MPD2    H7 7441   4.094   3.564  10.262 -0.1390 -0.7917  0.8752
  501TMC3    C1 7442   4.241   3.574  10.458 -0.0375  0.4355 -0.0649
  501TMC3    C2 7443   4.261   3.677  10.368  0.0113  0.4829  0.1474
  501TMC3    C3 7444   4.389   3.708  10.348  0.3212 -0.5367 -0.2062
  501TMC3    C4 7445   4.334   3.500  10.523  0.1172  0.4187  0.0398
  501TMC3    C5 7446   4.462   3.534  10.497  0.4893 -0.5990  0.1384
  501TMC3    C6 7447   4.489   3.634  10.409 -0.3591 -0.0021  0.2477
  501TMC3     C 7448   4.102   3.529  10.462 -0.7202 -0.1145  1.1078
  501TMC3     O 7449   4.072   3.475  10.568 -0.1535 -0.1368  0.3909
  501TMC3     H 7450   4.180   3.745  10.345  0.2294  0.0511 -1.9866
  501TMC3    H1 7451   4.314   3.417  10.589 -0.6484 -1.0554 -2.0638
  501TMC3    H2 7452   4.591   3.670  10.400  0.2651 -2.1592 -1.2063
  501TMC3    C7 7453   4.526   3.546  10.623  0.4738 -0.0324 -0.7989
  501TMC3    C8 7454   4.414   3.850  10.375 -0.0707 -0.5492  0.3664
  501TMC3    O1 7455   4.497   3.465  10.709 -0.0013 -0.6335  0.5653
  501TMC3    O2 7456   4.508   3.880  10.448  0.0603  0.1109  0.4134
  502TMC3    C1 7457   3.688   2.109  15.363 -0.8105  0.1304  0.7921
  502TMC3    C2 7458   3.768   2.126  15.247 -0.2774 -0.4362  0.0871
  502TMC3    C3 7459   3.707   2.109  15.127  0.0250 -0.1698  0.4037
  502TMC3    C4 7460   3.551   2.091  15.357  0.0534  0.0533 -0.2091
  502TMC3    C5 7461   3.499   2.072  15.233  0.2271 -0.0861 -0.2351
  502TMC3    C6 7462   3.573   2.084  15.118 -0.7213  0.3461 -0.8120
  502TMC3     C 7463   3.752   2.127  15.495 -0.4415 -0.4929 -0.3282
  502TMC3     O 7464   3.875   2.125  15.495 -0.0088  0.1879  0.8225
  502TMC3     H 7465   3.874   2.133  15.266 -0.2756  0.2092 -0.1646
  502TMC3    H1 7466   3.502   2.059  15.448  0.4535  0.8963  0.3008
  502TMC3    H2 7467   3.523   2.064  15.024 -1.0794 -3.7761  0.2646
  502TMC3    C7 7468   3.366   2.023  15.223 -0.1246 -0.3874  0.3122
  502TMC3    C8 7469   3.765   2.173  15.008  0.2331 -0.0178  0.5060
  502TMC3    O1 7470   3.343   1.942  15.134  0.2283  0.3009 -0.1705
  502TMC3    O2 7471   3.695   2.228  14.926  0.3064  0.2630  0.1487
  503MPD2     C 7472   0.730   3.190  16.926  0.3788 -0.3779 -0.4953
  503MPD2    C1 7473   0.686   3.179  17.056 -0.3524 -0.4792 -0.2590
  503MPD2    C2 7474   0.715   3.057  17.121  0.8195 -0.1910 -0.3739
  503MPD2    C3 7475   0.792   2.954  17.055  0.4216  0.3700  0.6581
  503MPD2    C4 7476   0.837   2.978  16.924  0.2534 -0.4929  0.0243
  503MPD2    C5 7477   0.806   3.094  16.865 -0.3732 -0.1883 -0.4164
  503MPD2     H 7478   0.677   3.041  17.221 -0.1002  0.5967 -0.5933
  503MPD2    H1 7479   0.892   2.912  16.859  0.9162  1.0188 -0.9384
  503MPD2    H2 7480   0.711   3.281  16.870  1.1212 -0.4233 -0.8249
  503MPD2    H3 7481   0.837   3.121  16.765  0.4085  1.6399  0.3098
  503MPD2     N 7482   0.813   2.833  17.127  0.1130  0.1639  0.0256
  503MPD2    H5 7483   0.786   2.835  17.224  0.4337  0.3545  0.1112
  503MPD2    N1 7484   0.607   3.286  17.125  0.0245 -0.1023  0.1444
  503MPD2    H7 7485   0.589   3.281  17.224 -2.3144  0.5328 -0.2520
  504TMC3    C1 7486   0.890   2.617  17.176  0.2621 -0.5441  0.1336
  504TMC3    C2 7487   0.865   2.635  17.314  0.3223  0.2976 -0.0174
  504TMC3    C3 7488   0.936   2.570  17.411  0.1951 -0.1789 -0.4464
  504TMC3    C4 7489   0.988   2.526  17.140  0.2772 -0.6268  0.0598
  504TMC3    C5 7490   1.062   2.469  17.241  0.9298 -0.3406  0.3546
  504TMC3    C6 7491   1.038   2.481  17.378 -0.0047 -0.3473 -0.0534
  504TMC3     C 7492   0.877   2.720  17.079 -0.0796  0.1481 -0.8750
  504TMC3     O 7493   0.918   2.701  16.963  0.2354  0.8238  0.3127
  504TMC3     H 7494   0.793   2.710  17.344  1.2180  0.9730  0.4438
  504TMC3    H1 7495   1.024   2.520  17.038  1.6211  0.1984  0.4906
  504TMC3    H2 7496   1.106   2.430  17.444  2.2858  0.3830 -1.8682
  504TMC3    C7 7497   1.155   2.365  17.195  0.2154 -0.0112 -0.5958
  504TMC3    C8 7498   0.909   2.596  17.553 -0.3680  0.6945 -0.5934
  504TMC3    O1 7499   1.216   2.389  17.088  0.0682  0.4333  0.4729
  504TMC3    O2 7500   0.870   2.706  17.576  0.0216 -0.1172 -0.6767
  505MPD2     C 7501   1.695   1.514   9.445 -0.1097  0.2375  0.1934
  505MPD2    C1 7502   1.713   1.477   9.573 -0.1187  0.6466 -0.4079
  505MPD2    C2 7503   1.769   1.565   9.657 -1.1117 -0.2340 -0.1036
  505MPD2    C3 7504   1.792   1.699   9.621  0.1451 -0.2418  0.7501
  505MPD2    C4 7505   1.763   1.741   9.490  0.1128 -1.2808  0.1736
  505MPD2    C5 7506   1.714   1.644   9.402  0.0683  0.4783  0.2900
  505MPD2     H 7507   1.782   1.542   9.762 -0.3628  1.1385  0.1133
  505MPD2    H1 7508   1.775   1.846   9.463 -1.1765 -1.0236  0.5729
  505MPD2    H2 7509   1.645   1.451   9.372  2.7438 -0.8959 -0.8018
  505MPD2    H3 7510   1.670   1.679   9.310 -0.6095 -0.3222  0.3152
  505MPD2     N 7511   1.837   1.787   9.719  0.1363  0.0983 -0.4126
  505MPD2    H5 7512   1.848   1.751   9.813 -0.8908  0.8120 -0.0179
  505MPD2    N1 7513   1.684   1.342   9.608  0.2567  0.2638  0.3640
  505MPD2    H7 7514   1.659   1.275   9.536  0.5896  0.9158 -0.3658
  506TMC3    C1 7515   1.700   1.151   9.740 -0.4560  0.6814 -0.4811
  506TMC3    C2 7516   1.794   1.095   9.655 -0.0769  0.0213 -0.2941
  506TMC3    C3 7517   1.847   0.976   9.687  0.0285  0.7237 -0.3995
  506TMC3    C4 7518   1.710   1.125   9.878  0.9908  0.2809  0.0150
  506TMC3    C5 7519   1.796   1.026   9.918  0.8534 -0.3894 -0.3057
  506TMC3    C6 7520   1.853   0.943   9.821  0.8075  0.0218  0.1657
  506TMC3     C 7521   1.700   1.295   9.734  0.4731 -0.0959 -0.5970
  506TMC3     O 7522   1.726   1.348   9.840 -0.2150  0.5403 -0.3024
  506TMC3     H 7523   1.795   1.129   9.552  0.4576 -1.8202 -0.9027
  506TMC3    H1 7524   1.646   1.174   9.951 -0.1004  3.2774 -2.9899
  506TMC3    H2 7525   1.917   0.862   9.855  1.1322  1.5309  3.1372
  506TMC3    C7 7526   1.887   1.059  10.028 -0.0221 -0.0262  0.8028
  506TMC3    C8 7527   1.946   0.930   9.607 -0.4622  0.4264  1.0581
  506TMC3    O1 7528   1.985   0.986  10.030  0.1882  0.0627 -0.7224
  506TMC3    O2 7529   1.950   0.812   9.596  0.0175  0.0283  0.4065
  507TMC3    C1 7530   1.991   2.373  15.032  0.7589 -0.4274 -0.1124
  507TMC3    C2 7531   1.956   2.321  14.913 -1.1568  1.3023 -0.5608
  507TMC3    C3 7532   2.053   2.313  14.818 -0.7016 -0.1641 -0.3346
  507TMC3    C4 7533   2.120   2.422  15.062  0.1986  0.0102  0.4229
  507TMC3    C5 7534   2.216   2.410  14.969  0.2933  0.0860  0.4923
  507TMC3    C6 7535   2.181   2.352  14.852  0.1495 -0.4710  0.2319
  507TMC3     C 7536   1.877   2.427  15.109  0.0429 -0.7711  0.3287
  507TMC3     O 7537   1.766   2.403  15.067  0.1996  0.1662 -0.4087
  507TMC3     H 7538   1.852   2.303  14.892 -1.2158  1.2308 -0.2003
  507TMC3    H1 7539   2.157   2.447  15.160 -0.4431 -1.0403  0.9373
  507TMC3    H2 7540   2.253   2.333  14.773  0.2640 -1.6855  0.6343
  507TMC3    C7 7541   2.301   2.520  14.939 -0.6783 -0.5190 -0.6964
  507TMC3    C8 7542   2.025   2.355  14.681 -0.2736  0.2095 -0.1896
  507TMC3    O1 7543   2.371   2.578  15.023 -0.0383 -0.7474 -0.3205
  507TMC3    O2 7544   2.106   2.439  14.639 -0.0414  0.1604  0.4183
  508MPD2     C 7545   2.483   0.176  16.211  0.5242  0.7551 -0.4651
  508MPD2    C1 7546   2.613   0.139  16.185  0.2569 -0.0918 -1.1299
  508MPD2    C2 7547   2.648   0.127  16.057  0.0376  1.1170  0.3144
  508MPD2    C3 7548   2.564   0.154  15.957 -1.1451 -0.0558  0.2296
  508MPD2    C4 7549   2.430   0.196  15.983 -0.0670  0.3533  0.1597
  508MPD2    C5 7550   2.392   0.203  16.112  0.1576  0.1368  0.0619
  508MPD2     H 7551   2.752   0.101  16.042 -0.4032 -1.4088  1.7644
  508MPD2    H1 7552   2.357   0.226  15.909  0.5379  2.6906  0.5091
  508MPD2    H2 7553   2.453   0.191  16.315  2.2677  0.5832  0.0644
  508MPD2    H3 7554   2.299   0.247  16.145 -0.0998  0.3543 -0.9603
  508MPD2     N 7555   2.613   0.162  15.826 -0.0458  0.2219  0.0179
  508MPD2    H5 7556   2.714   0.153  15.826  0.0184  0.9427  0.4744
  508MPD2    N1 7557   2.697   0.114  16.298 -0.2031  0.8543  0.1894
  508MPD2    H7 7558   2.654   0.123  16.389  0.0585  1.5922  0.2399
  509TMC3    C1 7559   2.660   0.271  15.383  0.0463  0.2949 -0.6178
  509TMC3    C2 7560   2.792   0.295  15.397 -0.1750  0.1205 -0.0836
  509TMC3    C3 7561   2.843   0.260  15.517  0.0550  0.2223 -0.1888
  509TMC3    C4 7562   2.576   0.221  15.481  0.0321 -0.1742 -0.7999
  509TMC3    C5 7563   2.639   0.185  15.594 -0.1335  0.0880 -0.1775
  509TMC3    C6 7564   2.773   0.202  15.613 -0.1690  0.6126 -0.2119
  509TMC3     C 7565   2.598   0.352  15.276 -0.0971 -0.3645  0.2458
  509TMC3     O 7566   2.679   0.420  15.209 -0.3921  0.4079  0.5475
  509TMC3     H 7567   2.856   0.342  15.323  1.1508 -0.0616  0.9473
  509TMC3    H1 7568   2.468   0.222  15.478 -0.0438 -0.5835  2.0302
  509TMC3    H2 7569   2.829   0.167  15.699 -1.6256 -0.0458  0.4716
  509TMC3    C7 7570   2.550   0.178  15.707 -0.0117  0.2949  1.0317
  509TMC3    C8 7571   2.971   0.313  15.545 -0.9894  0.0342  0.3027
  509TMC3    O1 7572   2.435   0.149  15.686 -0.0704  0.0444  0.6264
  509TMC3    O2 7573   3.058   0.233  15.588  0.3043  0.1358 -0.0289
  510MPD2     C 7574   0.622   2.037  14.488  0.3953  0.2596  0.2074
  510MPD2    C1 7575   0.664   1.914  14.539 -0.1289 -0.5923 -0.1576
  510MPD2    C2 7576   0.779   1.854  14.488  0.3463 -0.4789 -0.3051
  510MPD2    C3 7577   0.843   1.913  14.387 -0.9284  0.6031 -0.2682
  510MPD2    C4 7578   0.800   2.034  14.333  0.8149  0.1418  0.6376
  510MPD2    C5 7579   0.692   2.098  14.385 -0.2262  0.0517 -0.7769
  510MPD2     H 7580   0.816   1.765  14.538 -1.1004 -2.0848 -2.0679
  510MPD2    H1 7581   0.848   2.082  14.248  0.0227 -0.0043  0.1045
  510MPD2    H2 7582   0.522   2.074  14.506  0.0690 -0.2204 -0.5653
  510MPD2    H3 7583   0.647   2.185  14.337  0.1666  0.3130 -0.6732
  510MPD2     N 7584   0.964   1.852  14.351  0.3942  0.6158 -0.2097
  510MPD2    H5 7585   1.002   1.778  14.409  0.8343  1.0631  0.0657
  510MPD2    N1 7586   0.608   1.859  14.657 -0.2727 -0.3831 -0.2445
  510MPD2    H7 7587   0.647   1.770  14.688 -0.6807  0.4323  2.6087
  511TMC3    C1 7588   0.463   1.812  14.838  0.7819  0.0689  0.4711
  511TMC3    C2 7589   0.399   1.843  14.953 -0.3681 -0.2862 -0.3039
  511TMC3    C3 7590   0.339   1.742  15.022 -0.2630  0.3428  0.4619
  511TMC3    C4 7591   0.457   1.691  14.788  0.0460 -0.5763 -0.2711
  511TMC3    C5 7592   0.400   1.588  14.851 -0.2105  0.5674 -0.0177
  511TMC3    C6 7593   0.331   1.613  14.971  0.5862  0.0498 -0.6645
  511TMC3     C 7594   0.512   1.916  14.740  0.2902  1.3412  0.7517
  511TMC3     O 7595   0.465   2.030  14.743 -0.1391 -0.4192 -0.1063
  511TMC3     H 7596   0.406   1.943  14.995 -0.4429  0.8706 -3.0247
  511TMC3    H1 7597   0.482   1.664  14.686 -1.9239  0.0217 -0.8991
  511TMC3    H2 7598   0.260   1.543  15.012  0.0454  2.1401  1.9292
  511TMC3    C7 7599   0.407   1.458  14.792 -0.0970  0.9723 -0.2289
  511TMC3    C8 7600   0.281   1.774  15.155 -0.3796  0.1464  0.3395
  511TMC3    O1 7601   0.464   1.453  14.682 -0.5064  0.3140 -0.5027
  511TMC3    O2 7602   0.247   1.890  15.171 -0.1851  0.3264 -0.3857
  512TMC3    C1 7603   3.934   1.168  13.665  0.5937 -0.6886  0.1927
  512TMC3    C2 7604   4.006   1.125  13.772 -0.5811  0.5697  0.0413
  512TMC3    C3 7605   4.048   0.991  13.768  0.0620 -0.3340 -0.2405
  512TMC3    C4 7606   3.900   1.092  13.565  0.0432  0.1757  0.2362
  512TMC3    C5 7607   3.924   0.958  13.567 -0.1854  0.2735 -0.1813
  512TMC3    C6 7608   4.011   0.908  13.663 -0.0164 -0.3170 -0.4629
  512TMC3     C 7609   3.975   1.302  13.637 -0.1418 -0.7102  0.2210
  512TMC3     O 7610   3.978   1.380  13.731  0.5092  0.0882  0.2852
  512TMC3     H 7611   4.026   1.182  13.861 -1.7057  0.5699  0.2948
  512TMC3    H1 7612   3.843   1.127  13.480 -1.1863 -2.9277 -0.2050
  512TMC3    H2 7613   4.050   0.807  13.656  1.7579  0.3687 -0.4353
  512TMC3    C7 7614   3.916   0.895  13.437 -0.2159  0.2828  0.6665
  512TMC3    C8 7615   4.157   0.963  13.858  0.1039  0.7155  0.0703
  512TMC3    O1 7616   3.875   0.956  13.340  0.8376 -1.0054 -0.2605
  512TMC3    O2 7617   4.184   0.844  13.872 -0.2805  0.1878 -0.2243
  513MPD2     C 7618   1.230   1.209  13.091 -0.2807  0.4100 -0.0717
  513MPD2    C1 7619   1.305   1.099  13.061 -0.4260  0.4548 -0.5688
  513MPD2    C2 7620   1.357   1.015  13.161 -0.0465  0.0167 -0.4816
  513MPD2    C3 7621   1.344   1.043  13.296  0.2129  0.0737  0.1932
  513MPD2    C4 7622   1.271   1.156  13.332  0.1807 -0.5415  0.7156
  513MPD2    C5 7623   1.214   1.234  13.228 -0.3066  0.2848  0.1104
  513MPD2     H 7624   1.412   0.925  13.138  0.6540  0.9878 -2.6807
  513MPD2    H1 7625   1.255   1.195  13.432 -1.7781 -1.3890  0.7237
  513MPD2    H2 7626   1.181   1.275  13.021  0.4902 -1.2870 -2.2109
  513MPD2    H3 7627   1.156   1.322  13.256 -0.4812  0.4363 -0.7520
  513MPD2     N 7628   1.388   0.944  13.383 -0.6235 -0.4294 -0.0252
  513MPD2    H5 7629   1.435   0.869  13.334  2.0329  0.6649  0.8778
  513MPD2    N1 7630   1.311   1.064  12.925  0.5565 -0.2719 -0.0332
  513MPD2    H7 7631   1.281   1.138  12.863  1.8981  0.4391  0.1684
  514TMC3    C1 7632   1.393   0.950  12.733  0.3017 -0.7341  0.3012
  514TMC3    C2 7633   1.428   1.069  12.676  0.0713 -0.0205  0.1057
  514TMC3    C3 7634   1.529   1.068  12.579  0.3355  0.4354 -0.0313
  514TMC3    C4 7635   1.440   0.829  12.691  0.4251 -0.4166  0.0733
  514TMC3    C5 7636   1.553   0.836  12.613 -0.0212 -0.1822  0.1249
  514TMC3    C6 7637   1.590   0.952  12.551  0.2459 -0.6705 -0.9111
  514TMC3     C 7638   1.366   0.943  12.872 -0.3865  0.1688 -0.4558
  514TMC3     O 7639   1.406   0.841  12.929  0.3008 -0.2457  1.2019
  514TMC3     H 7640   1.414   1.166  12.724  1.3023  0.5660 -0.7320
  514TMC3    H1 7641   1.409   0.735  12.736 -1.0832 -1.1653 -2.5625
  514TMC3    H2 7642   1.681   0.948  12.492  0.8446 -0.1654 -0.0306
  514TMC3    C7 7643   1.657   0.748  12.664  0.0929 -0.6146 -0.1345
  514TMC3    C8 7644   1.567   1.182  12.495  0.5549  0.6607  0.6743
  514TMC3    O1 7645   1.733   0.682  12.591  0.0720 -0.1890  0.2009
  514TMC3    O2 7646   1.669   1.176  12.427 -0.3569 -0.3804  0.3469
  515MPD2     C 7647   4.706   2.288  14.533  0.0134 -0.3561 -0.2405
  515MPD2    C1 7648   4.595   2.360  14.547 -0.4733 -0.3196 -0.2078
  515MPD2    C2 7649   4.587   2.490  14.586 -0.2697 -0.3134 -0.5442
  515MPD2    C3 7650   4.704   2.551  14.628  0.6766 -0.1706  0.0966
  515MPD2    C4 7651   0.093   2.479  14.633 -0.2276  0.5521 -0.1666
  515MPD2    C5 7652   0.097   2.352  14.574 -0.7571 -0.0537 -0.2517
  515MPD2     H 7653   4.492   2.542  14.585 -0.1433 -0.1042 -1.2719
  515MPD2    H1 7654   0.193   2.512  14.656  0.5550 -1.8115 -0.1429
  515MPD2    H2 7655   4.714   2.188  14.493 -2.6762  0.9940 -4.1172
  515MPD2    H3 7656   0.186   2.291  14.563 -1.4277 -0.7899 -1.5752
  515MPD2     N 7657   4.715   2.681  14.684 -0.0904  0.0598  0.0860
  515MPD2    H5 7658   0.082   2.706  14.720  0.0648 -2.2906  1.3533
  515MPD2    N1 7659   4.473   2.305  14.498 -0.1906  0.2022 -0.5630
  515MPD2    H7 7660   4.388   2.359  14.505 -0.0499  0.2309  1.1033
  516TMC3    C1 7661   4.307   2.145  14.471 -0.8082 -0.4640 -0.1793
  516TMC3    C2 7662   4.224   2.243  14.419 -0.5520 -0.0305  0.1056
  516TMC3    C3 7663   4.088   2.227  14.445  0.0883  0.2158 -0.6224
  516TMC3    C4 7664   4.255   2.039  14.532 -0.5903 -0.0468  0.6654
  516TMC3    C5 7665   4.123   2.026  14.539 -0.4956 -0.5539 -1.3397
  516TMC3    C6 7666   4.037   2.122  14.506  0.0328 -1.1573  0.8014
  516TMC3     C 7667   4.446   2.174  14.480 -0.6877 -0.5880  0.4958
  516TMC3     O 7668   4.521   2.081  14.506 -0.1062 -0.3548  0.0156
  516TMC3     H 7669   4.265   2.333  14.374 -0.2257  0.7059  1.8594
  516TMC3    H1 7670   4.322   1.960  14.566 -2.9481 -2.4152 -0.1963
  516TMC3    H2 7671   3.931   2.112  14.525 -0.6897  1.8510 -1.6970
  516TMC3    C7 7672   4.080   1.929  14.645  0.0691 -0.0840  0.3298
  516TMC3    C8 7673   3.996   2.329  14.408  0.2737 -0.7617 -0.1096
  516TMC3    O1 7674   4.171   1.887  14.716 -0.2093  0.2051  0.3099
  516TMC3    O2 7675   3.888   2.322  14.460  0.0991 -0.1513 -0.5026
  517MPD2     C 7676   3.469   3.969   0.522 -0.4868  0.7263  0.0435
  517MPD2    C1 7677   3.554   4.013   0.433  0.3350 -0.8189  0.5265
  517MPD2    C2 7678   3.611   4.138   0.454  0.5616  0.6588  0.1796
  517MPD2    C3 7679   3.563   4.222   0.549  0.0021  0.3007 -0.1639
  517MPD2    C4 7680   3.452   4.181   0.628 -0.6402  0.8060 -0.2451
  517MPD2    C5 7681   3.402   4.056   0.610  0.2225  0.6686  0.5312
  517MPD2     H 7682   3.691   4.168   0.388  0.5534  2.2863  0.9087
  517MPD2    H1 7683   3.407   4.250   0.698 -0.9682 -1.8042  2.1261
  517MPD2    H2 7684   3.430   3.868   0.524  3.1723 -0.7417 -1.5836
  517MPD2    H3 7685   3.316   4.027   0.669  0.5165  0.2416  0.7504
  517MPD2     N 7686   3.609   4.352   0.571  0.9597 -0.1952  0.5766
  517MPD2    H5 7687   3.547   4.411   0.625  1.9477 -0.1146  1.6198
  517MPD2    N1 7688   3.606   3.943   0.321 -1.1210  0.4169  0.1186
  517MPD2    H7 7689   3.666   4.006   0.268 -1.7380  0.5139 -0.4688
  518TMC3    C1 7690   3.621   3.792   0.140  0.1606  0.4970 -0.1615
  518TMC3    C2 7691   3.627   3.666   0.093  0.6166  0.0098  0.1086
  518TMC3    C3 7692   3.692   3.638  17.673 -0.1077 -0.1046 -0.6851
  518TMC3    C4 7693   3.679   3.894   0.065 -1.0695  0.9917  0.2401
  518TMC3    C5 7694   3.730   3.865  17.640 -0.5238  0.3973 -0.0889
  518TMC3    C6 7695   3.742   3.738  17.601 -0.0932  0.1911  0.5271
  518TMC3     C 7696   3.575   3.817   0.279 -0.2496 -0.4285  0.2433
  518TMC3     O 7697   3.513   3.727   0.340 -0.4068  0.4460  0.9295
  518TMC3     H 7698   3.601   3.577   0.149  1.1864  0.3404  0.9030
  518TMC3    H1 7699   3.674   3.998   0.097  0.3101  1.0797  0.1838
  518TMC3    H2 7700   3.784   3.724  17.502 -0.1325 -0.4585  0.6029
  518TMC3    C7 7701   3.839   3.960  17.609  0.4851 -0.9702 -0.5516
  518TMC3    C8 7702   3.747   3.505  17.647  0.1242  0.3098 -0.2199
  518TMC3    O1 7703   3.839   4.060  17.676  0.2229  0.3199  0.4607
  518TMC3    O2 7704   3.853   3.507  17.585 -0.0048 -0.0895  0.2755
  519MPD2     C 7705   0.873   2.916  14.162  0.7177  0.0280 -0.6059
  519MPD2    C1 7706   0.844   2.795  14.109  0.2548  0.3222  0.4577
  519MPD2    C2 7707   0.953   2.705  14.105  0.5459  0.2418  0.7023
  519MPD2    C3 7708   1.081   2.740  14.145  0.6131  0.4405  0.0097
  519MPD2    C4 7709   1.099   2.866  14.192  0.2232 -0.3473  0.0315
  519MPD2    C5 7710   0.996   2.944  14.211 -0.0827  0.5535 -0.3440
  519MPD2     H 7711   0.926   2.609  14.062  0.5002 -0.3816  2.1159
  519MPD2    H1 7712   1.197   2.898  14.227  1.0161  0.7353 -3.1594
  519MPD2    H2 7713   0.793   2.989  14.156  0.3570 -0.2902  0.4233
  519MPD2    H3 7714   1.022   3.034  14.266 -0.4486  0.3226  0.2064
  519MPD2     N 7715   1.190   2.649  14.145  0.1043  0.5436  0.2135
  519MPD2    H5 7716   1.285   2.679  14.163  0.3335  0.7412 -1.3412
  519MPD2    N1 7717   0.711   2.773  14.068 -0.0106 -0.1342  0.3933
  519MPD2    H7 7718   0.647   2.851  14.060  0.7041  0.2481 -1.6030
  520TMC3    C1 7719   1.304   2.474  14.056 -0.0915 -0.0768  0.4733
  520TMC3    C2 7720   1.377   2.560  13.974 -0.1681  0.4843 -0.3998
  520TMC3    C3 7721   1.496   2.509  13.932 -0.5797  0.3036  0.2997
  520TMC3    C4 7722   1.340   2.346  14.090  0.3839  0.5339 -0.1248
  520TMC3    C5 7723   1.447   2.297  14.032 -0.8982  0.3700 -0.2816
  520TMC3    C6 7724   1.536   2.384  13.968  0.4872  0.2477 -0.5626
  520TMC3     C 7725   1.175   2.518  14.101 -0.3189  0.7136  0.2233
  520TMC3     O 7726   1.084   2.438  14.118  0.0623 -0.1877  0.0800
  520TMC3     H 7727   1.330   2.646  13.928 -0.6248 -0.9196 -2.5530
  520TMC3    H1 7728   1.272   2.282  14.144  0.1238  0.4301 -0.5763
  520TMC3    H2 7729   1.625   2.348  13.917  1.4120 -0.4960  1.5754
  520TMC3    C7 7730   1.505   2.183  14.098 -0.2422 -0.1760  0.2117
  520TMC3    C8 7731   1.525   2.535  13.795  0.4902  0.3529 -0.8264
  520TMC3    O1 7732   1.466   2.145  14.210  0.7491  0.1428  1.1180
  520TMC3    O2 7733   1.628   2.595  13.770 -0.4488  0.3489 -0.8982
  521MPD2     C 7734   1.673   0.610  17.661 -0.1829  0.5454 -0.4415
  521MPD2    C1 7735   1.648   0.519  17.565 -0.3553 -0.2167  0.4418
  521MPD2    C2 7736   1.750   0.464  17.492  0.1025  0.6404  0.2546
  521MPD2    C3 7737   1.878   0.493  17.528  0.8156  0.6860 -0.4311
  521MPD2    C4 7738   1.903   0.590  17.622 -0.5847 -0.1483 -0.3144
  521MPD2    C5 7739   1.798   0.647  17.696  0.4884 -0.1082 -0.3624
  521MPD2     H 7740   1.734   0.382  17.423 -2.8429  0.2641  1.3594
  521MPD2    H1 7741   2.005   0.616  17.648 -1.2793  1.1417  1.0839
  521MPD2    H2 7742   1.585   0.649   0.012 -0.8874 -1.9144  0.2624
  521MPD2    H3 7743   1.830   0.720   0.072 -0.4086  0.4037 -0.4827
  521MPD2     N 7744   1.976   0.421  17.455  0.1197  0.0290 -0.1433
  521MPD2    H5 7745   1.956   0.367  17.372  0.6554  1.5686 -1.2633
  521MPD2    N1 7746   1.509   0.480  17.552 -0.4055  0.3681  0.6961
  521MPD2    H7 7747   1.448   0.546  17.599 -0.4593  1.7289 -1.2718
  522TMC3    C1 7748   2.195   0.337  17.401  0.4263  0.2261  0.1935
  522TMC3    C2 7749   2.326   0.345  17.426 -0.3206  0.0672  0.1245
  522TMC3    C3 7750   2.405   0.266  17.349 -0.4763  0.1891 -0.3990
  522TMC3    C4 7751   2.133   0.258  17.309 -0.4529  0.2124  0.2586
  522TMC3    C5 7752   2.216   0.193  17.221  0.7037  0.5752  0.0585
  522TMC3    C6 7753   2.349   0.187  17.250  0.2874  0.1389  0.3156
  522TMC3     C 7754   2.106   0.411  17.490  0.6503  1.0726 -0.3900
  522TMC3     O 7755   2.168   0.478  17.574 -0.1882 -0.0201 -0.5075
  522TMC3     H 7756   2.371   0.421  17.489 -1.9128  2.9614 -2.2608
  522TMC3    H1 7757   2.027   0.246  17.291 -0.0091 -1.3407 -1.3535
  522TMC3    H2 7758   2.405   0.118  17.188 -0.4170  0.4846 -0.7059
  522TMC3    C7 7759   2.165   0.133  17.096 -0.3274 -0.4943 -0.1258
  522TMC3    C8 7760   2.546   0.301  17.348  0.7829 -0.0516 -0.3695
  522TMC3    O1 7761   2.250   0.075  17.025  0.1165  0.0913  0.6656
  522TMC3    O2 7762   2.589   0.343  17.452 -0.1409  0.2421 -0.1930
  523MPD2     C 7763   0.027   0.840  10.374 -0.4057 -0.0346  0.0483
  523MPD2    C1 7764   4.703   0.752  10.285  0.0306 -0.0964  0.2745
  523MPD2    C2 7765   4.640   0.799  10.172 -0.4553  0.5459  0.3588
  523MPD2    C3 7766   4.638   0.940  10.150  0.6986 -0.2374 -0.5086
  523MPD2    C4 7767   4.699   1.033  10.232 -0.1162 -0.5191 -0.2354
  523MPD2    C5 7768   0.018   0.978  10.352  0.0564 -0.7453  0.1053
  523MPD2     H 7769   4.605   0.729  10.098  2.6998 -2.0444  1.3372
  523MPD2    H1 7770   4.702   1.140  10.217  4.0141 -0.4482  0.9939
  523MPD2    H2 7771   0.055   0.810  10.474 -0.6268 -6.3160 -1.7587
  523MPD2    H3 7772   0.064   1.037  10.430  0.0303 -2.2703  1.2751
  523MPD2     N 7773   4.584   1.001  10.034  0.3344 -0.0118  0.0710
  523MPD2    H5 7774   4.591   1.102  10.023 -1.3481  0.0319 -0.6348
  523MPD2    N1 7775   4.716   0.614  10.318  0.1404 -0.6374  0.5824
  523MPD2    H7 7776   0.038   0.600  10.408 -1.8834 -0.0368  1.7044
  524TMC3    C1 7777   4.500   1.034   9.825 -0.4382 -0.4833  0.6812
  524TMC3    C2 7778   4.381   1.004   9.765  0.0036  0.4727 -0.4051
  524TMC3    C3 7779   4.318   1.113   9.714  0.5697  0.0554 -0.5123
  524TMC3    C4 7780   4.551   1.156   9.844 -0.4033  0.1447  0.5131
  524TMC3    C5 7781   4.482   1.258   9.792  0.1358  0.5385 -0.3155
  524TMC3    C6 7782   4.367   1.241   9.723 -0.0328 -0.1686 -0.1407
  524TMC3     C 7783   4.534   0.936   9.926  0.0752 -0.2396 -0.2325
  524TMC3     O 7784   4.514   0.817   9.910  0.2400 -0.3044 -0.2201
  524TMC3     H 7785   4.360   0.910   9.715 -0.6306  0.4597 -0.1228
  524TMC3    H1 7786   4.651   1.169   9.885  0.4755 -0.8473 -1.3280
  524TMC3    H2 7787   4.315   1.321   9.671 -1.2135  0.1984  1.5878
  524TMC3    C7 7788   4.543   1.392   9.791 -0.1906  0.2493  0.1155
  524TMC3    C8 7789   4.202   1.087   9.629  0.0449  0.8683 -0.3933
  524TMC3    O1 7790   4.667   1.390   9.812 -0.0686  0.2499 -0.1189
  524TMC3    O2 7791   4.149   0.985   9.659 -0.5751  0.1309  0.2387
  525MPD2     C 7792   2.344   2.165  14.592  0.5892  0.1703 -0.2123
  525MPD2    C1 7793   2.467   2.184  14.662  0.5923  0.3920 -0.0132
  525MPD2    C2 7794   2.541   2.297  14.647  0.4532  0.5235 -0.0762
  525MPD2    C3 7795   2.502   2.390  14.550 -0.1512  0.5194 -0.0615
  525MPD2    C4 7796   2.384   2.369  14.487  0.3199  0.4416  0.4519
  525MPD2    C5 7797   2.307   2.262  14.505  0.1411  0.1550  0.3235
  525MPD2     H 7798   2.625   2.315  14.714 -0.4412  3.7072  0.1630
  525MPD2    H1 7799   2.348   2.443  14.416  1.7529  1.1064  0.4151
  525MPD2    H2 7800   2.286   2.075  14.613  0.9096 -0.3960 -1.8231
  525MPD2    H3 7801   2.212   2.255  14.452  0.3529  2.3420 -0.3264
  525MPD2     N 7802   2.567   2.513  14.521 -0.5531  0.0957 -0.2753
  525MPD2    H5 7803   2.521   2.588  14.471 -1.7741 -0.2607  0.3026
  525MPD2    N1 7804   2.512   2.098  14.764  0.7796  0.5582  0.6097
  525MPD2    H7 7805   2.607   2.113  14.795  0.6633  0.5740  0.9573
  526TMC3    C1 7806   2.512   1.944  14.931  0.1864 -0.4724 -0.0158
  526TMC3    C2 7807   2.456   1.883  15.036 -0.5482 -0.2957 -0.8373
  526TMC3    C3 7808   2.533   1.829  15.137  0.0741  0.7322 -0.2214
  526TMC3    C4 7809   2.646   1.928  14.904  0.0289 -0.4451 -0.0953
  526TMC3    C5 7810   2.717   1.856  14.998  0.6182  1.1870 -0.2105
  526TMC3    C6 7811   2.671   1.817  15.116  0.4783 -0.3425 -0.6739
  526TMC3     C 7812   2.432   2.014  14.834 -0.6598  0.2436  0.3104
  526TMC3     O 7813   2.312   2.003  14.842  0.8283  0.2386  0.2300
  526TMC3     H 7814   2.348   1.879  15.037 -0.6038  1.2680  0.3452
  526TMC3    H1 7815   2.686   1.942  14.804  0.1960 -0.0144  0.0322
  526TMC3    H2 7816   2.739   1.789  15.195  1.5669  1.8835 -0.8034
  526TMC3    C7 7817   2.857   1.848  14.976  0.8676  0.2382 -0.5506
  526TMC3    C8 7818   2.488   1.839  15.272  0.1104  0.1205  0.1450
  526TMC3    O1 7819   2.914   1.923  14.903  0.4357 -0.6214 -0.2870
  526TMC3    O2 7820   2.568   1.823  15.362  0.0074 -0.9042  0.0453
  527MPD2     C 7821   4.547   4.712   0.889 -0.0605  0.3705  0.7253
  527MPD2    C1 7822   4.578   0.001   1.026  0.0353 -0.0853  0.5595
  527MPD2    C2 7823   4.712   0.009   1.052 -0.4627 -0.1358  0.1269
  527MPD2    C3 7824   0.090   4.718   0.961 -0.2661 -0.1172  0.4754
  527MPD2    C4 7825   0.057   0.001   0.828 -0.5527 -0.2086  0.1671
  527MPD2    C5 7826   4.652   4.720   0.799  0.7283  0.2749 -0.0630
  527MPD2     H 7827   0.012   0.007   1.158  0.5158  0.5401 -0.0822
  527MPD2    H1 7828   0.127   0.023   0.749 -0.3509 -0.4755  0.2718
  527MPD2    H2 7829   4.447   4.710   0.847 -0.2719  1.2412  1.1981
  527MPD2    H3 7830   4.626   4.711   0.694 -1.2358  0.9279  0.3762
  527MPD2     N 7831   0.221   4.697   1.003  0.3671  0.9775  0.1341
  527MPD2    H5 7832   0.228   4.688   1.104 -0.7420  1.3217  0.2425
  527MPD2    N1 7833   4.482   4.711   1.127 -0.9128 -0.2482 -0.4581
  527MPD2    H7 7834   4.518   4.711   1.222 -0.4406 -0.6114 -0.6341
  528TMC3    C1 7835   4.267   4.692   1.227  0.0016  0.5485 -0.7142
  528TMC3    C2 7836   4.314   0.008   1.352 -0.4088 -0.3275  0.1879
  528TMC3    C3 7837   4.221   0.018   1.455  0.0924 -0.1381  0.7006
  528TMC3    C4 7838   4.131   4.669   1.207 -0.0497 -0.5854  0.7301
  528TMC3    C5 7839   4.047   4.689   1.312 -0.0925  0.6607 -0.0163
  528TMC3    C6 7840   4.090   4.713   1.442  0.5271  0.6226 -0.0718
  528TMC3     C 7841   4.347   4.702   1.109  0.2650  0.6308  0.2781
  528TMC3     O 7842   4.290   4.710   0.999  0.1913 -0.2421 -0.9529
  528TMC3     H 7843   4.416   0.040   1.367 -0.0668 -0.8630 -0.9647
  528TMC3    H1 7844   4.096   4.647   1.107 -1.1077  1.8726  0.5619
  528TMC3    H2 7845   4.014   0.012   1.515  0.7380  1.4355 -0.1180
  528TMC3    C7 7846   3.900   4.706   1.292 -0.1817  0.0159  0.7973
  528TMC3    C8 7847   4.287   0.034   1.579 -0.2269 -0.1926 -0.2852
  528TMC3    O1 7848   3.840   4.717   1.397 -0.4068 -0.2404 -0.6144
  528TMC3    O2 7849   4.393   0.094   1.572  0.3450 -0.4589  0.0324
  529MPD2     C 7850   1.786   2.659   0.481 -0.4116 -0.5802 -0.3948
  529MPD2    C1 7851   1.878   2.745   0.539  0.3589 -0.3643  0.9038
  529MPD2    C2 7852   1.897   2.876   0.492  0.1313 -0.0116  0.2839
  529MPD2    C3 7853   1.811   2.922   0.393 -0.1415  0.0501  0.3378
  529MPD2    C4 7854   1.711   2.839   0.354  0.2749  0.4038 -0.0563
  529MPD2    C5 7855   1.707   2.705   0.379  0.1344  0.4319 -0.1493
  529MPD2     H 7856   1.974   2.936   0.537 -0.4028  0.9084 -0.0318
  529MPD2    H1 7857   1.633   2.870   0.285 -1.4823 -0.3577  1.5653
  529MPD2    H2 7858   1.776   2.553   0.501  0.4120 -0.3181  1.4710
  529MPD2    H3 7859   1.637   2.630   0.345 -1.3474  0.4811  2.7108
  529MPD2     N 7860   1.818   3.050   0.337 -0.4925 -0.7540 -0.1095
  529MPD2    H5 7861   1.737   3.082   0.284  0.9655  0.5706 -1.5469
  529MPD2    N1 7862   1.966   2.706   0.637  0.3879 -0.0136 -0.1506
  529MPD2    H7 7863   2.035   2.775   0.666  2.0298 -2.4540  1.7594
  530TMC3    C1 7864   2.047   2.606   0.836 -0.3644 -0.0723  0.6050
  530TMC3    C2 7865   2.052   2.729   0.903 -0.7655 -0.6662 -1.0138
  530TMC3    C3 7866   2.138   2.716   1.007  0.5573  0.6545  0.0157
  530TMC3    C4 7867   2.118   2.491   0.859  0.1876  0.6230  0.8532
  530TMC3    C5 7868   2.203   2.493   0.961 -0.3791  0.5115  0.3348
  530TMC3    C6 7869   2.223   2.609   1.034 -0.7039  0.0841  0.2527
  530TMC3     C 7870   1.957   2.593   0.716  0.0694 -0.3770  1.0101
  530TMC3     O 7871   1.904   2.483   0.695  0.0964  0.0704 -0.2636
  530TMC3     H 7872   1.991   2.816   0.882  0.6119  0.5026 -0.0915
  530TMC3    H1 7873   2.112   2.402   0.798 -0.6197  1.6699 -0.5991
  530TMC3    H2 7874   2.293   2.611   1.117 -1.3276 -0.9492  0.8001
  530TMC3    C7 7875   2.245   2.367   1.014 -0.4245  0.2998  0.2655
  530TMC3    C8 7876   2.168   2.849   1.066 -0.0168  0.3944  0.3479
  530TMC3    O1 7877   2.234   2.269   0.947  0.0740  0.1055  0.1789
  530TMC3    O2 7878   2.071   2.918   1.079 -0.9655 -0.0201  0.2295
  531MPD2     C 7879   1.869   0.584  13.108 -0.7687 -0.4947 -0.2462
  531MPD2    C1 7880   1.743   0.631  13.135 -0.0860  0.3014  0.2588
  531MPD2    C2 7881   1.671   0.683  13.027  0.2494  0.6717 -0.3753
  531MPD2    C3 7882   1.723   0.678  12.900 -0.3048  0.4046 -0.5701
  531MPD2    C4 7883   1.852   0.635  12.877  0.2483  0.1535  0.0818
  531MPD2    C5 7884   1.925   0.587  12.983 -0.2331  0.2169 -0.2996
  531MPD2     H 7885   1.572   0.724  13.043 -0.4285  0.3014 -3.5772
  531MPD2    H1 7886   1.894   0.627  12.777  0.6219  1.1878  0.1647
  531MPD2    H2 7887   1.934   0.553  13.189  0.2664  0.1101 -0.8317
  531MPD2    H3 7888   2.029   0.559  12.971 -0.8342 -2.4801  0.9434
  531MPD2     N 7889   1.635   0.729  12.800 -0.4059 -0.1831  0.3576
  531MPD2    H5 7890   1.548   0.769  12.832 -1.7984 -2.1073 -1.0096
  531MPD2    N1 7891   1.702   0.635  13.270  0.0269 -0.1060  0.0826
  531MPD2    H7 7892   1.752   0.595  13.348 -1.3559  0.8400  1.4561
  532TMC3    C1 7893   1.560   0.656  13.456 -0.1500  0.5399  0.0103
  532TMC3    C2 7894   1.444   0.718  13.477  0.5057  0.0215 -0.3768
  532TMC3    C3 7895   1.433   0.824  13.566 -0.4246 -0.6283 -0.1647
  532TMC3    C4 7896   1.668   0.671  13.534  0.2861 -0.8344  0.0176
  532TMC3    C5 7897   1.654   0.769  13.623 -0.8610 -0.0469 -0.6400
  532TMC3    C6 7898   1.546   0.852  13.636  0.1725 -0.1648  0.2976
  532TMC3     C 7899   1.583   0.675  13.311  0.2071 -0.2635  0.8818
  532TMC3     O 7900   1.492   0.720  13.238 -0.3822 -1.0609 -0.2145
  532TMC3     H 7901   1.355   0.691  13.421  0.4557 -0.2767 -0.1572
  532TMC3    H1 7902   1.768   0.637  13.509  0.9891 -0.4681  2.2298
  532TMC3    H2 7903   1.553   0.944  13.692  1.9483  0.0997 -0.3505
  532TMC3    C7 7904   1.755   0.782  13.724  0.0763 -0.1908  0.8578
  532TMC3    C8 7905   1.386   0.953  13.519 -0.4154 -0.4499  0.2592
  532TMC3    O1 7906   1.774   0.897  13.769 -0.3671  0.0990 -0.3779
  532TMC3    O2 7907   1.368   1.046  13.594  0.1125  0.3228  0.2564
  533TMC3    C1 7908   2.760   2.639  14.528  0.8061  0.6737  0.7240
  533TMC3    C2 7909   2.894   2.646  14.523 -0.0690 -1.2606  0.0559
  533TMC3    C3 7910   2.944   2.767  14.562 -0.3835 -0.1489 -0.6202
  533TMC3    C4 7911   2.679   2.737  14.582  0.4947  0.3764 -0.5053
  533TMC3    C5 7912   2.736   2.848  14.639 -0.1306  0.0622  0.1536
  533TMC3    C6 7913   2.870   2.874  14.620  0.3656 -0.0384 -0.5285
  533TMC3     C 7914   2.704   2.509  14.535 -0.4848  0.0148  0.1002
  533TMC3     O 7915   2.786   2.416  14.558 -0.0837 -0.1617  0.8628
  533TMC3     H 7916   2.959   2.568  14.485  0.2391 -2.0609  2.2336
  533TMC3    H1 7917   2.571   2.730  14.585  0.7920 -3.1471  2.1307
  533TMC3    H2 7918   2.909   2.961  14.670  0.6805  0.9241 -2.4434
  533TMC3    C7 7919   2.726   2.816  14.784 -0.3366 -0.3478  0.2332
  533TMC3    C8 7920   3.083   2.766  14.600  0.1489 -0.2745 -0.3484
  533TMC3    O1 7921   2.657   2.714  14.811 -0.3058 -0.2036  0.1540
  533TMC3    O2 7922   3.135   2.876  14.617 -0.5023 -0.2606  0.2761
  534MPD2     C 7923   4.465   4.100   2.268 -0.0216  0.0517 -0.3112
  534MPD2    C1 7924   4.498   4.109   2.138 -0.6085 -0.4445  0.9396
  534MPD2    C2 7925   4.467   4.014   2.044 -0.1046  0.1547 -0.0740
  534MPD2    C3 7926   4.406   3.900   2.082  0.3531  0.3117  0.1630
  534MPD2    C4 7927   4.373   3.884   2.215  0.5573  0.1870 -0.6650
  534MPD2    C5 7928   4.397   3.988   2.303  0.1211 -0.8220 -0.1784
  534MPD2     H 7929   4.496   4.037   1.942 -0.9463 -0.5114 -0.4613
  534MPD2    H1 7930   4.314   3.804   2.258  1.4528  0.3136  0.7957
  534MPD2    H2 7931   4.475   4.177   2.344  1.5036 -1.6135  1.1467
  534MPD2    H3 7932   4.369   3.970   2.406  1.4455  0.2762  0.3680
  534MPD2     N 7933   4.384   3.804   1.978  0.6116 -0.3055 -0.4086
  534MPD2    H5 7934   4.412   3.838   1.887 -0.0996 -1.0761 -0.9188
  534MPD2    N1 7935   4.563   4.226   2.093  0.4481 -0.8955  0.2353
  534MPD2    H7 7936   4.594   4.213   1.997  1.2685  0.0744  0.3626
  535TMC3    C1 7937   4.264   3.644   1.861  0.2132 -0.3501 -0.6368
  535TMC3    C2 7938   4.132   3.600   1.850 -0.1574 -0.6656  0.5734
  535TMC3    C3 7939   4.073   3.588   1.723  0.2555  0.4164  0.5835
  535TMC3    C4 7940   4.333   3.679   1.749 -0.1387  0.5472  0.4774
  535TMC3    C5 7941   4.266   3.684   1.628  0.2990  0.1463 -0.0586
  535TMC3    C6 7942   4.138   3.640   1.617  0.0482 -0.4382  0.3124
  535TMC3     C 7943   4.305   3.699   1.992  0.5677 -0.8299 -0.0652
  535TMC3     O 7944   4.244   3.661   2.092  0.4578  0.4102  0.4382
  535TMC3     H 7945   4.084   3.551   1.934 -1.0935 -0.3477  0.2230
  535TMC3    H1 7946   4.436   3.710   1.740 -0.5135  1.6458  0.0422
  535TMC3    H2 7947   4.098   3.645   1.517  0.4627 -0.9713  0.1132
  535TMC3    C7 7948   4.335   3.718   1.512 -0.7974  0.0061 -0.3014
  535TMC3    C8 7949   3.929   3.573   1.709 -0.7606  0.8171  0.1562
  535TMC3    O1 7950   4.455   3.701   1.513  0.1422 -0.2955 -0.8076
  535TMC3    O2 7951   3.894   3.557   1.593 -0.0604 -0.3698 -0.1077
  536MPD2     C 7952   3.099   1.757  16.915  0.4094 -0.2320 -0.0011
  536MPD2    C1 7953   3.227   1.799  16.874 -0.0059  0.8046  0.7805
  536MPD2    C2 7954   3.240   1.865  16.749 -0.5355 -0.0630 -1.0482
  536MPD2    C3 7955   3.124   1.891  16.675  0.2332 -0.2443  0.0134
  536MPD2    C4 7956   2.995   1.858  16.723 -0.5380 -0.2505 -0.1528
  536MPD2    C5 7957   2.991   1.789  16.838  0.1561  0.6054 -0.5399
  536MPD2     H 7958   3.338   1.891  16.711 -0.7093  1.2842 -0.6023
  536MPD2    H1 7959   2.904   1.884  16.670  0.2325 -1.7944 -2.2197
  536MPD2    H2 7960   3.072   1.698  17.003  0.9820  0.4141  0.6027
  536MPD2    H3 7961   2.898   1.756  16.885  1.1987  0.4640  1.4291
  536MPD2     N 7962   3.131   1.954  16.550 -0.2600  0.4820  0.2892
  536MPD2    H5 7963   3.044   1.970  16.500  0.5140 -0.2595 -1.2744
  536MPD2    N1 7964   3.334   1.743  16.950 -0.5051 -0.1972 -0.0806
  536MPD2    H7 7965   3.301   1.694  17.033 -1.4458  1.9610  0.8283
  537TMC3    C1 7966   3.552   1.712  17.035  0.0032  0.3736 -0.0830
  537TMC3    C2 7967   3.658   1.787  17.061  0.2111  0.2429  1.0022
  537TMC3    C3 7968   3.713   1.791  17.188  0.0798 -0.2304  0.5037
  537TMC3    C4 7969   3.497   1.626  17.131  0.0576  0.0330 -0.9793
  537TMC3    C5 7970   3.558   1.633  17.256  0.1844 -0.0052 -0.2455
  537TMC3    C6 7971   3.661   1.709  17.287 -0.1413  0.0095  0.0302
  537TMC3     C 7972   3.467   1.755  16.928 -0.0368 -0.8176 -0.1824
  537TMC3     O 7973   3.522   1.822  16.842  0.6866 -0.6783 -0.2294
  537TMC3     H 7974   3.696   1.862  16.992  1.8542 -0.7748  0.7979
  537TMC3    H1 7975   3.423   1.551  17.105 -1.0117  1.0170 -0.8045
  537TMC3    H2 7976   3.691   1.719  17.391 -2.5625 -0.0995  0.7244
  537TMC3    C7 7977   3.515   1.540  17.355  0.0553 -0.1696  0.0418
  537TMC3    C8 7978   3.801   1.894  17.229 -0.1189  0.2455  0.7848
  537TMC3    O1 7979   3.517   1.577  17.472 -0.2080  0.2883 -0.3098
  537TMC3    O2 7980   3.791   1.918  17.349 -0.5543 -0.3710 -0.2253
  538TMC3    C1 7981   0.413   0.156  11.066 -1.0083  0.1091  0.2039
  538TMC3    C2 7982   0.528   0.175  10.984 -0.1755  0.8905 -0.0201
  538TMC3    C3 7983   0.514   0.244  10.871 -0.8280 -0.0261  0.2925
  538TMC3    C4 7984   0.290   0.202  11.020  0.3350  0.1173  0.5929
  538TMC3    C5 7985   0.284   0.280  10.906  0.0445  0.2153 -0.2198
  538TMC3    C6 7986   0.395   0.297  10.829  0.0839 -0.6073 -0.3961
  538TMC3     C 7987   0.426   0.092  11.195  1.2948 -1.1288 -1.0181
  538TMC3     O 7988   0.316   0.089  11.252 -0.5830 -0.0456 -0.1860
  538TMC3     H 7989   0.628   0.141  11.008 -0.5700 -0.5637 -0.4770
  538TMC3    H1 7990   0.200   0.195  11.080 -0.7417  1.3512 -0.9147
  538TMC3    H2 7991   0.374   0.309  10.724 -2.2999 -0.2977  0.1193
  538TMC3    C7 7992   0.161   0.359  10.876 -0.4122  0.2171 -0.1950
  538TMC3    C8 7993   0.620   0.220  10.773  0.3681  0.0024  0.0206
  538TMC3    O1 7994   0.055   0.309  10.908 -0.6453 -0.1753  0.8153
  538TMC3    O2 7995   0.717   0.156  10.804 -0.3680 -0.0104 -0.1798
  539MPD2     C 7996   0.044   3.957  11.889 -0.9033  0.2291  1.2512
  539MPD2    C1 7997   0.094   4.035  11.784  0.6176  0.8618 -0.0668
  539MPD2    C2 7998   0.059   4.166  11.779 -0.6266 -0.5830 -0.1940
  539MPD2    C3 7999   4.698   4.222  11.872  0.7285  0.2008 -0.4180
  539MPD2    C4 8000   4.654   4.133  11.975 -0.5704 -0.0636 -0.5832
  539MPD2    C5 8001   4.690   4.004  11.984  0.5529 -0.4337  0.0894
  539MPD2     H 8002   0.103   4.222  11.697 -3.7324  0.4295 -1.1604
  539MPD2    H1 8003   4.604   4.174  12.062 -0.2654  2.7768 -1.7332
  539MPD2    H2 8004   0.076   3.854  11.899  0.5356  0.7820  2.3060
  539MPD2    H3 8005   4.661   3.947  12.072 -1.3804  0.1683 -0.1627
  539MPD2     N 8006   4.649   4.351  11.884 -0.6130  0.5088  0.1382
  539MPD2    H5 8007   4.589   4.365  11.965 -2.8154 -2.2156 -1.0057
  539MPD2    N1 8008   0.185   3.987  11.687 -0.4920  0.0027 -0.4662
  539MPD2    H7 8009   0.203   4.051  11.610 -1.9401 -0.9163 -1.5715
  540TMC3    C1 8010   4.579   4.565  11.835 -0.2638  0.2513 -0.0306
  540TMC3    C2 8011   4.564   4.657  11.732  0.3199 -0.0260  0.4428
  540TMC3    C3 8012   4.516   0.055  11.765  0.4065 -0.4418  0.7728
  540TMC3    C4 8013   4.566   4.599  11.967  0.7817 -0.4266  0.9523
  540TMC3    C5 8014   4.521   4.723  11.998 -0.3924 -0.0716  0.6586
  540TMC3    C6 8015   4.487   0.089  11.898  0.0525  0.5443 -0.3103
  540TMC3     C 8016   4.659   4.454  11.794  0.6966 -0.9174 -0.1373
  540TMC3     O 8017   0.001   4.463  11.691 -0.1143 -0.1964 -0.4995
  540TMC3     H 8018   4.564   4.622  11.629  0.7524 -0.6555  0.6561
  540TMC3    H1 8019   4.567   4.525  12.046  0.3825 -1.5481 -0.0972
  540TMC3    H2 8020   4.449   0.185  11.931 -0.8342 -0.4819  1.6415
  540TMC3    C7 8021   4.472   0.035  12.130  0.3549 -0.3191  0.8513
  540TMC3    C8 8022   4.457   0.137  11.663 -0.9465 -0.4505  0.1006
  540TMC3    O1 8023   4.375   0.102  12.136  0.1857  0.3325  0.7288
  540TMC3    O2 8024   4.396   0.234  11.700 -0.0179 -0.2482 -0.4072
  541MPD2     C 8025   3.154   1.251  13.803  0.4210 -0.2121 -0.0900
  541MPD2    C1 8026   3.054   1.221  13.712  0.5116 -0.1230 -0.6943
  541MPD2    C2 8027   3.050   1.273  13.586  0.0788 -0.0540  0.4492
  541MPD2    C3 8028   3.168   1.334  13.542  0.4472  0.3147 -0.2876
  541MPD2    C4 8029   3.266   1.365  13.629  0.3373  0.5943  0.6692
  541MPD2    C5 8030   3.260   1.331  13.762 -0.4350  0.3514 -0.4444
  541MPD2     H 8031   2.965   1.251  13.522 -1.1998  1.8540  1.4883
  541MPD2    H1 8032   3.354   1.420  13.597  0.9134 -1.0889 -0.6418
  541MPD2    H2 8033   3.152   1.221  13.907  0.5990  2.7747  0.7804
  541MPD2    H3 8034   3.341   1.359  13.828 -2.3642  0.1988  1.9766
  541MPD2     N 8035   3.184   1.376  13.408  0.5941  0.0165 -0.2465
  541MPD2    H5 8036   3.268   1.429  13.384 -0.4426  2.2661  1.0615
  541MPD2    N1 8037   2.945   1.141  13.758 -0.2308 -0.3349  0.8291
  541MPD2    H7 8038   2.870   1.141  13.689  0.4203  0.9078  0.1244
  542TMC3    C1 8039   3.199   1.346  13.181  0.0583  0.2137 -0.0314
  542TMC3    C2 8040   3.139   1.375  13.059  0.0990 -0.0091 -0.8042
  542TMC3    C3 8041   3.218   1.352  12.952  0.2503  0.0413 -0.2718
  542TMC3    C4 8042   3.326   1.306  13.188 -0.0730  0.6862  0.1918
  542TMC3    C5 8043   3.407   1.287  13.073  0.1660  0.2540  0.4137
  542TMC3    C6 8044   3.355   1.335  12.957  0.5372 -0.5088  0.1116
  542TMC3     C 8045   3.118   1.324  13.302  0.0669 -0.2013 -0.2505
  542TMC3     O 8046   3.037   1.229  13.295  0.1468 -0.4768 -0.3804
  542TMC3     H 8047   3.033   1.397  13.053  0.0686 -0.5639 -2.2754
  542TMC3    H1 8048   3.376   1.284  13.282 -1.5276  1.4684  1.1412
  542TMC3    H2 8049   3.409   1.316  12.865 -1.4811  2.4031 -1.7145
  542TMC3    C7 8050   3.476   1.152  13.059  0.5570 -0.4986 -0.6364
  542TMC3    C8 8051   3.156   1.337  12.821 -0.1818  0.5497 -0.0937
  542TMC3    O1 8052   3.548   1.139  12.959  0.4822 -0.3560 -0.2445
  542TMC3    O2 8053   3.202   1.249  12.747 -0.0123 -0.3837  0.0853
  543TMC3    C1 8054   2.271   1.835  17.296 -0.4226  0.4549 -0.6506
  543TMC3    C2 8055   2.384   1.752  17.291  0.0747 -0.4105 -0.3118
  543TMC3    C3 8056   2.401   1.658  17.392 -0.2762 -0.3080  0.8563
  543TMC3    C4 8057   2.185   1.828  17.400 -0.1012  0.0014 -0.7885
  543TMC3    C5 8058   2.215   1.737  17.500  0.1174 -0.4401 -0.9760
  543TMC3    C6 8059   2.305   1.641  17.485  0.4500  0.8798  0.3476
  543TMC3     C 8060   2.258   1.939  17.190  0.4329  0.2795  0.6423
  543TMC3     O 8061   2.357   1.939  17.116 -0.1542  0.2883  0.4853
  543TMC3     H 8062   2.457   1.761  17.211  0.0878 -1.8857 -0.4684
  543TMC3    H1 8063   2.105   1.900  17.407 -0.1390  0.0790 -2.0529
  543TMC3    H2 8064   2.315   1.562  17.559  0.4450  1.3209  0.8251
  543TMC3    C7 8065   2.108   1.706  17.582 -0.4370  0.0996 -0.3847
  543TMC3    C8 8066   2.528   1.584  17.394  0.7458  0.7485  0.1510
  543TMC3    O1 8067   2.107   1.604  17.648 -0.0456 -0.2580 -0.2507
  543TMC3    O2 8068   2.600   1.618  17.307 -0.1667 -0.3259 -0.4237
  544MPD2     C 8069   2.894   1.297  17.597  0.5277  0.5204 -0.3437
  544MPD2    C1 8070   2.872   1.335  17.467  0.8866 -0.3452  0.4416
  544MPD2    C2 8071   2.762   1.413  17.441 -0.4830 -0.8610 -0.0950
  544MPD2    C3 8072   2.673   1.440  17.541 -0.0849  0.1933  0.0944
  544MPD2    C4 8073   2.689   1.402  17.666 -0.4932 -0.1550  0.5442
  544MPD2    C5 8074   2.804   1.328  17.692 -0.2239  0.0350  0.0135
  544MPD2     H 8075   2.737   1.431  17.337 -1.4481  0.2760  0.3420
  544MPD2    H1 8076   2.618   1.417   0.049 -0.0698  1.1347  0.6695
  544MPD2    H2 8077   2.968   1.219  17.610  0.7207  0.6670 -0.5611
  544MPD2    H3 8078   2.822   1.296   0.096 -1.5879 -1.4522 -0.2199
  544MPD2     N 8079   2.555   1.521  17.518  0.2333  0.3126  0.3345
  544MPD2    H5 8080   2.485   1.522  17.591  1.4376 -0.8542  1.5010
  544MPD2    N1 8081   2.955   1.281  17.367 -0.8829  0.8043 -0.0939
  544MPD2    H7 8082   3.036   1.225  17.390 -1.0056  0.6705  0.0163
  545TMC3    C1 8083   3.063   1.257  17.171  0.7070 -0.0560  0.6059
  545TMC3    C2 8084   3.112   1.336  17.066 -0.1852 -0.3587 -0.5471
  545TMC3    C3 8085   3.227   1.295  17.011  0.0394  0.5195  0.1374
  545TMC3    C4 8086   3.117   1.137  17.214 -0.2746 -1.2090  0.0330
  545TMC3    C5 8087   3.236   1.112  17.157  0.2742  0.3783  0.2805
  545TMC3    C6 8088   3.291   1.194  17.062  0.3919 -0.2431 -0.3070
  545TMC3     C 8089   2.948   1.319  17.240 -0.2099  1.0431  0.4888
  545TMC3     O 8090   2.887   1.407  17.174 -0.0246 -0.3674 -0.3855
  545TMC3     H 8091   3.067   1.431  17.041 -1.4139 -1.4683 -2.5405
  545TMC3    H1 8092   3.077   1.069  17.289  1.1785 -0.5035  1.4426
  545TMC3    H2 8093   3.391   1.170  17.029 -0.6837 -1.1142 -2.9396
  545TMC3    C7 8094   3.294   0.973  17.150  1.0974 -0.3904 -0.1457
  545TMC3    C8 8095   3.274   1.357  16.890  0.4849  0.0523  0.6018
  545TMC3    O1 8096   3.370   0.948  17.058  0.2419  0.4998 -0.6916
  545TMC3    O2 8097   3.394   1.356  16.876 -0.3693 -0.0416 -0.3972
  546MPD2     C 8098   3.888   2.321  16.786  0.2479 -0.1474  0.0636
  546MPD2    C1 8099   3.833   2.347  16.907  0.2511 -0.0780  0.0345
  546MPD2    C2 8100   3.902   2.434  16.999  0.1415  0.0984 -0.5002
  546MPD2    C3 8101   4.011   2.512  16.959 -0.3423  0.0460 -0.2453
  546MPD2    C4 8102   4.056   2.490  16.829 -0.4247  0.4085 -0.3460
  546MPD2    C5 8103   3.994   2.400  16.748 -0.5177 -0.0722 -0.1613
  546MPD2     H 8104   3.867   2.438  17.102 -0.9003  0.6805 -0.8726
  546MPD2    H1 8105   4.136   2.550  16.787 -1.2701  0.6766 -1.5590
  546MPD2    H2 8106   3.842   2.255  16.714  0.9830 -0.7159  0.1124
  546MPD2    H3 8107   4.031   2.385  16.647  3.7847  0.9424  1.2682
  546MPD2     N 8108   4.078   2.605  17.050 -0.3023  0.5236  0.5672
  546MPD2    H5 8109   4.156   2.649  17.002  0.1161 -0.3446  0.4355
  546MPD2    N1 8110   3.716   2.274  16.941  0.0157  0.4593  0.4119
  546MPD2    H7 8111   3.665   2.227  16.867 -0.3970  0.1501  0.8965
  547TMC3    C1 8112   3.539   2.190  17.067  0.3423  0.6595  0.3623
  547TMC3    C2 8113   3.453   2.222  16.970  0.1927  0.5169  0.1067
  547TMC3    C3 8114   3.338   2.139  16.956 -0.1456  0.0182 -0.0099
  547TMC3    C4 8115   3.520   2.084  17.155  0.1585  0.6245  0.2161
  547TMC3    C5 8116   3.399   2.019  17.152 -0.6985  0.7175 -0.1536
  547TMC3    C6 8117   3.307   2.048  17.052 -0.5402 -0.2458 -0.2926
  547TMC3     C 8118   3.664   2.263  17.067  0.1108 -0.3663 -0.3244
  547TMC3     O 8119   3.705   2.301  17.175  0.0509 -0.4546  0.2717
  547TMC3     H 8120   3.459   2.320  16.925 -1.0283  0.7776  0.5265
  547TMC3    H1 8121   3.597   2.079  17.231  1.9583 -0.4992 -1.6806
  547TMC3    H2 8122   3.208   2.004  17.042 -0.5754 -0.2656  0.1612
  547TMC3    C7 8123   3.343   1.958  17.273  0.1467 -0.2747  0.5222
  547TMC3    C8 8124   3.225   2.203  16.895 -0.8257  0.5030 -0.5846
  547TMC3    O1 8125   3.244   1.895  17.262 -0.1024  0.8286 -0.2712
  547TMC3    O2 8126   3.127   2.209  16.960  0.4015 -0.1236 -0.8090
  548MPD2     C 8127   4.277   2.564  13.292  0.1866 -0.0258 -0.4547
  548MPD2    C1 8128   4.192   2.550  13.180 -0.8079  0.3140 -0.6174
  548MPD2    C2 8129   4.238   2.476  13.074 -0.3535 -0.2495 -0.0485
  548MPD2    C3 8130   4.370   2.433  13.071 -0.0061 -0.3593  0.0452
  548MPD2    C4 8131   4.454   2.459  13.178  0.4298  0.0058  0.4886
  548MPD2    C5 8132   4.407   2.512  13.295  0.1350  0.0185  0.5723
  548MPD2     H 8133   4.175   2.444  12.992 -1.0501 -0.8160  0.7117
  548MPD2    H1 8134   4.556   2.423  13.183  0.6162  0.0754 -2.4294
  548MPD2    H2 8135   4.241   2.623  13.375  1.6447  2.3555 -1.5268
  548MPD2    H3 8136   4.466   2.535  13.383  2.8604  0.6475 -1.4042
  548MPD2     N 8137   4.418   2.367  12.955 -0.6537  0.5746  0.4084
  548MPD2    H5 8138   4.348   2.352  12.884 -1.3509 -0.8354  1.3817
  548MPD2    N1 8139   4.062   2.605  13.191 -0.1187  0.0725  0.6891
  548MPD2    H7 8140   4.033   2.646  13.278 -1.1428  1.0965 -0.1349
  549TMC3    C1 8141   3.834   2.633  13.134  0.4274  0.1936 -0.1052
  549TMC3    C2 8142   3.759   2.711  13.048  0.0241  1.0070 -0.1537
  549TMC3    C3 8143   3.621   2.696  13.044 -0.8939 -0.0238 -0.8148
  549TMC3    C4 8144   3.773   2.556  13.234 -0.2232  0.2177  0.3257
  549TMC3    C5 8145   3.639   2.574  13.242 -0.3201 -0.8853  0.0264
  549TMC3    C6 8146   3.557   2.637  13.151  0.3815 -0.1292 -0.6509
  549TMC3     C 8147   3.968   2.596  13.090 -0.1367 -0.6561 -0.3047
  549TMC3     O 8148   3.985   2.607  12.971  0.2998  0.0686  0.3278
  549TMC3     H 8149   3.805   2.780  12.978  0.5268 -0.3644 -1.1800
  549TMC3    H1 8150   3.840   2.499  13.298 -1.9448 -1.2846  0.7873
  549TMC3    H2 8151   3.450   2.652  13.159  0.4916  0.1351  0.2522
  549TMC3    C7 8152   3.557   2.476  13.314  0.4453  0.2845 -0.3677
  549TMC3    C8 8153   3.544   2.776  12.953 -0.1421  0.0889  0.8946
  549TMC3    O1 8154   3.444   2.505  13.347  0.6181  0.2474 -0.5761
  549TMC3    O2 8155   3.425   2.782  12.971  0.3685 -0.3742 -0.5548
  550TMC3    C1 8156   2.547   0.909  12.273 -0.2595 -0.4500 -0.0382
  550TMC3    C2 8157   2.541   0.945  12.414  0.5071 -0.4058 -0.1332
  550TMC3    C3 8158   2.526   1.074  12.447 -0.1186  0.5412 -0.3574
  550TMC3    C4 8159   2.549   1.010  12.183  0.6164 -0.5678  0.0964
  550TMC3    C5 8160   2.545   1.141  12.223 -0.3473  0.2348  0.0523
  550TMC3    C6 8161   2.523   1.179  12.354  0.6352 -0.2928 -0.1695
  550TMC3     C 8162   2.597   0.778  12.229  0.1571  0.7591 -0.5567
  550TMC3     O 8163   2.652   0.722  12.323  0.6206  0.2138  0.5408
  550TMC3     H 8164   2.558   0.877  12.496 -1.6936  2.4677  2.6682
  550TMC3    H1 8165   2.579   0.985  12.081 -1.0656  0.6772 -0.7037
  550TMC3    H2 8166   2.498   1.280  12.385  1.0135 -0.9706  2.3662
  550TMC3    C7 8167   2.480   1.232  12.128 -0.4169 -0.7291  0.6577
  550TMC3    C8 8168   2.459   1.113  12.567 -0.4031  0.2685 -0.4536
  550TMC3    O1 8169   2.420   1.329  12.181  0.4049 -0.0404 -0.4833
  550TMC3    O2 8170   2.422   1.227  12.578  0.2810 -0.1019  0.9049
  551TMC3    C1 8171   0.085   3.053  13.191 -0.4571 -0.3525 -0.5190
  551TMC3    C2 8172   0.204   3.092  13.131  0.8419  0.4148 -0.2539
  551TMC3    C3 8173   0.276   3.195  13.187 -0.7237 -0.5043 -0.2685
  551TMC3    C4 8174   0.055   3.102  13.319  0.0314  0.2719  0.1956
  551TMC3    C5 8175   0.128   3.207  13.372  0.8824 -0.3610  0.6800
  551TMC3    C6 8176   0.238   3.256  13.307  0.4118  0.0528  0.4445
  551TMC3     C 8177   4.697   3.032  13.103 -0.2735 -0.1593  0.0332
  551TMC3     O 8178   4.708   3.064  12.986  0.6031 -0.0902 -0.4721
  551TMC3     H 8179   0.221   3.056  13.030 -1.5152 -2.2094  0.2852
  551TMC3    H1 8180   4.701   3.061  13.382  0.6182 -2.6186 -0.9309
  551TMC3    H2 8181   0.304   3.324  13.359  0.5853 -1.3547  2.0583
  551TMC3    C7 8182   0.087   3.276  13.488  0.5867 -0.3140  0.6233
  551TMC3    C8 8183   0.396   3.241  13.117 -0.1958  0.4912  1.0294
  551TMC3    O1 8184   0.030   3.207  13.572  0.1936  0.3985  0.6033
  551TMC3    O2 8185   0.471   3.161  13.067  0.7213 -0.3077 -0.3025
  552MPD2     C 8186   1.803   0.758  14.140 -0.5828 -0.7593 -0.5452
  552MPD2    C1 8187   1.775   0.636  14.195 -0.8324 -0.1249  0.5294
  552MPD2    C2 8188   1.844   0.596  14.307  0.1178  0.4071 -0.7690
  552MPD2    C3 8189   1.941   0.669  14.362 -0.3997  0.4484  0.3601
  552MPD2    C4 8190   1.976   0.786  14.296  0.4344 -0.5099  0.2951
  552MPD2    C5 8191   1.910   0.827  14.185 -0.2920  0.1720 -0.6793
  552MPD2     H 8192   1.815   0.503  14.354 -0.7535  0.7322 -0.6581
  552MPD2    H1 8193   2.057   0.846  14.335  0.6743 -0.5416 -0.1558
  552MPD2    H2 8194   1.759   0.802  14.051 -1.9987  1.8076  1.4094
  552MPD2    H3 8195   1.943   0.922  14.146  2.3682  0.0151  1.1693
  552MPD2     N 8196   2.023   0.627  14.476 -0.0641 -0.0163  0.5542
  552MPD2    H5 8197   2.112   0.675  14.485 -0.5072  0.8248  0.5497
  552MPD2    N1 8198   1.682   0.548  14.143  0.4949 -0.3436  0.5892
  552MPD2    H7 8199   1.676   0.454  14.179  1.9822 -0.4484  0.5465
  553TMC3    C1 8200   1.542   0.466  13.983 -0.6024 -0.1003  0.6685
  553TMC3    C2 8201   1.529   0.460  13.848  0.2724  0.0521 -0.0412
  553TMC3    C3 8202   1.502   0.349  13.784  0.6620  0.0722 -0.3606
  553TMC3    C4 8203   1.528   0.355  14.056 -0.2946  0.5636  0.2949
  553TMC3    C5 8204   1.502   0.240  13.986  0.5386 -0.4000  0.1934
  553TMC3    C6 8205   1.480   0.233  13.854  0.6384 -0.0934  0.0155
  553TMC3     C 8206   1.590   0.584  14.047  0.6508 -0.1615  0.1170
  553TMC3     O 8207   1.559   0.694  13.996  0.0540  0.0487  0.5424
  553TMC3     H 8208   1.566   0.550  13.800  1.2480 -0.5993 -0.5241
  553TMC3    H1 8209   1.527   0.345  14.164 -0.2983  1.4837  0.3767
  553TMC3    H2 8210   1.469   0.134  13.812 -0.6021  0.3762 -0.7834
  553TMC3    C7 8211   1.490   0.116  14.058 -0.0377  0.0056  0.8160
  553TMC3    C8 8212   1.598   0.325  13.687  0.5060 -0.3267 -0.4439
  553TMC3    O1 8213   1.387   0.055  14.038  0.5848 -0.6256 -0.0387
  553TMC3    O2 8214   1.698   0.395  13.677  0.2132  0.6019  0.3228
  554TMC3    C1 8215   3.640   4.576  11.470  0.6524 -0.0367  0.5719
  554TMC3    C2 8216   3.567   4.511  11.370 -0.0354  0.3522  0.2497
  554TMC3    C3 8217   3.484   4.584  11.292  0.5934  0.4817  0.5773
  554TMC3    C4 8218   3.637   4.711  11.490  0.1918 -0.1426  0.5070
  554TMC3    C5 8219   3.551   0.059  11.410  0.3362  0.7716  0.2704
  554TMC3    C6 8220   3.475   4.723  11.310  0.2427  0.6462  0.1439
  554TMC3     C 8221   3.747   4.496  11.530  0.0551  0.6953  0.4043
  554TMC3     O 8222   3.739   4.375  11.523 -0.4955  0.7318  0.1891
  554TMC3     H 8223   3.583   4.405  11.350 -2.2273 -0.3052  2.0453
  554TMC3    H1 8224   3.672   0.027  11.584  0.5844  0.4024  0.1262
  554TMC3    H2 8225   3.409   0.059  11.249  2.2030  2.0411 -0.5941
  554TMC3    C7 8226   3.607   0.184  11.371 -0.0932 -0.0847 -0.0706
  554TMC3    C8 8227   3.431   4.527  11.173 -0.5868 -0.0423  0.3297
  554TMC3    O1 8228   3.585   0.209  11.252  0.2770  0.0652 -0.6198
  554TMC3    O2 8229   3.415   4.607  11.082 -0.3757  0.0665 -0.1380
  555TMC3    C1 8230   2.424   4.081  15.408  0.0291  0.6372  0.6113
  555TMC3    C2 8231   2.404   4.151  15.521  0.0248  0.0115  0.3976
  555TMC3    C3 8232   2.472   4.115  15.637 -0.7536 -0.2122  0.6688
  555TMC3    C4 8233   2.526   3.986  15.401 -0.5687 -0.5532 -0.2851
  555TMC3    C5 8234   2.596   3.955  15.520  0.7602 -0.1146  0.0061
  555TMC3    C6 8235   2.559   4.015  15.636  0.0207  0.7568 -0.6194
  555TMC3     C 8236   2.404   4.149  15.283  0.6025  0.0265  0.4156
  555TMC3     O 8237   2.495   4.123  15.203  0.1042  0.5000 -0.0362
  555TMC3     H 8238   2.325   4.224  15.517  1.7478  1.7906 -1.0672
  555TMC3    H1 8239   2.546   3.931  15.310 -0.2083 -4.5997  2.1930
  555TMC3    H2 8240   2.618   3.997  15.725 -2.1536  0.2484  0.7275
  555TMC3    C7 8241   2.669   3.830  15.531  0.0972  0.0622  1.0961
  555TMC3    C8 8242   2.453   4.213  15.743  0.1436 -0.3354  0.5794
  555TMC3    O1 8243   2.641   3.764  15.630  0.3679  0.0635  0.0219
  555TMC3    O2 8244   2.359   4.290  15.722 -0.3874 -0.0354  0.1040
  556MPD2     C 8245   0.762   1.453  10.506 -0.2937  0.2114  0.2031
  556MPD2    C1 8246   0.847   1.347  10.539  0.0786  1.0593 -0.0494
  556MPD2    C2 8247   0.848   1.230  10.462  0.8003  0.5409  0.1510
  556MPD2    C3 8248   0.767   1.229  10.351 -0.5932 -0.2951 -0.3850
  556MPD2    C4 8249   0.680   1.327  10.314  0.4724 -0.5857 -0.6624
  556MPD2    C5 8250   0.684   1.439  10.395 -0.1675  0.4078  0.2557
  556MPD2     H 8251   0.902   1.143  10.498  0.8829  0.0225 -1.2455
  556MPD2    H1 8252   0.627   1.326  10.220 -1.7480 -0.9383  0.5811
  556MPD2    H2 8253   0.754   1.545  10.564  0.1003 -0.4304  1.2636
  556MPD2    H3 8254   0.628   1.529  10.370 -1.2977 -0.7850 -1.5261
  556MPD2     N 8255   0.783   1.118  10.269  0.1273  0.3604  0.3996
  556MPD2    H5 8256   0.852   1.048  10.297 -1.4227 -1.2278  0.2742
  556MPD2    N1 8257   0.929   1.350  10.652  0.0977  0.1422 -0.0975
  556MPD2    H7 8258   0.960   1.256  10.674 -1.2884  0.2774  2.5069
  557TMC3    C1 8259   0.730   0.961  10.116  0.4454  0.0568  0.3501
  557TMC3    C2 8260   0.683   0.929   9.986 -0.1307 -0.4935  0.1676
  557TMC3    C3 8261   0.661   0.797   9.959  0.4839 -0.6308 -0.3767
  557TMC3    C4 8262   0.766   0.864  10.205  0.0596 -0.0013 -0.0319
  557TMC3    C5 8263   0.748   0.734  10.170 -0.1574 -0.2424  0.2346
  557TMC3    C6 8264   0.690   0.695  10.048 -0.0322 -0.1488  0.4292
  557TMC3     C 8265   0.712   1.099  10.153  0.5873  0.0199 -0.4769
  557TMC3     O 8266   0.662   1.177  10.074 -0.3309 -0.6841 -0.1999
  557TMC3     H 8267   0.653   1.007   9.916 -0.8760 -0.8242  0.1245
  557TMC3    H1 8268   0.791   0.885  10.308  0.6281  3.4285 -0.8766
  557TMC3    H2 8269   0.662   0.593  10.029  4.2773 -1.1363 -0.6348
  557TMC3    C7 8270   0.742   0.645  10.277  0.1441  0.6407 -0.3407
  557TMC3    C8 8271   0.599   0.773   9.827  0.2929 -0.3280  0.3171
  557TMC3    O1 8272   0.712   0.693  10.382 -0.5690 -0.2963 -0.2250
  557TMC3    O2 8273   0.590   0.865   9.755 -0.1508  0.0926 -0.4897
  558TMC3    C1 8274   3.750   3.248   9.836  0.7816  0.0100 -0.6017
  558TMC3    C2 8275   3.711   3.146   9.909 -0.4664  0.4063  0.3276
  558TMC3    C3 8276   3.663   3.035   9.844  0.0844  0.2864  0.8080
  558TMC3    C4 8277   3.716   3.261   9.707 -0.1604 -0.0918 -0.3400
  558TMC3    C5 8278   3.656   3.149   9.643 -0.2796 -0.1405  0.2088
  558TMC3    C6 8279   3.639   3.033   9.713 -0.1187 -0.5576  0.0421
  558TMC3     C 8280   3.808   3.356   9.913  0.2410  0.3239  0.0530
  558TMC3     O 8281   3.919   3.392   9.877  0.2819 -0.3741 -0.2826
  558TMC3     H 8282   3.762   3.138  10.004 -1.3220 -0.6473  0.6965
  558TMC3    H1 8283   3.733   3.357   9.660  1.3942 -0.2359 -0.0684
  558TMC3    H2 8284   3.607   2.945   9.659  1.4840 -0.4099 -1.1372
  558TMC3    C7 8285   3.589   3.171   9.520 -0.1774 -0.1101  0.6755
  558TMC3    C8 8286   3.626   2.920   9.920  0.6625  0.0243  0.4354
  558TMC3    O1 8287   3.628   3.275   9.467 -0.0050 -0.1512  0.6575
  558TMC3    O2 8288   3.627   2.813   9.866  0.1459  0.4297  0.3193
  559MPD2     C 8289   3.858   4.054  10.529  0.2523 -0.1028  0.1151
  559MPD2    C1 8290   3.800   3.944  10.589 -0.3727 -1.0193  0.3253
  559MPD2    C2 8291   3.879   3.856  10.664  0.8362 -0.9733  0.0570
  559MPD2    C3 8292   4.013   3.881  10.680 -0.1462  0.3033  0.3852
  559MPD2    C4 8293   4.067   3.996  10.627 -0.3620 -0.0942  0.4161
  559MPD2    C5 8294   3.987   4.075  10.545 -0.0769  0.0674 -0.4661
  559MPD2     H 8295   3.828   3.771  10.709 -1.0695 -0.2556 -0.7496
  559MPD2    H1 8296   4.174   4.014  10.626 -0.1593 -1.2352  2.0532
  559MPD2    H2 8297   3.805   4.123  10.465 -0.2203 -0.5357  0.0462
  559MPD2    H3 8298   4.029   4.162  10.497 -0.0095  0.3917  0.1858
  559MPD2     N 8299   4.091   3.785  10.756 -0.4253 -0.4792  1.1502
  559MPD2    H5 8300   4.046   3.698  10.784 -0.9488 -0.9720 -1.2266
  559MPD2    N1 8301   3.663   3.924  10.555 -0.2552 -0.3992  0.1815
  559MPD2    H7 8302   3.617   3.999  10.504 -1.2100 -0.5942  0.7613
  560TMC3    C1 8303   4.269   3.686  10.878  0.7442  0.2899 -0.2481
  560TMC3    C2 8304   4.184   3.576  10.885  0.0301 -0.1495 -0.0801
  560TMC3    C3 8305   4.207   3.495  10.993 -0.6096  0.7870  0.6456
  560TMC3    C4 8306   4.361   3.718  10.974  0.4293  0.0941 -0.2375
  560TMC3    C5 8307   4.365   3.641  11.090  0.5747  0.0168  0.1214
  560TMC3    C6 8308   4.296   3.520  11.096  0.2811 -0.5199 -0.3421
  560TMC3     C 8309   4.223   3.796  10.798 -0.0969  0.7129  0.7213
  560TMC3     O 8310   4.300   3.891  10.787 -0.7737 -0.3039  0.0190
  560TMC3     H 8311   4.106   3.551  10.815  1.5595  2.0674 -2.5313
  560TMC3    H1 8312   4.430   3.799  10.951 -1.1246  1.2051 -1.0686
  560TMC3    H2 8313   4.311   3.439  11.166  1.5201  0.0385  0.0553
  560TMC3    C7 8314   4.442   3.677  11.206 -0.5781 -0.1744  0.0983
  560TMC3    C8 8315   4.086   3.417  11.030 -0.6752 -1.0546 -0.5156
  560TMC3    O1 8316   4.440   3.599  11.304 -0.3747  0.4521 -0.7989
  560TMC3    O2 8317   4.015   3.399  10.935 -0.3707  0.4644 -0.0454
  561TMC3    C1 8318   1.870   2.903  11.348 -0.4006  0.3630  0.4805
  561TMC3    C2 8319   1.745   2.878  11.397  0.6221  1.1546  0.8682
  561TMC3    C3 8320   1.677   2.975  11.460  1.0282  0.6390 -0.3888
  561TMC3    C4 8321   1.932   3.021  11.372 -0.5204  0.8855  0.1413
  561TMC3    C5 8322   1.855   3.123  11.425 -0.9417 -0.9936  0.3392
  561TMC3    C6 8323   1.729   3.103  11.469  0.0073  0.4107 -0.8184
  561TMC3     C 8324   1.945   2.787  11.293 -0.2216  0.4622 -0.3976
  561TMC3     O 8325   1.888   2.684  11.311 -0.0073  0.5013 -0.1724
  561TMC3     H 8326   1.697   2.783  11.379  0.0473  1.4424  0.8665
  561TMC3    H1 8327   2.036   3.032  11.343 -0.1076 -1.8758  0.5616
  561TMC3    H2 8328   1.686   3.189  11.518 -0.5146 -0.8678  0.9452
  561TMC3    C7 8329   1.896   3.262  11.414  0.6100  0.4586 -0.2341
  561TMC3    C8 8330   1.569   2.929  11.551  0.1126  0.4584  0.7176
  561TMC3    O1 8331   1.849   3.349  11.482 -0.3386 -0.0231 -0.3991
  561TMC3    O2 8332   1.538   2.810  11.549 -0.0270 -0.3605  0.4139
  562TMC3    C1 8333   2.320   4.418  16.594  0.1308  0.0816  0.1352
  562TMC3    C2 8334   2.267   4.540  16.555  0.0426 -0.2404 -0.4859
  562TMC3    C3 8335   2.273   4.575  16.427  0.1039 -0.6569 -0.0261
  562TMC3    C4 8336   2.349   4.327  16.494  0.2366 -0.1495  0.2986
  562TMC3    C5 8337   2.333   4.362  16.364 -0.7892  0.6829  0.7289
  562TMC3    C6 8338   2.294   4.488  16.326  1.4430 -0.1292  0.2442
  562TMC3     C 8339   2.301   4.387  16.738 -0.2901 -0.0764 -0.0714
  562TMC3     O 8340   2.253   4.472  16.808  0.4177 -0.4067  0.0801
  562TMC3     H 8341   2.250   4.616  16.630  0.0122  0.0257 -0.7589
  562TMC3    H1 8342   2.386   4.231  16.529 -0.8132 -0.4218  0.6856
  562TMC3    H2 8343   2.301   4.513  16.221 -0.4481 -2.3981 -0.4238
  562TMC3    C7 8344   2.324   4.263  16.256  0.1756 -0.5551 -0.1445
  562TMC3    C8 8345   2.208   4.700  16.387 -0.6856 -0.1609 -0.5481
  562TMC3    O1 8346   2.256   4.292  16.160  0.0780 -0.0020 -0.2890
  562TMC3    O2 8347   2.166   0.043  16.480 -0.2113 -0.2613 -0.1795
  563MPD2     C 8348   0.022   0.925  15.619 -0.2454  0.0080 -0.2580
  563MPD2    C1 8349   0.049   0.999  15.736 -0.1915 -0.1494  0.1237
  563MPD2    C2 8350   0.176   1.011  15.782 -1.0718 -0.4106  0.1249
  563MPD2    C3 8351   0.281   0.942  15.718 -0.0852 -0.3965 -0.4870
  563MPD2    C4 8352   0.258   0.877  15.598  0.1030 -0.5984  0.2205
  563MPD2    C5 8353   0.126   0.862  15.552  0.1338  0.5405 -0.5961
  563MPD2     H 8354   0.210   1.045  15.880  1.1036 -2.4656  0.0917
  563MPD2    H1 8355   0.335   0.816  15.551 -0.1234 -1.4587  0.9736
  563MPD2    H2 8356   4.642   0.911  15.592 -0.3380  0.1008  0.0501
  563MPD2    H3 8357   0.103   0.804  15.464  1.4436 -0.7854 -0.0732
  563MPD2     N 8358   0.402   0.946  15.776  0.6360 -0.1824 -0.0356
  563MPD2    H5 8359   0.409   1.000  15.861 -0.3988  0.5099 -0.3955
  563MPD2    N1 8360   4.665   1.044  15.819 -0.4621  0.1199 -0.1400
  563MPD2    H7 8361   4.575   1.004  15.794 -1.9262  3.6441 -0.4709
  564TMC3    C1 8362   4.580   1.109  16.028  0.2354 -0.3964 -0.5469
  564TMC3    C2 8363   4.473   1.027  15.982  0.6171 -0.2458 -0.4048
  564TMC3    C3 8364   4.419   0.934  16.069  0.0200  0.5073 -0.3204
  564TMC3    C4 8365   4.636   1.088  16.154  0.4718  0.6598 -0.3612
  564TMC3    C5 8366   4.576   1.000  16.240  0.0968 -0.0344  0.1143
  564TMC3    C6 8367   4.473   0.927  16.193 -0.2141 -0.5718 -0.4361
  564TMC3     C 8368   4.684   1.133  15.930 -0.2160 -0.0715  0.8044
  564TMC3     O 8369   0.056   1.201  15.966  0.0165 -0.0840  0.3119
  564TMC3     H 8370   4.429   1.048  15.885  0.0472  1.8046  0.2994
  564TMC3    H1 8371   0.009   1.131  16.178  1.2914 -0.2203 -2.1018
  564TMC3    H2 8372   4.436   0.855  16.265 -0.2932 -0.5206 -0.4263
  564TMC3    C7 8373   4.673   0.924  16.313  0.1430  0.3156  0.1131
  564TMC3    C8 8374   4.387   0.800  16.020 -0.5315  0.2862 -0.6805
  564TMC3    O1 8375   4.677   0.801  16.310 -0.3331 -0.8939 -0.2265
  564TMC3    O2 8376   4.347   0.717  16.100  0.1038 -0.1267 -0.3361
  565TMC3    C1 8377   0.546   2.585  10.254  0.4485 -0.6985  0.0980
  565TMC3    C2 8378   0.606   2.508  10.352 -0.1074 -0.0890 -0.5677
  565TMC3    C3 8379   0.529   2.411  10.406  0.0128 -0.4379 -0.1878
  565TMC3    C4 8380   0.415   2.568  10.215 -0.1249  0.2558  0.2816
  565TMC3    C5 8381   0.346   2.460  10.269 -0.5670  0.0679  0.2402
  565TMC3    C6 8382   0.405   2.380  10.362  0.6947  0.3137  0.2265
  565TMC3     C 8383   0.628   2.689  10.188  0.3664 -0.1843 -0.3278
  565TMC3     O 8384   0.597   2.735  10.080  0.2197  0.4213 -0.1588
  565TMC3     H 8385   0.712   2.510  10.376  0.2972 -0.3668 -2.3178
  565TMC3    H1 8386   0.370   2.640  10.147  1.2512  1.3519  0.5410
  565TMC3    H2 8387   0.347   2.311  10.421  0.2929 -0.7425 -1.4144
  565TMC3    C7 8388   0.198   2.458  10.258 -0.3749  0.0826  0.1313
  565TMC3    C8 8389   0.597   2.321  10.493 -0.3831 -0.0556  0.1322
  565TMC3    O1 8390   0.154   2.567  10.224 -0.9133  0.4834 -0.6438
  565TMC3    O2 8391   0.703   2.356  10.539 -0.4058 -0.3396 -0.0987
  566MPD2     C 8392   2.090   4.083  14.205 -0.0201 -0.5691 -0.6184
  566MPD2    C1 8393   2.152   4.162  14.108 -0.7795 -0.8612  0.5526
  566MPD2    C2 8394   2.089   4.170  13.982  0.7631  0.5801 -0.9865
  566MPD2    C3 8395   1.970   4.111  13.955 -0.0446  0.2307 -0.5774
  566MPD2    C4 8396   1.914   4.022  14.055 -0.1010 -0.2325  0.1532
  566MPD2    C5 8397   1.979   4.007  14.175  0.0894  0.0783 -0.1658
  566MPD2     H 8398   2.125   4.249  13.917  0.1394  0.5752 -1.3352
  566MPD2    H1 8399   1.820   3.971  14.038  0.6156 -0.8179 -2.1359
  566MPD2    H2 8400   2.135   4.070  14.303 -1.8024 -0.4103  0.2137
  566MPD2    H3 8401   1.924   3.947  14.248 -0.0428  0.1701 -0.1902
  566MPD2     N 8402   1.893   4.129  13.838  0.3804 -0.0159  0.6175
  566MPD2    H5 8403   1.797   4.096  13.839 -0.6269  2.9015  0.6592
  566MPD2    N1 8404   2.266   4.241  14.147  0.0731  0.0408 -0.0327
  566MPD2    H7 8405   2.273   4.253  14.247  2.7395 -1.0825 -0.0887
  567TMC3    C1 8406   2.452   4.387  14.119  0.0960  0.3247 -0.5854
  567TMC3    C2 8407   2.542   4.434  14.028 -0.1858 -0.1338 -0.0720
  567TMC3    C3 8408   2.677   4.418  14.068  0.1023 -0.4187  0.6578
  567TMC3    C4 8409   2.490   4.361  14.251 -0.1099 -0.5372 -0.7168
  567TMC3    C5 8410   2.625   4.368  14.285 -0.0322  0.6281 -0.3780
  567TMC3    C6 8411   2.722   4.393  14.196  0.1830 -0.2759  0.5214
  567TMC3     C 8412   2.350   4.309  14.058 -0.4520 -0.2995 -0.7710
  567TMC3     O 8413   2.359   4.292  13.938 -0.5576 -0.2915  0.6404
  567TMC3     H 8414   2.522   4.456  13.924  2.5090 -1.2935 -0.8502
  567TMC3    H1 8415   2.410   4.344  14.322  0.5399  0.6511  0.3064
  567TMC3    H2 8416   2.827   4.388  14.222  0.2169 -2.1108  0.0680
  567TMC3    C7 8417   2.672   4.339  14.419 -0.1396 -0.4180  0.2711
  567TMC3    C8 8418   2.765   4.487  13.973  0.5060  0.2506 -0.2860
  567TMC3    O1 8419   2.786   4.367  14.435 -0.3327 -0.3389  0.0806
  567TMC3    O2 8420   2.709   4.575  13.904 -0.2041 -0.7729 -0.1683
  568MPD2     C 8421   4.102   4.171  16.438 -0.3086 -0.1576  0.1765
  568MPD2    C1 8422   4.166   4.272  16.507 -1.0150  0.6201 -0.1503
  568MPD2    C2 8423   4.210   4.387  16.440  0.7295  0.8861  0.8108
  568MPD2    C3 8424   4.199   4.399  16.304  0.5337 -0.6099 -0.7207
  568MPD2    C4 8425   4.132   4.296  16.236  0.2000 -0.2729  0.1213
  568MPD2    C5 8426   4.086   4.188  16.305 -0.2383 -0.1334 -0.5805
  568MPD2     H 8427   4.253   4.465  16.502  0.4070  1.3284  0.4709
  568MPD2    H1 8428   4.115   4.296  16.128 -0.1506 -3.3201  0.1970
  568MPD2    H2 8429   4.074   4.075  16.479 -2.0625  0.3381  0.1337
  568MPD2    H3 8430   4.032   4.104  16.262  1.1825 -1.5106  0.3292
  568MPD2     N 8431   4.271   4.503  16.248 -0.5519  0.2053  0.4521
  568MPD2    H5 8432   4.334   4.548  16.313  0.0470  1.7607 -1.2156
  568MPD2    N1 8433   4.188   4.256  16.649 -0.5752 -0.3197 -0.4496
  568MPD2    H7 8434   4.151   4.170  16.689  1.5132 -1.6088 -1.2311
  569TMC3    C1 8435   4.345   4.672  16.097 -0.1336  0.0909  0.1890
  569TMC3    C2 8436   4.343   0.033  16.207  0.0545 -0.0641  0.1198
  569TMC3    C3 8437   4.427   0.137  16.204  0.1866 -0.6246 -0.8842
  569TMC3    C4 8438   4.413   4.703  15.983  0.1573 -0.7080 -0.3182
  569TMC3    C5 8439   4.489   0.094  15.986 -0.0526 -0.5138 -0.1862
  569TMC3    C6 8440   4.504   0.173  16.098  0.3502  0.4192  0.3884
  569TMC3     C 8441   4.267   4.547  16.118 -0.0823 -0.1429 -0.8406
  569TMC3     O 8442   4.222   4.490  16.021 -0.7110 -0.1508  0.2465
  569TMC3     H 8443   4.274   0.021  16.290  0.7318  3.2215  1.1817
  569TMC3    H1 8444   4.404   4.637  15.897  1.6962  0.0189 -1.0431
  569TMC3    H2 8445   4.584   0.246  16.102 -0.4080  1.2240  0.7417
  569TMC3    C7 8446   4.501   0.170  15.871 -0.5177  0.6633  0.3160
  569TMC3    C8 8447   4.361   0.243  16.273  0.1428 -0.2272  0.4892
  569TMC3    O1 8448   4.515   0.114  15.764  0.6165 -0.0603  0.5354
  569TMC3    O2 8449   4.238   0.237  16.286  0.0794 -0.6237 -0.0211
  570TMC3    C1 8450   3.772   3.075  16.333  0.6636  0.7102  0.2618
  570TMC3    C2 8451   3.887   3.100  16.271 -0.1028 -0.0800 -0.1025
  570TMC3    C3 8452   3.889   3.199  16.173  0.5747  0.0708  0.2152
  570TMC3    C4 8453   3.659   3.157  16.310  0.9744 -0.1709  0.2323
  570TMC3    C5 8454   3.670   3.261  16.224 -0.0420 -0.0552  0.0574
  570TMC3    C6 8455   3.782   3.282  16.148 -0.4929  0.1636 -0.3690
  570TMC3     C 8456   3.758   2.945  16.399 -0.8641 -0.0568  0.1818
  570TMC3     O 8457   3.832   2.868  16.347  0.4658  0.1018 -0.1322
  570TMC3     H 8458   3.977   3.046  16.297  0.1864 -1.2625 -3.4902
  570TMC3    H1 8459   3.568   3.141  16.368  0.3273  1.4467 -0.3257
  570TMC3    H2 8460   3.787   3.347  16.061 -1.2991 -1.5535 -1.7087
  570TMC3    C7 8461   3.581   3.369  16.248  0.1067  0.0181 -0.0907
  570TMC3    C8 8462   4.017   3.231  16.111 -0.6791  0.1616 -0.2878
  570TMC3    O1 8463   3.477   3.338  16.308  0.5489  0.0370 -0.2782
  570TMC3    O2 8464   4.025   3.343  16.059 -0.2222 -0.5432  0.5534
  571MPD2     C 8465   2.212   4.604  17.473  1.1481 -0.0917 -0.3490
  571MPD2    C1 8466   2.226   4.707  17.566  0.1065 -0.6935 -0.4720
  571MPD2    C2 8467   2.119   0.042  17.625 -0.0976 -0.3464 -0.5217
  571MPD2    C3 8468   1.984   0.025  17.573 -0.2441 -0.1365  0.1420
  571MPD2    C4 8469   1.967   4.646  17.475 -0.2208  0.3459  0.3591
  571MPD2    C5 8470   2.081   4.575  17.433 -0.1246 -0.2991  0.1523
  571MPD2     H 8471   2.137   0.106   0.013  0.1923 -2.0217  0.6630
  571MPD2    H1 8472   1.866   4.630  17.441  0.0575  0.5382 -0.5651
  571MPD2    H2 8473   2.294   4.549  17.428  1.7569 -0.3448  1.0846
  571MPD2    H3 8474   2.062   4.491  17.368  2.0121  0.0117 -0.8745
  571MPD2     N 8475   1.877   0.100  17.624  0.0431  0.0446  0.2538
  571MPD2    H5 8476   1.784   0.076  17.591  0.6292 -1.0890 -0.6025
  571MPD2    N1 8477   2.357   0.000  17.623 -0.2851 -0.0988 -0.6660
  571MPD2    H7 8478   2.423   4.659  17.582  2.2331  2.0161  0.0153
  572TMC3    C1 8479   1.754   0.242   0.071 -1.0706 -0.2784 -0.5601
  572TMC3    C2 8480   1.653   0.146   0.050 -0.4551 -0.3568  0.6838
  572TMC3    C3 8481   1.542   0.165   0.132  0.8306 -1.2041 -0.4995
  572TMC3    C4 8482   1.750   0.332   0.174 -0.0011 -0.0453  0.9037
  572TMC3    C5 8483   1.647   0.329   0.268 -0.4151  0.0557 -0.3945
  572TMC3    C6 8484   1.551   0.232   0.254  0.3205 -1.2276  0.0255
  572TMC3     C 8485   1.884   0.202   0.023 -0.6688  0.5125 -0.1504
  572TMC3     O 8486   1.981   0.252   0.076 -0.4539 -1.1151  0.2536
  572TMC3     H 8487   1.634   0.090  17.658  0.1165 -0.3004  0.5299
  572TMC3    H1 8488   1.828   0.406   0.187 -1.3423  1.1817  1.9137
  572TMC3    H2 8489   1.471   0.228   0.327 -0.1079 -5.1468 -0.6926
  572TMC3    C7 8490   1.588   0.453   0.287 -0.4451 -0.0053 -0.2044
  572TMC3    C8 8491   1.414   0.158   0.064  0.8289 -0.8096 -0.1007
  572TMC3    O1 8492   1.467   0.466   0.259 -0.2243  0.0390 -0.2203
  572TMC3    O2 8493   1.398   0.088  17.661  0.0604 -0.6394  0.0021
  573MPD2     C 8494   3.421   0.727   0.811  0.7145  0.6044 -0.4541
  573MPD2    C1 8495   3.318   0.759   0.720 -0.0712 -0.0491 -0.1388
  573MPD2    C2 8496   3.300   0.683   0.603  0.3938  0.0394 -0.6600
  573MPD2    C3 8497   3.373   0.567   0.582 -0.8206  0.3727  0.4948
  573MPD2    C4 8498   3.465   0.533   0.677 -0.4813  0.8460  0.1524
  573MPD2    C5 8499   3.487   0.612   0.788  0.5407 -0.6170  0.2611
  573MPD2     H 8500   3.233   0.701   0.520 -0.1397  0.2497 -0.1792
  573MPD2    H1 8501   3.529   0.446   0.667 -0.1710  0.9341  1.3718
  573MPD2    H2 8502   3.433   0.770   0.909 -0.9952  1.2010 -0.5013
  573MPD2    H3 8503   3.553   0.568   0.862  1.0880  0.2088  0.2785
  573MPD2     N 8504   3.368   0.491   0.466  0.4276  0.0941 -0.2319
  573MPD2    H5 8505   3.437   0.417   0.463  1.5199  1.2075 -2.7628
  573MPD2    N1 8506   3.241   0.875   0.747  0.3597 -0.7466 -0.0731
  573MPD2    H7 8507   3.246   0.904   0.844 -1.1047  0.1809 -0.2644
  574TMC3    C1 8508   3.298   0.411   0.256 -0.1603  0.2868  0.2664
  574TMC3    C2 8509   3.280   0.446   0.125 -0.6249  0.1226 -0.3716
  574TMC3    C3 8510   3.304   0.350   0.030 -0.8477 -0.2215  0.1319
  574TMC3    C4 8511   3.338   0.281   0.304 -0.2716 -0.8973 -0.7029
  574TMC3    C5 8512   3.344   0.186   0.204 -0.0088  0.0142 -0.3657
  574TMC3    C6 8513   3.336   0.226   0.071  0.2492  0.2303  0.7180
  574TMC3     C 8514   3.288   0.513   0.353  0.4051  0.2420  0.0540
  574TMC3     O 8515   3.212   0.601   0.324 -0.0285 -0.1488 -0.1562
  574TMC3     H 8516   3.239   0.544   0.110 -0.6105  0.1317 -0.3528
  574TMC3    H1 8517   3.346   0.249   0.407 -0.7242  1.2625  0.0142
  574TMC3    H2 8518   3.341   0.148  17.694 -1.1380  1.2869 -0.4722
  574TMC3    C7 8519   3.365   0.043   0.238 -0.0755  0.0124 -0.0278
  574TMC3    C8 8520   3.287   0.380  17.591  0.3380  0.5314 -0.3096
  574TMC3    O1 8521   3.422   4.692   0.156 -0.5309  0.6244  0.4244
  574TMC3    O2 8522   3.316   0.286  17.516  0.4185 -0.3064  0.2514
  575TMC3    C1 8523   1.170   2.109  11.110  0.5230  0.4452  0.6293
  575TMC3    C2 8524   1.149   1.990  11.178 -0.4861  0.0467 -0.5181
  575TMC3    C3 8525   1.072   1.888  11.124  0.1110 -0.2682 -0.6550
  575TMC3    C4 8526   1.115   2.133  10.988 -0.2808 -0.4717 -0.1214
  575TMC3    C5 8527   1.031   2.031  10.946 -0.2592 -0.3804  0.5881
  575TMC3    C6 8528   1.005   1.912  11.010  0.2956  0.2707 -0.0757
  575TMC3     C 8529   1.287   2.177  11.152 -0.0434 -0.3820  0.6600
  575TMC3     O 8530   1.317   2.186  11.271  0.3562 -0.5549 -0.1923
  575TMC3     H 8531   1.226   1.973  11.253 -0.5692 -2.0630 -0.9245
  575TMC3    H1 8532   1.134   2.227  10.938  1.1073 -2.5190 -3.4378
  575TMC3    H2 8533   0.924   1.844  10.984 -0.3284  0.4007  1.4886
  575TMC3    C7 8534   0.961   2.059  10.817 -0.9072 -0.5926  0.3700
  575TMC3    C8 8535   1.023   1.783  11.209  0.3558  0.3440 -0.2777
  575TMC3    O1 8536   0.962   2.173  10.775 -0.0200  0.6620 -0.2435
  575TMC3    O2 8537   0.972   1.685  11.162 -0.3282 -0.3297  0.1021
  576MPD2     C 8538   0.671   3.369  12.575  0.3428  0.4828  0.4880
  576MPD2    C1 8539   0.735   3.488  12.557 -0.1845 -0.5991  0.2608
  576MPD2    C2 8540   0.681   3.598  12.626 -0.1558  0.6667  0.3887
  576MPD2    C3 8541   0.578   3.590  12.719 -0.1254 -0.3154 -0.4893
  576MPD2    C4 8542   0.518   3.465  12.727 -0.2902 -0.0442 -0.1691
  576MPD2    C5 8543   0.557   3.362  12.646  0.1288 -0.0359  0.1176
  576MPD2     H 8544   0.722   3.698  12.618  0.5233  0.5873  2.6727
  576MPD2    H1 8545   0.429   3.452  12.788 -0.8082 -0.7615 -1.0769
  576MPD2    H2 8546   0.702   3.281  12.519 -0.3638  2.7688 -3.5017
  576MPD2    H3 8547   0.502   3.269  12.644  0.7780 -0.4523  1.8266
  576MPD2     N 8548   0.537   3.703  12.793 -0.0796  0.0695  0.0310
  576MPD2    H5 8549   0.586   3.791  12.778 -3.2406  2.3962  3.2839
  576MPD2    N1 8550   0.854   3.502  12.470 -0.8004 -0.2696 -0.0912
  576MPD2    H7 8551   0.882   3.598  12.453 -0.0905 -0.5850 -0.6733
  577TMC3    C1 8552   1.049   3.440  12.354 -0.0179 -0.0615  0.3757
  577TMC3    C2 8553   1.126   3.336  12.307  1.1669 -0.2157  0.1756
  577TMC3    C3 8554   1.190   3.344  12.189 -0.3016 -0.1576  0.1141
  577TMC3    C4 8555   1.038   3.547  12.266 -0.2045 -0.2005 -0.6016
  577TMC3    C5 8556   1.102   3.559  12.143  0.1602 -0.3003  0.0588
  577TMC3    C6 8557   1.179   3.455  12.107 -0.5040 -0.2698 -0.1951
  577TMC3     C 8558   0.937   3.396  12.438 -0.2767 -0.7027 -0.2118
  577TMC3     O 8559   0.933   3.282  12.477 -0.3800 -0.6842 -0.1174
  577TMC3     H 8560   1.132   3.252  12.375  1.9218 -0.7682 -0.5704
  577TMC3    H1 8561   0.972   3.631  12.283  0.0546 -0.4392  1.5629
  577TMC3    H2 8562   1.228   3.463  12.011  1.2237  2.5075  0.9013
  577TMC3    C7 8563   1.026   3.636  12.043 -0.4073 -0.0891 -0.5934
  577TMC3    C8 8564   1.224   3.217  12.138  0.9005 -0.7660  0.2360
  577TMC3    O1 8565   0.912   3.673  12.064  0.1461  0.4817  0.3539
  577TMC3    O2 8566   1.202   3.125  12.214  0.1823  0.0478 -0.6671
  578MPD2     C 8567   2.510   3.965   1.100 -0.0233 -0.6887  0.0091
  578MPD2    C1 8568   2.531   3.838   1.060  0.7115  0.3595 -0.5920
  578MPD2    C2 8569   2.643   3.772   1.122  0.4065 -0.0143 -0.9639
  578MPD2    C3 8570   2.723   3.836   1.215  0.5050 -0.2223 -0.3821
  578MPD2    C4 8571   2.686   3.960   1.251 -0.1800 -0.2087  0.4571
  578MPD2    C5 8572   2.588   4.028   1.186  0.2118 -0.2865 -0.3005
  578MPD2     H 8573   2.657   3.667   1.102  0.6947 -0.2290  0.3591
  578MPD2    H1 8574   2.740   4.012   1.329 -2.9641  2.2049  0.7434
  578MPD2    H2 8575   2.433   4.027   1.056  1.3302  0.6422 -0.4747
  578MPD2    H3 8576   2.571   4.132   1.212  2.8565  0.2303 -0.6479
  578MPD2     N 8577   2.827   3.766   1.281  0.1128  0.5838 -0.0430
  578MPD2    H5 8578   2.840   3.669   1.252  0.1288  0.4480  0.4177
  578MPD2    N1 8579   2.436   3.781   0.976  0.0034  0.1343 -0.5919
  578MPD2    H7 8580   2.353   3.837   0.958 -0.5578  0.3606  2.8193
  579TMC3    C1 8581   3.020   3.712   1.401 -0.3408  0.8108  0.5008
  579TMC3    C2 8582   3.109   3.737   1.499 -0.4771 -0.4940  0.2093
  579TMC3    C3 8583   3.207   3.642   1.536 -0.5725 -0.4354 -0.3682
  579TMC3    C4 8584   3.025   3.596   1.334 -0.4098 -0.8445  0.2365
  579TMC3    C5 8585   3.115   3.506   1.377  0.1082  0.3511 -0.3648
  579TMC3    C6 8586   3.206   3.521   1.478  0.2635 -0.0752 -0.8326
  579TMC3     C 8587   2.919   3.810   1.372  0.1408  0.1448  0.3089
  579TMC3     O 8588   2.930   3.923   1.416 -0.5223 -0.3188 -0.2911
  579TMC3     H 8589   3.117   3.836   1.543 -0.8233  0.2850 -1.4525
  579TMC3    H1 8590   2.974   3.582   1.240  1.0131  0.7037 -0.7592
  579TMC3    H2 8591   3.274   3.439   1.499  2.0718  1.4637 -0.6580
  579TMC3    C7 8592   3.137   3.388   1.298 -0.5059  0.1288 -0.3195
  579TMC3    C8 8593   3.278   3.669   1.659  0.1270 -0.6901 -0.1098
  579TMC3    O1 8594   3.248   3.335   1.291  0.0013  0.2501  0.2951
  579TMC3    O2 8595   3.234   3.746   1.742  0.6071  0.1235  0.0527
  580TMC3    C1 8596   3.165   2.404  12.648 -0.2809  0.3295  0.8877
  580TMC3    C2 8597   3.056   2.354  12.581  0.2267  0.1991 -0.3076
  580TMC3    C3 8598   3.088   2.245  12.502 -0.7246  0.0790  0.1013
  580TMC3    C4 8599   3.268   2.322  12.676  0.2662  0.0322  0.1004
  580TMC3    C5 8600   3.287   2.202  12.616 -1.3468  0.1487 -0.3571
  580TMC3    C6 8601   3.193   2.161  12.525 -0.0321 -0.1517  0.3279
  580TMC3     C 8602   3.193   2.540  12.622  0.6883 -0.7168 -0.2587
  580TMC3     O 8603   3.097   2.607  12.599 -0.4487  0.1961  0.5055
  580TMC3     H 8604   2.966   2.415  12.575  0.7679  1.0726  0.4582
  580TMC3    H1 8605   3.330   2.348  12.761  0.7931 -0.0862 -0.2478
  580TMC3    H2 8606   3.215   2.083  12.454 -4.3387 -0.0046 -1.2009
  580TMC3    C7 8607   3.362   2.098  12.684 -0.5441  0.0618  0.7119
  580TMC3    C8 8608   3.087   2.270  12.360  0.1464 -0.1181 -0.3312
  580TMC3    O1 8609   3.411   2.111  12.796 -1.0468  0.1887 -0.4008
  580TMC3    O2 8610   3.159   2.212  12.278  0.5398  0.0888  0.0603
  581MPD2     C 8611   1.040   2.446  14.574  0.5839  0.0924 -0.8388
  581MPD2    C1 8612   0.951   2.365  14.634  0.4152 -0.5983  0.3537
  581MPD2    C2 8613   0.825   2.363  14.583  0.2764  0.9163  0.2287
  581MPD2    C3 8614   0.782   2.446  14.484  1.1078  0.0332 -0.1430
  581MPD2    C4 8615   0.870   2.531  14.424  0.4764  0.6331  0.0895
  581MPD2    C5 8616   1.001   2.532  14.473 -0.5706  0.8290  0.0488
  581MPD2     H 8617   0.753   2.288  14.612 -0.3555  1.2031 -0.5790
  581MPD2    H1 8618   0.840   2.594  14.342  1.2264  2.6781  1.4050
  581MPD2    H2 8619   1.146   2.448  14.597  0.4106  0.6928 -0.1043
  581MPD2    H3 8620   1.068   2.603  14.425 -0.0353  0.2917 -0.0042
  581MPD2     N 8621   0.645   2.447  14.444 -0.0340 -0.5957 -0.2124
  581MPD2    H5 8622   0.591   2.366  14.471  1.6357 -1.9139 -0.8028
  581MPD2    N1 8623   0.993   2.274  14.729  0.0158  0.5732  0.0723
  581MPD2    H7 8624   1.092   2.261  14.750  0.8861  0.4484 -3.9976
  582TMC3    C1 8625   0.967   2.078  14.857 -0.4201 -0.2322 -0.0354
  582TMC3    C2 8626   1.025   2.107  14.975  0.3382  0.5422  0.5262
  582TMC3    C3 8627   1.026   2.008  15.069 -0.2485 -0.0026 -0.1885
  582TMC3    C4 8628   0.897   1.961  14.841  0.3077  0.5655 -0.4303
  582TMC3    C5 8629   0.887   1.878  14.944  0.0293  0.6372 -0.0377
  582TMC3    C6 8630   0.959   1.890  15.053 -0.2356  0.3551 -0.6611
  582TMC3     C 8631   0.904   2.188  14.796 -0.5158 -0.1697 -0.0857
  582TMC3     O 8632   0.785   2.208  14.824  0.7447  0.0369 -0.3744
  582TMC3     H 8633   1.056   2.206  15.006 -1.0861  0.3690  2.4798
  582TMC3    H1 8634   0.836   1.944  14.753 -3.0473 -3.4289  2.6793
  582TMC3    H2 8635   0.950   1.820  15.135 -3.3316 -1.5371 -2.6259
  582TMC3    C7 8636   0.834   1.746  14.912  0.0068 -0.0893  0.2804
  582TMC3    C8 8637   1.049   2.051  15.202  0.1751 -0.6461  0.2433
  582TMC3    O1 8638   0.880   1.690  14.810  0.2235  0.0535 -0.1456
  582TMC3    O2 8639   0.955   2.037  15.284  0.1956 -0.0810 -0.6210
  583MPD2     C 8640   0.948   3.576  16.870  0.0306  0.0093 -0.1518
  583MPD2    C1 8641   0.931   3.703  16.815  0.0563  0.2481 -0.2797
  583MPD2    C2 8642   0.851   3.792  16.881 -0.3013 -0.0535  0.4814
  583MPD2    C3 8643   0.804   3.773  17.009 -0.2599  0.0159  0.2078
  583MPD2    C4 8644   0.836   3.650  17.070  0.0784  0.1370  0.6259
  583MPD2    C5 8645   0.899   3.550  16.994  0.6594 -0.3345  0.3487
  583MPD2     H 8646   0.824   3.888  16.839  0.4724  0.0224  0.1584
  583MPD2    H1 8647   0.812   3.627  17.173 -1.1665  1.0163  0.5225
  583MPD2    H2 8648   0.978   3.489  16.812  2.8076 -0.8035  2.5031
  583MPD2    H3 8649   0.907   3.448  17.030  2.8663 -0.0297  0.6721
  583MPD2     N 8650   0.742   3.882  17.067  0.3284  0.3201  0.1261
  583MPD2    H5 8651   0.739   3.963  17.005  0.5936  1.9409  2.2258
  583MPD2    N1 8652   0.974   3.729  16.683 -0.2071  0.7445  0.2906
  583MPD2    H7 8653   0.938   3.810  16.633  0.5573 -0.0535 -1.5408
  584TMC3    C1 8654   0.692   4.027  17.261 -0.2669 -0.3713 -0.4572
  584TMC3    C2 8655   0.638   4.132  17.193 -0.5361 -0.2527 -0.4142
  584TMC3    C3 8656   0.610   4.253  17.259 -0.2773  0.2503  0.4038
  584TMC3    C4 8657   0.723   4.047  17.393 -0.4581  0.7646  0.3654
  584TMC3    C5 8658   0.705   4.171  17.457  0.4294  0.2586  0.2556
  584TMC3    C6 8659   0.642   4.274  17.387  0.9187 -0.7301  0.1237
  584TMC3     C 8660   0.721   3.893  17.205  0.0679  0.3350  0.1097
  584TMC3     O 8661   0.743   3.804  17.289  0.3333 -0.1543  0.3292
  584TMC3     H 8662   0.619   4.125  17.086 -0.6115 -1.9418 -0.2827
  584TMC3    H1 8663   0.773   3.965  17.443  2.4608  1.7619 -0.9364
  584TMC3    H2 8664   0.597   4.356  17.441  2.4052  0.7329 -0.8406
  584TMC3    C7 8665   0.751   4.194  17.590  0.0102  0.3359 -0.0657
  584TMC3    C8 8666   0.616   4.372  17.183  0.7456 -0.0258  0.1430
  584TMC3    O1 8667   0.794   4.091  17.641 -0.6595  0.0233 -0.2252
  584TMC3    O2 8668   0.563   4.367  17.070  0.0753 -0.0876  0.6935
  585MPD2     C 8669   4.705   3.278   1.030  0.6180 -0.0781  0.5421
  585MPD2    C1 8670   0.079   3.347   0.962 -0.0848  0.4368 -0.3581
  585MPD2    C2 8671   0.092   3.309   0.828 -0.4405  0.6948  0.0781
  585MPD2    C3 8672   0.003   3.228   0.762  0.0873 -0.0613  0.2662
  585MPD2    C4 8673   4.628   3.170   0.831 -0.0647  0.3525 -0.3042
  585MPD2    C5 8674   4.618   3.196   0.963  0.4297 -0.4111  0.5332
  585MPD2     H 8675   0.166   3.362   0.769  0.0407  1.1663  1.0990
  585MPD2    H1 8676   4.548   3.112   0.785  1.0465 -1.3278 -0.1166
  585MPD2    H2 8677   4.688   3.298   1.135 -3.1796  0.9286 -0.2688
  585MPD2    H3 8678   4.539   3.139   1.010  0.4076 -0.6154  0.2494
  585MPD2     N 8679   0.010   3.210   0.622 -0.4492  0.0421 -0.2735
  585MPD2    H5 8680   4.655   3.172   0.570  0.4332  0.0394 -1.6250
  585MPD2    N1 8681   0.139   3.456   1.020 -0.5168 -0.0999 -0.1233
  585MPD2    H7 8682   0.104   3.496   1.106  0.6615 -1.8941  1.1968
  586TMC3    C1 8683   0.083   3.255   0.399  0.6519 -0.4399  0.6712
  586TMC3    C2 8684   0.166   3.212   0.308  0.2616 -0.1306 -0.6427
  586TMC3    C3 8685   0.129   3.213   0.177 -0.1643  0.0934  0.0599
  586TMC3    C4 8686   4.681   3.288   0.371 -0.0266 -0.2316 -0.2600
  586TMC3    C5 8687   4.643   3.282   0.244 -0.0667  0.2491  0.5916
  586TMC3    C6 8688   0.001   3.250   0.143 -0.4337  0.4220  0.2811
  586TMC3     C 8689   0.117   3.244   0.542  0.3620  0.4068  0.0370
  586TMC3     O 8690   0.232   3.237   0.578 -0.1353 -0.2356 -0.0360
  586TMC3     H 8691   0.267   3.184   0.337  0.0906  1.2572  1.2863
  586TMC3    H1 8692   4.618   3.334   0.446  0.0699 -1.3555  0.5063
  586TMC3    H2 8693   4.687   3.262   0.042 -1.5476  0.2502  0.6751
  586TMC3    C7 8694   4.500   3.272   0.224 -0.6535  0.6744 -0.3189
  586TMC3    C8 8695   0.217   3.145   0.074 -0.4365 -0.2932 -0.1953
  586TMC3    O1 8696   4.424   3.337   0.298  0.0519 -0.0615  0.4484
  586TMC3    O2 8697   0.309   3.077   0.117  0.0061 -0.5262 -0.4097
  587TMC3    C1 8698   2.577   1.310  17.072  0.1864 -0.8443  0.0530
  587TMC3    C2 8699   2.557   1.433  17.013 -0.7022 -0.5892  0.2897
  587TMC3    C3 8700   2.630   1.454  16.902 -0.1638 -0.0372 -0.4953
  587TMC3    C4 8701   2.677   1.224  17.035 -0.0452  1.4648 -0.2307
  587TMC3    C5 8702   2.743   1.248  16.916 -0.3744 -0.3208  0.1681
  587TMC3    C6 8703   2.721   1.366  16.854  0.0704  0.6142  0.2846
  587TMC3     C 8704   2.512   1.273  17.195  0.6247 -0.0759  0.1316
  587TMC3     O 8705   2.566   1.191  17.269  0.4051  0.0902  0.1488
  587TMC3     H 8706   2.503   1.513  17.062 -3.8334 -0.3599 -3.4945
  587TMC3    H1 8707   2.712   1.144  17.100  1.0974 -0.8013 -3.5811
  587TMC3    H2 8708   2.769   1.389  16.760  1.9749 -0.7738  0.9203
  587TMC3    C7 8709   2.860   1.176  16.875  0.1025 -0.3616 -0.2575
  587TMC3    C8 8710   2.612   1.575  16.821 -0.0792 -0.1377 -0.0149
  587TMC3    O1 8711   2.943   1.230  16.800 -0.1418 -0.1895 -0.3485
  587TMC3    O2 8712   2.701   1.605  16.749 -0.5752 -0.0841 -0.0967
  588TMC3    C1 8713   4.651   4.464   9.770 -0.4675  0.9171  0.3148
  588TMC3    C2 8714   4.640   4.324   9.750  0.2100 -0.2585 -0.3193
  588TMC3    C3 8715   4.713   4.247   9.837  0.0907  0.3085 -0.3623
  588TMC3    C4 8716   4.715   4.529   9.879  0.0727  0.1723 -0.2602
  588TMC3    C5 8717   0.061   4.444   9.956 -0.0426  0.0430  0.8498
  588TMC3    C6 8718   0.065   4.308   9.943 -0.4460 -0.2162  0.4195
  588TMC3     C 8719   4.603   4.551   9.671  0.0963  0.2692 -0.2892
  588TMC3     O 8720   4.511   4.524   9.592  0.0313  0.0413  0.2997
  588TMC3     H 8721   4.578   4.272   9.678  0.4640 -0.0054 -0.7207
  588TMC3    H1 8722   4.704   4.632   9.909 -1.9339 -0.6688  1.8885
  588TMC3    H2 8723   0.106   4.249  10.024  0.1274  1.7830  1.6013
  588TMC3    C7 8724   0.149   4.491  10.057  0.0274 -0.3081 -0.1619
  588TMC3    C8 8725   4.710   4.108   9.812 -0.0956 -0.8063 -0.4585
  588TMC3    O1 8726   0.245   4.422  10.089 -0.0350  0.0125  0.3802
  588TMC3    O2 8727   4.607   4.064   9.758  0.2197  0.0127 -0.2113
  589TMC3    C1 8728   3.368   2.243   1.473 -0.3897  0.1750 -0.0538
  589TMC3    C2 8729   3.437   2.328   1.566 -0.4404 -0.1959 -0.5811
  589TMC3    C3 8730   3.539   2.273   1.637 -0.4315 -0.5466  0.3578
  589TMC3    C4 8731   3.395   2.105   1.460 -0.6844  0.3283  0.3928
  589TMC3    C5 8732   3.505   2.064   1.528  0.2139 -0.2996 -0.1977
  589TMC3    C6 8733   3.565   2.140   1.627  0.5420 -0.1995  0.3204
  589TMC3     C 8734   3.238   2.293   1.425  0.4813  0.6106 -0.4883
  589TMC3     O 8735   3.190   2.231   1.330 -0.1277  0.0264 -0.0082
  589TMC3     H 8736   3.424   2.435   1.573 -1.5325 -0.3560 -0.1965
  589TMC3    H1 8737   3.332   2.045   1.396 -1.0479 -1.6320  2.5976
  589TMC3    H2 8738   3.651   2.098   1.678  0.2885 -0.5577  0.4532
  589TMC3    C7 8739   3.561   1.941   1.492  0.3172 -0.1065  0.1348
  589TMC3    C8 8740   3.647   2.356   1.691  0.2501 -0.0411 -0.5526
  589TMC3    O1 8741   3.619   1.875   1.574  0.0930  0.0738  0.3283
  589TMC3    O2 8742   3.610   2.467   1.722  0.6165 -0.3153  0.1220
  590MPD2     C 8743   3.446   4.583  16.770 -0.3188 -0.1937  0.4549
  590MPD2    C1 8744   3.398   4.648  16.662  0.3875 -1.0424 -0.3024
  590MPD2    C2 8745   3.476   0.002  16.579 -0.5745 -0.2498 -0.8973
  590MPD2    C3 8746   3.612   0.021  16.604  0.8670 -0.2420 -0.5948
  590MPD2    C4 8747   3.658   4.669  16.701 -0.4039  0.4441 -0.2849
  590MPD2    C5 8748   3.584   4.585  16.779  0.5241 -0.0151 -0.3399
  590MPD2     H 8749   3.427   0.056  16.498 -0.4389  0.6937 -0.3517
  590MPD2    H1 8750   3.764   4.668  16.722 -0.5796 -1.4125  0.5163
  590MPD2    H2 8751   3.379   4.524  16.832 -0.5335 -0.3943  0.0324
  590MPD2    H3 8752   3.628   4.520  16.853 -0.2451 -1.2028 -0.9173
  590MPD2     N 8753   3.686   0.108  16.521  0.1027 -0.3001 -0.5095
  590MPD2    H5 8754   3.637   0.176  16.463 -1.1386 -1.4783 -0.8255
  590MPD2    N1 8755   3.259   4.652  16.653 -0.0139 -0.2456  1.3167
  590MPD2    H7 8756   3.213   4.636  16.741 -2.0339 -0.5054  0.1994
  591TMC3    C1 8757   3.870   0.201  16.412 -0.5676  0.4922 -0.3443
  591TMC3    C2 8758   3.959   0.160  16.321 -0.7391  0.4968 -0.2765
  591TMC3    C3 8759   3.956   0.220  16.199 -1.1146 -0.3449  0.3240
  591TMC3    C4 8760   3.783   0.298  16.380 -0.1401 -0.0482 -0.4046
  591TMC3    C5 8761   3.804   0.373  16.265 -0.1643 -0.6031  0.2345
  591TMC3    C6 8762   3.881   0.328  16.161  0.1726  0.4273 -0.0185
  591TMC3     C 8763   3.821   0.098  16.503  0.4526  0.4222  0.8886
  591TMC3     O 8764   3.892   0.000  16.531 -0.2871 -0.0207  0.1371
  591TMC3     H 8765   4.013   0.068  16.337  1.1123  1.6404  0.1070
  591TMC3    H1 8766   3.720   0.335  16.460 -0.6569  0.5529 -1.0817
  591TMC3    H2 8767   3.885   0.375  16.063  0.2042  0.8894  0.2063
  591TMC3    C7 8768   3.727   0.490  16.247  0.2928  0.2276 -0.2564
  591TMC3    C8 8769   4.012   0.145  16.092  0.0284  0.2144  0.5836
  591TMC3    O1 8770   3.627   0.502  16.317  0.1184  0.6050  0.2965
  591TMC3    O2 8771   3.988   0.027  16.087 -0.3367 -0.2184 -0.1383
  592MPD2     C 8772   4.039   2.307  11.537 -0.3450 -0.6785 -0.3660
  592MPD2    C1 8773   4.045   2.330  11.672 -0.3659 -0.5622  0.0634
  592MPD2    C2 8774   4.024   2.217  11.756 -1.2695  0.3100  0.1282
  592MPD2    C3 8775   3.974   2.100  11.706  0.2420  0.3717 -0.5496
  592MPD2    C4 8776   3.951   2.087  11.577 -0.4249  0.0850 -0.4051
  592MPD2    C5 8777   3.991   2.186  11.491  0.5485 -0.2244  0.6962
  592MPD2     H 8778   4.043   2.228  11.863  2.6948 -2.0782 -0.3406
  592MPD2    H1 8779   3.941   1.996  11.518  1.4227 -1.4873  1.6981
  592MPD2    H2 8780   4.073   2.387  11.472 -0.7672  0.2443  0.5490
  592MPD2    H3 8781   3.981   2.174  11.384  0.8084  0.4605  0.5975
  592MPD2     N 8782   3.950   2.000  11.804  0.1573 -0.4592 -0.0210
  592MPD2    H5 8783   3.989   2.013  11.896  0.3026 -1.0468  0.0015
  592MPD2    N1 8784   4.070   2.464  11.709 -0.0788 -0.2074 -0.2532
  592MPD2    H7 8785   4.086   2.536  11.639 -0.8307 -0.4320 -0.6615
  593TMC3    C1 8786   4.108   2.653  11.854  0.0406  0.1029 -0.1428
  593TMC3    C2 8787   4.103   2.708  11.983  0.4169 -0.0781  0.1472
  593TMC3    C3 8788   4.187   2.825  12.003 -0.4957  0.1727 -0.6011
  593TMC3    C4 8789   4.194   2.692  11.764 -0.4916 -0.4247  0.2462
  593TMC3    C5 8790   4.280   2.797  11.791 -0.2620  0.1760 -0.8631
  593TMC3    C6 8791   4.286   2.862  11.910 -0.3095  0.1945  0.0498
  593TMC3     C 8792   4.065   2.509  11.840  0.2136  0.0096 -0.0537
  593TMC3     O 8793   4.045   2.448  11.944 -0.4116 -0.0341 -0.2737
  593TMC3     H 8794   4.020   2.691  12.051  1.1734  0.7342  1.2778
  593TMC3    H1 8795   4.190   2.654  11.662 -1.4496  1.6216 -0.4766
  593TMC3    H2 8796   4.362   2.936  11.933  1.2368 -0.9540 -1.3430
  593TMC3    C7 8797   4.393   2.794  11.702  0.0291  0.3148 -0.1328
  593TMC3    C8 8798   4.209   2.857  12.144 -0.1459 -0.0568  1.3855
  593TMC3    O1 8799   4.414   2.689  11.643 -0.2581  0.0045  0.2963
  593TMC3    O2 8800   4.120   2.822  12.219 -0.8414 -0.0139  0.4409
  594MPD2     C 8801   2.561   0.862  14.551 -0.3764  0.1957  0.2565
  594MPD2    C1 8802   2.544   0.814  14.675 -0.3117 -0.0920 -0.1187
  594MPD2    C2 8803   2.647   0.817  14.759  0.0001 -0.9478 -0.5103
  594MPD2    C3 8804   2.764   0.875  14.726  0.6004  0.0539  0.2936
  594MPD2    C4 8805   2.777   0.933  14.602 -0.4784  0.9899 -0.0720
  594MPD2    C5 8806   2.678   0.915  14.513  0.8029  0.0902  0.2202
  594MPD2     H 8807   2.637   0.787  14.863 -0.5235 -0.8052 -0.5195
  594MPD2    H1 8808   2.869   0.979  14.568  0.0343 -0.0201 -0.0651
  594MPD2    H2 8809   2.476   0.861  14.484 -0.0776  3.6002 -0.1883
  594MPD2    H3 8810   2.686   0.950  14.411  0.0611 -2.7200 -0.8089
  594MPD2     N 8811   2.861   0.874  14.830  0.3239  0.1331 -0.5523
  594MPD2    H5 8812   2.852   0.827  14.920 -4.3287  1.5191 -0.2946
  594MPD2    N1 8813   2.416   0.757  14.708  0.0967 -0.2716 -0.7820
  594MPD2    H7 8814   2.347   0.789  14.641 -1.0657 -0.3311  0.3797
  595TMC3    C1 8815   3.284   1.010  14.979 -0.4853  0.0762  0.0922
  595TMC3    C2 8816   3.198   0.925  14.906 -0.1904  0.6293  0.0324
  595TMC3    C3 8817   3.059   0.926  14.931  0.3148 -0.3436 -0.2934
  595TMC3    C4 8818   3.239   1.078  15.090  0.1870 -0.5225 -0.7233
  595TMC3    C5 8819   3.101   1.093  15.092  0.1568 -0.7219 -0.0897
  595TMC3    C6 8820   3.014   1.008  15.031  0.2038  0.0587  0.5762
  595TMC3     C 8821   3.369   1.078  14.878  0.1171  0.0408 -0.2674
  595TMC3     O 8822   3.467   1.128  14.924  0.2871 -0.2531  0.3491
  595TMC3     H 8823   3.236   0.884  14.813 -3.4546 -0.8601 -0.6341
  595TMC3    H1 8824   3.312   1.144  15.137 -0.7789  0.5661 -0.7454
  595TMC3    H2 8825   2.911   1.040  15.023 -0.5280 -3.1441 -2.6350
  595TMC3    C7 8826   3.063   1.231  15.082  0.5760  0.6258 -0.2204
  595TMC3    C8 8827   2.982   0.933  14.809 -0.5033  0.1835  0.3783
  595TMC3    O1 8828   2.943   1.253  15.085 -0.3913  1.2147  0.0469
  595TMC3    O2 8829   3.041   0.990  14.719  0.3152 -0.4300 -0.1362
  596MPD2     C 8830   1.793   3.582  16.764 -0.3806  0.6682 -0.2109
  596MPD2    C1 8831   1.759   3.694  16.691 -0.6943 -0.1759  0.0452
  596MPD2    C2 8832   1.775   3.692  16.552  0.2317  0.1247  0.5366
  596MPD2    C3 8833   1.828   3.583  16.485  0.0316 -0.0379  0.1519
  596MPD2    C4 8834   1.856   3.472  16.557 -0.5969 -0.2102  0.7310
  596MPD2    C5 8835   1.834   3.469  16.691 -0.0816  0.2799 -0.2260
  596MPD2     H 8836   1.736   3.782  16.507  0.4368  0.0284  0.1696
  596MPD2    H1 8837   1.884   3.375  16.518 -1.9723 -0.1920 -0.2983
  596MPD2    H2 8838   1.787   3.578  16.872 -2.5104 -2.6253 -0.4451
  596MPD2    H3 8839   1.860   3.387  16.758 -1.0853  0.0047 -0.1753
  596MPD2     N 8840   1.853   3.589  16.350 -0.1063 -0.0292 -0.3054
  596MPD2    H5 8841   1.870   3.497  16.311 -0.0888  0.1180 -0.6409
  596MPD2    N1 8842   1.707   3.814  16.742  0.7197  0.2268  0.1956
  596MPD2    H7 8843   1.684   3.894  16.684  2.0931 -1.2378 -2.3648
  597TMC3    C1 8844   1.634   3.975  16.896  0.1488 -0.1141 -0.2650
  597TMC3    C2 8845   1.684   4.072  16.816  0.0448  0.2650  0.6265
  597TMC3    C3 8846   1.637   4.196  16.837 -0.7243  0.1692  0.0683
  597TMC3    C4 8847   1.555   3.997  16.997  0.1718  0.5232  0.8363
  597TMC3    C5 8848   1.515   4.127  17.017  0.8302 -0.3495 -0.5340
  597TMC3    C6 8849   1.557   4.231  16.939 -0.1250  0.0869  0.3940
  597TMC3     C 8850   1.675   3.833  16.873  0.7914  1.0476 -1.0690
  597TMC3     O 8851   1.666   3.758  16.969  0.4072  0.3039 -0.6501
  597TMC3     H 8852   1.759   4.049  16.741 -1.7022  2.0492 -1.6538
  597TMC3    H1 8853   1.526   3.914  17.060 -0.6487  0.8685  0.9050
  597TMC3    H2 8854   1.536   4.333  16.969 -0.6522  0.1498 -0.2080
  597TMC3    C7 8855   1.442   4.149  17.137  0.4739 -0.6289  0.2236
  597TMC3    C8 8856   1.664   4.303  16.740 -0.1552 -0.6992 -0.2606
  597TMC3    O1 8857   1.484   4.104  17.242  0.3135  0.8359  0.0881
  597TMC3    O2 8858   1.578   4.392  16.739  0.4843  0.5876 -1.0272
  598TMC3    C1 8859   0.365   0.615  15.268 -0.3796  0.4191 -0.5001
  598TMC3    C2 8860   0.244   0.580  15.313 -0.1818  0.1221 -0.3337
  598TMC3    C3 8861   0.138   0.596  15.225 -0.3153  0.6797 -0.6105
  598TMC3    C4 8862   0.385   0.675  15.146  0.3670  0.2969  0.1539
  598TMC3    C5 8863   0.280   0.672  15.060 -0.6005 -0.2009  0.0920
  598TMC3    C6 8864   0.152   0.633  15.090  0.0715  0.5023 -0.2478
  598TMC3     C 8865   0.476   0.568  15.349 -0.7458  0.4924  0.2663
  598TMC3     O 8866   0.461   0.567  15.473  0.3099  0.1482  0.1810
  598TMC3     H 8867   0.227   0.536  15.411 -0.4959  0.1507 -0.3747
  598TMC3    H1 8868   0.485   0.707  15.119 -0.0588  0.1187 -1.5798
  598TMC3    H2 8869   0.065   0.651  15.028 -0.6569  0.8832  0.8898
  598TMC3    C7 8870   0.304   0.744  14.938  0.2799 -0.6472 -0.3655
  598TMC3    C8 8871   0.004   0.533  15.264  0.2115  0.1066 -0.0293
  598TMC3    O1 8872   0.245   0.711  14.839 -0.2304  0.6211  0.2149
  598TMC3    O2 8873   4.711   0.531  15.386  0.2592  0.2824 -0.5969
  599MPD2     C 8874   0.116   3.317  16.282 -0.7693  0.0197 -0.1005
  599MPD2    C1 8875   0.103   3.187  16.270  0.2894 -0.4111 -0.2659
  599MPD2    C2 8876   4.705   3.134  16.293  0.0789 -0.4748 -0.0051
  599MPD2    C3 8877   4.593   3.208  16.334  0.3601 -0.1288 -0.0237
  599MPD2    C4 8878   4.613   3.341  16.343 -0.1431  0.5555  0.0500
  599MPD2    C5 8879   0.009   3.392  16.314 -0.1240 -0.4295 -0.0969
  599MPD2     H 8880   4.700   3.027  16.307 -0.2580 -0.5615 -0.8136
  599MPD2    H1 8881   4.530   3.408  16.360  0.8295  1.4444  1.3013
  599MPD2    H2 8882   0.215   3.359  16.273  0.0805 -1.7409  0.9213
  599MPD2    H3 8883   0.012   3.501  16.319 -0.8892 -0.2987 -2.4214
  599MPD2     N 8884   4.463   3.153  16.363  0.0488  0.0149  0.3693
  599MPD2    H5 8885   4.389   3.221  16.378 -0.4165 -0.9402  2.3205
  599MPD2    N1 8886   0.216   3.110  16.228 -0.1247  0.4118  0.9060
  599MPD2    H7 8887   0.307   3.154  16.229  0.4331 -0.7657  1.9024
  600TMC3    C1 8888   4.292   3.003  16.414  0.0567 -0.8845  0.6653
  600TMC3    C2 8889   4.262   2.872  16.423  0.3742  0.3970 -0.1700
  600TMC3    C3 8890   4.141   2.838  16.478 -0.1676 -0.8293  0.2253
  600TMC3    C4 8891   4.212   3.102  16.467  0.2540 -0.1688  0.1523
  600TMC3    C5 8892   4.100   3.058  16.530  0.1017 -0.1929 -0.5922
  600TMC3    C6 8893   4.056   2.932  16.528 -0.2098  0.6519 -0.3504
  600TMC3     C 8894   4.422   3.023  16.352 -0.1334  0.1459  0.3923
  600TMC3     O 8895   4.496   2.927  16.338  0.2256 -0.3102  0.3020
  600TMC3     H 8896   4.317   2.787  16.386  0.9121  1.7519 -2.4309
  600TMC3    H1 8897   4.240   3.206  16.466  0.8030 -0.3061  1.9912
  600TMC3    H2 8898   3.957   2.911  16.567 -0.3774  0.0717 -1.0828
  600TMC3    C7 8899   4.031   3.152  16.611 -0.1424  0.0828 -0.0798
  600TMC3    C8 8900   4.124   2.703  16.502  0.2367 -0.4309 -0.5798
  600TMC3    O1 8901   3.910   3.145  16.610 -0.3574  0.2454 -0.3888
  600TMC3    O2 8902   4.214   2.641  16.557 -0.0242  0.0099 -0.1658
  601MPD2     C 8903   1.644   0.972   0.342 -0.0093  0.1438  0.5910
  601MPD2    C1 8904   1.542   0.890   0.304  0.0821  0.5942  0.5493
  601MPD2    C2 8905   1.550   0.750   0.305  0.4666  0.4517 -0.8165
  601MPD2    C3 8906   1.668   0.689   0.335 -0.1897  0.5635  0.2927
  601MPD2    C4 8907   1.777   0.770   0.365  0.0938  0.3313 -0.3684
  601MPD2    C5 8908   1.766   0.908   0.372 -0.1511 -1.0309 -0.4021
  601MPD2     H 8909   1.465   0.695   0.266 -0.8873  2.0446 -0.1193
  601MPD2    H1 8910   1.872   0.729   0.397  0.2282 -0.6971 -2.1368
  601MPD2    H2 8911   1.644   1.080   0.354  1.0542  0.1196  0.8442
  601MPD2    H3 8912   1.845   0.965   0.419 -2.1135  0.1264  1.5157
  601MPD2     N 8913   1.681   0.546   0.332  0.6583  0.0843 -0.0099
  601MPD2    H5 8914   1.776   0.513   0.351  1.0069  0.7053 -0.6785
  601MPD2    N1 8915   1.417   0.940   0.252 -0.5933 -0.2198 -0.6979
  601MPD2    H7 8916   1.353   0.868   0.220 -1.3265 -0.0097  0.2896
  602TMC3    C1 8917   1.234   1.083   0.216 -0.3340  0.0734 -0.0393
  602TMC3    C2 8918   1.170   1.184   0.283  0.4391  0.2854  0.3607
  602TMC3    C3 8919   1.043   1.211   0.244 -0.1247  0.4820  0.5904
  602TMC3    C4 8920   1.180   1.015   0.107 -0.3440 -0.2763 -0.0507
  602TMC3    C5 8921   1.051   1.041   0.073  0.5768  0.0793 -0.2720
  602TMC3    C6 8922   0.985   1.143   0.134  0.1473 -0.3832  0.5255
  602TMC3     C 8923   1.368   1.066   0.257 -0.2148  0.0215 -0.4889
  602TMC3     O 8924   1.420   1.165   0.312  0.1156 -0.6793  0.0042
  602TMC3     H 8925   1.216   1.245   0.359 -0.0730 -1.8185  2.3843
  602TMC3    H1 8926   1.223   0.926   0.063 -0.8314 -0.6802  0.2949
  602TMC3    H2 8927   0.878   1.157   0.123  0.3844  0.2196 -1.0798
  602TMC3    C7 8928   1.016   1.009  17.628  0.1394 -0.1854  0.6871
  602TMC3    C8 8929   0.989   1.337   0.284  0.4833  0.4488  0.3993
  602TMC3    O1 8930   1.095   0.938  17.570 -0.2306 -0.5833 -0.2177
  602TMC3    O2 8931   1.032   1.390   0.388  0.1417 -0.1569 -0.0564
  603TMC3    C1 8932   0.554   1.707  11.015 -0.0406  0.8412 -0.0880
  603TMC3    C2 8933   0.599   1.675  11.143 -0.5822 -0.5554  0.0441
  603TMC3    C3 8934   0.655   1.775  11.216 -0.5517 -0.3611 -0.0569
  603TMC3    C4 8935   0.560   1.832  10.967  0.3284 -0.1535  0.0238
  603TMC3    C5 8936   0.612   1.932  11.046 -0.4253  0.4148 -0.1717
  603TMC3    C6 8937   0.674   1.902  11.171 -0.3796  0.3417  0.5899
  603TMC3     C 8938   0.541   1.606  10.915  0.4984 -0.8488 -0.1298
  603TMC3     O 8939   0.454   1.629  10.830  0.1140  0.4320  0.1297
  603TMC3     H 8940   0.586   1.575  11.181 -1.2860 -0.4140  0.1764
  603TMC3    H1 8941   0.532   1.864  10.867 -1.7118 -1.7997  0.0883
  603TMC3    H2 8942   0.712   1.983  11.233  2.3207 -1.0324  0.7312
  603TMC3    C7 8943   0.597   2.066  11.007 -0.3732  0.5793  0.5408
  603TMC3    C8 8944   0.705   1.737  11.351 -0.4605 -0.1240  0.1884
  603TMC3    O1 8945   0.685   2.146  11.045 -0.7542  0.4030 -0.2897
  603TMC3    O2 8946   0.719   1.618  11.373  1.1201  0.1076 -0.3203
  604MPD2     C 8947   0.598   4.510  16.405 -0.4323  0.3400 -0.0327
  604MPD2    C1 8948   0.556   4.629  16.342 -0.9973  0.8349  0.6573
  604MPD2    C2 8949   0.581   4.655  16.199  0.6343 -1.1563  0.4297
  604MPD2    C3 8950   0.654   4.555  16.136  0.3589  0.0520  0.9613
  604MPD2    C4 8951   0.696   4.444  16.198  0.0437 -0.0564 -0.3756
  604MPD2    C5 8952   0.658   4.418  16.325  0.3156 -0.1311  0.9839
  604MPD2     H 8953   0.553   0.023  16.150  1.1703  0.3696  2.9531
  604MPD2    H1 8954   0.755   4.370  16.146  2.0001  0.8845  0.4994
  604MPD2    H2 8955   0.559   4.467  16.496  2.5905  3.6655  2.8458
  604MPD2    H3 8956   0.694   4.326  16.371  0.9131 -0.6641 -0.5710
  604MPD2     N 8957   0.689   4.591  16.002  0.1989  0.5193 -0.0351
  604MPD2    H5 8958   0.671   4.687  15.974  2.2253  0.2872 -2.1707
  604MPD2    N1 8959   0.472   4.705  16.429 -0.5439  0.0656  0.3671
  604MPD2    H7 8960   0.458   4.665  16.522 -0.6571 -0.2430  0.2162
  605TMC3    C1 8961   0.382   0.193  16.510 -0.1002  0.6564  0.5352
  605TMC3    C2 8962   0.451   0.175  16.626  0.1532  0.8218 -0.7684
  605TMC3    C3 8963   0.467   0.289  16.700 -0.1424 -0.1295  0.0341
  605TMC3    C4 8964   0.321   0.314  16.478 -0.2636 -0.1046  0.8800
  605TMC3    C5 8965   0.326   0.417  16.567 -0.3336 -0.9120 -0.2908
  605TMC3    C6 8966   0.392   0.407  16.685 -0.3902 -0.4014  0.2064
  605TMC3     C 8967   0.405   0.102  16.395  0.2256  0.0315  0.5861
  605TMC3     O 8968   0.373   0.134  16.281 -0.1350  0.7470 -0.3741
  605TMC3     H 8969   0.517   0.091  16.645  0.3233  0.5584 -2.4941
  605TMC3    H1 8970   0.286   0.332  16.377 -1.9112  0.1539  1.4953
  605TMC3    H2 8971   0.407   0.483  16.760  0.9577 -2.5299  2.0962
  605TMC3    C7 8972   0.281   0.545  16.514  0.0882  0.9024 -0.5311
  605TMC3    C8 8973   0.584   0.293  16.780 -0.2330 -0.3092  0.5046
  605TMC3    O1 8974   0.195   0.544  16.433  0.7795  0.0593 -0.3090
  605TMC3    O2 8975   0.674   0.242  16.715  0.1903 -0.1132 -0.9108
  606TMC3    C1 8976   1.665   3.780  17.452 -0.5664 -0.4130 -0.5773
  606TMC3    C2 8977   1.547   3.834  17.501 -0.2397  0.4701 -0.1309
  606TMC3    C3 8978   1.428   3.767  17.484 -0.4911 -0.6424  0.2729
  606TMC3    C4 8979   1.660   3.655  17.390 -0.8098 -0.5825  0.5447
  606TMC3    C5 8980   1.541   3.593  17.376  0.0519  0.7307 -0.7147
  606TMC3    C6 8981   1.425   3.652  17.411 -0.1984  0.2524 -0.2974
  606TMC3     C 8982   1.791   3.845  17.483 -0.1965  0.5021 -0.5076
  606TMC3     O 8983   1.889   3.781  17.442  0.3760  0.4516 -0.6191
  606TMC3     H 8984   1.534   3.929  17.552 -1.2961 -0.2027  0.8456
  606TMC3    H1 8985   1.752   3.605  17.364 -0.3641  0.2204  0.5755
  606TMC3    H2 8986   1.324   3.614  17.405 -0.9717  2.4353 -0.7252
  606TMC3    C7 8987   1.531   3.452  17.384  0.2071 -0.8218 -0.0049
  606TMC3    C8 8988   1.312   3.816  17.557 -0.4049  0.5163  0.2251
  606TMC3    O1 8989   1.426   3.412  17.333  0.0071 -0.1668 -0.0678
  606TMC3    O2 8990   1.283   3.933  17.546  0.1986  0.3127 -0.2133
  607MPD2     C 8991   4.263   1.775  11.693  0.2739 -0.7344 -1.3291
  607MPD2    C1 8992   4.332   1.826  11.800  0.1946  0.1688  1.0862
  607MPD2    C2 8993   4.333   1.743  11.912  0.3669 -0.1121  0.8686
  607MPD2    C3 8994   4.258   1.632  11.933  0.7322 -0.0421 -0.0185
  607MPD2    C4 8995   4.198   1.586  11.822  0.0380 -0.7978  0.0970
  607MPD2    C5 8996   4.205   1.655  11.706 -0.0368  0.1842 -0.3016
  607MPD2     H 8997   4.395   1.772  11.996 -1.1904  1.8544  1.3374
  607MPD2    H1 8998   4.150   1.489  11.821 -1.5314 -0.0323  0.8908
  607MPD2    H2 8999   4.251   1.823  11.597 -1.5562 -1.1663 -1.3070
  607MPD2    H3 9000   4.161   1.618  11.614  1.1380  2.1467 -1.6646
  607MPD2     N 9001   4.270   1.558  12.056 -0.2886  0.5112  0.3731
  607MPD2    H5 9002   4.333   1.584  12.132  0.6852 -0.9594  0.0782
  607MPD2    N1 9003   4.427   1.929  11.802  1.0193 -0.1546 -0.5983
  607MPD2    H7 9004   4.473   1.948  11.890 -0.4070 -3.0888  0.7820
  608TMC3    C1 9005   4.610   2.022  11.717  0.0566  0.3564 -0.2796
  608TMC3    C2 9006   4.683   1.963  11.810 -0.5450 -0.2548  0.5928
  608TMC3    C3 9007   0.087   2.009  11.838 -0.7918  0.3408 -0.3088
  608TMC3    C4 9008   4.664   2.125  11.646 -0.0100 -0.3931 -0.1265
  608TMC3    C5 9009   0.062   2.176  11.678 -0.3274 -0.2547 -0.1172
  608TMC3    C6 9010   0.141   2.116  11.766  0.0164  0.1157 -0.0265
  608TMC3     C 9011   4.477   1.982  11.684  0.2208  0.5990  0.2972
  608TMC3     O 9012   4.436   2.010  11.573  0.1110 -0.4855  0.3701
  608TMC3     H 9013   4.644   1.867  11.841  0.7157 -0.6774  0.8809
  608TMC3    H1 9014   4.609   2.172  11.566  1.4300 -0.2563 -1.0277
  608TMC3    H2 9015   0.239   2.152  11.794  0.6454  0.5149 -2.7649
  608TMC3    C7 9016   0.116   2.284  11.594 -0.4242  0.4378  0.3991
  608TMC3    C8 9017   0.173   1.926  11.920  0.0545 -0.0539  0.5972
  608TMC3    O1 9018   0.088   2.273  11.475 -0.2560  0.1314  0.7667
  608TMC3    O2 9019   0.293   1.911  11.895 -0.2346 -0.7652 -0.0225
  609TMC3    C1 9020   3.595   0.343   9.443  0.3618 -0.1151  0.0524
  609TMC3    C2 9021   3.638   0.319   9.313  0.4096  0.2932 -0.1546
  609TMC3    C3 9022   3.721   0.211   9.299 -0.2857 -0.8007  0.3544
  609TMC3    C4 9023   3.623   0.267   9.554 -0.1697 -0.0969  0.0585
  609TMC3    C5 9024   3.713   0.161   9.533 -0.8440 -0.3122  0.1723
  609TMC3    C6 9025   3.757   0.124   9.404 -0.9934  0.3683 -0.2532
  609TMC3     C 9026   3.483   0.432   9.451 -0.5708  0.5143  0.0005
  609TMC3     O 9027   3.398   0.391   9.529  0.0641 -0.3870  0.2048
  609TMC3     H 9028   3.619   0.379   9.225 -1.2076 -0.7179 -0.4954
  609TMC3    H1 9029   3.589   0.288   9.655  2.7377 -1.1218  1.2798
  609TMC3    H2 9030   3.828   0.042   9.396 -3.1890 -1.5070 -0.5663
  609TMC3    C7 9031   3.769   0.097   9.645  0.2165 -0.4082  0.0789
  609TMC3    C8 9032   3.758   0.182   9.162 -0.1378  0.2369 -0.2912
  609TMC3    O1 9033   3.756   0.154   9.752 -0.1524  0.4229  0.1722
  609TMC3    O2 9034   3.762   0.272   9.077  0.3093 -0.3260  0.0356
  610TMC3    C1 9035   0.024   0.891  12.630  0.6435 -0.1018  0.0469
  610TMC3    C2 9036   0.048   0.998  12.706  0.1503 -0.4631  0.0284
  610TMC3    C3 9037   0.148   0.999  12.797  0.0482  0.0206 -0.6480
  610TMC3    C4 9038   0.103   0.780  12.638 -0.2285  0.3860  0.6635
  610TMC3    C5 9039   0.211   0.792  12.719  0.2743  0.4751 -0.0402
  610TMC3    C6 9040   0.230   0.894  12.805  0.0047  0.5535  0.5282
  610TMC3     C 9041   4.648   0.899  12.522 -0.0461 -0.3426  0.2658
  610TMC3     O 9042   4.573   0.995  12.536  0.3042 -0.2623 -0.1973
  610TMC3     H 9043   4.719   1.091  12.693  1.8853  0.4883 -0.1809
  610TMC3    H1 9044   0.076   0.685  12.593  0.9199  0.7893 -0.8773
  610TMC3    H2 9045   0.312   0.902  12.875 -2.6125 -1.7969  3.8359
  610TMC3    C7 9046   0.313   0.687  12.726 -0.6092 -0.7998 -0.5900
  610TMC3    C8 9047   0.190   1.111  12.883 -0.4133 -0.5116  0.3434
  610TMC3    O1 9048   0.404   0.711  12.803  0.3018  0.3187  0.0966
  610TMC3    O2 9049   0.310   1.126  12.889 -0.2585 -0.1493 -0.1916
  611MPD2     C 9050   4.514   1.646  10.470  0.2206 -0.5890  0.1226
  611MPD2    C1 9051   4.393   1.719  10.488 -0.1174  0.2559  0.0228
  611MPD2    C2 9052   4.393   1.855  10.521 -0.2175  0.3424  0.1849
  611MPD2    C3 9053   4.517   1.922  10.530 -0.5211 -0.5990  0.0858
  611MPD2    C4 9054   4.633   1.852  10.506 -0.0286 -0.1591 -0.5303
  611MPD2    C5 9055   4.628   1.719  10.484 -0.0906  0.1383  0.4841
  611MPD2     H 9056   4.301   1.912  10.526 -1.5449 -1.7343 -1.0470
  611MPD2    H1 9057   0.009   1.893  10.505 -0.2644  0.4989  2.4485
  611MPD2    H2 9058   4.519   1.539  10.453 -1.4284 -0.4296 -1.4068
  611MPD2    H3 9059   0.001   1.679  10.458 -0.9464  0.4958 -3.3303
  611MPD2     N 9060   4.539   2.060  10.555 -0.5194 -0.1494  0.4610
  611MPD2    H5 9061   4.636   2.089  10.554 -0.8576  0.9153 -1.3204
  611MPD2    N1 9062   4.276   1.645  10.479  0.5376  0.2220  0.0128
  611MPD2    H7 9063   4.286   1.546  10.458 -2.3803 -0.0606  0.0225
  612TMC3    C1 9064   4.508   2.291  10.564 -0.4309 -0.5810 -0.2097
  612TMC3    C2 9065   4.637   2.302  10.604  0.2226 -0.8343 -0.2604
  612TMC3    C3 9066   4.696   2.428  10.585 -0.4733  0.0828  0.4602
  612TMC3    C4 9067   4.426   2.388  10.512 -0.0514  0.1476 -0.1803
  612TMC3    C5 9068   4.495   2.512  10.494  0.2428  0.1031 -0.5546
  612TMC3    C6 9069   4.630   2.532  10.522  0.1422 -0.5193 -0.0508
  612TMC3     C 9070   4.444   2.157  10.568 -0.0195  0.1333 -0.8272
  612TMC3     O 9071   4.323   2.148  10.546  0.1031  0.3751  0.3144
  612TMC3     H 9072   4.687   2.217  10.648  1.9004  1.1239  1.6139
  612TMC3    H1 9073   4.325   2.370  10.478  0.7804  0.2757 -2.6639
  612TMC3    H2 9074   4.670   2.633  10.528 -2.9055  0.7711 -1.1266
  612TMC3    C7 9075   4.413   2.608  10.424 -0.8978 -0.0459  0.7349
  612TMC3    C8 9076   0.109   2.456  10.625  0.0293 -0.0209  0.0355
  612TMC3    O1 9077   4.293   2.585  10.415 -0.7379  0.1433 -0.5597
  612TMC3    O2 9078   0.158   2.557  10.582  0.3893  0.7713  0.3468
  613MPD2     C 9079   2.768   3.989  17.072 -0.7100  0.2383  0.3512
  613MPD2    C1 9080   2.729   4.002  16.942  0.6643 -0.0584  0.4137
  613MPD2    C2 9081   2.662   3.902  16.873 -0.6143 -0.4165  0.6289
  613MPD2    C3 9082   2.667   3.775  16.921  0.5971 -0.1398 -0.2007
  613MPD2    C4 9083   2.705   3.758  17.053  0.2266  0.3194  0.0476
  613MPD2    C5 9084   2.742   3.868  17.128 -0.1118 -0.1321  0.1001
  613MPD2     H 9085   2.636   3.920  16.770 -0.9438 -3.7711  0.1545
  613MPD2    H1 9086   2.703   3.663  17.106 -0.1799 -0.1218 -0.7650
  613MPD2    H2 9087   2.812   4.069  17.132  0.4506  0.2954 -0.5933
  613MPD2    H3 9088   2.751   3.849  17.234 -0.6580 -0.3651  0.1030
  613MPD2     N 9089   2.649   3.663  16.840 -0.2144  0.6665 -0.3694
  613MPD2    H5 9090   2.681   3.580  16.888 -1.3012 -0.5934 -1.8092
  613MPD2    N1 9091   2.760   4.127  16.887  0.2418  0.2552 -0.0563
  613MPD2    H7 9092   2.816   4.195  16.938  0.9530  0.3507 -0.9435
  614TMC3    C1 9093   2.808   4.277  16.719  0.3093  1.1209 -0.3972
  614TMC3    C2 9094   2.926   4.223  16.689  0.3502  0.0986 -0.3037
  614TMC3    C3 9095   2.972   4.204  16.558 -0.1611  0.4448 -0.3463
  614TMC3    C4 9096   2.750   4.345  16.616  0.1025  0.1044 -0.2239
  614TMC3    C5 9097   2.797   4.341  16.491  0.1488 -0.2202  0.4966
  614TMC3    C6 9098   2.906   4.265  16.457 -0.1522 -0.2660 -0.3687
  614TMC3     C 9099   2.715   4.185  16.769  0.3564 -0.9225  0.6056
  614TMC3     O 9100   2.623   4.157  16.693 -1.1030  0.4897  0.1707
  614TMC3     H 9101   2.979   4.164  16.763 -1.4419 -1.4863 -0.2662
  614TMC3    H1 9102   2.667   4.409  16.644  0.9861  0.6855  1.0401
  614TMC3    H2 9103   2.938   4.246  16.356  1.2156  2.0304 -0.3735
  614TMC3    C7 9104   2.720   4.410  16.395 -0.0296 -0.1616 -0.3357
  614TMC3    C8 9105   3.011   4.063  16.540  0.3130  0.4135  0.0870
  614TMC3    O1 9106   2.664   4.510  16.425  0.1519 -0.6823 -0.7373
  614TMC3    O2 9107   2.963   3.989  16.624 -0.4108  0.1051  0.2215
  615MPD2     C 9108   2.048   0.309  15.611  0.1099  0.1382  0.3948
  615MPD2    C1 9109   1.943   0.368  15.665  0.0130  0.5517 -0.9903
  615MPD2    C2 9110   1.827   0.402  15.592 -0.3021 -0.1680 -0.3947
  615MPD2    C3 9111   1.823   0.378  15.455  0.4578 -0.9597  0.5444
  615MPD2    C4 9112   1.939   0.329  15.395 -0.7629 -0.0754  0.4953
  615MPD2    C5 9113   2.047   0.295  15.475 -0.4642  0.0310 -0.0988
  615MPD2     H 9114   1.738   0.442  15.640  0.9229  1.5391  0.4437
  615MPD2    H1 9115   1.937   0.323  15.286 -0.5151 -0.3211  0.5025
  615MPD2    H2 9116   2.137   0.271  15.659  1.1634  3.3134  0.9597
  615MPD2    H3 9117   2.132   0.251  15.424 -1.3233  0.6484 -2.0726
  615MPD2     N 9118   1.720   0.416  15.367  0.6566 -0.1118  0.7650
  615MPD2    H5 9119   1.738   0.406  15.268 -1.4562  1.1328  0.2490
  615MPD2    N1 9120   1.943   0.411  15.803  0.4507  0.9340  0.3514
  615MPD2    H7 9121   1.859   0.452  15.842  0.5187  2.0830 -0.6936
  616TMC3    C1 9122   2.029   0.472  16.023 -0.6020  0.3035 -0.4297
  616TMC3    C2 9123   2.144   0.487  16.095  0.1043  0.3441  0.3445
  616TMC3    C3 9124   2.135   0.561  16.213 -0.7421  0.0951 -0.2958
  616TMC3    C4 9125   1.909   0.531  16.060  0.4762  0.6046 -0.8131
  616TMC3    C5 9126   1.910   0.604  16.173 -0.8145 -0.1445  0.2747
  616TMC3    C6 9127   2.020   0.614  16.258 -0.7167 -0.0499  0.9258
  616TMC3     C 9128   2.049   0.408  15.892  0.0450  0.2755  0.3041
  616TMC3     O 9129   2.158   0.361  15.874 -0.2897  0.5231 -0.2620
  616TMC3     H 9130   2.238   0.439  16.070  0.8312  1.4937  0.8540
  616TMC3    H1 9131   1.818   0.507  16.007  0.6390  0.2907 -0.9536
  616TMC3    H2 9132   2.019   0.683  16.342  2.1686  0.3808  0.5974
  616TMC3    C7 9133   1.771   0.633  16.229  0.3093  0.9771 -0.2240
  616TMC3    C8 9134   2.229   0.546  16.316  0.0936 -0.4069 -0.0565
  616TMC3    O1 9135   1.673   0.626  16.154  0.6544  0.1914 -0.3112
  616TMC3    O2 9136   2.190   0.578  16.432  0.5199 -0.5259 -0.2865
  617MPD2     C 9137   0.756   3.335  13.973 -0.2244  0.0920 -0.2802
  617MPD2    C1 9138   0.810   3.226  13.903  0.3255  0.1214  0.0928
  617MPD2    C2 9139   0.730   3.163  13.810 -0.5057 -0.1714  0.7485
  617MPD2    C3 9140   0.602   3.214  13.785 -0.0184  0.6938 -0.4748
  617MPD2    C4 9141   0.547   3.321  13.852  0.1005  0.3272  0.8240
  617MPD2    C5 9142   0.626   3.376  13.947 -0.7370 -0.2482  0.0385
  617MPD2     H 9143   0.774   3.082  13.753  1.1211 -1.0171  3.2188
  617MPD2    H1 9144   0.448   3.358  13.828  0.0353  0.0454  0.6589
  617MPD2    H2 9145   0.814   3.390  14.046  1.6604  1.4525 -2.8036
  617MPD2    H3 9146   0.582   3.454  14.008 -2.1539 -0.4399 -0.7528
  617MPD2     N 9147   0.522   3.162  13.685  0.4235 -0.5558  0.2548
  617MPD2    H5 9148   0.431   3.203  13.666 -0.1378 -1.1622  1.6288
  617MPD2    N1 9149   0.947   3.189  13.934 -0.6071  0.0915  0.1994
  617MPD2    H7 9150   0.991   3.251  14.002  0.3169  1.0625 -1.2701
  618TMC3    C1 9151   1.156   3.101  13.928 -0.0597 -1.3008 -0.0515
  618TMC3    C2 9152   1.244   3.008  13.887 -0.3256 -0.0654  0.7263
  618TMC3    C3 9153   1.374   3.041  13.880 -0.4149  0.5606  0.0605
  618TMC3    C4 9154   1.199   3.218  13.976  0.3067 -0.3597  0.0855
  618TMC3    C5 9155   1.332   3.244  13.969  0.2834 -0.1871 -0.0347
  618TMC3    C6 9156   1.427   3.157  13.923  0.7732 -0.0740 -0.1036
  618TMC3     C 9157   1.022   3.087  13.879 -0.3549 -0.2525 -0.4005
  618TMC3     O 9158   0.993   2.999  13.799  0.2087 -0.0621 -0.4276
  618TMC3     H 9159   1.208   2.912  13.853  2.2966 -1.3659  1.5892
  618TMC3    H1 9160   1.144   3.311  13.990 -1.9783 -1.8709  1.1051
  618TMC3    H2 9161   1.532   3.186  13.922  1.0952 -1.2603 -0.5599
  618TMC3    C7 9162   1.369   3.377  14.022 -0.5059 -0.5774 -0.0896
  618TMC3    C8 9163   1.439   2.970  13.770 -0.8347 -0.3042  0.0453
  618TMC3    O1 9164   1.311   3.419  14.127 -0.0313  0.4912  0.3465
  618TMC3    O2 9165   1.414   2.852  13.742 -0.1463 -0.1860 -0.5946
  619MPD2     C 9166   2.016   4.515  14.147 -0.1212 -0.4875  0.0664
  619MPD2    C1 9167   1.991   4.552  14.018 -0.7097 -0.5723 -0.0193
  619MPD2    C2 9168   1.865   4.542  13.972 -0.7758 -0.3116  0.0133
  619MPD2    C3 9169   1.764   4.493  14.056 -1.0103  0.7458 -0.4465
  619MPD2    C4 9170   1.793   4.450  14.182 -0.1638 -0.0235 -0.3884
  619MPD2    C5 9171   1.921   4.465  14.227 -0.1133 -0.1844 -0.3783
  619MPD2     H 9172   1.851   4.580  13.871 -1.8262 -1.9955 -0.4572
  619MPD2    H1 9173   1.713   4.399  14.236 -1.0056  0.0299 -1.5881
  619MPD2    H2 9174   2.116   4.522  14.188  0.1521  1.3420 -0.8890
  619MPD2    H3 9175   1.953   4.432  14.325  0.1056  0.3980 -0.2544
  619MPD2     N 9176   1.628   4.479  14.015  0.3853  0.1372  0.0091
  619MPD2    H5 9177   1.565   4.443  14.085  0.1368  1.8541  0.6706
  619MPD2    N1 9178   2.086   4.617  13.932 -0.3469 -0.5917  0.4337
  619MPD2    H7 9179   2.067   4.627  13.833  3.9039 -1.4485 -0.4605
  620TMC3    C1 9180   2.289   4.718  13.870  0.6548 -0.0092  0.0117
  620TMC3    C2 9181   2.226   4.717  13.752  0.5186 -0.4294  0.4066
  620TMC3    C3 9182   2.232   0.106  13.677  0.6162  0.1773  0.0460
  620TMC3    C4 9183   2.362   0.105  13.914  0.0594 -0.3233  0.0860
  620TMC3    C5 9184   2.364   0.218  13.832 -0.5518 -0.0217 -0.1198
  620TMC3    C6 9185   2.293   0.215  13.718 -0.2670 -0.5527 -0.3421
  620TMC3     C 9186   2.208   4.664  13.975 -0.1347  0.9006 -0.3752
  620TMC3     O 9187   2.260   4.673  14.083 -0.0449  0.3367 -0.4072
  620TMC3     H 9188   2.193   4.622  13.710 -0.3143 -0.0249  0.1337
  620TMC3    H1 9189   2.411   0.114  14.011 -0.3985 -1.1935  0.3992
  620TMC3    H2 9190   2.306   0.295  13.646  0.2072 -0.4706 -0.1620
  620TMC3    C7 9191   2.312   0.332  13.908  0.4145  0.5001  0.3488
  620TMC3    C8 9192   2.108   0.148  13.625  0.1290 -0.2823  0.5833
  620TMC3    O1 9193   2.367   0.358  14.011  0.0408 -0.3090  0.2507
  620TMC3    O2 9194   2.084   0.264  13.639 -0.0805  0.0314  0.5155
  621MPD2     C 9195   2.426   3.653   9.946  0.1073  0.6618 -0.0672
  621MPD2    C1 9196   2.339   3.751   9.922  0.0559  0.4416  0.6062
  621MPD2    C2 9197   2.384   3.875   9.925 -0.0867 -0.9788  0.2091
  621MPD2    C3 9198   2.521   3.908   9.933  0.1955 -0.4998  0.0451
  621MPD2    C4 9199   2.614   3.807   9.940  0.1639 -0.4875  0.1413
  621MPD2    C5 9200   2.558   3.684   9.957  0.1277  0.1412 -0.4523
  621MPD2     H 9201   2.315   3.956   9.901  1.3140 -0.1018 -0.8439
  621MPD2    H1 9202   2.722   3.818   9.944  0.2393 -1.2154  0.0660
  621MPD2    H2 9203   2.388   3.551   9.944  0.7755  0.4229 -0.5080
  621MPD2    H3 9204   2.631   3.605   9.974  0.8870  0.4777 -2.1734
  621MPD2     N 9205   2.560   4.046   9.933  0.0933 -0.1914 -0.0647
  621MPD2    H5 9206   2.488   4.113   9.909  0.6811  1.6435  3.3002
  621MPD2    N1 9207   2.200   3.726   9.917 -0.2484 -0.8269  0.9824
  621MPD2    H7 9208   2.138   3.806   9.910  0.9143  0.2222  2.5552
  622TMC3    C1 9209   2.009   3.607   9.918 -0.9084 -0.3321 -0.7437
  622TMC3    C2 9210   1.961   3.680  10.020  0.6462 -0.1887  0.5179
  622TMC3    C3 9211   1.830   3.690  10.030  0.3901 -0.1940 -0.6230
  622TMC3    C4 9212   1.937   3.519   9.849 -0.8311 -0.0758 -0.6904
  622TMC3    C5 9213   1.803   3.526   9.864 -0.6083  0.4814 -0.9245
  622TMC3    C6 9214   1.746   3.621   9.949  0.0500 -0.4235  0.2090
  622TMC3     C 9215   2.151   3.599   9.898  0.3839  0.6630 -0.1430
  622TMC3     O 9216   2.196   3.486   9.873 -0.2279 -0.0279  0.1930
  622TMC3     H 9217   2.027   3.738  10.084 -1.9682  0.5860  2.5167
  622TMC3    H1 9218   1.994   3.448   9.790  1.6982  0.7278  0.7555
  622TMC3    H2 9219   1.638   3.631   9.954  0.1452  0.4529  0.5922
  622TMC3    C7 9220   1.718   3.422   9.813 -0.3229  0.1901  0.3811
  622TMC3    C8 9221   1.791   3.830  10.057 -0.2722 -0.1621 -0.8280
  622TMC3    O1 9222   1.642   3.369   9.893 -0.0664 -0.3638 -0.0108
  622TMC3    O2 9223   1.725   3.874   9.963 -0.4258 -0.5992 -0.2583
  623MPD2     C 9224   0.940   0.352  16.115  0.0295  0.8996  0.0010
  623MPD2    C1 9225   0.965   0.485  16.149 -0.0388 -0.0689 -0.0273
  623MPD2    C2 9226   1.070   0.508  16.233 -0.2856 -0.8188 -0.1041
  623MPD2    C3 9227   1.134   0.412  16.303  0.3424  0.1854  0.2383
  623MPD2    C4 9228   1.105   0.280  16.279 -0.3206 -0.5823  0.3213
  623MPD2    C5 9229   1.011   0.251  16.189 -0.2420  0.1661 -0.2352
  623MPD2     H 9230   1.102   0.610  16.251  0.6686 -0.9362 -1.1689
  623MPD2    H1 9231   1.153   0.191  16.319 -3.0504 -2.5780 -0.7761
  623MPD2    H2 9232   0.867   0.329  16.039  2.1633 -2.2056 -1.1114
  623MPD2    H3 9233   0.990   0.147  16.165 -1.5103  0.2525  0.5155
  623MPD2     N 9234   1.216   0.447  16.409 -0.3181 -0.4560  0.4811
  623MPD2    H5 9235   1.255   0.540  16.418 -0.6285 -0.2924  0.1275
  623MPD2    N1 9236   0.901   0.594  16.088  0.0742 -0.2722 -0.3252
  623MPD2    H7 9237   0.921   0.684  16.130 -1.7911  0.4100 -0.8861
  624TMC3    C1 9238   1.432   0.342  16.808 -0.0901  0.4975  0.2784
  624TMC3    C2 9239   1.363   0.420  16.887  0.5347  0.1634 -0.8678
  624TMC3    C3 9240   1.251   0.489  16.841  0.7697 -0.1348  0.1933
  624TMC3    C4 9241   1.415   0.340  16.671 -0.3717 -0.2796  0.1456
  624TMC3    C5 9242   1.313   0.422  16.623 -0.5067  0.3163  0.1693
  624TMC3    C6 9243   1.227   0.485  16.707 -0.5497 -0.3869 -0.3607
  624TMC3     C 9244   1.567   0.297  16.859 -0.0907 -0.3881 -0.2993
  624TMC3     O 9245   1.578   0.321  16.982 -0.0349  0.5569  0.1775
  624TMC3     H 9246   1.385   0.427  16.993 -1.7260 -0.0668 -0.3748
  624TMC3    H1 9247   1.482   0.288  16.604 -2.3565 -2.1924 -0.3460
  624TMC3    H2 9248   1.144   0.541  16.668 -1.5749 -0.8906  1.1034
  624TMC3    C7 9249   1.249   0.358  16.514 -0.2211  0.0580  0.2438
  624TMC3    C8 9250   1.154   0.538  16.936 -0.1386 -0.4022 -0.5436
  624TMC3    O1 9251   1.261   0.235  16.507 -0.2899 -0.1517 -0.1292
  624TMC3    O2 9252   1.189   0.609  17.029 -0.5140  0.1000  0.5167
  625MPD2     C 9253   0.997   1.563   0.788  0.2570 -0.1724  0.7497
  625MPD2    C1 9254   1.107   1.646   0.804  0.0041 -0.1418  0.3644
  625MPD2    C2 9255   1.215   1.597   0.877  0.1009 -0.3501  0.2064
  625MPD2    C3 9256   1.207   1.478   0.947 -0.0730  0.4586  0.7959
  625MPD2    C4 9257   1.088   1.409   0.953 -0.3892 -0.2719  0.8556
  625MPD2    C5 9258   0.980   1.453   0.867  0.6135 -0.0876 -0.3861
  625MPD2     H 9259   1.309   1.651   0.878 -0.3166  0.3696  0.2985
  625MPD2    H1 9260   1.065   1.326   1.019  2.5163 -0.1326  2.0324
  625MPD2    H2 9261   0.912   1.591   0.726 -0.6203 -0.8063  1.6709
  625MPD2    H3 9262   0.889   1.394   0.863  1.8738 -1.8030 -3.0403
  625MPD2     N 9263   1.323   1.425   1.014 -0.6898 -0.0756 -0.7427
  625MPD2    H5 9264   1.406   1.484   1.022 -0.4149 -0.8634  2.1801
  625MPD2    N1 9265   1.120   1.766   0.733  0.3042 -0.4233 -0.6769
  625MPD2    H7 9266   1.196   1.824   0.767  0.6627 -0.8185 -0.8106
  626TMC3    C1 9267   1.049   1.963   0.634 -0.0024 -0.3227  0.6031
  626TMC3    C2 9268   1.044   2.011   0.507 -0.1969  0.5426 -0.2322
  626TMC3    C3 9269   1.126   2.113   0.474 -0.3526 -0.1511  0.7934
  626TMC3    C4 9270   1.114   2.024   0.733 -0.6278  0.5476  0.1548
  626TMC3    C5 9271   1.182   2.138   0.702 -0.0598 -0.8172 -0.6267
  626TMC3    C6 9272   1.191   2.187   0.573  0.0282  0.4981 -0.5981
  626TMC3     C 9273   1.022   1.827   0.659 -0.2757 -0.4460 -0.0056
  626TMC3     O 9274   0.931   1.772   0.599  0.0029  0.8404 -0.1521
  626TMC3     H 9275   0.985   1.962   0.431  1.6591 -0.4927 -1.0239
  626TMC3    H1 9276   1.117   1.995   0.838 -2.4427  3.7227  1.1082
  626TMC3    H2 9277   1.246   2.278   0.555 -0.7686  0.5016 -3.0346
  626TMC3    C7 9278   1.206   2.235   0.805  0.4189  0.0733  0.1753
  626TMC3    C8 9279   1.078   2.190   0.355  0.1387 -0.2395 -0.3882
  626TMC3    O1 9280   1.325   2.252   0.823 -0.0520  0.1868  0.0217
  626TMC3    O2 9281   1.067   2.126   0.249 -0.8936 -0.4461 -0.3447
  627MPD2     C 9282   4.645   2.208  14.057  0.1653 -0.2735  0.0671
  627MPD2    C1 9283   0.014   2.190  14.159 -0.3241 -0.3411 -0.9940
  627MPD2    C2 9284   0.003   2.076  14.229  0.5743  0.8183  0.2393
  627MPD2    C3 9285   4.621   1.988  14.203  1.1902 -0.0332  0.4682
  627MPD2    C4 9286   4.517   2.021  14.115  0.0367  0.3616 -1.0495
  627MPD2    C5 9287   4.534   2.133  14.049 -0.3072  0.3470  0.1406
  627MPD2     H 9288   0.075   2.053  14.307  0.8356  3.1860  0.6818
  627MPD2    H1 9289   4.427   1.965  14.092  1.2945 -1.0366 -2.5341
  627MPD2    H2 9290   4.652   2.288  13.984  1.1741 -0.3807  0.0389
  627MPD2    H3 9291   4.465   2.163  13.971 -1.5353 -1.0305  0.7020
  627MPD2     N 9292   4.609   1.864  14.287 -0.0553  0.6555 -0.4736
  627MPD2    H5 9293   4.684   1.850  14.354 -2.3905 -2.0719  1.5874
  627MPD2    N1 9294   0.107   2.290  14.175  0.0477 -0.4528  0.1970
  627MPD2    H7 9295   0.091   2.373  14.119 -1.3365 -0.6902  0.2393
  628TMC3    C1 9296   0.271   2.418  14.275 -0.2231 -0.8503  0.8677
  628TMC3    C2 9297   0.401   2.430  14.326 -0.3875 -0.6138  0.4065
  628TMC3    C3 9298   0.446   2.548  14.364 -0.3339  0.5922  0.2739
  628TMC3    C4 9299   0.192   2.528  14.266  0.3053 -0.1636  0.1620
  628TMC3    C5 9300   0.246   2.649  14.311  0.0004  0.1584 -0.0580
  628TMC3    C6 9301   0.373   2.663  14.353  0.0502  0.4844 -0.0347
  628TMC3     C 9302   0.224   2.286  14.251  0.2626  0.4559  0.5377
  628TMC3     O 9303   0.298   2.188  14.278  0.1914 -0.0896 -0.9311
  628TMC3     H 9304   0.470   2.348  14.306 -2.4180 -1.5059 -2.8584
  628TMC3    H1 9305   0.091   2.533  14.227  0.0538 -0.8874  0.7225
  628TMC3    H2 9306   0.420   2.754  14.391  0.4672  0.8692 -1.4859
  628TMC3    C7 9307   0.192   2.773  14.258  0.7412  0.1431 -0.1328
  628TMC3    C8 9308   0.589   2.568  14.400  0.3645 -0.2846  0.5228
  628TMC3    O1 9309   0.213   2.871  14.329 -0.2233  0.2006 -0.1957
  628TMC3    O2 9310   0.622   2.686  14.409 -0.1609 -0.1642 -0.8428
  629MPD2     C 9311   2.694   0.477  16.505  0.2751 -0.0559  0.9400
  629MPD2    C1 9312   2.706   0.485  16.369  0.9036  0.1521 -0.6169
  629MPD2    C2 9313   2.589   0.475  16.289  0.2942  0.2216  0.6899
  629MPD2    C3 9314   2.465   0.481  16.356 -0.6651 -0.4251 -0.2572
  629MPD2    C4 9315   2.456   0.461  16.493 -0.6347 -0.5313  0.0334
  629MPD2    C5 9316   2.573   0.452  16.563 -0.4464  0.4757 -0.2587
  629MPD2     H 9317   2.601   0.490  16.182  3.0773 -0.1038  0.9641
  629MPD2    H1 9318   2.363   0.459  16.548  1.4507 -0.6554  3.5857
  629MPD2    H2 9319   2.776   0.490  16.575 -0.6736 -2.6379  2.5112
  629MPD2    H3 9320   2.557   0.432  16.668 -0.4664  0.5477 -0.2484
  629MPD2     N 9321   2.349   0.501  16.270  0.1812 -0.0976  0.6770
  629MPD2    H5 9322   2.364   0.500  16.170  2.1852  0.9418  0.9555
  629MPD2    N1 9323   2.835   0.512  16.321 -0.4432  0.3231 -0.1749
  629MPD2    H7 9324   2.904   0.517  16.395 -0.3854 -2.0861 -0.0609
  630TMC3    C1 9325   3.021   0.522  16.180 -0.4352  0.0833  0.1502
  630TMC3    C2 9326   3.064   0.601  16.081 -0.2437 -0.5803  0.7337
  630TMC3    C3 9327   3.194   0.639  16.075  0.0269 -0.1818  0.1370
  630TMC3    C4 9328   3.101   0.487  16.282  0.2138 -0.6734  0.1043
  630TMC3    C5 9329   3.238   0.523  16.280  0.5151  0.8732  0.3611
  630TMC3    C6 9330   3.286   0.591  16.170  0.0866  0.3874 -0.8020
  630TMC3     C 9331   2.881   0.509  16.194  0.4690  0.1911 -0.0826
  630TMC3     O 9332   2.828   0.497  16.086  0.1795  0.5496  0.4918
  630TMC3     H 9333   2.989   0.633  16.010 -0.1263  2.5187  1.9954
  630TMC3    H1 9334   3.076   0.408  16.352 -1.2517 -0.2474  0.0489
  630TMC3    H2 9335   3.392   0.613  16.164 -0.3112  2.3600 -0.5867
  630TMC3    C7 9336   3.276   0.572  16.411 -0.2934 -0.3620  0.5421
  630TMC3    C8 9337   3.218   0.781  16.076  0.1370 -0.0061  0.3363
  630TMC3    O1 9338   3.203   0.545  16.507 -0.1550  0.1207  0.0012
  630TMC3    O2 9339   3.336   0.813  16.091 -0.3504  0.0779 -0.3605
  631MPD2     C 9340   0.992   0.922  15.758 -0.6474 -0.3051  0.1337
  631MPD2    C1 9341   1.017   0.979  15.634 -0.0945 -0.0108 -0.1517
  631MPD2    C2 9342   1.068   0.905  15.536  0.2295  0.2189  0.1840
  631MPD2    C3 9343   1.106   0.776  15.562  0.3838 -0.3668 -0.8651
  631MPD2    C4 9344   1.079   0.714  15.687  0.1184  0.5227 -0.0969
  631MPD2    C5 9345   1.012   0.795  15.777 -0.5623  0.2865 -0.4787
  631MPD2     H 9346   1.077   0.949  15.437 -0.7617 -1.0745 -0.4871
  631MPD2    H1 9347   1.109   0.616  15.722  0.9728  0.8013 -0.0415
  631MPD2    H2 9348   0.961   0.985  15.841  0.0958 -1.0875  0.9970
  631MPD2    H3 9349   1.000   0.749  15.875  3.5204  1.5982  0.6375
  631MPD2     N 9350   1.164   0.717  15.453  0.0506 -0.3690  0.0720
  631MPD2    H5 9351   1.156   0.772  15.368 -2.3621 -0.5050  0.2231
  631MPD2    N1 9352   0.984   1.118  15.618 -0.1680  0.2617 -0.1736
  631MPD2    H7 9353   0.961   1.172  15.700  1.8182 -0.6045  0.9622
  632TMC3    C1 9354   0.977   1.329  15.506  0.2064 -0.4737 -0.0076
  632TMC3    C2 9355   0.953   1.378  15.627 -0.2210 -1.2050  0.5011
  632TMC3    C3 9356   1.027   1.481  15.673 -0.0848  0.0071  0.1618
  632TMC3    C4 9357   1.064   1.379  15.420  0.3808 -0.1432  0.3799
  632TMC3    C5 9358   1.133   1.495  15.462 -0.5554  0.1490  0.4491
  632TMC3    C6 9359   1.116   1.544  15.589  0.2903  0.5112 -0.3498
  632TMC3     C 9360   0.972   1.183  15.495  1.1409 -0.3160  0.7672
  632TMC3     O 9361   0.960   1.149  15.379  0.2344  0.2982  0.2119
  632TMC3     H 9362   0.866   1.340  15.679  0.1183 -2.0618  0.4527
  632TMC3    H1 9363   1.090   1.325  15.330  1.7890 -0.7778  1.1691
  632TMC3    H2 9364   1.181   1.622  15.627 -0.3775  1.8777 -2.0237
  632TMC3    C7 9365   1.243   1.544  15.371  0.9094  0.3491  0.2540
  632TMC3    C8 9366   1.017   1.509  15.821  0.4009  0.1511  0.3099
  632TMC3    O1 9367   1.223   1.512  15.252  0.2580 -0.3886 -0.6833
  632TMC3    O2 9368   0.957   1.423  15.883 -0.3423 -0.5669 -0.1755
  633MPD2     C 9369   1.006   3.519  17.367 -0.7375 -0.4849  0.1552
  633MPD2    C1 9370   1.090   3.470  17.262  0.1214  0.2494  0.2148
  633MPD2    C2 9371   1.082   3.334  17.243  0.7092  0.0237 -0.3886
  633MPD2    C3 9372   1.022   3.243  17.325  0.7403  0.1470  0.3291
  633MPD2    C4 9373   0.954   3.292  17.430 -0.0307 -0.1384  0.4306
  633MPD2    C5 9374   0.942   3.426  17.444 -0.8133  0.3852 -0.1397
  633MPD2     H 9375   1.137   3.292  17.160 -0.2513  1.5778 -1.8124
  633MPD2    H1 9376   0.915   3.232  17.512 -2.1365  0.1231 -0.3901
  633MPD2    H2 9377   0.998   3.618  17.409  2.9732 -0.4634  0.7908
  633MPD2    H3 9378   0.876   3.456  17.524 -0.2174 -0.0447  0.5104
  633MPD2     N 9379   1.023   3.109  17.299  0.0770  0.0293  0.6033
  633MPD2    H5 9380   0.949   3.051  17.337 -1.4983  0.3973 -1.9752
  633MPD2    N1 9381   1.146   3.545  17.161 -0.8018 -0.0764  0.1689
  633MPD2    H7 9382   1.188   3.504  17.079 -0.2335  0.0816  0.3791
  634TMC3    C1 9383   1.198   3.736  17.040 -0.0016  0.3317 -0.1115
  634TMC3    C2 9384   1.298   3.667  16.980 -0.0440  0.4847 -0.2783
  634TMC3    C3 9385   1.355   3.718  16.872 -0.2739 -0.1356  0.2879
  634TMC3    C4 9386   1.156   3.863  17.003 -0.2682 -0.2746  0.3048
  634TMC3    C5 9387   1.214   3.913  16.892 -1.4341 -0.3607  0.2927
  634TMC3    C6 9388   1.320   3.842  16.830  0.6032  0.7801 -0.2095
  634TMC3     C 9389   1.129   3.679  17.156 -0.3458  0.1804 -0.3297
  634TMC3     O 9390   1.095   3.761  17.247  0.4868  0.3164  0.0273
  634TMC3     H 9391   1.332   3.570  17.017 -1.8853  0.2723  0.8881
  634TMC3    H1 9392   1.061   3.902  17.037  1.4237  3.5415  0.6502
  634TMC3    H2 9393   1.379   3.893  16.754  0.8612  1.5787  0.5323
  634TMC3    C7 9394   1.153   4.005  16.805  0.5677  0.7793 -0.4631
  634TMC3    C8 9395   1.415   3.624  16.782  0.0453 -1.0093 -0.2884
  634TMC3    O1 9396   1.201   4.005  16.691  0.5070 -0.3727 -0.2448
  634TMC3    O2 9397   1.452   3.513  16.824  0.2879  0.0066  0.2348
  635TMC3    C1 9398   2.552   0.093   0.029 -0.3169 -0.1430 -0.2214
  635TMC3    C2 9399   2.609   0.170   0.130 -0.7092  0.1664 -0.6021
  635TMC3    C3 9400   2.743   0.179   0.140 -0.2563  0.3390  0.5298
  635TMC3    C4 9401   2.631   0.014  17.644  0.7331 -0.2811  0.0898
  635TMC3    C5 9402   2.762   0.021  17.657 -0.0020  0.1262  0.7471
  635TMC3    C6 9403   2.821   0.107   0.051  0.0353 -0.4203 -0.5274
  635TMC3     C 9404   2.406   0.083   0.024 -0.5310  0.2699 -0.7620
  635TMC3     O 9405   2.346   0.160   0.100  0.5594  0.2533 -0.1347
  635TMC3     H 9406   2.548   0.224   0.202 -1.2337 -0.2450 -0.7309
  635TMC3    H1 9407   2.591   4.685  17.559  0.3455  1.3056 -0.7188
  635TMC3    H2 9408   2.928   0.126   0.058 -0.6714  3.1308  0.7426
  635TMC3    C7 9409   2.836   4.651  17.575  0.0803  0.5259  0.2987
  635TMC3    C8 9410   2.810   0.263   0.243  0.7547 -0.6570  0.5226
  635TMC3    O1 9411   2.786   4.593  17.478 -0.0643  0.0045  0.6545
  635TMC3    O2 9412   2.921   0.303   0.220 -0.5228  0.0267  0.2000
  636MPD2     C 9413   2.392   4.021  16.077 -0.7460 -0.5999  0.0828
  636MPD2    C1 9414   2.405   4.028  16.218  0.0270  0.4988  0.3933
  636MPD2    C2 9415   2.458   3.925  16.291  0.1392  0.0968 -0.1653
  636MPD2    C3 9416   2.494   3.816  16.227  0.4602  0.1496  0.6449
  636MPD2    C4 9417   2.498   3.806  16.086 -0.0867 -0.3587  0.3460
  636MPD2    C5 9418   2.445   3.910  16.011  0.1527 -0.3345 -0.3766
  636MPD2     H 9419   2.457   3.943  16.398  1.2542  1.5609 -0.4073
  636MPD2    H1 9420   2.539   3.720  16.034  2.1090  0.2222  1.0987
  636MPD2    H2 9421   2.346   4.101  16.019  3.6012  0.8511 -1.3532
  636MPD2    H3 9422   2.450   3.906  15.903 -2.0146 -0.4004 -0.4877
  636MPD2     N 9423   2.540   3.706  16.305  0.1047 -0.1095 -0.8561
  636MPD2    H5 9424   2.540   3.720  16.405 -3.3020 -1.7807 -0.6018
  636MPD2    N1 9425   2.382   4.141  16.297  0.3461 -0.5989  0.1366
  636MPD2    H7 9426   2.431   4.135  16.385  1.0224 -2.8244 -0.3830
  637TMC3    C1 9427   2.637   3.526  16.398  0.7078 -0.2772 -0.1595
  637TMC3    C2 9428   2.566   3.555  16.515 -0.0358  0.0568 -0.3770
  637TMC3    C3 9429   2.630   3.537  16.639  0.1857  0.1459  0.5137
  637TMC3    C4 9430   2.759   3.470  16.394  0.4814  0.2802  0.5749
  637TMC3    C5 9431   2.824   3.470  16.521  0.4813 -0.3387  0.0916
  637TMC3    C6 9432   2.759   3.495  16.643  0.2693  0.1522  0.2333
  637TMC3     C 9433   2.605   3.590  16.272 -0.2654 -0.1520 -0.1298
  637TMC3     O 9434   2.636   3.544  16.167 -0.0039 -0.3614 -0.2735
  637TMC3     H 9435   2.466   3.596  16.512 -0.5721 -1.1903  0.7086
  637TMC3    H1 9436   2.816   3.482  16.302 -0.2128 -2.9869 -0.2607
  637TMC3    H2 9437   2.815   3.513  16.734  1.0520 -1.1827  0.0013
  637TMC3    C7 9438   2.951   3.556  16.520  0.6878  0.3557 -0.2617
  637TMC3    C8 9439   2.620   3.665  16.704 -0.6627  0.0120  0.0508
  637TMC3    O1 9440   2.988   3.600  16.630  0.1049 -0.0358 -0.8490
  637TMC3    O2 9441   2.597   3.763  16.630 -0.2242  0.0683 -0.2966
  638MPD2     C 9442   2.716   3.022  15.079 -0.4292  0.8312  0.1459
  638MPD2    C1 9443   2.738   2.907  15.007  0.2202 -0.5092 -0.4922
  638MPD2    C2 9444   2.723   2.784  15.069 -0.4423 -0.1008 -0.2153
  638MPD2    C3 9445   2.680   2.770  15.198 -0.0336 -0.5298  0.0559
  638MPD2    C4 9446   2.671   2.885  15.275 -0.5944 -0.6309  0.2298
  638MPD2    C5 9447   2.687   3.009  15.213 -0.0550  0.1951  0.1922
  638MPD2     H 9448   2.737   2.696  15.007  0.5743 -0.3264  0.3444
  638MPD2    H1 9449   2.643   2.880  15.379  1.2792 -3.1370  0.6036
  638MPD2    H2 9450   2.710   3.122  15.036  0.0253 -0.0139 -1.8859
  638MPD2    H3 9451   2.668   3.099  15.269 -1.0061  1.0930 -1.5738
  638MPD2     N 9452   2.659   2.635  15.236 -0.4673 -0.5528  0.2316
  638MPD2    H5 9453   2.661   2.562  15.165 -0.3640 -0.7076  0.3937
  638MPD2    N1 9454   2.766   2.915  14.871 -0.3600 -0.0362  0.0711
  638MPD2    H7 9455   2.783   3.007  14.831  1.4940 -0.1171  0.7070
  639TMC3    C1 9456   2.612   2.449  15.365 -0.7305  0.2715 -1.1061
  639TMC3    C2 9457   2.498   2.395  15.312 -0.3399  0.4833  0.1149
  639TMC3    C3 9458   2.441   2.286  15.373  0.2723  0.3061  0.5330
  639TMC3    C4 9459   2.681   2.385  15.455 -0.1978  0.4753 -0.8283
  639TMC3    C5 9460   2.627   2.271  15.505  0.0900  0.8619 -0.3782
  639TMC3    C6 9461   2.506   2.218  15.474 -0.0101  0.2204 -0.4679
  639TMC3     C 9462   2.625   2.592  15.366 -0.3960  0.8002 -0.1202
  639TMC3     O 9463   2.620   2.655  15.471 -0.5460 -0.0829  0.1260
  639TMC3     H 9464   2.451   2.454  15.233 -0.6769 -1.7114 -1.3097
  639TMC3    H1 9465   2.765   2.435  15.501 -1.2461  0.0412  1.5331
  639TMC3    H2 9466   2.488   2.114  15.498  1.7723  0.3050  1.3447
  639TMC3    C7 9467   2.719   2.161  15.519 -0.2933  0.4137  0.6439
  639TMC3    C8 9468   2.357   2.214  15.277  0.1414  0.0534  0.0087
  639TMC3    O1 9469   2.675   2.057  15.561 -0.1047  0.1945  0.2472
  639TMC3    O2 9470   2.391   2.237  15.159 -0.5465  0.0296  0.0783
  640MPD2     C 9471   3.733   0.772   9.668 -0.3394  0.4027 -0.1070
  640MPD2    C1 9472   3.747   0.878   9.752  0.2591 -0.1339 -0.1121
  640MPD2    C2 9473   3.643   0.963   9.775 -0.3458  0.7870  0.3710
  640MPD2    C3 9474   3.517   0.944   9.711 -0.2662 -0.0588 -0.1140
  640MPD2    C4 9475   3.504   0.833   9.638 -0.2258 -0.2870  0.4053
  640MPD2    C5 9476   3.612   0.748   9.618 -0.1357  0.5790  0.1111
  640MPD2     H 9477   3.652   1.048   9.841  2.6304  0.2608  0.6245
  640MPD2    H1 9478   3.406   0.817   9.593 -0.5394  1.2174  0.5579
  640MPD2    H2 9479   3.812   0.701   9.652 -1.2092 -0.8334  1.1060
  640MPD2    H3 9480   3.599   0.657   9.560 -1.2140  0.3256  0.7430
  640MPD2     N 9481   3.405   1.033   9.711 -0.5458  0.3531  0.6322
  640MPD2    H5 9482   3.317   1.002   9.671  1.2261 -0.4082 -2.6516
  640MPD2    N1 9483   3.879   0.903   9.807  0.3639  0.2197 -0.2861
  640MPD2    H7 9484   3.948   0.828   9.801 -1.7084 -1.9632  2.8608
  641TMC3    C1 9485   4.043   1.000   9.940  0.6516 -0.9155 -0.0126
  641TMC3    C2 9486   4.073   0.879   9.992  0.5948  0.3832 -0.4085
  641TMC3    C3 9487   4.180   0.875  10.073  0.3822 -0.2265  0.3036
  641TMC3    C4 9488   4.116   1.111   9.972 -0.0173 -0.4918  0.2396
  641TMC3    C5 9489   4.227   1.100  10.051 -0.4408 -0.6046 -0.2422
  641TMC3    C6 9490   4.258   0.978  10.116  0.4798  0.2835  0.7245
  641TMC3     C 9491   3.919   1.022   9.863  0.7836  0.2760  0.5456
  641TMC3     O 9492   3.879   1.134   9.833 -0.2300  0.1601  0.0111
  641TMC3     H 9493   4.009   0.794   9.970  1.4064 -0.1543 -0.6763
  641TMC3    H1 9494   4.088   1.204   9.923 -1.7011 -0.9099  0.4429
  641TMC3    H2 9495   4.357   0.955  10.154  0.9253  1.4795  0.2987
  641TMC3    C7 9496   4.309   1.214  10.079 -0.3222  0.2417 -0.1800
  641TMC3    C8 9497   4.207   0.741  10.124 -0.7574  0.0090  0.4639
  641TMC3    O1 9498   4.414   1.189  10.143  0.5959 -0.5066 -0.0323
  641TMC3    O2 9499   4.138   0.652  10.074 -0.2315 -0.5169  0.4410
  642TMC3    C1 9500   4.552   2.319  12.773 -0.0516 -0.3213  0.1532
  642TMC3    C2 9501   4.644   2.383  12.693  0.2062  0.0688  0.1848
  642TMC3    C3 9502   4.617   2.387  12.559 -0.5922  0.3780  0.1290
  642TMC3    C4 9503   4.449   2.250  12.720 -0.2769 -0.3649 -0.4264
  642TMC3    C5 9504   4.436   2.244  12.580  0.3035 -0.2393 -0.1489
  642TMC3    C6 9505   4.517   2.323  12.500  0.5913 -0.3265 -0.3354
  642TMC3     C 9506   4.549   2.351  12.922 -0.3515  0.2243  0.1680
  642TMC3     O 9507   4.649   2.379  12.983  0.5557 -0.2524 -0.2309
  642TMC3     H 9508   0.006   2.433  12.737  1.2350 -1.7565  0.2400
  642TMC3    H1 9509   4.382   2.191  12.782 -0.0434 -1.1665 -0.9482
  642TMC3    H2 9510   4.502   2.322  12.392  1.2294  0.1384 -0.4263
  642TMC3    C7 9511   4.337   2.163  12.505 -0.2965 -0.4345  0.2072
  642TMC3    C8 9512   4.720   2.433  12.473  0.1673 -0.6309 -0.6297
  642TMC3    O1 9513   4.346   2.154  12.388 -0.6037  0.1265 -0.5497
  642TMC3    O2 9514   0.108   2.420  12.520 -0.2488 -0.3403 -0.2658
  643TMC3    C1 9515   2.798   2.069   0.207  0.1259  0.3112  0.8863
  643TMC3    C2 9516   2.678   2.062   0.145 -0.0341 -0.1836 -0.0964
  643TMC3    C3 9517   2.663   1.970   0.047 -0.5680 -0.7161 -0.4188
  643TMC3    C4 9518   2.900   1.985   0.165  0.4060  0.3039  0.0557
  643TMC3    C5 9519   2.883   1.902   0.064  0.1947 -0.6523 -0.4389
  643TMC3    C6 9520   2.760   1.888  17.698  0.3639 -0.2636  0.5016
  643TMC3     C 9521   2.799   2.149   0.327  1.1282  0.3403  0.2289
  643TMC3     O 9522   2.702   2.214   0.346 -0.7398 -0.6033  0.4401
  643TMC3     H 9523   2.588   2.111   0.179 -0.0314 -0.7250  0.6846
  643TMC3    H1 9524   2.999   1.983   0.210 -0.2032  1.1588  1.4371
  643TMC3    H2 9525   2.743   1.815  17.620  1.0171 -0.0813  0.1834
  643TMC3    C7 9526   2.992   1.866  17.677  0.0368  0.3412 -0.5123
  643TMC3    C8 9527   2.562   2.001  17.645  0.5205 -0.0714 -0.3365
  643TMC3    O1 9528   2.973   1.856  17.558 -0.3976 -0.4290  0.5005
  643TMC3    O2 9529   2.506   1.918  17.579 -0.4808  0.3646 -0.6227
  644MPD2     C 9530   3.648   2.371   9.474  0.5117  0.4452  0.1968
  644MPD2    C1 9531   3.717   2.257   9.511 -0.0985  0.7325  0.1464
  644MPD2    C2 9532   3.671   2.131   9.482  1.0105  0.0001 -0.3521
  644MPD2    C3 9533   3.554   2.117   9.414  0.1202  0.6256 -1.1833
  644MPD2    C4 9534   3.484   2.230   9.376 -0.4768 -0.3411 -0.1094
  644MPD2    C5 9535   3.529   2.357   9.402 -0.3398  0.2615  0.4355
  644MPD2     H 9536   3.723   2.042   9.516  1.6945 -0.7415 -3.2787
  644MPD2    H1 9537   3.399   2.223   9.309 -0.3849  0.0648 -0.2688
  644MPD2    H2 9538   3.680   2.471   9.501 -1.2907  0.5663  1.8165
  644MPD2    H3 9539   3.465   2.437   9.368 -1.3051 -1.2965 -1.4318
  644MPD2     N 9540   3.514   1.987   9.385  0.6243 -0.1865 -0.0221
  644MPD2    H5 9541   3.576   1.912   9.415  0.4029 -0.3280  0.0752
  644MPD2    N1 9542   3.830   2.270   9.591 -0.2138  0.3458 -0.7114
  644MPD2    H7 9543   3.861   2.366   9.605  1.6017 -0.5614  1.3803
  645TMC3    C1 9544   3.361   1.807   9.302  0.8454  0.2998  0.3462
  645TMC3    C2 9545   3.227   1.778   9.270 -0.5299 -0.1094  0.1299
  645TMC3    C3 9546   3.209   1.652   9.219 -0.1012 -0.3581 -0.5031
  645TMC3    C4 9547   3.462   1.710   9.308  1.4411 -0.0842  0.4139
  645TMC3    C5 9548   3.435   1.586   9.264  0.1308 -0.4492  0.3675
  645TMC3    C6 9549   3.309   1.558   9.206 -0.2467  0.4981  0.7736
  645TMC3     C 9550   3.394   1.949   9.316 -0.0571  0.4189  0.8120
  645TMC3     O 9551   3.314   2.023   9.266 -0.0604 -0.5041 -0.7944
  645TMC3     H 9552   3.149   1.849   9.296  0.2695  0.1152  1.9619
  645TMC3    H1 9553   3.562   1.742   9.335  1.5917  0.9979 -1.4460
  645TMC3    H2 9554   3.282   1.457   9.179 -0.2528  0.4277  1.0443
  645TMC3    C7 9555   3.540   1.534   9.185 -0.2038 -0.2682  0.0795
  645TMC3    C8 9556   3.068   1.630   9.180  0.2909  0.3118 -0.0232
  645TMC3    O1 9557   3.643   1.606   9.183  0.1663  0.1485 -0.0046
  645TMC3    O2 9558   2.992   1.730   9.189  0.1915  0.2417  0.4599
  646MPD2     C 9559   2.751   1.482  14.846  0.6138 -0.5463  0.5869
  646MPD2    C1 9560   2.637   1.456  14.925 -0.7354 -0.5862  0.3500
  646MPD2    C2 9561   2.519   1.517  14.890  0.1390  0.7174  0.3454
  646MPD2    C3 9562   2.497   1.592  14.773  0.1360 -0.3343  0.7421
  646MPD2    C4 9563   2.609   1.617  14.694  0.0514 -0.0236 -0.3505
  646MPD2    C5 9564   2.733   1.567  14.734 -0.6131  0.5530  0.5637
  646MPD2     H 9565   2.426   1.500  14.944 -0.2789 -4.5351 -2.0368
  646MPD2    H1 9566   2.600   1.682  14.608 -0.8856  0.3169 -0.0020
  646MPD2    H2 9567   2.848   1.439  14.870  0.8996 -1.4251 -2.0662
  646MPD2    H3 9568   2.818   1.594  14.672 -1.4213 -2.2115 -1.7071
  646MPD2     N 9569   2.366   1.652  14.749  1.1836 -0.4111 -0.0258
  646MPD2    H5 9570   2.290   1.639  14.815 -1.6314  1.4701 -2.8614
  646MPD2    N1 9571   2.652   1.364  15.034  0.1750  0.0639  0.1186
  646MPD2    H7 9572   2.744   1.341  15.071 -0.0828 -1.7372 -0.3536
  647TMC3    C1 9573   2.583   1.220  15.204  0.2700  0.4422 -0.1065
  647TMC3    C2 9574   2.515   1.104  15.213  0.5716 -0.5908 -0.1868
  647TMC3    C3 9575   2.578   1.005  15.288 -0.0252  0.6236  0.2982
  647TMC3    C4 9576   2.702   1.243  15.261  0.0164  0.2441  0.1313
  647TMC3    C5 9577   2.756   1.141  15.331 -0.1449  0.3249 -0.0218
  647TMC3    C6 9578   2.697   1.017  15.347 -0.0296  0.3349  0.1592
  647TMC3     C 9579   2.541   1.315  15.107 -0.2011 -0.2191  0.8492
  647TMC3     O 9580   2.422   1.338  15.099  0.4792  0.1243 -0.6715
  647TMC3     H 9581   2.420   1.097  15.163  1.6237 -0.4731 -2.1922
  647TMC3    H1 9582   2.759   1.336  15.263  2.3288 -1.1562 -0.0741
  647TMC3    H2 9583   2.734   0.938  15.411  0.9700 -2.7757 -4.2841
  647TMC3    C7 9584   2.895   1.134  15.387 -0.2432 -0.2055  0.1506
  647TMC3    C8 9585   2.555   0.863  15.263  0.4686 -0.0536  0.1179
  647TMC3    O1 9586   2.937   1.026  15.427 -0.1830  0.2320 -0.1429
  647TMC3    O2 9587   2.655   0.794  15.264 -0.3039 -0.2402  0.1240
  648TMC3    C1 9588   1.840   3.650  16.123  0.0409 -0.2655 -0.1609
  648TMC3    C2 9589   1.890   3.526  16.083  0.0858  0.5395  0.0973
  648TMC3    C3 9590   1.866   3.492  15.955 -0.0317  0.0884 -0.2419
  648TMC3    C4 9591   1.782   3.742  16.040 -0.0195 -1.2642 -0.4772
  648TMC3    C5 9592   1.773   3.699  15.907  0.3219 -0.5994 -0.2812
  648TMC3    C6 9593   1.810   3.577  15.865 -0.2872  0.1880 -0.2694
  648TMC3     C 9594   1.837   3.689  16.265  0.4939 -0.7870  0.4733
  648TMC3     O 9595   1.807   3.801  16.296  0.1611  0.2114 -0.0769
  648TMC3     H 9596   1.965   3.471  16.138 -1.3443 -0.7491  0.7417
  648TMC3    H1 9597   1.741   3.833  16.080 -1.7876 -1.6126 -1.4815
  648TMC3    H2 9598   1.815   3.571  15.757  0.2559 -2.9298 -0.0634
  648TMC3    C7 9599   1.705   3.786  15.809 -0.4070  0.1172  0.4159
  648TMC3    C8 9600   1.962   3.395  15.914 -0.3474  0.1639 -0.1783
  648TMC3    O1 9601   1.711   3.755  15.689 -0.4748  0.2222 -0.5429
  648TMC3    O2 9602   2.024   3.420  15.807  0.3397 -0.1300  0.3205
  649TMC3    C1 9603   0.612   0.072  12.861 -0.1082 -0.2675  0.4272
  649TMC3    C2 9604   0.733   0.058  12.798  0.5657 -0.8020 -0.1290
  649TMC3    C3 9605   0.836   0.021  12.881 -0.2081  0.1261  0.8006
  649TMC3    C4 9606   0.598   0.041  12.992  0.7654  0.5689  0.4229
  649TMC3    C5 9607   0.696   4.718  13.070  0.2436 -0.2737 -0.4887
  649TMC3    C6 9608   0.820   4.707  13.015 -0.4951 -0.6248 -0.7902
  649TMC3     C 9609   0.491   0.098  12.778  0.4307 -0.1041 -0.2464
  649TMC3     O 9610   0.386   0.118  12.837 -0.4594  0.0274 -0.2735
  649TMC3     H 9611   0.748   0.088  12.695  2.2458  0.2167  0.4222
  649TMC3    H1 9612   0.498   0.035  13.033  0.4853  0.0871 -0.3123
  649TMC3    H2 9613   0.902   4.691  13.084 -2.3482  2.5714  2.1209
  649TMC3    C7 9614   0.657   4.638  13.186  0.1296  0.5270  0.4076
  649TMC3    C8 9615   0.972   0.009  12.818  0.4631 -0.0947 -0.0288
  649TMC3    O1 9616   0.545   4.667  13.228 -0.0678  0.0927  0.2323
  649TMC3    O2 9617   0.987   0.071  12.714 -1.2643  0.1206 -0.0980
  650TMC3    C1 9618   3.712   1.506  13.293  0.4994 -0.4277  0.2246
  650TMC3    C2 9619   3.746   1.623  13.349  0.1826 -0.0521  0.4108
  650TMC3    C3 9620   3.766   1.735  13.263 -1.1030  0.0744 -0.6724
  650TMC3    C4 9621   3.709   1.492  13.158  0.4065 -1.2450 -0.3515
  650TMC3    C5 9622   3.721   1.600  13.081  0.9309 -0.6997  0.3116
  650TMC3    C6 9623   3.750   1.723  13.124 -0.4954 -1.0789  0.0270
  650TMC3     C 9624   3.679   1.389  13.373 -0.1828 -0.0177  0.5209
  650TMC3     O 9625   3.642   1.286  13.309 -0.3393 -0.1972 -0.2396
  650TMC3     H 9626   3.755   1.632  13.456 -0.7297  0.3422  0.4511
  650TMC3    H1 9627   3.671   1.395  13.128 -0.0246 -1.2223  0.1189
  650TMC3    H2 9628   3.782   1.793  13.047  0.6957 -2.4142 -0.7046
  650TMC3    C7 9629   3.675   1.587  12.943 -0.6343  0.6238 -0.6509
  650TMC3    C8 9630   3.760   1.871  13.318  0.2379  0.5303 -0.1193
  650TMC3    O1 9631   3.671   1.474  12.899  0.8897  0.1031 -0.6479
  650TMC3    O2 9632   3.799   1.954  13.237 -0.4909 -0.0840  1.0059
  651MPD2     C 9633   2.784   3.288  10.413  0.1584  0.2092  0.0695
  651MPD2    C1 9634   2.746   3.417  10.448 -0.2584 -0.4208  0.1017
  651MPD2    C2 9635   2.849   3.509  10.472 -0.2644 -0.6104 -0.7115
  651MPD2    C3 9636   2.984   3.468  10.474  0.9575 -0.4243 -0.1846
  651MPD2    C4 9637   3.015   3.343  10.439 -0.2332  0.7346  0.1955
  651MPD2    C5 9638   2.921   3.258  10.398 -0.4394 -0.0634 -0.0802
  651MPD2     H 9639   2.820   3.606  10.511 -2.9748 -1.1804 -1.2757
  651MPD2    H1 9640   3.116   3.303  10.437 -0.0613  1.2535 -1.5892
  651MPD2    H2 9641   2.724   3.198  10.406  1.4971 -0.5411 -1.7914
  651MPD2    H3 9642   2.942   3.154  10.374 -0.8860 -0.4221  1.1079
  651MPD2     N 9643   3.073   3.565  10.530  0.1982 -0.2152 -0.1992
  651MPD2    H5 9644   3.040   3.657  10.554 -1.8297 -0.8792 -0.4482
  651MPD2    N1 9645   2.610   3.453  10.480  0.2973  0.2912  0.5463
  651MPD2    H7 9646   2.592   3.546  10.514 -1.0100 -0.0374  0.7532
  652TMC3    C1 9647   3.458   3.808  10.547 -0.1206 -0.3092 -0.0709
  652TMC3    C2 9648   3.402   3.683  10.541 -0.0258 -0.6220 -0.1375
  652TMC3    C3 9649   3.267   3.674  10.573 -0.4127  0.4488 -0.0631
  652TMC3    C4 9650   3.392   3.922  10.581  0.2940  0.1814  0.6872
  652TMC3    C5 9651   3.261   3.895  10.624  0.5382  0.8045 -0.0645
  652TMC3    C6 9652   3.195   3.776  10.621  0.0277 -0.4890 -0.0619
  652TMC3     C 9653   3.599   3.806  10.574  0.1982  0.4921  0.6049
  652TMC3     O 9654   3.631   3.700  10.628  0.5174  0.3334 -0.5314
  652TMC3     H 9655   3.453   3.590  10.520  1.8446  0.6167 -1.1168
  652TMC3    H1 9656   3.437   4.019  10.595  0.6533  0.0170  0.6792
  652TMC3    H2 9657   3.105   3.760  10.678 -0.6328  0.2644 -0.9069
  652TMC3    C7 9658   3.210   3.989  10.721  0.6298  0.0988  0.4746
  652TMC3    C8 9659   3.206   3.546  10.553 -0.0885 -0.7305 -0.7945
  652TMC3    O1 9660   3.174   3.933  10.823 -0.0092 -0.0816 -0.1190
  652TMC3    O2 9661   3.277   3.457  10.510  0.1886  0.3373 -0.7181
  653MPD2     C 9662   0.911   3.684   0.167  0.0937  0.0494 -0.0474
  653MPD2    C1 9663   0.920   3.778   0.068  0.6411 -0.9633 -0.6627
  653MPD2    C2 9664   0.846   3.764  17.647 -0.4276  0.5504 -0.2537
  653MPD2    C3 9665   0.760   3.657  17.639 -0.2831 -0.2332  0.4487
  653MPD2    C4 9666   0.761   3.559   0.034  0.0861  0.5893  1.1657
  653MPD2    C5 9667   0.839   3.575   0.144 -0.0849 -0.5030 -1.0651
  653MPD2     H 9668   0.850   3.833  17.564  1.6460 -0.7481 -1.2311
  653MPD2    H1 9669   0.683   3.484   0.032  0.0372  0.6465  0.8660
  653MPD2    H2 9670   0.948   3.688   0.269  0.9492 -1.3108 -0.3102
  653MPD2    H3 9671   0.833   3.504   0.225  0.3879  1.4009  0.6252
  653MPD2     N 9672   0.681   3.644  17.518  0.2844  0.2824  0.2350
  653MPD2    H5 9673   0.695   3.704  17.438  0.1399 -0.5755 -0.4393
  653MPD2    N1 9674   0.996   3.898   0.085  0.5191  0.0177  0.5757
  653MPD2    H7 9675   0.994   3.963   0.007  0.9792  0.2410  0.7438
  654TMC3    C1 9676   0.513   3.574  17.379 -0.2731  0.2771 -0.2057
  654TMC3    C2 9677   0.391   3.630  17.350  0.3255 -0.2058  0.2357
  654TMC3    C3 9678   0.329   3.608  17.232 -0.2032 -0.3793 -0.0580
  654TMC3    C4 9679   0.593   3.512  17.285  0.0936  0.2471 -0.5402
  654TMC3    C5 9680   0.527   3.496  17.167  0.1121  0.3568  0.6981
  654TMC3    C6 9681   0.398   3.534  17.140 -0.2233  0.1137  0.1587
  654TMC3     C 9682   0.566   3.564  17.512 -0.2908  0.2530 -0.2321
  654TMC3     O 9683   0.497   3.522  17.606  0.0065  0.1503  0.1091
  654TMC3     H 9684   0.332   3.669  17.432  1.4206 -3.1033  2.4055
  654TMC3    H1 9685   0.687   3.463  17.308 -0.0706  0.5984  0.8907
  654TMC3    H2 9686   0.356   3.512  17.043 -2.1245  0.4875  0.8906
  654TMC3    C7 9687   0.573   3.407  17.067 -0.1814  0.6900 -0.2657
  654TMC3    C8 9688   0.196   3.657  17.209 -0.2145  0.1607  0.2432
  654TMC3    O1 9689   0.569   3.436  16.948 -0.1115 -0.3268  0.5060
  654TMC3    O2 9690   0.182   3.773  17.250 -0.6433  0.8018  0.3942
  655MPD2     C 9691   2.218   3.849  15.758  0.5355 -0.1871  0.2379
  655MPD2    C1 9692   2.139   3.926  15.683  0.0744  0.3614  0.3634
  655MPD2    C2 9693   2.138   3.918  15.549  0.5655  0.3373  0.1467
  655MPD2    C3 9694   2.218   3.825  15.478 -0.7013  0.5235 -0.3716
  655MPD2    C4 9695   2.300   3.752  15.558  0.4270  0.2544  0.4740
  655MPD2    C5 9696   2.302   3.767  15.695 -0.2953 -0.0210 -0.3558
  655MPD2     H 9697   2.087   3.998  15.496  2.1070  0.2723 -1.4365
  655MPD2    H1 9698   2.373   3.681  15.522  0.5063  1.3229 -1.5102
  655MPD2    H2 9699   2.237   3.868  15.863 -1.8979 -0.7052  0.7667
  655MPD2    H3 9700   2.373   3.716  15.759 -0.9722 -0.6242 -0.0968
  655MPD2     N 9701   2.236   3.815  15.345 -0.3606  0.4769  0.4504
  655MPD2    H5 9702   2.311   3.755  15.313  0.5608  1.1014  1.4288
  655MPD2    N1 9703   2.061   4.024  15.739 -0.3457 -0.2563 -0.1791
  655MPD2    H7 9704   2.017   4.087  15.672  0.9039  0.4145 -0.3716
  656TMC3    C1 9705   1.916   4.129  15.880  0.4550  0.6052  0.4115
  656TMC3    C2 9706   1.846   4.137  15.991 -0.2319 -0.4876 -0.4707
  656TMC3    C3 9707   1.746   4.232  16.002 -0.2633  0.1083 -0.4448
  656TMC3    C4 9708   1.879   4.211  15.775 -1.5172 -0.4256 -0.4395
  656TMC3    C5 9709   1.778   4.301  15.785  0.3926  0.0585  1.0323
  656TMC3    C6 9710   1.707   4.310  15.899 -0.3802 -0.5411 -0.3259
  656TMC3     C 9711   2.018   4.036  15.871 -0.5374 -0.4672 -0.0113
  656TMC3     O 9712   2.024   3.962  15.968  0.4100 -0.5562 -0.3957
  656TMC3     H 9713   1.863   4.072  16.077 -1.0793  0.6006  0.5147
  656TMC3    H1 9714   1.929   4.197  15.679  1.0949  0.2937  0.8134
  656TMC3    H2 9715   1.629   4.384  15.914 -0.9783 -0.5044 -3.6636
  656TMC3    C7 9716   1.725   4.357  15.662  0.2374  0.6815 -1.0993
  656TMC3    C8 9717   1.645   4.195  16.095 -0.0086 -0.4729 -0.2657
  656TMC3    O1 9718   1.784   4.327  15.559 -0.1433  0.4305 -0.1472
  656TMC3    O2 9719   1.637   4.076  16.116  0.2947 -0.2868  0.6958
  657TMC3    C1 9720   1.324   2.991  14.944  0.1708  0.4464 -0.0567
  657TMC3    C2 9721   1.333   2.986  15.080 -0.2786  0.1455 -0.7696
  657TMC3    C3 9722   1.238   3.065  15.153 -0.7332 -0.3966 -0.0894
  657TMC3    C4 9723   1.217   3.045  14.876  0.0228 -0.3147  0.3442
  657TMC3    C5 9724   1.124   3.119  14.945 -0.2468  0.2076 -0.8033
  657TMC3    C6 9725   1.131   3.133  15.084 -0.1209  0.4448 -0.5674
  657TMC3     C 9726   1.425   2.918  14.870 -0.1997 -0.4837  0.1640
  657TMC3     O 9727   1.399   2.895  14.758  0.1835 -0.5829  1.1473
  657TMC3     H 9728   1.405   2.924  15.132 -0.8141  0.7347  0.6628
  657TMC3    H1 9729   1.224   3.033  14.768  0.8554  1.4305  0.1935
  657TMC3    H2 9730   1.077   3.214  15.131 -1.4063 -0.6157 -0.2321
  657TMC3    C7 9731   1.050   3.203  14.855 -0.4731 -0.5757  0.2076
  657TMC3    C8 9732   1.244   3.058  15.295  0.2966  1.2054 -0.8268
  657TMC3    O1 9733   1.056   3.175  14.738  0.2524 -0.3694  0.1601
  657TMC3    O2 9734   1.348   3.018  15.350 -0.2493  0.4790 -1.0751
  658MPD2     C 9735   2.648   4.196  14.910 -0.3384 -0.4180 -0.4479
  658MPD2    C1 9736   2.544   4.136  14.835 -0.7855 -0.8558 -0.1781
  658MPD2    C2 9737   2.527   4.175  14.710  0.3286  1.0820 -0.0818
  658MPD2    C3 9738   2.610   4.255  14.642  0.3657 -0.3096  0.3766
  658MPD2    C4 9739   2.721   4.308  14.707  0.2327  0.2943 -0.2056
  658MPD2    C5 9740   2.741   4.275  14.837 -0.4268  0.4735 -0.0539
  658MPD2     H 9741   2.440   4.152  14.649 -0.4148 -0.6968  1.6286
  658MPD2    H1 9742   2.797   4.364  14.654  0.2480 -2.1434 -2.8164
  658MPD2    H2 9743   2.661   4.178  15.016  0.5072 -1.6548 -0.7631
  658MPD2    H3 9744   2.826   4.317  14.890 -1.1047  1.3257  0.3710
  658MPD2     N 9745   2.583   4.284  14.503  1.2679 -0.1770  0.2368
  658MPD2    H5 9746   2.490   4.254  14.476  0.6629  1.0969  0.9186
  658MPD2    N1 9747   2.451   4.046  14.900 -0.1391 -0.0478  0.6613
  658MPD2    H7 9748   2.455   4.043  15.002  0.8678 -0.7213  0.6018
  659TMC3    C1 9749   2.285   3.876  14.915  0.1066 -0.1296  0.1895
  659TMC3    C2 9750   2.289   3.878  15.055 -0.2335 -0.7920  0.0248
  659TMC3    C3 9751   2.186   3.834  15.118  0.4196  0.2364  0.2390
  659TMC3    C4 9752   2.179   3.823  14.851  0.8868 -0.7653 -0.0361
  659TMC3    C5 9753   2.070   3.795  14.925  0.3470  0.1321 -0.2550
  659TMC3    C6 9754   2.070   3.799  15.057 -0.2618  0.5404 -0.5635
  659TMC3     C 9755   2.360   3.969  14.830 -0.5327 -0.2614  0.2649
  659TMC3     O 9756   2.339   3.970  14.709  0.2869 -0.0710  0.1774
  659TMC3     H 9757   2.368   3.931  15.107 -2.5407  3.3583 -0.7504
  659TMC3    H1 9758   2.179   3.817  14.743 -0.4334 -0.8338 -0.0406
  659TMC3    H2 9759   1.985   3.765  15.114  1.0151 -0.8643  0.5005
  659TMC3    C7 9760   1.961   3.723  14.865  0.7510 -0.4371  0.1990
  659TMC3    C8 9761   2.166   3.886  15.249 -0.0087 -0.1336 -0.2642
  659TMC3    O1 9762   1.862   3.731  14.931  0.0738  0.2840 -0.6773
  659TMC3    O2 9763   2.061   3.951  15.264  0.0060 -0.0137 -0.2685
  660MPD2     C 9764   0.557   2.238  12.673  1.1503 -0.9946 -0.3683
  660MPD2    C1 9765   0.423   2.281  12.673 -0.4914 -0.4604  0.1649
  660MPD2    C2 9766   0.321   2.203  12.714  0.1349 -0.5372  0.2897
  660MPD2    C3 9767   0.356   2.079  12.757 -0.0510 -0.3600  0.1501
  660MPD2    C4 9768   0.490   2.049  12.784 -0.1901  0.5198  0.6698
  660MPD2    C5 9769   0.592   2.127  12.737  0.0978  0.1030  0.1338
  660MPD2     H 9770   0.217   2.234  12.704  1.1457  1.7258 -3.1808
  660MPD2    H1 9771   0.503   1.951  12.829  0.4261  0.6597  0.8022
  660MPD2    H2 9772   0.640   2.300  12.642  0.7130 -0.7816 -1.1267
  660MPD2    H3 9773   0.696   2.100  12.751 -0.0620 -0.7342 -0.2561
  660MPD2     N 9774   0.265   1.997  12.822 -0.4160 -0.2951 -0.2005
  660MPD2    H5 9775   0.292   1.936  12.897 -0.8796 -2.1718 -1.5651
  660MPD2    N1 9776   0.391   2.406  12.618 -0.7966  0.0861  0.4648
  660MPD2    H7 9777   0.295   2.435  12.633 -1.1933 -0.5541 -0.8570
  661TMC3    C1 9778   0.407   2.619  12.514  0.2415  0.1408 -0.2015
  661TMC3    C2 9779   0.470   2.706  12.434 -0.4435 -0.0984 -0.0880
  661TMC3    C3 9780   0.411   2.827  12.403 -0.0576 -0.3093  0.6493
  661TMC3    C4 9781   0.286   2.654  12.576 -0.6771  0.1215 -0.1912
  661TMC3    C5 9782   0.227   2.772  12.531  0.1715 -0.2613 -0.0758
  661TMC3    C6 9783   0.288   2.864  12.449 -0.3686  0.6793  0.4170
  661TMC3     C 9784   0.477   2.495  12.552  0.6043 -0.7928  0.4786
  661TMC3     O 9785   0.596   2.489  12.518  0.0619 -0.4936 -0.4637
  661TMC3     H 9786   0.570   2.691  12.395 -0.2958  1.7398 -0.4219
  661TMC3    H1 9787   0.231   2.594  12.648  0.5418 -0.4966  0.2237
  661TMC3    H2 9788   0.241   2.960  12.427  1.1734  1.0405 -1.2857
  661TMC3    C7 9789   0.082   2.789  12.558 -0.2113  0.0009 -0.0825
  661TMC3    C8 9790   0.482   2.905  12.302 -0.0210  0.2118  0.0676
  661TMC3    O1 9791   0.031   2.729  12.644 -0.3318  0.1247  0.3997
  661TMC3    O2 9792   0.549   2.845  12.219  0.1278  0.1983 -0.0122
  662MPD2     C 9793   0.390   3.044  17.304 -0.2547  0.5448 -0.1741
  662MPD2    C1 9794   0.378   2.960  17.417  0.1448  0.0568  0.0784
  662MPD2    C2 9795   0.320   3.007  17.532  1.0976  0.4544  0.0633
  662MPD2    C3 9796   0.266   3.131  17.535 -0.1275 -0.0775 -0.0987
  662MPD2    C4 9797   0.289   3.216  17.425  0.1610  0.0089 -0.1162
  662MPD2    C5 9798   0.348   3.171  17.314  0.5819 -0.5735 -0.3435
  662MPD2     H 9799   0.290   2.943  17.614  0.6820  1.0733  0.3930
  662MPD2    H1 9800   0.259   3.320  17.435 -0.1256 -0.0539 -0.3173
  662MPD2    H2 9801   0.427   3.008  17.209 -0.2600  0.5426 -0.1753
  662MPD2    H3 9802   0.359   3.236  17.227 -1.1749 -1.8190 -1.4977
  662MPD2     N 9803   0.197   3.187  17.644 -0.0205 -1.1234  0.1786
  662MPD2    H5 9804   0.142   3.271  17.626  0.7528 -0.6447  0.0606
  662MPD2    N1 9805   0.414   2.822  17.414 -0.2633  0.4037 -0.0048
  662MPD2    H7 9806   0.383   2.765  17.493  0.3404 -1.6582 -1.2503
  663TMC3    C1 9807   0.525   2.626  17.334 -0.0886  0.4657  0.1601
  663TMC3    C2 9808   0.525   2.570  17.463  0.2944 -0.0364 -0.1008
  663TMC3    C3 9809   0.588   2.451  17.478 -0.0148 -0.8121  0.2344
  663TMC3    C4 9810   0.554   2.547  17.228  0.0208 -0.7020  0.2352
  663TMC3    C5 9811   0.595   2.416  17.246  0.2453  1.1328 -0.3790
  663TMC3    C6 9812   0.612   2.370  17.373 -0.7339  0.0291 -0.7009
  663TMC3     C 9813   0.479   2.760  17.309  0.9442  0.0039  0.0589
  663TMC3     O 9814   0.516   2.808  17.201 -0.3019  0.7503  0.0316
  663TMC3     H 9815   0.510   2.640  17.544 -1.3016  0.8690 -1.1855
  663TMC3    H1 9816   0.553   2.591  17.129 -0.3010  2.2133  1.5392
  663TMC3    H2 9817   0.642   2.267  17.389  0.2303  0.6944  1.7590
  663TMC3    C7 9818   0.578   2.325  17.142  0.6148  0.3008 -0.4891
  663TMC3    C8 9819   0.563   2.379  17.601 -0.1006 -0.1598 -0.1370
  663TMC3    O1 9820   0.632   2.348  17.036  0.0368  0.1678  0.2001
  663TMC3    O2 9821   0.639   2.281  17.620  0.3468  0.4131 -0.0796
  664MPD2     C 9822   3.661   0.258  17.538  1.0653 -0.5897 -0.3011
  664MPD2    C1 9823   3.636   0.395  17.546 -0.0413  0.3133 -0.2070
  664MPD2    C2 9824   3.646   0.454  17.667 -1.1748 -1.0274  0.2388
  664MPD2    C3 9825   3.680   0.393   0.085 -0.3836 -0.4327  0.7153
  664MPD2    C4 9826   3.717   0.263   0.074 -0.4365  0.4345  0.0187
  664MPD2    C5 9827   3.701   0.194  17.653 -0.2670 -0.7035 -0.0927
  664MPD2     H 9828   3.632   0.561  17.677 -2.9295 -1.3265  1.0247
  664MPD2    H1 9829   3.738   0.204   0.162 -2.1477 -0.3140 -0.0764
  664MPD2    H2 9830   3.648   0.202  17.446 -0.6087  0.0594 -0.4490
  664MPD2    H3 9831   3.716   0.087  17.653  0.5742 -0.5897  1.7717
  664MPD2     N 9832   3.693   0.475   0.195 -0.2024  0.0680  0.2373
  664MPD2    H5 9833   3.676   0.575   0.182 -1.2253 -0.3550 -1.7636
  664MPD2    N1 9834   3.611   0.485  17.441 -0.6818 -0.2254 -0.7707
  664MPD2    H7 9835   3.579   0.578  17.467  0.6321 -0.0017  0.0774
  665TMC3    C1 9836   3.744   0.551   0.411  0.2016  0.4437  0.5092
  665TMC3    C2 9837   3.834   0.551   0.513 -0.5121  0.7395 -0.0181
  665TMC3    C3 9838   3.837   0.657   0.597 -0.2017 -0.1027  0.3632
  665TMC3    C4 9839   3.661   0.657   0.389 -0.1112  0.5993 -1.0866
  665TMC3    C5 9840   3.667   0.764   0.478  0.5729 -0.0236  0.7630
  665TMC3    C6 9841   3.762   0.772   0.577  0.4461 -0.8832 -0.0844
  665TMC3     C 9842   3.740   0.439   0.317  0.3131 -0.1405 -0.1269
  665TMC3     O 9843   3.775   0.325   0.351 -0.3362 -0.3029  0.1438
  665TMC3     H 9844   3.892   0.460   0.525 -1.7727  0.1946  2.0849
  665TMC3    H1 9845   3.579   0.650   0.319  1.4300 -3.3955 -2.5071
  665TMC3    H2 9846   3.767   0.844   0.657  0.2630  0.0568 -0.9222
  665TMC3    C7 9847   3.578   0.878   0.462  0.1420 -0.6962  0.2472
  665TMC3    C8 9848   3.868   0.626   0.733 -0.5775 -0.2808  0.0574
  665TMC3    O1 9849   3.500   0.861   0.368  0.5763 -0.2652 -0.2128
  665TMC3    O2 9850   3.807   0.680   0.827 -0.5312  0.1110  0.2004
  666TMC3    C1 9851   2.699   4.229   9.899 -0.0296  0.4035  0.8072
  666TMC3    C2 9852   2.823   4.273   9.869  0.4216 -0.5609 -0.4397
  666TMC3    C3 9853   2.839   4.387   9.800 -0.4807 -0.2108  0.5786
  666TMC3    C4 9854   2.587   4.310   9.886 -0.0042  0.7309  0.9761
  666TMC3    C5 9855   2.606   4.424   9.813  0.2119  0.3454  0.6211
  666TMC3    C6 9856   2.731   4.462   9.770  0.1396 -0.4945 -0.2299
  666TMC3     C 9857   2.691   4.091   9.941 -0.6743 -0.0586  0.0940
  666TMC3     O 9858   2.801   4.037   9.946  0.8508 -0.0548 -0.5055
  666TMC3     H 9859   2.916   4.227   9.900  1.8233  2.8871  0.4842
  666TMC3    H1 9860   2.489   4.278   9.921  1.1110 -1.3607  2.2280
  666TMC3    H2 9861   2.749   4.561   9.729  0.1427  0.0157  1.0035
  666TMC3    C7 9862   2.549   4.536   9.878 -0.1311  0.5277 -0.0111
  666TMC3    C8 9863   2.944   4.474   9.854 -0.4550  0.2147 -0.1159
  666TMC3    O1 9864   2.525   4.540   9.998 -0.3567 -0.4299  0.4181
  666TMC3    O2 9865   2.986   4.432   9.958  0.3189  0.0694  0.2245
  667MPD2     C 9866   4.151   0.183  14.805 -0.7419 -0.1863  0.2873
  667MPD2    C1 9867   4.066   0.185  14.916  0.5556  0.6026 -0.5742
  667MPD2    C2 9868   3.971   0.081  14.929 -0.6099 -0.2046  0.5103
  667MPD2    C3 9869   3.962   4.699  14.836  0.8187  0.1699 -0.1723
  667MPD2    C4 9870   4.054   4.699  14.731  0.1411 -0.1658 -0.3620
  667MPD2    C5 9871   4.142   0.081  14.714  0.6565  0.4153 -0.4965
  667MPD2     H 9872   3.907   0.082  15.017 -1.1716 -0.2865  0.1052
  667MPD2    H1 9873   4.039   4.636  14.644 -0.6640  2.8444 -2.4116
  667MPD2    H2 9874   4.234   0.253  14.799  1.5192 -2.6746  2.1735
  667MPD2    H3 9875   4.216   0.089  14.635  0.8044 -0.9652 -0.5055
  667MPD2     N 9876   3.858   4.609  14.843  0.3100 -0.4021 -0.1914
  667MPD2    H5 9877   3.858   4.535  14.772  0.0557  0.7917 -1.4369
  667MPD2    N1 9878   4.071   0.289  15.013 -0.4334  0.1633 -0.0365
  667MPD2    H7 9879   4.016   0.287  15.098  2.5834  0.7354  1.9500
  668TMC3    C1 9880   4.151   0.497  15.121  0.3658  0.2597  0.3412
  668TMC3    C2 9881   4.259   0.581  15.125  0.1142 -0.3884  0.2963
  668TMC3    C3 9882   4.267   0.653  15.239  0.2920  0.3736 -0.2221
  668TMC3    C4 9883   4.068   0.482  15.236  0.0470  0.3731  0.6451
  668TMC3    C5 9884   4.086   0.561  15.341 -0.0977  0.1479 -0.0188
  668TMC3    C6 9885   4.190   0.642  15.347 -0.0088 -0.9623  0.1424
  668TMC3     C 9886   4.149   0.405  14.998  0.0145 -0.0584  0.5346
  668TMC3     O 9887   4.228   0.435  14.905 -0.3360 -0.0558  0.1766
  668TMC3     H 9888   4.333   0.568  15.047  1.5022  0.0219  1.5266
  668TMC3    H1 9889   3.986   0.411  15.231  1.2993 -0.9281 -1.6538
  668TMC3    H2 9890   4.206   0.704  15.434 -1.5922  0.5061 -0.5928
  668TMC3    C7 9891   3.996   0.559  15.454  0.0909 -0.6063  0.2637
  668TMC3    C8 9892   4.378   0.744  15.263  0.1608  0.5279  0.6351
  668TMC3    O1 9893   4.000   0.652  15.530  0.5656  0.3742 -0.4396
  668TMC3    O2 9894   4.410   0.766  15.378 -0.7240  0.1420 -1.0240
  669TMC3    C1 9895   2.171   0.385  14.851  0.3198  0.5285 -1.1965
  669TMC3    C2 9896   2.092   0.398  14.736 -0.5538  0.3553 -0.4864
  669TMC3    C3 9897   2.086   0.519  14.675 -0.5139 -0.1500  0.3596
  669TMC3    C4 9898   2.264   0.481  14.880 -0.6835  0.2553 -0.0417
  669TMC3    C5 9899   2.271   0.592  14.800  0.3126 -0.3423 -0.4672
  669TMC3    C6 9900   2.183   0.616  14.697 -0.4111 -0.9853 -1.5765
  669TMC3     C 9901   2.137   0.273  14.932 -0.3603 -0.0552  0.0732
  669TMC3     O 9902   2.017   0.265  14.957 -0.2162 -0.2922  0.1009
  669TMC3     H 9903   2.034   0.311  14.707  1.0255 -0.9257  0.2288
  669TMC3    H1 9904   2.327   0.462  14.966  0.3859 -0.0261 -0.8811
  669TMC3    H2 9905   2.166   0.708  14.643  1.5635 -0.6195 -1.5673
  669TMC3    C7 9906   2.400   0.654  14.802  0.3694  0.3794  0.4280
  669TMC3    C8 9907   1.994   0.523  14.565  0.6423  1.1705  0.1297
  669TMC3    O1 9908   2.483   0.613  14.880 -0.4049  0.1631 -0.1027
  669TMC3    O2 9909   1.905   0.440  14.563  0.4500 -0.2820  0.2590
  670MPD2     C 9910   0.945   2.631  13.295 -0.4462 -0.7327  0.0477
  670MPD2    C1 9911   0.959   2.739  13.378 -0.3845 -0.0374  0.4473
  670MPD2    C2 9912   0.869   2.765  13.474  0.1938  0.5054  0.2531
  670MPD2    C3 9913   0.762   2.679  13.498 -0.3424  0.0100 -0.6642
  670MPD2    C4 9914   0.736   2.585  13.393 -0.5648  0.1871  0.3898
  670MPD2    C5 9915   0.825   2.567  13.295 -0.4083  0.2297 -0.0143
  670MPD2     H 9916   0.885   2.850  13.538 -0.6792 -0.6768  2.0339
  670MPD2    H1 9917   0.655   2.513  13.398  0.9964 -1.5035  1.4086
  670MPD2    H2 9918   1.015   2.611  13.215  1.7968 -2.1600  2.3451
  670MPD2    H3 9919   0.811   2.478  13.235 -1.9375  0.4815 -0.0180
  670MPD2     N 9920   0.675   2.706  13.603 -0.3988 -0.3261  0.4872
  670MPD2    H5 9921   0.710   2.771  13.672  0.8047 -1.9043  1.3626
  670MPD2    N1 9922   1.058   2.835  13.354  0.1580 -0.1786 -0.4440
  670MPD2    H7 9923   1.057   2.910  13.421 -2.6280 -0.5801 -0.0685
  671TMC3    C1 9924   0.471   2.687  13.749  0.0099 -0.1515  0.3349
  671TMC3    C2 9925   0.542   2.730  13.858  0.5806  0.3377 -0.1325
  671TMC3    C3 9926   0.538   2.654  13.973  0.1572 -0.3755  0.3685
  671TMC3    C4 9927   0.374   2.589  13.764  0.3639 -0.2390 -0.3608
  671TMC3    C5 9928   0.374   2.517  13.876 -0.0194 -0.4252  0.0931
  671TMC3    C6 9929   0.462   2.540  13.982  1.0129 -0.9042 -0.1639
  671TMC3     C 9930   0.546   2.657  13.621  0.5029 -0.1697 -0.0675
  671TMC3     O 9931   0.483   2.589  13.538  0.1407 -0.2805 -0.0193
  671TMC3     H 9932   0.626   2.795  13.838  0.8205 -0.8418 -2.9249
  671TMC3    H1 9933   0.318   2.562  13.675  0.1038  0.8595 -0.5259
  671TMC3    H2 9934   0.457   2.475  14.069 -3.2162  2.4317  2.0713
  671TMC3    C7 9935   0.382   2.372  13.838 -0.0186  0.3410  0.7130
  671TMC3    C8 9936   0.660   2.648  14.041 -0.4142  0.9861 -0.3143
  671TMC3    O1 9937   0.367   2.287  13.924 -0.0502  0.5649 -0.0780
  671TMC3    O2 9938   0.709   2.539  14.066 -0.5655  0.3975  0.4639
  672MPD2     C 9939   0.744   3.032   1.286  0.1302 -0.2448 -0.0939
  672MPD2    C1 9940   0.819   3.092   1.192 -0.0739  0.1738  0.4300
  672MPD2    C2 9941   0.866   3.220   1.217  1.1171 -0.0394 -0.5548
  672MPD2    C3 9942   0.837   3.290   1.333 -0.4395 -0.3837 -0.2500
  672MPD2    C4 9943   0.751   3.232   1.422  0.0915 -0.5915  0.4069
  672MPD2    C5 9944   0.706   3.103   1.399  1.5625  0.5080  0.2710
  672MPD2     H 9945   0.922   3.262   1.135  0.1538  2.8154  0.2381
  672MPD2    H1 9946   0.730   3.285   1.514 -0.5685 -0.0735 -0.0380
  672MPD2    H2 9947   0.709   2.929   1.290  2.7970 -1.1832 -1.0504
  672MPD2    H3 9948   0.633   3.056   1.463  0.3790 -0.4159 -1.7602
  672MPD2     N 9949   0.896   3.417   1.342 -0.2632 -1.1354  0.4190
  672MPD2    H5 9950   0.968   3.430   1.272  0.0078  1.3202  1.1624
  672MPD2    N1 9951   0.848   3.031   1.065  0.0857 -0.7296 -0.0044
  672MPD2    H7 9952   0.887   3.082   0.986 -2.4047  0.2161 -0.6129
  673TMC3    C1 9953   0.853   2.865   0.898 -0.1467 -0.2811 -0.4190
  673TMC3    C2 9954   0.904   2.735   0.882  0.4347 -0.3254  0.2255
  673TMC3    C3 9955   0.944   2.695   0.758 -0.0409 -0.0525 -0.2725
  673TMC3    C4 9956   0.847   2.954   0.793 -0.3289 -0.6675 -0.3650
  673TMC3    C5 9957   0.873   2.909   0.668 -0.1584 -0.4403 -0.6349
  673TMC3    C6 9958   0.921   2.776   0.652 -0.2670  0.6821 -0.2637
  673TMC3     C 9959   0.817   2.900   1.038  0.3310 -0.3495 -0.4965
  673TMC3     O 9960   0.792   2.809   1.112 -0.0454 -0.0077 -0.2757
  673TMC3     H 9961   0.936   2.680   0.970 -0.2129  0.3410  0.8844
  673TMC3    H1 9962   0.798   3.049   0.815  1.0037  0.2775 -1.5214
  673TMC3    H2 9963   0.963   2.747   0.556 -2.1050  0.7067 -1.0711
  673TMC3    C7 9964   0.904   2.996   0.555  0.6357 -0.1416 -0.0777
  673TMC3    C8 9965   1.074   2.640   0.741  0.2041 -0.0243  0.2494
  673TMC3    O1 9966   0.967   2.941   0.469  0.1060  0.4146  0.0843
  673TMC3    O2 9967   1.086   2.561   0.649 -0.2880 -0.0832 -0.7347
  674MPD2     C 9968   0.525   3.665   0.342 -0.6286  0.1851  0.5217
  674MPD2    C1 9969   0.511   3.560   0.436 -0.0132  0.3519  0.0487
  674MPD2    C2 9970   0.471   3.594   0.570 -0.1782  0.4169 -0.9917
  674MPD2    C3 9971   0.466   3.727   0.604 -0.9451  0.2291 -0.5384
  674MPD2    C4 9972   0.494   3.828   0.510  0.2304 -0.2839  0.7586
  674MPD2    C5 9973   0.514   3.793   0.379  0.2769 -0.0756 -0.1073
  674MPD2     H 9974   0.439   3.516   0.639  0.7417  1.3852  0.5175
  674MPD2    H1 9975   0.495   3.932   0.541 -1.5306 -0.5596  1.7571
  674MPD2    H2 9976   0.550   3.644   0.239 -0.5343 -0.2755  0.6411
  674MPD2    H3 9977   0.541   3.866   0.303 -1.2011  2.1744  1.5497
  674MPD2     N 9978   0.414   3.759   0.739  0.0252 -0.5914 -0.3298
  674MPD2    H5 9979   0.385   3.685   0.802 -0.0125 -2.2637 -2.3367
  674MPD2    N1 9980   0.542   3.429   0.384  0.4620 -0.1138  0.2305
  674MPD2    H7 9981   0.557   3.432   0.284  0.5626 -1.6523  0.1919
  675TMC3    C1 9982   0.580   3.205   0.357  0.1985  0.3913  0.4103
  675TMC3    C2 9983   0.533   3.086   0.395 -0.3076 -0.1435 -0.1283
  675TMC3    C3 9984   0.596   2.973   0.344 -0.2285 -0.0911  0.2677
  675TMC3    C4 9985   0.669   3.220   0.250  0.0644 -0.1367  0.1893
  675TMC3    C5 9986   0.726   3.108   0.202  0.4412 -0.5634  0.6854
  675TMC3    C6 9987   0.691   2.983   0.246  0.4310 -0.0944  0.8217
  675TMC3     C 9988   0.549   3.309   0.449  0.6909 -0.2842 -0.2332
  675TMC3     O 9989   0.520   3.281   0.561 -0.2148 -0.3688 -0.6046
  675TMC3     H 9990   0.455   3.073   0.469  1.1699  4.2909  2.2051
  675TMC3    H1 9991   0.718   3.316   0.245  2.2194 -1.1482  1.9121
  675TMC3    H2 9992   0.739   2.892   0.212 -0.6150 -0.3298 -0.0210
  675TMC3    C7 9993   0.848   3.123   0.134  0.0588  0.3255 -0.2573
  675TMC3    C8 9994   0.564   2.842   0.397 -0.2292 -0.3067 -0.7344
  675TMC3    O1 9995   0.866   3.225   0.071 -0.0844  0.1674 -0.4191
  675TMC3    O2 9996   0.586   2.744   0.325  1.0150  0.5144 -0.7209
  676MPD2     C 9997   3.729   1.579  11.228  0.0197  0.3607 -0.3357
  676MPD2    C1 9998   3.685   1.470  11.300 -0.3172  0.2938  0.8966
  676MPD2    C2 9999   3.690   1.344  11.248  0.6175  0.7850  0.5940
  676MPD2    C310000   3.736   1.313  11.119  0.7688 -0.4824  0.5443
  676MPD2    C410001   3.775   1.421  11.044 -0.0288 -0.1630  0.0565
  676MPD2    C510002   3.774   1.549  11.103  0.2300  0.3768  0.6945
  676MPD2     H10003   3.671   1.258  11.311 -0.3103 -0.1326 -0.9369
  676MPD2    H110004   3.814   1.415  10.944  0.0427  0.9027  0.0185
  676MPD2    H210005   3.719   1.683  11.255 -0.0269  0.4475 -0.7007
  676MPD2    H310006   3.813   1.629  11.041 -1.4443 -0.5595 -1.5878
  676MPD2     N10007   3.737   1.180  11.066 -0.6888 -0.3121 -0.4295
  676MPD2    H510008   3.759   1.176  10.967  1.6308  1.2682  0.0199
  676MPD2    N110009   3.613   1.487  11.419  0.3865  0.2688 -0.1936
  676MPD2    H710010   3.588   1.400  11.464 -0.9017  1.3725  1.2198
  677TMC3    C110011   3.511   1.584  11.601  0.0294 -0.5869 -0.2445
  677TMC3    C210012   3.443   1.466  11.616  0.3284 -0.2004  0.7547
  677TMC3    C310013   3.390   1.418  11.732 -0.1315  0.8622 -0.0789
  677TMC3    C410014   3.526   1.663  11.711  0.4343 -0.1884 -0.4681
  677TMC3    C510015   3.468   1.616  11.832 -1.1079 -0.4396  0.6200
  677TMC3    C610016   3.402   1.495  11.847  0.0551  0.3109 -0.0353
  677TMC3     C10017   3.568   1.605  11.471  0.0658  0.1415 -0.2683
  677TMC3     O10018   3.583   1.719  11.434 -0.2232 -0.1690 -0.0423
  677TMC3     H10019   3.413   1.411  11.527  1.2920 -1.8095  1.4291
  677TMC3    H110020   3.596   1.746  11.707 -0.8249  0.8621 -0.6065
  677TMC3    H210021   3.364   1.465  11.944  2.7016 -0.0505  0.8692
  677TMC3    C710022   3.492   1.691  11.954 -0.0824  0.0606 -0.1629
  677TMC3    C810023   3.308   1.299  11.730  0.6459 -0.3360  0.2444
  677TMC3    O110024   3.473   1.649  12.070  0.6400  0.2813 -0.6002
  677TMC3    O210025   3.213   1.298  11.658  0.4025 -0.6763  0.2574
  678MPD2     C10026   4.140   2.484   1.755  0.3679 -0.2214 -0.5233
  678MPD2    C110027   4.129   2.386   1.655 -0.1755  0.1596 -0.8377
  678MPD2    C210028   4.006   2.332   1.623  0.2875  0.8809 -0.3974
  678MPD2    C310029   3.890   2.377   1.687 -0.0440  0.6177 -0.6892
  678MPD2    C410030   3.903   2.487   1.778 -0.5152  0.5741  0.0444
  678MPD2    C510031   4.024   2.538   1.806 -0.3171  0.4527  0.1197
  678MPD2     H10032   4.000   2.264   1.539 -1.5691 -0.0652  0.5105
  678MPD2    H110033   3.815   2.517   1.836 -0.0014  0.1275  1.0609
  678MPD2    H210034   4.233   2.527   1.791  0.6369 -1.9457  0.8415
  678MPD2    H310035   4.029   2.617   1.879 -0.3619 -3.4440  4.3234
  678MPD2     N10036   3.772   2.308   1.661 -0.1810  0.6935  0.1129
  678MPD2    H510037   3.799   2.235   1.595 -2.4814  1.2397 -1.4251
  678MPD2    N110038   4.246   2.333   1.590  0.1811 -0.0927  0.1088
  678MPD2    H710039   4.234   2.266   1.515 -1.7162  0.3360  0.0209
  679TMC3    C110040   4.534   2.098   1.421 -0.7872  0.0566  0.2146
  679TMC3    C210041   4.436   2.167   1.485 -0.6874 -0.1967  0.4365
  679TMC3    C310042   4.469   2.290   1.525 -0.0689  0.1348  0.5711
  679TMC3    C410043   4.656   2.148   1.406 -0.4756 -0.3271 -0.3648
  679TMC3    C510044   4.691   2.281   1.448 -0.6421  0.0518  0.4329
  679TMC3    C610045   4.587   2.352   1.506 -0.4843  0.1639 -0.7396
  679TMC3     C10046   4.516   1.951   1.398 -0.5133  0.0443  0.4990
  679TMC3     O10047   4.612   1.873   1.406  0.4717  0.0960 -0.5102
  679TMC3     H10048   4.347   2.113   1.516 -0.5733 -0.6757 -0.0600
  679TMC3    H110049   0.009   2.098   1.348  0.0415 -0.1005  0.1159
  679TMC3    H210050   4.604   2.448   1.552 -0.9383  0.2875 -0.8396
  679TMC3    C710051   0.037   2.362   1.347  0.1071  0.4630 -0.5003
  679TMC3    C810052   4.377   2.365   1.616 -0.4723  0.3270 -0.2204
  679TMC3    O110053   0.085   2.311   1.245  0.1844 -0.3041 -0.2534
  679TMC3    O210054   4.421   2.454   1.684 -0.1780 -0.2304  0.6495
  680MPD2     C10055   0.147   0.291  13.762  0.1724  0.3178 -0.2368
  680MPD2    C110056   0.260   0.222  13.774  0.2915  0.2658 -0.3948
  680MPD2    C210057   0.386   0.275  13.756  0.1092  0.7577 -0.2641
  680MPD2    C310058   0.396   0.404  13.722 -0.4612  0.0531 -0.7087
  680MPD2    C410059   0.285   0.482  13.707 -0.5534 -0.0397  0.2491
  680MPD2    C510060   0.156   0.426  13.732 -0.7397  0.1832 -0.3423
  680MPD2     H10061   0.469   0.207  13.770  0.8956  1.5929 -0.8967
  680MPD2    H110062   0.289   0.584  13.671 -1.1416  0.4762  1.6203
  680MPD2    H210063   0.049   0.252  13.788 -0.9321  2.6558 -0.8371
  680MPD2    H310064   0.065   0.484  13.727 -1.5973 -1.0755  0.8801
  680MPD2     N10065   0.519   0.475  13.715 -0.0472  0.7369 -0.8675
  680MPD2    H510066   0.525   0.575  13.703  0.8900  0.6541 -1.1254
  680MPD2    N110067   0.260   0.083  13.802  0.2761 -0.1911  1.1465
  680MPD2    H710068   0.351   0.042  13.821  1.4458  2.1236  0.5358
  681TMC3    C110069   0.176   4.578  13.829 -0.7982 -0.5720  0.1044
  681TMC3    C210070   0.113   4.511  13.924 -0.1042 -0.0686 -0.2945
  681TMC3    C310071   0.171   4.388  13.972  0.3764  0.4683 -0.6431
  681TMC3    C410072   0.286   4.534  13.765 -0.2078  0.6473  0.0318
  681TMC3    C510073   0.328   4.405  13.799  0.4863  0.1017  0.4579
  681TMC3    C610074   0.275   4.334  13.901  0.1072  0.3667 -0.1950
  681TMC3     C10075   0.150   4.721  13.820 -0.5347  0.8289  0.0172
  681TMC3     O10076   0.029   0.026  13.828 -0.3191 -0.4323  0.0294
  681TMC3     H10077   0.029   4.562  13.971 -1.0257  0.1901 -2.2388
  681TMC3    H110078   0.342   4.597  13.698 -0.0352 -0.8489 -1.2300
  681TMC3    H210079   0.325   4.247  13.942 -0.8530 -1.0266 -2.0038
  681TMC3    C710080   0.457   4.360  13.746  0.1322  0.3148 -0.7334
  681TMC3    C810081   0.187   4.394  14.111  0.5617  0.1061 -0.0933
  681TMC3    O110082   0.525   4.283  13.811 -0.2337  0.2532 -0.1038
  681TMC3    O210083   0.160   4.286  14.164 -0.0678 -0.2242 -0.3819
  682MPD2     C10084   3.201   0.912  10.389 -0.8496 -0.5888  0.6855
  682MPD2    C110085   3.091   0.851  10.448 -0.2370 -0.1878 -0.1051
  682MPD2    C210086   3.011   0.926  10.529 -0.2556 -0.2144  0.0353
  682MPD2    C310087   3.039   1.055  10.560 -0.0647 -0.7659  0.4832
  682MPD2    C410088   3.154   1.107  10.508  0.5843 -0.1784  0.2328
  682MPD2    C510089   3.239   1.042  10.423  0.6665  0.2629  0.3106
  682MPD2     H10090   2.924   0.883  10.577  0.5312 -1.6705  0.1549
  682MPD2    H110091   3.177   1.209  10.533  0.0736 -0.3940  1.6070
  682MPD2    H210092   3.256   0.861  10.311 -0.9261 -0.8373  0.7959
  682MPD2    H310093   3.321   1.094  10.374  0.8805 -1.6381 -1.3212
  682MPD2     N10094   2.965   1.131  10.656 -0.5627  0.4472  0.0884
  682MPD2    H510095   2.995   1.225  10.681  1.4524  0.0157 -0.6360
  682MPD2    N110096   3.047   0.720  10.424 -0.0687 -0.1351 -0.0617
  682MPD2    H710097   2.966   0.692  10.478  0.7014  1.7991  2.1235
  683TMC3    C110098   2.810   1.291  11.000 -0.3212 -0.3754  0.6876
  683TMC3    C210099   2.677   1.326  11.002  0.2893  0.5378  0.5660
  683TMC3    C310100   2.603   1.283  10.898  0.5303 -0.7661 -0.4398
  683TMC3    C410101   2.870   1.230  10.897  0.0937  0.4207  0.0471
  683TMC3    C510102   2.787   1.198  10.789 -0.1591  0.7092  0.7766
  683TMC3    C610103   2.655   1.213  10.792  0.2447 -0.7102  0.6844
  683TMC3     C10104   2.875   1.262  11.126 -0.6010 -0.4119 -0.2755
  683TMC3     O10105   2.966   1.177  11.134 -0.1757 -0.3506  0.0362
  683TMC3     H10106   2.624   1.354  11.093 -0.0017  0.6452  0.3667
  683TMC3    H110107   2.975   1.208  10.885  0.1350  0.4516  0.3695
  683TMC3    H210108   2.587   1.193  10.709  0.3708  1.4960  0.0418
  683TMC3    C710109   2.833   1.109  10.688  0.0750  0.7583 -0.6749
  683TMC3    C810110   2.468   1.248  10.925  0.2992  0.4594  0.0977
  683TMC3    O110111   2.750   1.026  10.648 -0.5004 -0.5446  0.0007
  683TMC3    O210112   2.398   1.335  10.975 -0.1550  0.1008  0.0557
  684MPD2     C10113   0.596   1.149  16.418 -0.1328 -0.9018  1.0059
  684MPD2    C110114   0.608   1.194  16.294 -0.3205 -0.7486  0.4128
  684MPD2    C210115   0.634   1.326  16.269 -0.7135  0.3510  0.1325
  684MPD2    C310116   0.633   1.413  16.378 -0.2043 -0.0465 -0.4548
  684MPD2    C410117   0.602   1.372  16.503 -0.1810 -0.6418 -0.1016
  684MPD2    C510118   0.592   1.236  16.529 -0.3309  0.1714 -0.1623
  684MPD2     H10119   0.657   1.354  16.167  0.4281  0.0088  0.2927
  684MPD2    H110120   0.607   1.444  16.585 -0.0984 -1.9922  1.0816
  684MPD2    H210121   0.607   1.045  16.447 -1.0950 -1.1780  0.3686
  684MPD2    H310122   0.583   1.195  16.629 -1.3728  1.1133  0.1289
  684MPD2     N10123   0.658   1.547  16.353  0.5702 -0.1737  0.3786
  684MPD2    H510124   0.653   1.606  16.436  3.4311  1.6186 -0.7034
  684MPD2    N110125   0.625   1.099  16.187 -0.5555  0.7019 -0.7188
  684MPD2    H710126   0.651   1.137  16.097  2.7665 -0.7695 -0.4144
  685TMC3    C110127   0.641   0.901  16.074  0.5078 -0.2071  0.9476
  685TMC3    C210128   0.599   0.949  15.956  0.2896 -0.2464 -0.4959
  685TMC3    C310129   0.610   0.869  15.846 -0.2079 -0.3805  0.0732
  685TMC3    C410130   0.702   0.778  16.081 -0.2875 -0.2073  0.6943
  685TMC3    C510131   0.731   0.710  15.968  0.0182  0.6459 -0.0204
  685TMC3    C610132   0.676   0.747  15.848 -0.4094  0.4071 -0.5878
  685TMC3     C10133   0.606   0.963  16.202 -0.7639 -0.3219 -0.3947
  685TMC3     O10134   0.590   0.887  16.298  0.2873  0.0478 -0.0020
  685TMC3     H10135   0.546   1.044  15.955 -1.5484 -1.2633  0.5467
  685TMC3    H110136   0.724   0.736  16.178 -0.4324  0.3261  0.9607
  685TMC3    H210137   0.709   0.695  15.758 -1.9096  0.1292 -0.9686
  685TMC3    C710138   0.803   0.584  15.986 -0.4444 -0.1916 -0.2479
  685TMC3    C810139   0.513   0.876  15.739 -0.5261  0.0659  0.4156
  685TMC3    O110140   0.787   0.496  15.899 -0.0063  0.3005 -0.7488
  685TMC3    O210141   0.527   0.789  15.658  0.1093 -0.2678  0.4497
  686MPD2     C10142   1.326   1.103  15.413  0.8963  0.5729  0.3181
  686MPD2    C110143   1.395   0.985  15.437  0.0182  0.1414  0.5178
  686MPD2    C210144   1.433   0.898  15.340  0.3110 -0.1796  0.3123
  686MPD2    C310145   1.424   0.946  15.210 -0.2883 -0.4294  0.5353
  686MPD2    C410146   1.376   1.068  15.180  0.6231 -0.5669 -0.3599
  686MPD2    C510147   1.326   1.145  15.284  0.2793  0.0905 -1.0862
  686MPD2     H10148   1.490   0.808  15.360  2.5970  1.1016 -0.4469
  686MPD2    H110149   1.368   1.121  15.086  1.3401 -1.1472 -0.7474
  686MPD2    H210150   1.291   1.170  15.490 -2.1002  1.2475 -1.6325
  686MPD2    H310151   1.276   1.239  15.264 -0.4514  0.4114  2.3846
  686MPD2     N10152   1.457   0.875  15.094 -0.0552 -0.8490 -0.5243
  686MPD2    H510153   1.453   0.929  15.009 -0.3829 -0.9270 -0.5604
  686MPD2    N110154   1.419   0.948  15.576 -0.0566 -0.2915  0.1990
  686MPD2    H710155   1.370   1.005  15.645  1.8787 -0.2036  1.4876
  687TMC3    C110156   1.437   0.653  15.194 -0.2321 -0.2770 -0.0126
  687TMC3    C210157   1.305   0.646  15.238  0.3955  0.0008  0.2231
  687TMC3    C310158   1.278   0.547  15.335  0.2966  0.2192  0.1326
  687TMC3    C410159   1.524   0.547  15.207 -0.4903  0.5853  0.2865
  687TMC3    C510160   1.492   0.446  15.297  0.1477  0.1117 -0.1748
  687TMC3    C610161   1.368   0.446  15.359  0.3397  0.2832 -0.1104
  687TMC3     C10162   1.469   0.738  15.083  0.1369  0.4119 -0.4587
  687TMC3     O10163   1.478   0.670  14.983  0.0885 -0.2348  0.8085
  687TMC3     H10164   1.245   0.736  15.224  0.6728  0.0412 -0.7156
  687TMC3    H110165   1.631   0.562  15.191 -0.3364  0.1010  0.8622
  687TMC3    H210166   1.326   0.369  15.422 -0.0616  0.1429 -0.5519
  687TMC3    C710167   1.596   0.436  15.406 -0.4411 -0.7963 -0.2867
  687TMC3    C810168   1.224   0.588  15.460  0.5224 -0.7963  0.6153
  687TMC3    O110169   1.536   0.436  15.514 -0.1849 -0.4661 -0.1215
  687TMC3    O210170   1.236   0.515  15.561  0.4982 -0.5817  0.4390
  688MPD2     C10171   1.061   4.403  17.371 -0.3631 -0.7236 -0.1961
  688MPD2    C110172   1.156   4.317  17.421  0.7315 -0.7424  0.5200
  688MPD2    C210173   1.242   4.248  17.335 -0.4710  0.4144 -0.0743
  688MPD2    C310174   1.250   4.289  17.204  0.6496 -0.2445  0.3604
  688MPD2    C410175   1.160   4.376  17.154 -0.0260  0.1639  0.8796
  688MPD2    C510176   1.069   4.438  17.237 -0.0603 -0.8585 -0.6213
  688MPD2     H10177   1.311   4.174  17.376  1.4087  1.7007 -0.9154
  688MPD2    H110178   1.163   4.414  17.053 -2.1671 -2.3791 -0.1311
  688MPD2    H210179   0.985   4.446  17.436  0.4733 -0.7116  0.7750
  688MPD2    H310180   0.994   4.506  17.200 -0.7490 -0.6303  1.2210
  688MPD2     N10181   1.349   4.245  17.112  0.2532  0.2957  0.4031
  688MPD2    H510182   1.347   4.283  17.017  0.7601 -0.1622  0.2106
  688MPD2    N110183   1.158   4.278  17.560 -0.0861 -0.1428 -0.8106
  688MPD2    H710184   1.227   4.211  17.593  0.4369  0.3729 -0.8454
  689TMC3    C110185   1.095   4.270   0.083  0.1665 -0.3202  0.3504
  689TMC3    C210186   1.084   4.341   0.200 -0.3385  0.1071 -0.2167
  689TMC3    C310187   1.093   4.279   0.318  0.0052 -0.2793 -0.2866
  689TMC3    C410188   1.112   4.134   0.080 -0.8446  0.2896 -0.1083
  689TMC3    C510189   1.114   4.065   0.196 -0.1512  0.7558  0.5954
  689TMC3    C610190   1.112   4.140   0.311 -0.2431 -0.1544  0.3009
  689TMC3     C10191   1.093   4.343  17.657  0.0098 -0.0622  1.0167
  689TMC3     O10192   1.045   4.454  17.655 -0.1333  0.0465  0.1268
  689TMC3     H10193   1.069   4.449   0.193 -0.2143  0.2235  1.4007
  689TMC3    H110194   1.119   4.076  17.687  2.8571  3.3225 -1.7233
  689TMC3    H210195   1.102   4.086   0.405 -1.9088 -0.3006  0.0368
  689TMC3    C710196   1.064   3.933   0.204  0.7386  0.1147  0.0902
  689TMC3    C810197   1.068   4.347   0.432  1.3196  0.0510  0.0992
  689TMC3    O110198   1.074   3.872   0.306 -0.0788  0.0987  0.0820
  689TMC3    O210199   1.024   4.297   0.534  0.0889 -0.5511 -0.4015
  690MPD2     C10200   3.385   1.642  15.853  0.1845  0.0700  0.4338
  690MPD2    C110201   3.414   1.538  15.766  0.7161 -0.4269  0.2484
  690MPD2    C210202   3.537   1.538  15.702 -0.1782  0.0791  0.7426
  690MPD2    C310203   3.627   1.642  15.724 -0.4766  0.6081  0.0374
  690MPD2    C410204   3.594   1.736  15.813 -0.0088 -0.0579 -0.0176
  690MPD2    C510205   3.476   1.733  15.876 -0.4972 -0.8766  0.2996
  690MPD2     H10206   3.576   1.450  15.651 -0.1251 -0.2857  1.4174
  690MPD2    H110207   3.664   1.819  15.823 -2.4751  1.9918  0.1559
  690MPD2    H210208   3.296   1.648  15.915  0.2563 -0.2102  0.5643
  690MPD2    H310209   3.464   1.810  15.951 -0.5485 -1.0538  0.4712
  690MPD2     N10210   3.748   1.645  15.653 -0.2500 -0.3575  0.3331
  690MPD2    H510211   3.753   1.597  15.564  0.8663 -3.6941  2.1866
  690MPD2    N110212   3.322   1.431  15.757 -0.3323  0.1730  0.1693
  690MPD2    H710213   3.348   1.352  15.699  1.8051  1.7956 -1.0590
  691TMC3    C110214   3.126   1.311  15.773  0.5927  0.1497  0.6129
  691TMC3    C210215   2.990   1.328  15.767 -0.5894  0.2080  0.5299
  691TMC3    C310216   2.906   1.221  15.756  0.6594  0.2029 -0.3610
  691TMC3    C410217   3.188   1.201  15.761 -0.1668  0.4685  0.0359
  691TMC3    C510218   3.102   1.093  15.757 -0.1080  0.0133  0.6544
  691TMC3    C610219   2.967   1.097  15.746 -0.3700  0.7437 -0.1255
  691TMC3     C10220   3.193   1.435  15.796 -0.0883  0.4328 -0.3674
  691TMC3     O10221   3.125   1.533  15.832 -0.4385 -0.2454  0.9195
  691TMC3     H10222   2.952   1.429  15.756  1.2368  0.7161 -1.1406
  691TMC3    H110223   3.295   1.187  15.748 -0.3629 -2.3651  1.3716
  691TMC3    H210224   2.896   1.015  15.744  1.2512 -0.6057 -1.8515
  691TMC3    C710225   3.175   0.966  15.742 -0.1105  0.3948 -0.0532
  691TMC3    C810226   2.775   1.226  15.821 -0.1181 -0.7729 -1.0302
  691TMC3    O110227   3.291   0.951  15.781  0.2218  0.9169 -0.3540
  691TMC3    O210228   2.701   1.128  15.845  0.2249 -0.4189 -0.1399
  692TMC3    C110229   0.333   2.927  16.146 -0.0301 -0.0121 -0.0704
  692TMC3    C210230   0.427   2.933  16.241  0.0103 -0.4667  0.5263
  692TMC3    C310231   0.542   2.857  16.223 -0.1352  0.5062 -0.0507
  692TMC3    C410232   0.333   2.822  16.051  0.1468 -1.0542  0.2232
  692TMC3    C510233   0.440   2.736  16.051  0.3903 -0.1522  0.6055
  692TMC3    C610234   0.540   2.741  16.136 -0.6376  0.5532 -0.1405
  692TMC3     C10235   0.202   2.990  16.175  0.8931  0.0017 -0.1098
  692TMC3     O10236   0.105   2.925  16.137 -0.3942 -0.2892 -0.1478
  692TMC3     H10237   0.410   3.009  16.318 -2.0164 -1.1732  0.7591
  692TMC3    H110238   0.248   2.797  15.988 -0.9476  1.8124  0.5629
  692TMC3    H210239   0.637   2.698  16.110 -0.6585  0.3681  0.0834
  692TMC3    C710240   0.432   2.628  15.964 -0.0720  0.3662  0.0357
  692TMC3    C810241   0.615   2.807  16.342  0.5309 -0.7099  0.2118
  692TMC3    O110242   0.360   2.640  15.865 -0.8351 -0.1589 -0.0509
  692TMC3    O210243   0.685   2.707  16.334  0.0559 -0.5034 -0.0745
  693MPD2     C10244   4.654   0.805  10.767  0.2521 -0.0538  0.0511
  693MPD2    C110245   4.592   0.687  10.796  0.4217 -0.0067  1.0306
  693MPD2    C210246   4.679   0.578  10.800 -0.5448 -0.7350  0.0849
  693MPD2    C310247   0.094   0.588  10.790 -0.4309  0.2357  0.1382
  693MPD2    C410248   0.143   0.709  10.758 -0.3975 -0.4307 -0.0557
  693MPD2    C510249   0.061   0.815  10.737  0.2358 -0.0002 -0.3153
  693MPD2     H10250   4.645   0.478  10.822  3.2936 -2.1621 -0.3740
  693MPD2    H110251   0.244   0.734  10.729 -1.0480  3.0772  0.7576
  693MPD2    H210252   4.580   0.884  10.763  0.8155  0.4227 -0.6743
  693MPD2    H310253   0.102   0.910  10.708  0.6634 -0.0865  0.0115
  693MPD2     N10254   0.188   0.484  10.821 -0.6363 -0.1055 -0.0631
  693MPD2    H510255   0.286   0.508  10.810 -0.4325 -0.9677 -0.1869
  693MPD2    N110256   4.447   0.686  10.813 -0.3371 -0.2060 -0.5748
  693MPD2    H710257   4.396   0.773  10.809  0.0758  0.0139 -1.0293
  694TMC3    C110258   4.229   0.607  10.831  0.0519  0.1726 -0.1408
  694TMC3    C210259   4.149   0.543  10.751 -0.2690  0.2919  0.1320
  694TMC3    C310260   4.024   0.508  10.796 -0.8855  0.0101  0.2853
  694TMC3    C410261   4.195   0.638  10.957  0.3016  0.1417  0.7147
  694TMC3    C510262   4.077   0.594  11.008 -0.4180  0.5331  0.0404
  694TMC3    C610263   3.988   0.532  10.927  0.2355  0.4683 -0.0868
  694TMC3     C10264   4.373   0.574  10.828  0.4832  1.2139  0.0675
  694TMC3     O10265   4.409   0.458  10.811  0.0614  0.0718 -0.1056
  694TMC3     H10266   4.200   0.502  10.664 -0.8220 -0.2311  0.0566
  694TMC3    H110267   4.275   0.676  11.020  0.3417  0.8603  0.2206
  694TMC3    H210268   3.889   0.500  10.957  0.3034  1.4500  1.1511
  694TMC3    C710269   4.055   0.605  11.150  0.1759  0.2817  0.6537
  694TMC3    C810270   3.930   0.455  10.711 -0.0967  0.3584  0.8991
  694TMC3    O110271   4.123   0.674  11.219  0.1121 -0.1701 -0.0034
  694TMC3    O210272   3.834   0.391  10.749 -0.4698  0.1642  0.6044
  695MPD2     C10273   1.519   2.542  13.496 -0.1246 -0.1031 -0.1782
  695MPD2    C110274   1.427   2.482  13.577  0.6734 -0.2881  0.2757
  695MPD2    C210275   1.313   2.430  13.516  0.3757  0.1029  0.1095
  695MPD2    C310276   1.301   2.419  13.381  0.6274  0.3137 -0.4641
  695MPD2    C410277   1.405   2.466  13.296  0.0526 -0.0850 -0.5350
  695MPD2    C510278   1.513   2.527  13.358  0.1590  0.5948  0.2171
  695MPD2     H10279   1.239   2.388  13.584 -0.9258  0.3601 -1.1455
  695MPD2    H110280   1.409   2.455  13.188 -0.9701 -3.6692 -0.2051
  695MPD2    H210281   1.599   2.598  13.541  1.1232 -0.1115 -2.3951
  695MPD2    H310282   1.596   2.571  13.302  0.5817 -2.2926 -1.4352
  695MPD2     N10283   1.181   2.359  13.325  0.2746 -0.2052  0.5977
  695MPD2    H510284   1.101   2.347  13.387  0.8316  1.5022  1.6445
  695MPD2    N110285   1.429   2.483  13.719  0.8705  0.1168 -0.1805
  695MPD2    H710286   1.359   2.424  13.761  1.8807 -0.7405  0.2916
  696TMC3    C110287   1.034   2.294  13.152 -0.4537 -0.6833 -0.3870
  696TMC3    C210288   0.952   2.232  13.242  0.4838  0.3794  0.9996
  696TMC3    C310289   0.820   2.209  13.200  0.0240 -0.4079 -0.9088
  696TMC3    C410290   0.994   2.334  13.026  0.1762 -0.5104  0.2286
  696TMC3    C510291   0.865   2.303  12.989 -0.2020  0.2073  0.4176
  696TMC3    C610292   0.777   2.243  13.074 -0.5506 -0.5837 -0.5501
  696TMC3     C10293   1.164   2.329  13.192 -1.0445  0.4594  0.3296
  696TMC3     O10294   1.253   2.322  13.108 -0.3381  0.1559 -0.4201
  696TMC3     H10295   0.985   2.199  13.340  0.3732 -0.8519  0.6203
  696TMC3    H110296   1.057   2.399  12.966  1.5671 -0.6528  1.5425
  696TMC3    H210297   0.678   2.219  13.036 -1.6730  0.8169  1.5287
  696TMC3    C710298   0.813   2.411  12.911  0.2825  1.2969  0.6573
  696TMC3    C810299   0.721   2.232  13.307  0.2572  0.4673 -0.7530
  696TMC3    O110300   0.888   2.460  12.827  0.0850 -0.6326  1.0297
  696TMC3    O210301   0.627   2.302  13.276  0.0430  0.5094  0.1977
  697MPD2     C10302   4.613   4.239  15.906  0.2568 -0.9279  0.1095
  697MPD2    C110303   4.649   4.156  15.800 -0.5501  0.5888  0.0022
  697MPD2    C210304   4.690   4.210  15.683 -0.4324  0.2333  0.6981
  697MPD2    C310305   4.703   4.347  15.673  0.4714  0.3339 -0.3993
  697MPD2    C410306   4.671   4.428  15.780  0.3528 -0.6624  0.4909
  697MPD2    C510307   4.635   4.371  15.899 -0.6549  0.0707  0.2966
  697MPD2     H10308   4.707   4.145  15.599 -1.1526  0.4807  0.3691
  697MPD2    H110309   4.671   4.537  15.772 -2.3987 -0.6202  1.0220
  697MPD2    H210310   4.581   4.197  16.000  1.7761 -3.2809 -0.4072
  697MPD2    H310311   4.607   4.419  15.992 -1.9364  0.6163 -0.3743
  697MPD2     N10312   0.010   4.404  15.542  0.1645 -0.6664  0.0650
  697MPD2    H510313   4.714   4.343  15.464 -0.8323 -1.2215  0.7476
  697MPD2    N110314   4.630   4.015  15.807 -0.6513  0.1830  0.1584
  697MPD2    H710315   4.673   3.964  15.730 -2.9143 -1.8212  0.2419
  698TMC3    C110316   0.129   4.552  15.393  0.2007 -0.1694  0.1659
  698TMC3    C210317   0.180   4.672  15.367  0.4059 -0.1366 -0.0025
  698TMC3    C310318   0.259   4.683  15.255  0.0012  0.7449  0.3562
  698TMC3    C410319   0.149   4.442  15.309  0.2846  0.5327 -0.3981
  698TMC3    C510320   0.228   4.461  15.195 -0.0564  0.0113  0.7588
  698TMC3    C610321   0.286   4.579  15.173 -0.3929 -0.3402  0.1422
  698TMC3     C10322   0.058   4.534  15.521 -0.8516  0.1612  0.3521
  698TMC3     O10323   0.083   4.617  15.608 -0.6663  0.0487 -0.8761
  698TMC3     H10324   0.157   0.029  15.436  1.0064  1.3000 -1.5054
  698TMC3    H110325   0.110   4.346  15.341  0.1712  0.6238 -0.2619
  698TMC3    H210326   0.342   4.605  15.083 -0.0918 -1.1180  0.0963
  698TMC3    C710327   0.204   4.369  15.090  0.4117  0.4448  0.3153
  698TMC3    C810328   0.194   0.060  15.180 -0.9080  0.0642  0.1067
  698TMC3    O110329   0.097   4.310  15.095 -0.2157  0.0785  0.4136
  698TMC3    O210330   0.071   0.063  15.181  0.0577 -0.3897  0.0239
  699TMC3    C110331   0.068   1.942  12.916 -0.8882  0.2524 -0.3702
  699TMC3    C210332   0.123   1.937  13.043 -0.0435  0.1385  0.0939
  699TMC3    C310333   0.049   1.909  13.153  0.4185  0.0757  0.0714
  699TMC3    C410334   4.653   1.929  12.907 -0.0787 -0.3909  0.6088
  699TMC3    C510335   4.583   1.921  13.027  0.0943  0.7314  0.2473
  699TMC3    C610336   4.639   1.906  13.152  0.2915 -0.1815  0.4062
  699TMC3     C10337   0.131   2.008  12.817 -0.0611  0.0557  0.1505
  699TMC3     O10338   0.057   2.061  12.728  0.0013  0.1393  0.2370
  699TMC3     H10339   0.220   1.979  13.068  2.2066 -4.6149 -0.6582
  699TMC3    H110340   4.606   1.950  12.812 -0.3117 -1.4394  0.4968
  699TMC3    H210341   4.587   1.901  13.247 -0.1411  2.0212  0.2799
  699TMC3    C710342   4.446   1.960  13.018  0.9021  0.0670 -1.0423
  699TMC3    C810343   0.110   1.909  13.283 -0.7237  0.2680 -0.9070
  699TMC3    O110344   4.395   1.960  12.906  0.0338  0.2077 -0.0281
  699TMC3    O210345   0.029   1.900  13.370  0.1770 -0.7975 -0.2370
  700TMC3    C110346   3.946   0.364  16.999  0.1265 -0.3966  0.3989
  700TMC3    C210347   3.940   0.234  17.041  0.1943 -0.1582 -0.4181
  700TMC3    C310348   3.956   0.216  17.177 -0.5934 -0.5173  0.5919
  700TMC3    C410349   3.966   0.469  17.080  0.3841 -0.0082  0.1652
  700TMC3    C510350   3.981   0.444  17.211  0.4693  0.3487  0.3886
  700TMC3    C610351   3.969   0.319  17.266 -0.0396 -0.0866 -1.0647
  700TMC3     C10352   3.914   0.386  16.861  0.1005  0.2373 -0.0484
  700TMC3     O10353   3.855   0.296  16.804  0.3942 -0.1991  0.3103
  700TMC3     H10354   3.930   0.158  16.965 -0.3691  1.4590 -1.9490
  700TMC3    H110355   3.970   0.574  17.055 -1.7355 -0.2443 -1.1592
  700TMC3    H210356   3.987   0.305  17.372  0.1383  0.2797 -1.0467
  700TMC3    C710357   3.986   0.567  17.296 -0.2737 -0.5463 -0.7826
  700TMC3    C810358   3.997   0.088  17.213 -0.1614 -0.3525  0.1057
  700TMC3    O110359   4.010   0.673  17.242  0.2532  0.3571 -0.3807
  700TMC3    O210360   3.963   4.724  17.134 -0.1901  0.0524 -0.3426
  701TMC3    C110361   4.033   3.185  15.670  0.0109  0.1460 -0.3709
  701TMC3    C210362   4.091   3.114  15.568 -0.4536  0.0319 -0.5626
  701TMC3    C310363   4.207   3.166  15.523  0.4736  0.0753 -1.0195
  701TMC3    C410364   4.081   3.294  15.732  0.8536  0.7251  0.6343
  701TMC3    C510365   4.211   3.330  15.697  0.3712 -1.0304 -0.0340
  701TMC3    C610366   4.274   3.266  15.591 -0.2734  0.2604 -0.1452
  701TMC3     C10367   3.911   3.134  15.739  0.4105  0.3150 -0.6436
  701TMC3     O10368   3.835   3.216  15.787 -0.0127  1.0464  0.4215
  701TMC3     H10369   4.034   3.041  15.511  1.0446 -0.6779 -1.1698
  701TMC3    H110370   4.032   3.341  15.817 -0.6996  1.5648 -0.7352
  701TMC3    H210371   4.375   3.295  15.567 -0.6896  2.7357  1.0574
  701TMC3    C710372   4.256   3.458  15.732 -0.0228 -0.7186  0.4718
  701TMC3    C810373   4.289   3.079  15.439 -0.2793 -0.3358  0.3616
  701TMC3    O110374   4.337   3.510  15.659 -0.3944  0.6730 -0.3173
  701TMC3    O210375   4.394   3.034  15.481 -0.1872  0.1008 -0.1511
  702MPD2     C10376   3.761   0.855  10.442 -0.5541  0.2061  0.2061
  702MPD2    C110377   3.809   0.918  10.554 -0.1498 -0.4520  0.4487
  702MPD2    C210378   3.884   1.025  10.523  0.2528  0.3238 -0.2091
  702MPD2    C310379   3.917   1.075  10.397 -0.5646  0.1248  0.3329
  702MPD2    C410380   3.871   1.002  10.291  0.2609 -0.6000  0.0592
  702MPD2    C510381   3.800   0.894  10.316  0.4544 -0.0937  0.5726
  702MPD2     H10382   3.920   1.092  10.600 -0.8602 -1.3858  1.7994
  702MPD2    H110383   3.886   1.040  10.191  0.7175  0.8942  0.6977
  702MPD2    H210384   3.690   0.774  10.446 -0.1526 -0.1021  1.2082
  702MPD2    H310385   3.760   0.847  10.227  0.9825 -0.1893  0.3859
  702MPD2     N10386   3.972   1.205  10.387 -0.1705  0.3879 -0.7031
  702MPD2    H510387   3.982   1.261  10.471  2.4191 -0.6107 -0.3445
  702MPD2    N110388   3.772   0.888  10.690  0.4070 -0.2128  0.4090
  702MPD2    H710389   3.806   0.953  10.760 -1.2268  0.3570  0.6536
  703TMC3    C110390   3.962   1.424  10.317  0.7675 -0.2697  0.4737
  703TMC3    C210391   3.842   1.429  10.377 -0.3658  0.2154  0.2883
  703TMC3    C310392   3.822   1.515  10.483  0.1458 -0.4579 -0.5820
  703TMC3    C410393   4.072   1.491  10.368 -0.2304 -0.4898 -0.5726
  703TMC3    C510394   4.040   1.583  10.464  0.2047 -0.4834  0.2392
  703TMC3    C610395   3.917   1.607  10.525  0.2287 -0.3921  0.1683
  703TMC3     C10396   3.991   1.286  10.278 -0.1295  0.0520  0.5645
  703TMC3     O10397   3.991   1.263  10.161  0.9734 -0.1844  0.7592
  703TMC3     H10398   3.776   1.357  10.330 -0.2341  0.6993 -0.6483
  703TMC3    H110399   4.166   1.493  10.313  0.2629 -0.6071  0.2695
  703TMC3    H210400   3.900   1.673  10.609 -1.6828 -2.6178  1.5399
  703TMC3    C710401   4.145   1.683  10.500  0.0459  1.1680  0.5087
  703TMC3    C810402   3.723   1.481  10.586 -0.2242  0.2216  0.5018
  703TMC3    O110403   4.092   1.795  10.523  0.0747  0.4053 -0.3310
  703TMC3    O210404   3.715   1.548  10.686  0.2615  0.2066  0.2086
  704TMC3    C110405   1.410   3.770  12.463  0.1235 -0.1919 -0.6867
  704TMC3    C210406   1.532   3.822  12.470  0.2830  0.4093  0.3872
  704TMC3    C310407   1.621   3.766  12.553  0.1357  0.0736 -0.5643
  704TMC3    C410408   1.376   3.660  12.543 -0.1194  0.3222 -0.0405
  704TMC3    C510409   1.470   3.601  12.624  0.1311  0.6683  0.1007
  704TMC3    C610410   1.597   3.654  12.630  0.6968  0.4829  0.4378
  704TMC3     C10411   1.316   3.836  12.376 -0.0008  0.6261 -0.2019
  704TMC3     O10412   1.201   3.848  12.405 -0.5014  0.2158  0.5166
  704TMC3     H10413   1.542   3.925  12.436  0.7772 -0.0370 -0.8398
  704TMC3    H110414   1.279   3.614  12.526  0.4051 -0.0072 -2.0678
  704TMC3    H210415   1.681   3.595  12.665 -0.4620 -0.9175  0.8220
  704TMC3    C710416   1.461   3.459  12.651 -0.9039 -0.6699 -0.3588
  704TMC3    C810417   1.757   3.786  12.501  0.2869  0.1332 -0.5937
  704TMC3    O110418   1.564   3.410  12.699 -0.3043 -0.1214  0.0820
  704TMC3    O210419   1.776   3.810  12.383  0.5422 -0.6980 -0.0472
  705MPD2     C10420   1.031   2.368  16.578 -0.5517 -0.0394  0.7723
  705MPD2    C110421   0.924   2.325  16.491 -0.5460 -0.6806 -0.5253
  705MPD2    C210422   0.795   2.308  16.542 -0.0983 -0.6746  0.1398
  705MPD2    C310423   0.773   2.328  16.677  0.2786 -0.3798  0.0864
  705MPD2    C410424   0.871   2.385  16.757 -0.4398 -0.2609 -0.5617
  705MPD2    C510425   0.998   2.406  16.705 -0.4134  0.0457 -0.6886
  705MPD2     H10426   0.729   2.264  16.469 -0.7987 -1.5024  1.2762
  705MPD2    H110427   0.856   2.401  16.863 -0.0156  2.7358 -0.9507
  705MPD2    H210428   1.132   2.385  16.543 -0.0715 -1.4555  1.4885
  705MPD2    H310429   1.085   2.422  16.767 -0.7802 -0.1096 -0.1336
  705MPD2     N10430   0.643   2.312  16.726 -0.1624  0.6100  0.1489
  705MPD2    H510431   0.633   2.325  16.826 -0.9016 -0.4555  0.2192
  705MPD2    N110432   0.935   2.307  16.352 -0.4638 -0.8508  0.1095
  705MPD2    H710433   0.853   2.299  16.292  0.1112  1.3057 -0.9606
  706TMC3    C110434   1.126   2.247  15.931  0.7994 -0.1685  0.1670
  706TMC3    C210435   1.059   2.346  15.879 -0.2077 -0.4084 -0.2466
  706TMC3    C310436   0.967   2.412  15.956  0.1583  0.5157  0.0896
  706TMC3    C410437   1.120   2.220  16.070  0.4534 -0.0743 -0.1390
  706TMC3    C510438   1.037   2.301  16.146 -0.1849 -0.1814 -0.4086
  706TMC3    C610439   0.955   2.396  16.090  1.1160 -0.0776 -0.0115
  706TMC3     C10440   1.200   2.153  15.844  0.4592  0.6016  0.4225
  706TMC3     O10441   1.281   2.074  15.894  0.0330  0.3012 -0.3395
  706TMC3     H10442   1.063   2.365  15.773  3.6017  0.3470  0.0521
  706TMC3    H110443   1.181   2.144  16.117 -0.5703  0.3999  1.9171
  706TMC3    H210444   0.880   2.449  16.147  0.4925 -1.1450  0.1687
  706TMC3    C710445   1.059   2.300  16.287  0.4800  0.0845  0.2827
  706TMC3    C810446   0.895   2.525  15.905  0.5876  0.0772  0.2661
  706TMC3    O110447   1.168   2.269  16.331 -0.2336 -0.3527 -0.4919
  706TMC3    O210448   0.820   2.573  15.988 -0.2867 -0.5706 -0.6852
  707TMC3    C110449   2.526   0.460   1.301  0.1771  0.7185 -0.5641
  707TMC3    C210450   2.623   0.416   1.382 -0.1382 -0.3584  0.3430
  707TMC3    C310451   2.608   0.299   1.458 -0.1839  0.5560  0.1176
  707TMC3    C410452   2.413   0.386   1.293 -0.7197 -0.1294 -0.1549
  707TMC3    C510453   2.392   0.272   1.362  0.0924 -0.7357  0.7082
  707TMC3    C610454   2.490   0.229   1.446 -0.0001  1.1804 -0.0342
  707TMC3     C10455   2.561   0.560   1.208  0.2715  0.7033 -0.1778
  707TMC3     O10456   2.671   0.613   1.230  0.3026  0.5253  0.2494
  707TMC3     H10457   2.719   0.467   1.381 -0.2310 -0.1954 -0.2255
  707TMC3    H110458   2.334   0.431   1.233 -0.5664 -2.9150 -2.4055
  707TMC3    H210459   2.477   0.133   1.495 -0.6321  1.0936 -0.3666
  707TMC3    C710460   2.266   0.196   1.351  0.1097  0.4071  0.5860
  707TMC3    C810461   2.706   0.252   1.556  0.3574  0.0778  0.3014
  707TMC3    O110462   2.254   0.104   1.430 -0.3686 -0.1826  0.5487
  707TMC3    O210463   2.653   0.204   1.652 -0.4007  0.0381  0.1085
  708MPD2     C10464   3.510   0.337  14.201 -0.2277 -0.4029 -0.1260
  708MPD2    C110465   3.479   0.244  14.296 -0.1207  0.5344  0.2002
  708MPD2    C210466   3.574   0.195  14.382  0.6131 -0.0537 -0.1501
  708MPD2    C310467   3.703   0.252  14.380  0.1037  0.5064  0.4884
  708MPD2    C410468   3.741   0.339  14.279  0.0829 -0.0969  0.4133
  708MPD2    C510469   3.640   0.373  14.187 -0.8680  0.1761  0.0145
  708MPD2     H10470   3.547   0.121  14.456 -1.3007 -0.1260 -0.9295
  708MPD2    H110471   3.843   0.371  14.269  0.4724 -1.5875 -0.4777
  708MPD2    H210472   3.437   0.352  14.122 -0.0357  1.3512  0.0369
  708MPD2    H310473   3.662   0.453  14.118  0.1741 -0.3489 -0.2523
  708MPD2     N10474   3.791   0.226  14.485  0.1178  0.8741  0.0607
  708MPD2    H510475   3.881   0.272  14.474  1.8335 -2.6242 -0.7138
  708MPD2    N110476   3.341   0.218  14.303  0.6028  0.1090  0.3049
  708MPD2    H710477   3.281   0.287  14.258  2.0102  1.5413  0.6307
  709TMC3    C110478   3.149   0.111  14.372  0.6945 -0.0167 -0.2041
  709TMC3    C210479   3.081   0.193  14.290 -0.3053  0.5385 -0.5840
  709TMC3    C310480   2.973   0.261  14.342  0.2949 -0.0136  0.2683
  709TMC3    C410481   3.094   0.067  14.484 -0.2642 -0.4564 -0.3207
  709TMC3    C510482   3.004   0.153  14.542  0.1448 -0.8520  0.2375
  709TMC3    C610483   2.933   0.251  14.472  0.2312 -0.2205  0.5729
  709TMC3     C10484   3.296   0.108  14.370 -0.5074 -0.3279  0.3744
  709TMC3     O10485   3.346   0.007  14.417  0.0980 -0.0517  0.3102
  709TMC3     H10486   3.110   0.207  14.186  0.7482 -1.1495 -0.5326
  709TMC3    H110487   3.153   4.721  14.543 -0.3410 -1.3660 -1.3227
  709TMC3    H210488   2.840   0.289  14.512 -0.6310 -2.4778  0.7144
  709TMC3    C710489   3.045   0.197  14.676  0.2600  0.0360 -0.5566
  709TMC3    C810490   2.873   0.311  14.257 -0.5705  0.1744  0.1468
  709TMC3    O110491   3.082   0.309  14.694  0.3264  0.1369 -0.2412
  709TMC3    O210492   2.760   0.266  14.270 -0.2623 -0.1907 -0.1827
  710TMC3    C110493   4.676   2.808   0.594 -0.3062 -1.2425 -0.1609
  710TMC3    C210494   4.711   2.721   0.493 -0.1927  0.0286  0.6106
  710TMC3    C310495   0.077   2.620   0.525 -0.0619 -0.0032 -0.3508
  710TMC3    C410496   0.001   2.796   0.722  0.9067 -0.1279 -0.7159
  710TMC3    C510497   0.098   2.694   0.746  0.1515  0.6043  0.3268
  710TMC3    C610498   0.131   2.605   0.649 -0.1914  0.1235 -0.1432
  710TMC3     C10499   4.570   2.905   0.571  0.2573  0.5208  0.7457
  710TMC3     O10500   4.580   2.963   0.464 -0.6589 -0.4542  0.7171
  710TMC3     H10501   4.680   2.727   0.389  0.9883 -1.3446  0.1779
  710TMC3    H110502   4.692   2.864   0.799 -0.2978 -0.3357 -1.0552
  710TMC3    H210503   0.207   2.531   0.670 -0.5816  0.0282  0.9340
  710TMC3    C710504   0.124   2.646   0.881  0.2261 -0.7466  0.0958
  710TMC3    C810505   0.175   2.594   0.411  0.1625 -0.1493 -0.2418
  710TMC3    O110506   0.150   2.530   0.908 -0.3789  0.1454  0.2639
  710TMC3    O210507   0.181   2.677   0.320  0.4233  0.1873 -0.3228
  711TMC3    C110508   4.663   2.901  14.746  0.9342  0.6189  1.0347
  711TMC3    C210509   4.587   2.977  14.834 -0.0440 -0.0375  0.5442
  711TMC3    C310510   4.651   3.031  14.932  0.2965 -0.3125  0.3304
  711TMC3    C410511   0.076   2.918  14.746 -0.7027 -0.1517 -0.3441
  711TMC3    C510512   0.134   2.972  14.859 -0.9003 -0.5512 -0.3041
  711TMC3    C610513   0.064   3.035  14.953 -0.1324  0.6134 -0.1104
  711TMC3     C10514   4.615   2.776  14.680 -0.3741 -0.8770 -0.1411
  711TMC3     O10515   4.497   2.768  14.666 -0.8939 -0.6242  0.3217
  711TMC3     H10516   4.481   2.990  14.815 -0.4937 -1.9317  1.7978
  711TMC3    H110517   0.139   2.871  14.671 -1.7824  1.2417 -2.1343
  711TMC3    H210518   0.105   3.079  15.043 -0.5655  0.5950  0.0988
  711TMC3    C710519   0.247   2.900  14.913 -0.5461 -0.2883 -0.1395
  711TMC3    C810520   4.577   3.120  15.023 -0.4523  0.3011  0.3214
  711TMC3    O110521   0.266   2.897  15.035  0.0196  0.2601 -0.1505
  711TMC3    O210522   4.492   3.197  14.985  0.0694 -0.0127  0.1882
  712MPD2     C10523   1.199   3.747  14.060 -0.1015  0.2264 -0.1240
  712MPD2    C110524   1.188   3.796  13.933  0.2215  0.1017  0.6917
  712MPD2    C210525   1.202   3.930  13.904 -0.0783  0.5766  0.0552
  712MPD2    C310526   1.233   4.018  14.000  0.1800  0.1240 -0.3144
  712MPD2    C410527   1.249   3.976  14.128 -0.6966  1.2117 -0.4881
  712MPD2    C510528   1.223   3.843  14.157 -0.0535 -0.0657  0.5140
  712MPD2     H10529   1.203   3.963  13.801  0.6878 -3.7079 -1.3385
  712MPD2    H110530   1.267   4.042  14.212 -0.4334  1.1006 -0.4571
  712MPD2    H210531   1.179   3.646  14.096  2.4519 -0.4030 -0.4860
  712MPD2    H310532   1.239   3.824  14.263 -1.7419  0.6988  0.9184
  712MPD2     N10533   1.255   4.154  13.976  0.3437 -0.0914 -0.5131
  712MPD2    H510534   1.283   4.218  14.050  0.4910 -1.5592  0.6983
  712MPD2    N110535   1.164   3.710  13.822  0.0112 -0.4847  0.4118
  712MPD2    H710536   1.186   3.749  13.731 -1.0533 -0.7084  0.0604
  713TMC3    C110537   1.252   4.363  13.856 -0.4176 -0.3224 -0.5693
  713TMC3    C210538   1.374   4.403  13.909 -0.2336  0.0941 -0.2447
  713TMC3    C310539   1.437   4.514  13.874  0.1846  0.5019 -0.2265
  713TMC3    C410540   1.195   4.438  13.760 -0.0568 -0.0397  0.4027
  713TMC3    C510541   1.267   4.549  13.717  1.1294 -0.9079 -0.1855
  713TMC3    C610542   1.385   4.588  13.771 -0.1145  0.4465 -1.1159
  713TMC3     C10543   1.213   4.222  13.864 -0.0739 -0.4092  0.6964
  713TMC3     O10544   1.141   4.184  13.773 -0.3421 -0.4769 -0.2233
  713TMC3     H10545   1.443   4.327  13.945 -0.2393 -0.6561 -1.7959
  713TMC3    H110546   1.103   4.401  13.719  0.3720 -0.6640  0.0071
  713TMC3    H210547   1.431   4.680  13.737 -2.3028  1.7593 -0.4810
  713TMC3    C710548   1.231   4.627  13.596 -0.2835  0.4027 -0.0028
  713TMC3    C810549   1.576   4.530  13.892  0.1848  0.2925 -1.4053
  713TMC3    O110550   1.319   4.689  13.540  0.0241  0.0829  0.1003
  713TMC3    O210551   1.635   4.580  13.800  0.1134  0.7862 -0.0060
  714MPD2     C10552   2.458   3.149   1.354 -0.6439 -0.6332 -0.4871
  714MPD2    C110553   2.540   3.048   1.309  0.3902 -0.0011  0.7841
  714MPD2    C210554   2.487   2.951   1.223 -0.1362  0.3488 -0.2646
  714MPD2    C310555   2.352   2.961   1.189  0.0741  0.6265 -0.4517
  714MPD2    C410556   2.270   3.067   1.231 -0.5618  0.8058  0.3797
  714MPD2    C510557   2.329   3.159   1.311 -0.0252 -0.4393  0.3595
  714MPD2     H10558   2.528   2.864   1.174 -0.8594 -0.5356  0.6823
  714MPD2    H110559   2.169   3.081   1.195 -0.4019 -0.2800 -0.4982
  714MPD2    H210560   2.489   3.227   1.424 -0.4274  0.0719 -1.3660
  714MPD2    H310561   2.272   3.245   1.344 -0.1167 -1.5143  3.0001
  714MPD2     N10562   2.300   2.867   1.100  0.0677 -0.5354  0.1309
  714MPD2    H510563   2.358   2.787   1.078  2.3922  1.2611 -0.2841
  714MPD2    N110564   2.677   3.031   1.353  0.0983  0.2015 -0.0567
  714MPD2    H710565   2.710   3.099   1.420 -1.6474  1.5440 -0.5334
  715TMC3    C110566   2.900   2.941   1.366  0.0108 -0.3855 -0.0207
  715TMC3    C210567   2.999   2.854   1.326 -0.4956 -1.1279 -0.3190
  715TMC3    C310568   3.128   2.866   1.365 -0.1414 -0.1990  0.1551
  715TMC3    C410569   2.945   3.052   1.429  0.7522  0.2075 -0.0730
  715TMC3    C510570   3.072   3.057   1.478  0.2095  0.0162  0.2849
  715TMC3    C610571   3.169   2.963   1.450  0.3035 -0.2224 -0.2796
  715TMC3     C10572   2.768   2.935   1.306  0.7176  0.2054  0.2663
  715TMC3     O10573   2.750   2.837   1.231 -0.4434 -0.2516 -0.8399
  715TMC3     H10574   2.973   2.784   1.248  0.9080 -1.1755 -0.7547
  715TMC3    H110575   2.877   3.134   1.452  1.6375  1.1894 -0.9703
  715TMC3    H210576   3.274   2.976   1.473  0.1383 -2.4863  1.7087
  715TMC3    C710577   3.123   3.159   1.566 -0.6866  0.0190  0.4713
  715TMC3    C810578   3.215   2.760   1.323 -0.3280 -0.5564 -0.1077
  715TMC3    O110579   3.242   3.157   1.596 -0.1330  0.2087 -0.0411
  715TMC3    O210580   3.188   2.702   1.220 -0.3068 -0.0687  0.0372
  716MPD2     C10581   4.399   0.663  10.419  0.2665  0.5944 -0.6547
  716MPD2    C110582   4.315   0.634  10.318  0.2753  0.2537 -0.3990
  716MPD2    C210583   4.270   0.504  10.300 -0.1368 -0.0395 -0.2503
  716MPD2    C310584   4.282   0.402  10.390  0.4936 -0.0115  0.3327
  716MPD2    C410585   4.371   0.433  10.493  0.1747  0.3671  1.7095
  716MPD2    C510586   4.418   0.563  10.507 -0.0411 -0.2359 -0.3233
  716MPD2     H10587   4.211   0.484  10.211 -1.4065  0.6709  0.4360
  716MPD2    H110588   4.408   0.374  10.576  0.9935  0.6018  1.5150
  716MPD2    H210589   4.439   0.763  10.435 -2.2819  1.5066  0.0106
  716MPD2    H310590   4.472   0.583  10.599  2.5761  1.8053 -2.3051
  716MPD2     N10591   4.212   0.279  10.369 -0.0562  0.0015 -0.0742
  716MPD2    H510592   4.167   0.264  10.280 -0.4805  2.9281 -0.3435
  716MPD2    N110593   4.281   0.750  10.241  0.2176  0.6050 -0.6330
  716MPD2    H710594   4.333   0.835  10.258  1.3765 -0.4313  0.9880
  717TMC3    C110595   4.137   0.068  10.410 -0.1523 -0.4217 -0.4724
  717TMC3    C210596   4.123   0.045  10.275 -0.1220  0.1281  0.0583
  717TMC3    C310597   4.036   4.670  10.241  0.6067 -0.2805 -0.7712
  717TMC3    C410598   4.071   4.712  10.501 -0.5769  0.5036 -0.3336
  717TMC3    C510599   4.000   4.604  10.458  0.6606 -0.1899  0.3773
  717TMC3    C610600   3.975   4.586  10.327 -1.1123  0.2047  0.0747
  717TMC3     C10601   4.206   0.185  10.464  0.5708 -0.6995  0.1965
  717TMC3     O10602   4.226   0.195  10.586  0.2772 -0.2137  0.0752
  717TMC3     H10603   4.169   0.117  10.209 -0.7430  0.7879  0.3385
  717TMC3    H110604   4.108   4.713  10.603 -0.4316 -1.9408 -0.3675
  717TMC3    H210605   3.903   4.511  10.294  0.1300 -0.2933 -1.5079
  717TMC3    C710606   3.957   4.501  10.547 -0.2143  0.0649  0.6841
  717TMC3    C810607   4.000   4.665  10.106  0.0439  0.2948 -0.1099
  717TMC3    O110608   3.868   4.427  10.510  0.7976  0.0705  0.0158
  717TMC3    O210609   4.032   0.048  10.050 -0.2125  0.1269 -0.2643
  718MPD2     C10610   3.214   4.720  12.727 -0.2384  0.4099 -0.0555
  718MPD2    C110611   3.127   0.099  12.753  0.6421 -0.4457  0.0334
  718MPD2    C210612   3.000   0.067  12.793  0.1579  0.1102 -0.2586
  718MPD2    C310613   2.956   4.662  12.814  0.2512  0.4171 -0.1768
  718MPD2    C410614   3.040   4.554  12.789 -0.0073  0.0198 -0.3144
  718MPD2    C510615   3.163   4.589  12.732 -0.0311  0.1920 -0.3568
  718MPD2     H10616   2.933   0.146  12.825 -1.8834 -1.6897 -0.0640
  718MPD2    H110617   3.011   4.450  12.798 -1.6064  0.4549 -0.3858
  718MPD2    H210618   3.319   0.007  12.703 -0.0487 -1.2551 -0.0314
  718MPD2    H310619   3.223   4.500  12.713  2.2831  1.1832  2.4070
  718MPD2     N10620   2.820   4.654  12.854  0.4457 -0.3411 -0.3578
  718MPD2    H510621   2.773   0.020  12.855  2.7846  0.8438  0.4247
  718MPD2    N110622   3.172   0.240  12.743 -0.6701  0.6009  0.0403
  718MPD2    H710623   3.260   0.257  12.696  0.3566  0.0135  1.7722
  719TMC3    C110624   3.166   0.472  12.771  0.4765  0.4731 -0.3155
  719TMC3    C210625   3.102   0.575  12.833 -0.4175  0.4936 -0.5238
  719TMC3    C310626   3.066   0.685  12.763  0.0384  0.4870 -0.1734
  719TMC3    C410627   3.196   0.490  12.639  0.3032 -0.1394  0.7566
  719TMC3    C510628   3.190   0.614  12.581 -0.0522  0.1715 -0.1313
  719TMC3    C610629   3.117   0.710  12.641  0.0801 -1.0219 -0.2795
  719TMC3     C10630   3.100   0.346  12.793  0.3852  0.6609 -0.2297
  719TMC3     O10631   3.004   0.347  12.866 -0.0826  0.2892  0.2249
  719TMC3     H10632   3.073   0.564  12.937  1.7591 -2.5787 -0.2473
  719TMC3    H110633   3.220   0.406  12.575 -2.5720 -0.4130  0.0421
  719TMC3    H210634   3.098   0.799  12.582  1.3960 -1.1925 -0.9706
  719TMC3    C710635   3.314   0.656  12.527  0.6947  0.2951  0.2629
  719TMC3    C810636   2.922   0.699  12.763  0.0182 -0.0029 -0.0330
  719TMC3    O110637   3.365   0.586  12.440 -0.7584  0.0618  0.1603
  719TMC3    O210638   2.868   0.785  12.694 -0.1204  0.3018 -0.1523
  720MPD2     C10639   1.252   1.328  14.193 -0.1582  0.1821  0.4870
  720MPD2    C110640   1.372   1.359  14.139  0.7462  0.1388  0.1001
  720MPD2    C210641   1.475   1.379  14.231  0.5585  0.4418 -0.6010
  720MPD2    C310642   1.456   1.388  14.369  0.6361  0.2725  0.1562
  720MPD2    C410643   1.333   1.345  14.416  0.5299 -0.0962  0.8942
  720MPD2    C510644   1.232   1.313  14.327 -0.5437  0.3795 -0.1011
  720MPD2     H10645   1.575   1.399  14.195  0.3275  0.7376 -1.0883
  720MPD2    H110646   1.302   1.353  14.520  1.3325  2.3600  0.9537
  720MPD2    H210647   1.166   1.308  14.130  1.5243 -2.1087 -1.0888
  720MPD2    H310648   1.135   1.294  14.371 -0.4240 -1.4062 -0.6268
  720MPD2     N10649   1.565   1.425  14.456  0.2349 -0.4906  0.5851
  720MPD2    H510650   1.652   1.452  14.412 -2.5216  1.4400 -3.5721
  720MPD2    N110651   1.402   1.356  13.999  0.2407 -0.2488  0.1984
  720MPD2    H710652   1.498   1.371  13.971 -0.5928  2.1706 -1.3052
  721TMC3    C110653   1.678   1.475  14.665  0.5621  0.0095 -0.3154
  721TMC3    C210654   1.669   1.519  14.793  0.4193  0.0834 -0.0426
  721TMC3    C310655   1.783   1.554  14.855 -0.5761 -0.0878 -0.0840
  721TMC3    C410656   1.800   1.455  14.598 -0.2972 -0.2874  0.1385
  721TMC3    C510657   1.912   1.473  14.677  0.3581 -0.2743 -0.3463
  721TMC3    C610658   1.904   1.522  14.800 -0.0078  0.2915 -0.4797
  721TMC3     C10659   1.558   1.430  14.597  0.1581 -0.4162  0.5567
  721TMC3     O10660   1.462   1.403  14.668 -0.2188  0.3651  0.3803
  721TMC3     H10661   1.571   1.535  14.835 -0.7342 -1.3832 -2.1906
  721TMC3    H110662   1.806   1.418  14.497 -0.8567  0.8888 -0.3304
  721TMC3    H210663   1.993   1.547  14.856 -1.1312  1.3679  0.8330
  721TMC3    C710664   2.042   1.413  14.627  0.3161  0.0735 -0.1336
  721TMC3    C810665   1.785   1.580  14.997 -0.3357 -0.7139 -0.3660
  721TMC3    O110666   2.054   1.388  14.511  0.2201  0.2323 -0.4681
  721TMC3    O210667   1.890   1.624  15.039 -0.0639 -0.0576  0.1464
  722MPD2     C10668   0.046   4.530  13.499  0.0644  0.4365  0.2588
  722MPD2    C110669   0.003   4.656  13.450  0.5648 -0.2655  0.7506
  722MPD2    C210670   4.596   4.680  13.417 -0.3591 -0.5386  0.3010
  722MPD2    C310671   4.505   4.573  13.419 -0.2780 -0.9642 -0.0697
  722MPD2    C410672   4.547   4.450  13.445 -0.4140 -0.1210  0.5081
  722MPD2    C510673   4.676   4.429  13.486  0.5706  0.4768  0.2116
  722MPD2     H10674   4.566   0.051  13.373  2.4382 -0.6346 -1.7611
  722MPD2    H110675   4.474   4.370  13.447  0.4281 -0.9881 -2.0843
  722MPD2    H210676   0.147   4.508  13.531  0.6549  2.1296 -0.4209
  722MPD2    H310677   4.713   4.341  13.537  2.0879  1.9747  1.6760
  722MPD2     N10678   4.371   4.591  13.372 -0.8796  0.0540 -0.5411
  722MPD2    H510679   4.310   4.510  13.382  0.8654 -0.9990  1.3777
  722MPD2    N110680   0.090   0.042  13.440 -0.6690 -0.4374  0.6897
  722MPD2    H710681   0.043   0.128  13.412  1.3555  0.1597 -0.8390
  723TMC3    C110682   4.176   4.685  13.294 -0.6905  0.7344 -0.7368
  723TMC3    C210683   4.176   4.597  13.189  0.0107 -0.0855  0.1246
  723TMC3    C310684   4.083   4.612  13.091  0.6458  0.1036  0.0495
  723TMC3    C410685   4.081   0.052  13.306 -0.0327  0.1106 -0.2192
  723TMC3    C510686   3.990   0.068  13.205  0.7334  0.1088  0.1651
  723TMC3    C610687   3.987   4.710  13.097  0.4182  0.6504  0.2018
  723TMC3     C10688   4.303   4.711  13.359 -0.3253  0.0891  0.4061
  723TMC3     O10689   4.330   0.096  13.412 -0.5103  0.6526  0.1734
  723TMC3     H10690   4.267   4.545  13.162 -0.2205  0.1473 -1.1296
  723TMC3    H110691   4.077   0.120  13.391  2.3037 -0.2633  0.1847
  723TMC3    H210692   3.913   4.724  13.019  0.3518 -4.2602 -0.5899
  723TMC3    C710693   3.911   0.187  13.199 -0.2417 -0.2474  0.0202
  723TMC3    C810694   4.115   4.578  12.952  0.2069 -0.6443 -0.3001
  723TMC3    O110695   3.820   0.190  13.117  0.3783  0.7139  0.8580
  723TMC3    O210696   4.071   4.652  12.869  0.4131 -0.3072  0.1898
  724TMC3    C110697   0.974   3.032  10.933  0.6087 -0.0901 -0.2562
  724TMC3    C210698   0.881   3.007  10.840 -0.4162 -0.0406 -0.2558
  724TMC3    C310699   0.903   3.043  10.710  0.4347  0.1611  0.0653
  724TMC3    C410700   1.066   3.127  10.908  1.2705  0.3120 -0.2384
  724TMC3    C510701   1.069   3.187  10.783 -0.3086  0.9269  0.0163
  724TMC3    C610702   1.000   3.138  10.676 -0.9344  0.4713 -0.0440
  724TMC3     C10703   0.949   3.000  11.068  0.3943 -0.0874 -0.2813
  724TMC3     O10704   0.984   3.084  11.150  0.4320 -0.2858 -0.2908
  724TMC3     H10705   0.821   2.918  10.856 -0.8099  0.3909  0.6881
  724TMC3    H110706   1.132   3.149  10.991  0.5198 -0.4748  0.5609
  724TMC3    H210707   1.007   3.180  10.576  0.5382  0.2164 -0.0453
  724TMC3    C710708   1.165   3.297  10.755  0.1868 -0.4955 -0.1152
  724TMC3    C810709   0.794   3.012  10.615  0.2775  0.0514 -0.2272
  724TMC3    O110710   1.173   3.337  10.639  0.5582 -0.6234 -0.2728
  724TMC3    O210711   0.735   2.910  10.646 -0.0770 -0.0414 -0.2055
  725TMC3    C110712   2.013   1.612  13.184  0.1977  0.0343  0.3238
  725TMC3    C210713   1.880   1.614  13.159 -0.5428  0.1612 -1.2314
  725TMC3    C310714   1.829   1.511  13.083 -0.5363 -0.2452  0.2364
  725TMC3    C410715   2.101   1.551  13.098  0.5626  0.4949 -0.1425
  725TMC3    C510716   2.050   1.456  13.014 -0.3122  0.2653  0.2196
  725TMC3    C610717   1.918   1.426  13.013 -0.2839  0.1670  0.1434
  725TMC3     C10718   2.060   1.737  13.240  0.5073 -0.2693 -0.0881
  725TMC3     O10719   2.158   1.793  13.190 -0.2759  0.3912 -0.2477
  725TMC3     H10720   1.807   1.661  13.223 -1.2057 -1.8813 -0.4818
  725TMC3    H110721   2.206   1.574  13.092  0.9095 -0.5295  2.2199
  725TMC3    H210722   1.874   1.357  12.943 -0.0836  1.0055 -0.8056
  725TMC3    C710723   2.150   1.378  12.943  0.2186  0.5451  0.2961
  725TMC3    C810724   1.714   1.538  12.996  0.2793 -0.1183 -0.2131
  725TMC3    O110725   2.255   1.425  12.902 -0.2041 -0.3330 -0.1694
  725TMC3    O210726   1.628   1.451  13.000  0.0393  0.2028  0.1511
  726MPD2     C10727   0.230   3.039  11.192  0.5689  0.6052 -0.3356
  726MPD2    C110728   0.170   3.133  11.111 -0.3443 -0.0371 -0.4912
  726MPD2    C210729   0.041   3.114  11.066 -0.6327  0.1343  0.0264
  726MPD2    C310730   4.692   2.999  11.096  0.0035 -0.0940  0.9270
  726MPD2    C410731   0.026   2.907  11.170 -0.6650 -0.2485  0.0501
  726MPD2    C510732   0.157   2.926  11.214  0.5217  0.5478  0.4023
  726MPD2     H10733   4.723   3.187  10.998  0.4020  0.8721  0.1829
  726MPD2    H110734   4.699   2.816  11.199 -0.9749  0.0248  0.3683
  726MPD2    H210735   0.328   3.046  11.237  0.0847 -0.5775  0.9242
  726MPD2    H310736   0.206   2.846  11.268  0.4628  0.3106  0.1028
  726MPD2     N10737   4.549   2.985  11.070  0.4813  0.3180  0.5797
  726MPD2    H510738   4.492   2.907  11.103 -1.3642  1.5531  0.2794
  726MPD2    N110739   0.231   3.246  11.060  0.0416  0.2014  0.1174
  726MPD2    H710740   0.173   3.302  10.998  1.7464 -1.1443 -2.7047
  727TMC3    C110741   0.397   3.409  11.027 -0.0014 -0.0688 -0.4429
  727TMC3    C210742   0.499   3.484  11.086  0.0164  0.0306 -0.4924
  727TMC3    C310743   0.520   3.611  11.045  0.3892 -0.3221 -0.7454
  727TMC3    C410744   0.336   3.444  10.911 -0.1632  0.0327  0.0076
  727TMC3    C510745   0.376   3.570  10.865  0.3986 -0.1309 -1.0053
  727TMC3    C610746   0.459   3.658  10.939  0.4193  0.0141  0.2010
  727TMC3     C10747   0.361   3.281  11.091  0.4418 -0.8130 -0.5070
  727TMC3     O10748   0.434   3.241  11.181 -0.6862 -0.6880  0.3584
  727TMC3     H10749   0.571   3.434  11.150 -0.2875  1.2477  0.8163
  727TMC3    H110750   0.273   3.374  10.857  0.6129 -2.1281  1.8853
  727TMC3    H210751   0.472   3.762  10.911 -1.2321  0.0166 -0.5820
  727TMC3    C710752   0.317   3.621  10.744 -1.1188  0.0769 -0.1188
  727TMC3    C810753   0.647   3.674  11.073 -0.2185 -0.2674 -0.4428
  727TMC3    O110754   0.229   3.547  10.700 -0.6141 -0.3005  0.0443
  727TMC3    O210755   0.701   3.719  10.975  0.8002 -0.3779 -0.1689
  728TMC3    C110756   3.955   1.737  15.583 -0.1973  0.2068  0.2242
  728TMC3    C210757   4.068   1.666  15.582  1.0932 -0.2449  0.4520
  728TMC3    C310758   4.122   1.630  15.465 -0.1900  0.4825 -0.3971
  728TMC3    C410759   3.891   1.778  15.475 -0.0627  0.2892 -0.2185
  728TMC3    C510760   3.948   1.746  15.354 -0.1524  0.4619  0.5925
  728TMC3    C610761   4.059   1.669  15.346  0.6676  0.0911 -0.5282
  728TMC3     C10762   3.866   1.705  15.694  0.2175  0.0215 -0.0942
  728TMC3     O10763   3.908   1.730  15.810  0.3396  0.2684 -0.5197
  728TMC3     H10764   4.112   1.635  15.676 -1.7828 -3.3367  0.7676
  728TMC3    H110765   3.796   1.831  15.479  1.2459  2.4204  3.4644
  728TMC3    H210766   4.108   1.649  15.251  3.1015  2.4688  0.2163
  728TMC3    C710767   3.854   1.753  15.240  0.2571 -0.6493  0.0706
  728TMC3    C810768   4.239   1.539  15.466 -0.1656  0.0440 -0.2198
  728TMC3    O110769   3.737   1.754  15.272  0.0699  0.4647  0.0468
  728TMC3    O210770   4.246   1.481  15.355 -0.1810 -0.3310  0.0321
  729MPD2     C10771   1.201   2.793  16.465 -0.0987  0.1794  0.3064
  729MPD2    C110772   1.314   2.793  16.534  0.4725 -0.0826  0.1817
  729MPD2    C210773   1.312   2.764  16.674 -0.5874 -0.0595 -0.5354
  729MPD2    C310774   1.194   2.741  16.741  0.4492  0.3124 -0.0835
  729MPD2    C410775   1.072   2.756  16.666  0.4101 -0.0505 -0.0903
  729MPD2    C510776   1.083   2.767  16.526 -1.1076 -0.4780 -0.0696
  729MPD2     H10777   1.404   2.754  16.731  0.3705  0.7249 -1.9538
  729MPD2    H110778   0.972   2.744  16.707  1.3057  1.7213  2.6160
  729MPD2    H210779   1.199   2.816  16.359  0.3103 -1.2917 -0.0098
  729MPD2    H310780   0.992   2.765  16.468 -1.6043 -2.7616  0.7919
  729MPD2     N10781   1.181   2.731  16.886 -0.4609  0.4468 -0.3895
  729MPD2    H510782   1.084   2.737  16.916  0.6233  0.0851  3.1929
  729MPD2    N110783   1.427   2.834  16.464  0.1104 -0.0207 -0.0373
  729MPD2    H710784   1.414   2.878  16.373 -0.8935  1.3515  0.7776
  730TMC3    C110785   1.245   2.756  17.117  0.6101 -0.1208 -0.2114
  730TMC3    C210786   1.327   2.731  17.220 -0.0640 -0.5889  0.0584
  730TMC3    C310787   1.297   2.776  17.341 -0.2350  0.5864  0.0006
  730TMC3    C410788   1.144   2.852  17.120  0.5677  0.1840  0.4746
  730TMC3    C510789   1.130   2.903  17.245  0.0798  0.1044 -0.1645
  730TMC3    C610790   1.191   2.861  17.360 -0.4490 -0.7887 -0.1551
  730TMC3     C10791   1.285   2.712  16.977 -0.9494  0.4131  0.1211
  730TMC3     O10792   1.396   2.661  16.966 -0.0978  0.1514  0.1624
  730TMC3     H10793   1.407   2.658  17.208  0.2444 -0.6326  2.4733
  730TMC3    H110794   1.108   2.905  17.032 -1.3532 -1.2357  0.4084
  730TMC3    H210795   1.176   2.914  17.454 -0.9835  2.4132 -2.0164
  730TMC3    C710796   1.130   3.049  17.244  0.2795  0.4037 -0.5103
  730TMC3    C810797   1.421   2.810  17.412  0.0033  0.3060  0.3510
  730TMC3    O110798   1.244   3.082  17.235  0.5849  0.5421 -0.5236
  730TMC3    O210799   1.488   2.725  17.472  0.0512 -0.3926  0.2176
  731MPD2     C10800   1.358   1.547  12.213 -0.1066 -0.6606 -0.2251
  731MPD2    C110801   1.486   1.495  12.215 -0.6277 -0.4764  0.4473
  731MPD2    C210802   1.521   1.395  12.301 -0.0209 -0.4422  0.1637
  731MPD2    C310803   1.422   1.356  12.389  0.2849 -1.2471  0.1359
  731MPD2    C410804   1.296   1.406  12.394 -0.3375 -0.6574  0.3739
  731MPD2    C510805   1.263   1.499  12.295 -1.0830 -0.3005 -0.4807
  731MPD2     H10806   1.625   1.364  12.300  0.0388 -0.2691  1.1937
  731MPD2    H110807   1.227   1.371  12.470 -0.0851 -1.2982  0.3047
  731MPD2    H210808   1.338   1.611  12.127  0.0130  0.5639  0.6602
  731MPD2    H310809   1.159   1.519  12.271 -1.1699 -1.0297 -0.6988
  731MPD2     N10810   1.452   1.255  12.485 -0.1187 -0.2849 -0.2183
  731MPD2    H510811   1.372   1.225  12.540 -0.3630  3.2684  1.4043
  731MPD2    N110812   1.573   1.537  12.111  0.0520  0.2604  0.4484
  731MPD2    H710813   1.525   1.597  12.044  0.7114  0.2136 -0.0665
  732TMC3    C110814   1.755   1.583  11.968 -0.3208 -0.1519  0.0138
  732TMC3    C210815   1.662   1.626  11.877  0.2546 -0.1796 -0.1140
  732TMC3    C310816   1.701   1.657  11.747  0.8818 -0.2071  0.8897
  732TMC3    C410817   1.883   1.561  11.927 -0.4082 -0.1950 -0.3339
  732TMC3    C510818   1.923   1.586  11.797  1.0463  0.5248  0.1017
  732TMC3    C610819   1.833   1.623  11.709 -0.2076 -0.0654  0.2987
  732TMC3     C10820   1.708   1.519  12.092 -0.8682 -0.0648  0.5031
  732TMC3     O10821   1.780   1.453  12.168 -0.3430  0.0248  0.0603
  732TMC3     H10822   1.560   1.654  11.898  0.6567  1.3051 -0.1187
  732TMC3    H110823   1.956   1.538  12.004 -0.7168  2.6036  0.8214
  732TMC3    H210824   1.867   1.637  11.607  1.8211  0.0070  0.9908
  732TMC3    C710825   2.048   1.542  11.744 -0.7674  0.5782  0.2998
  732TMC3    C810826   1.593   1.625  11.654  0.4802  0.5292  0.1892
  732TMC3    O110827   2.071   1.545  11.623 -0.3658  0.3749  0.4870
  732TMC3    O210828   1.478   1.644  11.686  0.1924 -0.2935 -0.0953
  733TMC3    C110829   2.391   4.549  12.946  0.7634  0.1626 -0.0093
  733TMC3    C210830   2.518   4.503  12.941 -0.3969  0.4221 -0.2502
  733TMC3    C310831   2.604   4.590  12.886 -0.2652  0.0997 -0.1917
  733TMC3    C410832   2.355   4.678  12.912  0.8393 -0.1930 -0.4772
  733TMC3    C510833   2.444   0.039  12.864 -0.1245 -0.1309  0.2219
  733TMC3    C610834   2.577   4.721  12.844  0.4057  0.4668 -0.0204
  733TMC3     C10835   2.287   4.473  13.005 -0.5085  0.3527  0.3494
  733TMC3     O10836   2.179   4.528  13.010  0.1397 -0.3507 -0.0728
  733TMC3     H10837   2.534   4.399  12.966 -3.3025  0.1683  0.5555
  733TMC3    H110838   2.252   4.713  12.918  1.6102  1.4767  2.6935
  733TMC3    H210839   2.636   0.063  12.781  1.5248 -1.3103 -0.8124
  733TMC3    C710840   2.426   0.183  12.864  0.1688 -0.0034  0.1919
  733TMC3    C810841   2.741   4.543  12.882  0.5613 -0.3055  0.0543
  733TMC3    O110842   2.312   0.219  12.850  0.2675  1.0152  0.2595
  733TMC3    O210843   2.764   4.424  12.890 -0.1476  0.3616 -0.1425
  734MPD2     C10844   0.185   1.521  12.253 -0.3066 -0.4316 -0.1705
  734MPD2    C110845   0.056   1.577  12.249  0.4672  0.5785  0.2031
  734MPD2    C210846   0.037   1.682  12.161 -0.4803 -0.2103 -0.6306
  734MPD2    C310847   0.136   1.745  12.086  0.3787  0.2478  0.0522
  734MPD2    C410848   0.263   1.689  12.090  0.6469 -0.1033  0.1631
  734MPD2    C510849   0.280   1.583  12.176 -0.4739  0.6161  0.0930
  734MPD2     H10850   4.660   1.721  12.158 -0.5784 -0.5033 -1.2714
  734MPD2    H110851   0.339   1.720  12.020 -0.9612 -1.0977 -2.0201
  734MPD2    H210852   0.204   1.428  12.306  3.0199  0.5157  0.2743
  734MPD2    H310853   0.378   1.537  12.183 -0.0710  1.8357  2.6525
  734MPD2     N10854   0.095   1.860  12.012 -0.6492  0.1731  0.2945
  734MPD2    H510855   4.723   1.891  12.013 -1.3580 -2.0585 -0.6697
  734MPD2    N110856   4.675   1.499  12.300 -0.4053 -0.5358 -0.0954
  734MPD2    H710857   4.702   1.408  12.338  0.3808 -0.3023 -0.0996
  735TMC3    C110858   4.458   1.425  12.325  0.4285  0.3242  0.6263
  735TMC3    C210859   4.330   1.461  12.272  0.4599  0.8231 -0.1597
  735TMC3    C310860   4.266   1.375  12.196  0.2505  0.4566  0.5345
  735TMC3    C410861   4.503   1.299  12.308  0.5872 -0.0551  0.5819
  735TMC3    C510862   4.432   1.216  12.230 -0.1107  0.7320  0.1142
  735TMC3    C610863   4.311   1.250  12.169  0.6680  0.4857  0.8976
  735TMC3     C10864   4.548   1.537  12.317 -0.1381  0.2176  0.3153
  735TMC3     O10865   4.489   1.642  12.296  0.0860 -0.4682  0.6879
  735TMC3     H10866   4.272   1.544  12.310 -0.6960 -0.0168 -0.0746
  735TMC3    H110867   4.582   1.258  12.370  1.0071 -0.9933 -0.5822
  735TMC3    H210868   4.272   1.175  12.101  2.6440  1.2623 -1.0785
  735TMC3    C710869   4.505   1.108  12.167 -0.9175  0.1796 -0.5492
  735TMC3    C810870   4.214   1.434  12.077 -0.0647  0.1503  0.4287
  735TMC3    O110871   4.450   1.037  12.085  0.0503 -0.4387 -0.0661
  735TMC3    O210872   4.132   1.368  12.015  0.4025 -0.2699  0.1428
  736MPD2     C10873   4.713   0.917  12.062 -0.0267  1.3528  0.0761
  736MPD2    C110874   0.016   1.036  12.127  0.6890  0.3928  0.7521
  736MPD2    C210875   0.143   1.084  12.137  0.1011 -0.3976  0.4587
  736MPD2    C310876   0.249   0.997  12.094 -0.1446 -0.8189 -0.3312
  736MPD2    C410877   0.216   0.875  12.045 -0.8374 -0.2834  0.0414
  736MPD2    C510878   0.093   0.834  12.014  0.1096 -0.5299 -0.5151
  736MPD2     H10879   0.157   1.187  12.168  0.4734 -0.7799  1.5261
  736MPD2    H110880   0.293   0.809  12.008 -1.0094 -0.9623  0.8739
  736MPD2    H210881   4.616   0.871  12.066 -0.2786  2.0196  1.7401
  736MPD2    H310882   0.069   0.737  11.971  2.1460 -0.2680 -2.2203
  736MPD2     N10883   0.384   1.036  12.084 -0.2599 -0.6945  0.0105
  736MPD2    H510884   0.449   0.963  12.058 -0.1216  0.0099 -1.6640
  736MPD2    N110885   4.640   1.120  12.172  0.2165  0.0650  0.1216
  736MPD2    H710886   4.674   1.201  12.222 -0.3688  0.0562  0.5263
  737TMC3    C110887   0.565   1.181  12.068  0.0085 -0.2945 -0.2086
  737TMC3    C210888   0.593   1.317  12.064 -0.7551 -0.1144  0.3479
  737TMC3    C310889   0.672   1.374  11.970 -0.2688  0.3962 -0.1322
  737TMC3    C410890   0.610   1.108  11.967 -0.2759  0.4234  0.1532
  737TMC3    C510891   0.694   1.168  11.874  0.3671 -0.8047 -0.6666
  737TMC3    C610892   0.725   1.296  11.866  0.4270  0.6257  0.5871
  737TMC3     C10893   0.433   1.156  12.123  0.2584 -0.9683 -0.7578
  737TMC3     O10894   0.383   1.252  12.179 -0.2358  0.4138 -0.5615
  737TMC3     H10895   0.563   1.379  12.148 -1.2804 -0.7249  0.6152
  737TMC3    H110896   0.601   1.000  11.963 -0.2334  0.4784 -1.7000
  737TMC3    H210897   0.784   1.338  11.785 -0.4295  1.0113  0.1655
  737TMC3    C710898   0.749   1.073  11.776 -0.5181 -1.0728 -0.5220
  737TMC3    C810899   0.674   1.522  11.970  1.4725  0.1555 -0.3249
  737TMC3    O110900   0.730   0.955  11.793  0.4286  0.2613  0.0812
  737TMC3    O210901   0.655   1.594  12.068  0.2710  0.3929 -0.3376
  738MPD2     C10902   0.149   0.192  14.923  0.0149 -0.3047  0.1372
  738MPD2    C110903   0.262   0.204  14.994 -0.2707 -0.0805 -0.2684
  738MPD2    C210904   0.365   0.284  14.957 -0.4835 -0.2479 -0.6764
  738MPD2    C310905   0.346   0.367  14.845 -0.2355  0.6093 -0.2675
  738MPD2    C410906   0.232   0.349  14.768  0.3604 -0.0665 -0.3465
  738MPD2    C510907   0.127   0.265  14.806 -0.4219 -0.0814  0.1955
  738MPD2     H10908   0.450   0.293  15.024 -0.8935 -0.7838 -0.0807
  738MPD2    H110909   0.219   0.402  14.674  0.9714 -0.1928 -0.5019
  738MPD2    H210910   0.056   0.149  14.958 -0.2185  1.5627  1.8449
  738MPD2    H310911   0.042   0.256  14.740 -1.5422  1.4026  1.4380
  738MPD2     N10912   0.440   0.469  14.802  0.5288 -0.0618 -0.4571
  738MPD2    H510913   0.410   0.518  14.718  0.1697 -0.5191 -0.5956
  738MPD2    N110914   0.285   0.127  15.109  0.2064  0.3849  0.0234
  738MPD2    H710915   0.379   0.131  15.146  0.1087 -0.3985  0.3647
  739TMC3    C110916   0.633   0.605  14.820 -0.5694 -0.6497  0.2710
  739TMC3    C210917   0.616   0.639  14.691  0.1395  0.4925 -0.3529
  739TMC3    C310918   0.642   0.772  14.651  0.9975 -0.5190 -0.3183
  739TMC3    C410919   0.684   0.693  14.908 -0.3608  0.3279  0.7546
  739TMC3    C510920   0.693   0.829  14.870  0.7429  0.3790 -0.0327
  739TMC3    C610921   0.678   0.866  14.737  0.0077 -0.1869  0.3805
  739TMC3     C10922   0.542   0.507  14.885  0.0543  0.0894  0.3898
  739TMC3     O10923   0.571   0.491  15.000  0.5531 -0.1266  0.1119
  739TMC3     H10924   0.591   0.570  14.611  0.0187 -0.2692  0.3341
  739TMC3    H110925   0.704   0.666  15.012 -1.1637  0.2792  0.8951
  739TMC3    H210926   0.690   0.972  14.722  3.0553 -0.7669 -1.2562
  739TMC3    C710927   0.706   0.933  14.973  0.8084 -0.2802  0.4152
  739TMC3    C810928   0.667   0.804  14.513  0.0226  0.2915 -0.2882
  739TMC3    O110929   0.712   1.053  14.941 -0.1313  0.5689  0.0384
  739TMC3    O210930   0.625   0.725  14.430  0.0737 -0.3894 -0.6315
  740TMC3    C110931   1.182   1.845  14.269  0.4911 -0.3039  0.0145
  740TMC3    C210932   1.216   1.807  14.399 -0.5909 -0.8012 -0.7358
  740TMC3    C310933   1.345   1.758  14.420  0.7855 -0.5019 -0.6554
  740TMC3    C410934   1.260   1.828  14.158 -0.3662  0.0942  1.0738
  740TMC3    C510935   1.391   1.793  14.188 -0.2398 -0.4200 -0.0640
  740TMC3    C610936   1.435   1.766  14.319 -0.2168  0.0163  0.4787
  740TMC3     C10937   1.047   1.883  14.246 -0.1606  0.0677  0.1100
  740TMC3     O10938   1.024   1.956  14.154 -0.5648  0.1633 -0.3260
  740TMC3     H10939   1.165   1.833  14.491  2.3281 -1.2969  1.0220
  740TMC3    H110940   1.222   1.826  14.057 -1.9311 -0.3301  1.6619
  740TMC3    H210941   1.538   1.747  14.346  0.0608 -1.3923 -1.5959
  740TMC3    C710942   1.476   1.725  14.088  0.0568 -0.2378 -0.2539
  740TMC3    C810943   1.402   1.773  14.553  0.4943  0.0385  0.0926
  740TMC3    O110944   1.575   1.668  14.129 -0.2405 -0.2032 -0.4050
  740TMC3    O210945   1.523   1.784  14.563 -0.0564  0.3791  0.6879
  741TMC3    C110946   0.294   1.105  13.706  0.4384 -0.6641  0.3918
  741TMC3    C210947   0.219   1.034  13.797  0.1390  0.0069 -0.5840
  741TMC3    C310948   0.277   0.907  13.840 -0.2441 -0.1182  0.2295
  741TMC3    C410949   0.413   1.054  13.655  0.3963 -0.5678 -0.0066
  741TMC3    C510950   0.451   0.928  13.693 -0.1342 -0.0812  0.6123
  741TMC3    C610951   0.389   0.855  13.785 -0.0754 -0.3689  0.6985
  741TMC3     C10952   0.249   1.236  13.668 -0.8426  0.0392  0.1437
  741TMC3     O10953   0.325   1.323  13.631  0.0515 -0.1208  0.1504
  741TMC3     H10954   0.137   1.086  13.845  1.3051  0.5356  0.7919
  741TMC3    H110955   0.460   1.107  13.573  0.4967 -3.4856 -1.8614
  741TMC3    H210956   0.432   0.759  13.812  0.0536 -0.1657  1.2194
  741TMC3    C710957   0.547   0.851  13.615  0.1530  0.0636  0.2272
  741TMC3    C810958   0.188   0.816  13.916  0.0603 -0.2135  0.3487
  741TMC3    O110959   0.542   0.731  13.634 -0.2579 -0.5007  0.1766
  741TMC3    O210960   0.068   0.837  13.900 -0.5001  0.1320  0.3264
  742TMC3    C110961   0.405   3.832  15.374 -0.1438  0.6288 -0.1859
  742TMC3    C210962   0.335   3.829  15.255  0.3534  0.3660  0.1472
  742TMC3    C310963   0.383   3.756  15.156 -0.2574 -0.0290 -0.7525
  742TMC3    C410964   0.516   3.755  15.397  0.0903  0.4357 -0.4121
  742TMC3    C510965   0.565   3.679  15.293  0.2711  0.2932  0.4789
  742TMC3    C610966   0.501   3.688  15.176  0.9935 -0.0625 -0.2075
  742TMC3     C10967   0.351   3.923  15.467 -0.0641 -0.7198  0.0692
  742TMC3     O10968   0.278   4.016  15.436 -0.1069  0.4757  0.2613
  742TMC3     H10969   0.257   3.902  15.240  0.7767  0.5348 -1.2426
  742TMC3    H110970   0.573   3.769  15.488  0.9430 -2.6527 -0.4896
  742TMC3    H210971   0.536   3.630  15.091  0.1208  0.9982 -1.2901
  742TMC3    C710972   0.709   3.651  15.290 -0.0459  0.5557 -0.1363
  742TMC3    C810973   0.329   3.767  15.020  0.2774 -0.5105  0.5260
  742TMC3    O110974   0.779   3.669  15.190 -0.2462 -0.0275  0.2387
  742TMC3    O210975   0.399   3.714  14.933  0.3112 -0.0416 -0.1307
  743MPD2     C10976   3.896   0.088   1.922 -0.0796 -0.1572  0.3906
  743MPD2    C110977   3.914   0.210   1.855  0.3387 -0.4297  0.2124
  743MPD2    C210978   3.990   0.317   1.910 -0.2387  0.3453 -0.1722
  743MPD2    C310979   4.054   0.291   2.034  1.1907  0.0557  0.0483
  743MPD2    C410980   4.061   0.160   2.082  0.6126 -0.1731 -0.3239
  743MPD2    C510981   3.977   0.064   2.034  0.7279 -0.2016  0.5417
  743MPD2     H10982   3.990   0.417   1.868  1.9300  0.1981 -0.4896
  743MPD2    H110983   4.119   0.122   2.166 -2.2404 -0.2309  1.6276
  743MPD2    H210984   3.829   0.008   1.891  0.6098 -1.3276  1.9104
  743MPD2    H310985   3.963   4.696   2.089  0.0797  0.4587  1.4830
  743MPD2     N10986   4.112   0.398   2.101 -0.1116 -0.1472 -0.4229
  743MPD2    H510987   4.091   0.491   2.065  1.0260 -0.4813 -1.9271
  743MPD2    N110988   3.837   0.221   1.734  0.5360 -0.3738  0.0383
  743MPD2    H710989   3.778   0.141   1.712 -2.3150  0.9052  3.1172
  744TMC3    C110990   3.740   0.320   1.550 -1.3244 -0.7222 -0.3871
  744TMC3    C210991   3.613   0.264   1.575 -0.2653 -0.7522  0.2256
  744TMC3    C310992   3.527   0.279   1.472  1.1325  0.0787  0.6711
  744TMC3    C410993   3.774   0.379   1.432  0.3369 -0.4693 -0.5282
  744TMC3    C510994   3.685   0.374   1.328  0.3728  0.6424 -0.3896
  744TMC3    C610995   3.559   0.329   1.353  0.1417 -0.1222  0.3051
  744TMC3     C10996   3.844   0.328   1.650 -0.0611  0.1329  0.5138
  744TMC3     O10997   3.936   0.409   1.640 -0.0038  0.3599  0.8591
  744TMC3     H10998   3.589   0.223   1.672 -1.6271 -1.9428 -0.6123
  744TMC3    H110999   3.868   0.433   1.427 -0.3013  0.3023 -3.9309
  744TMC3    H211000   3.483   0.337   1.275  2.4790 -2.8519 -2.2466
  744TMC3    C711001   3.728   0.395   1.189 -0.2979 -0.2128 -0.3764
  744TMC3    C811002   3.377   0.285   1.506 -0.2237 -0.0111 -0.0474
  744TMC3    O111003   3.644   0.420   1.105  0.1736 -0.4926 -0.1032
  744TMC3    O211004   3.314   0.360   1.431 -0.4016  0.6755 -0.0564
  745TMC3    C111005   1.078   3.518  13.708 -0.8232 -0.5867  0.1962
  745TMC3    C211006   0.954   3.455  13.722 -0.1340  0.4762 -0.4041
  745TMC3    C311007   0.875   3.435  13.610 -0.0560 -0.1254  0.0854
  745TMC3    C411008   1.133   3.551  13.584  0.1347  0.4421  0.3922
  745TMC3    C511009   1.058   3.504  13.476 -0.1105 -0.0718 -0.1248
  745TMC3    C611010   0.936   3.440  13.488 -0.4877  0.2479 -0.6813
  745TMC3     C11011   1.121   3.579  13.837  0.0941 -0.1945 -0.9153
  745TMC3     O11012   1.078   3.528  13.942  0.4821 -1.0188 -0.6290
  745TMC3     H11013   0.915   3.440  13.822  2.3455 -1.4102  0.2768
  745TMC3    H111014   1.234   3.586  13.567 -0.7230  2.4113 -0.5528
  745TMC3    H211015   0.885   3.416  13.396 -1.5516  1.4850 -0.4254
  745TMC3    C711016   1.113   3.517  13.345 -0.2936 -0.1702 -0.0677
  745TMC3    C811017   0.753   3.514  13.609 -0.0835 -0.2399 -0.4042
  745TMC3    O111018   1.083   3.426  13.270 -0.6654 -0.2385  0.4995
  745TMC3    O211019   0.668   3.499  13.523 -0.8710  0.1619 -0.1572
  746TMC3    C111020   3.712   0.936  11.069  0.1057 -0.1823  0.6137
  746TMC3    C211021   3.714   0.925  10.937 -0.2242  0.0890 -0.3835
  746TMC3    C311022   3.688   0.799  10.882 -0.4551 -0.3634 -0.3400
  746TMC3    C411023   3.683   0.831  11.148 -0.3218  0.1834 -0.4259
  746TMC3    C511024   3.666   0.709  11.090 -0.0720  0.2002 -0.0840
  746TMC3    C611025   3.674   0.687  10.957 -0.3100 -0.3134  0.2718
  746TMC3     C11026   3.692   1.067  11.131  0.2735 -0.2150  0.2224
  746TMC3     O11027   3.622   1.054  11.232  0.2691  0.1229  0.1987
  746TMC3     H11028   3.700   1.012  10.873 -2.7842 -0.2806 -0.2990
  746TMC3    H111029   3.706   0.836  11.254  0.7735  0.3681 -0.6712
  746TMC3    H211030   3.649   0.598  10.900 -0.4524  0.0559 -0.2472
  746TMC3    C711031   3.580   0.611  11.156 -0.1176  0.1068 -0.5743
  746TMC3    C811032   3.697   0.786  10.734  0.6143  0.1282 -0.1447
  746TMC3    O111033   3.565   0.499  11.114  0.6302 -0.2086 -0.0289
  746TMC3    O211034   3.651   0.687  10.685  0.2653 -0.4174  0.2120
  747TMC3    C111035   1.052   1.410  10.833  0.1303 -0.4614  0.5187
  747TMC3    C211036   1.014   1.304  10.904 -0.1169  0.1503 -0.0345
  747TMC3    C311037   1.078   1.279  11.026 -0.0268  0.2930 -0.0539
  747TMC3    C411038   1.132   1.507  10.884  0.1768 -0.0386  0.1615
  747TMC3    C511039   1.182   1.486  11.010  0.2706 -0.2311 -0.1522
  747TMC3    C611040   1.154   1.374  11.087 -0.7269  0.5422 -0.2570
  747TMC3     C11041   0.962   1.457  10.727  0.5354  0.2878  0.1058
  747TMC3     O11042   0.954   1.579  10.707  0.4570  0.1283  0.4845
  747TMC3     H11043   0.952   1.223  10.868 -1.0679  1.4817 -1.3762
  747TMC3    H111044   1.154   1.595  10.825  1.0166  0.4488  1.2062
  747TMC3    H211045   1.190   1.369  11.189  2.6599 -0.2592 -1.4941
  747TMC3    C711046   1.283   1.586  11.071 -0.6687  0.1078  0.7416
  747TMC3    C811047   1.028   1.168  11.102  0.1362  0.2960 -0.3305
  747TMC3    O111048   1.312   1.576  11.188 -0.4855 -0.1885  0.0001
  747TMC3    O211049   0.976   1.083  11.030  0.2038 -0.3654  0.0259
  748MPD2     C11050   2.277   1.428   1.101  0.3754 -0.2556  0.3759
  748MPD2    C111051   2.412   1.411   1.106  0.2907 -0.6394 -0.2262
  748MPD2    C211052   2.494   1.509   1.063  0.5398  0.3025  0.2852
  748MPD2    C311053   2.441   1.625   1.017  0.6345 -0.1408  0.6249
  748MPD2    C411054   2.309   1.638   0.989  0.7482 -0.4363  0.1093
  748MPD2    C511055   2.226   1.543   1.053 -0.2085  0.0030  0.0871
  748MPD2     H11056   2.601   1.507   1.082 -0.2631  0.0352  4.7235
  748MPD2    H111057   2.260   1.723   0.943  1.8940  0.2055  0.0528
  748MPD2    H211058   2.206   1.355   1.138  1.3437 -1.5440 -0.2767
  748MPD2    H311059   2.118   1.552   1.047 -0.2631 -0.1663  0.7664
  748MPD2     N11060   2.531   1.731   0.998 -0.0585 -0.6709 -0.3944
  748MPD2    H511061   2.630   1.717   1.018 -0.3010 -3.6752 -1.2790
  748MPD2    N111062   2.462   1.285   1.148  0.0287  0.5657 -0.8591
  748MPD2    H711063   2.391   1.219   1.178  2.0205 -0.2994  1.9487
  749TMC3    C111064   2.594   1.960   0.985  0.0582 -0.1244 -0.6492
  749TMC3    C211065   2.682   1.956   1.093 -0.5613 -0.4913  0.7035
  749TMC3    C311066   2.731   2.070   1.138  0.1236  0.2024  0.0209
  749TMC3    C411067   2.567   2.083   0.927  0.0684  0.3116  0.3658
  749TMC3    C511068   2.644   2.188   0.962  0.2669  0.0561  0.0626
  749TMC3    C611069   2.717   2.190   1.080  0.4777  0.6143 -0.1922
  749TMC3     C11070   2.496   1.857   0.962 -0.6667  0.2387  0.4151
  749TMC3     O11071   2.391   1.896   0.912 -0.2896  0.2531  0.0728
  749TMC3     H11072   2.691   1.871   1.160 -1.6307 -1.3193 -0.1966
  749TMC3    H111073   2.481   2.093   0.862 -0.5700 -0.6312  1.0688
  749TMC3    H211074   2.790   2.268   1.097 -1.5825  2.4521  0.3420
  749TMC3    C711075   2.617   2.316   0.910  0.0192  0.5014  0.2140
  749TMC3    C811076   2.826   2.063   1.250 -0.7053  0.9534  1.3402
  749TMC3    O111077   2.633   2.405   0.989 -0.9831 -0.0089  0.3911
  749TMC3    O211078   2.814   2.142   1.342  0.3961  0.2984 -0.6763
  750MPD2     C11079   3.263   3.115  11.604 -1.0538  0.2300 -0.0497
  750MPD2    C111080   3.205   3.029  11.700  0.2884 -0.0621  0.2212
  750MPD2    C211081   3.240   2.895  11.704 -0.1356  0.6831  0.1332
  750MPD2    C311082   3.330   2.845  11.609 -0.7967 -0.3460 -0.2612
  750MPD2    C411083   3.391   2.927  11.516 -0.1848  0.3853  0.0617
  750MPD2    C511084   3.354   3.063  11.524 -0.4277  0.0359 -0.4879
  750MPD2     H11085   3.198   2.827  11.778  1.2387  0.7533  0.9627
  750MPD2    H111086   3.470   2.896  11.448 -1.0070  0.6834 -1.0357
  750MPD2    H211087   3.234   3.219  11.587 -3.2889 -0.1389  1.6123
  750MPD2    H311088   3.399   3.117  11.442  1.6148 -0.3200  0.4189
  750MPD2     N11089   3.370   2.710  11.606 -0.5243 -0.6464  0.1947
  750MPD2    H511090   3.435   2.689  11.531  0.9209 -1.1748  1.5806
  750MPD2    N111091   3.139   3.093  11.806 -0.0824 -0.2271  0.4402
  750MPD2    H711092   3.129   3.194  11.803  0.4136 -0.2427 -1.8779
  751TMC3    C111093   3.380   2.473  11.656 -0.3150  0.6168  0.1550
  751TMC3    C211094   3.319   2.367  11.717 -0.4557 -0.4517  0.2703
  751TMC3    C311095   3.330   2.241  11.661  0.0715 -0.9774 -0.7591
  751TMC3    C411096   3.469   2.452  11.555  0.6601  0.3960 -0.0362
  751TMC3    C511097   3.478   2.321  11.503 -0.2910 -0.0671  0.2919
  751TMC3    C611098   3.412   2.214  11.552  1.0048  0.3960 -1.1038
  751TMC3     C11099   3.318   2.604  11.682 -0.6404  0.0749  0.4142
  751TMC3     O11100   3.219   2.601  11.753 -0.1499  0.0407  0.7022
  751TMC3     H11101   3.241   2.383  11.790 -0.3209  0.5274  0.1985
  751TMC3    H111102   3.518   2.536  11.508  0.9086  1.2862  1.8140
  751TMC3    H211103   3.438   2.116  11.512  0.5924  0.4968 -1.6070
  751TMC3    C711104   3.588   2.301  11.408 -0.2822  0.1961 -0.1548
  751TMC3    C811105   3.265   2.134  11.736 -0.6445  0.4452 -0.4097
  751TMC3    O111106   3.635   2.406  11.361  0.7199  0.3177 -0.6501
  751TMC3    O211107   3.241   2.156  11.856  0.6032  0.1955  0.2777
  752TMC3    C111108   2.213   2.825  17.231 -0.4509  0.0940 -0.0135
  752TMC3    C211109   2.121   2.730  17.252 -0.1872 -0.8984  0.5679
  752TMC3    C311110   2.118   2.665  17.369 -0.3083  0.5797  0.5744
  752TMC3    C411111   2.292   2.863  17.337  0.3273  0.6931  1.2624
  752TMC3    C511112   2.286   2.794  17.455  0.4033  0.7114 -0.2384
  752TMC3    C611113   2.206   2.691  17.470  0.1259 -0.1978  0.2041
  752TMC3     C11114   2.276   2.844  17.103  0.2550 -0.1036  0.3188
  752TMC3     O11115   2.378   2.915  17.098  0.2873  0.1701 -0.0388
  752TMC3     H11116   2.080   2.678  17.167 -0.2279 -0.9841  0.6397
  752TMC3    H111117   2.373   2.935  17.323  0.5228  0.5693  1.7472
  752TMC3    H211118   2.204   2.640  17.566  0.2764  0.4402  0.5490
  752TMC3    C711119   2.389   2.821  17.555 -0.2934 -0.1686 -0.0141
  752TMC3    C811120   2.020   2.554  17.389  0.0990  0.0935 -0.1525
  752TMC3    O111121   2.429   2.723  17.614  0.1246 -0.2716  0.4541
  752TMC3    O211122   2.040   2.476  17.481  0.0344  0.9124  0.7071
  753TMC3    C111123   4.365   3.957  13.313 -0.6966  0.0189 -0.0580
  753TMC3    C211124   4.412   3.901  13.434  0.1087  0.2029  0.1982
  753TMC3    C311125   4.477   3.779  13.419 -0.5345 -0.0041 -0.0656
  753TMC3    C411126   4.409   3.911  13.192 -0.6360 -0.0289 -0.4621
  753TMC3    C511127   4.478   3.794  13.185  0.1271 -0.2536 -0.2083
  753TMC3    C611128   4.510   3.724  13.302 -0.3249  0.1297  0.0009
  753TMC3     C11129   4.272   4.067  13.324  0.4988  0.6051 -0.1699
  753TMC3     O11130   4.204   4.090  13.222  0.6944 -0.2267 -0.3254
  753TMC3     H11131   4.364   3.925  13.528  3.0315  0.8815  1.5174
  753TMC3    H111132   4.375   3.963  13.103 -1.8204 -1.4278 -0.8277
  753TMC3    H211133   4.549   3.623  13.293 -0.2686 -0.1356  3.0236
  753TMC3    C711134   4.569   3.781  13.076  0.4013 -0.2518 -0.4735
  753TMC3    C811135   4.490   3.699  13.538  0.1534 -0.1654 -0.5629
  753TMC3    O111136   4.644   3.684  13.075  0.6422  0.5513  0.4785
  753TMC3    O211137   4.488   3.576  13.530  0.0686 -0.2683 -0.2500
  754MPD2     C11138   2.973   2.629  13.716  0.0104 -0.6794  0.4026
  754MPD2    C111139   2.920   2.502  13.726  0.9304  0.1665  0.5631
  754MPD2    C211140   2.847   2.451  13.619 -0.4038  0.1177 -0.8816
  754MPD2    C311141   2.819   2.534  13.513  0.2314 -0.2763  0.3153
  754MPD2    C411142   2.891   2.653  13.502  0.2857  0.2199  0.6380
  754MPD2    C511143   2.972   2.701  13.603 -0.7689  0.2160 -0.7111
  754MPD2     H11144   2.809   2.351  13.638  3.0804 -1.1001 -0.4137
  754MPD2    H111145   2.865   2.719  13.420  0.5366  0.8082  1.0351
  754MPD2    H211146   3.029   2.665  13.802  1.6754 -0.5953 -0.7319
  754MPD2    H311147   3.019   2.797  13.587  0.2752 -0.2624 -0.4798
  754MPD2     N11148   2.726   2.501  13.414 -0.2582 -0.1885  0.0791
  754MPD2    H511149   2.703   2.571  13.344 -2.2441 -0.0393  0.8926
  754MPD2    N111150   2.934   2.434  13.850  0.1546  0.2604 -0.3704
  754MPD2    H711151   3.010   2.479  13.899  1.2534 -0.8308 -1.0805
  755MPD2     C11152   2.512   3.147  13.045 -0.2623 -0.0236 -0.2321
  755MPD2    C111153   2.393   3.079  13.078  0.6608 -0.2581  0.7365
  755MPD2    C211154   2.387   2.939  13.078  0.3409  0.1107  0.1645
  755MPD2    C311155   2.504   2.868  13.055 -0.8128 -0.9807 -0.0841
  755MPD2    C411156   2.621   2.935  13.027 -0.2768  0.0464 -0.8865
  755MPD2    C511157   2.621   3.072  13.016  0.4580  0.1368  0.1538
  755MPD2     H11158   2.291   2.892  13.097 -0.6246  2.3757  0.7915
  755MPD2    H111159   2.717   2.888  13.007 -0.7346  0.6727 -4.6787
  755MPD2    H211160   2.520   3.254  13.034  0.2166 -0.2656 -2.2619
  755MPD2    H311161   2.711   3.125  12.987 -0.3217  1.1423 -0.4049
  755MPD2     N11162   2.515   2.731  13.070  0.1242  0.3528 -0.0439
  755MPD2    H511163   2.609   2.695  13.078 -0.1588 -0.3999 -0.1683
  755MPD2    N111164   2.277   3.152  13.124 -0.0196  0.3014  0.3958
  755MPD2    H711165   2.189   3.107  13.145  0.6897 -0.8021  0.9724
  756MPD2     C11166   3.368   3.213   9.313 -1.4909  0.5066  0.5418
  756MPD2    C111167   3.363   3.120   9.414 -0.5346  0.2403 -0.2640
  756MPD2    C211168   3.242   3.052   9.439  0.5274  0.4080 -0.9382
  756MPD2    C311169   3.132   3.070   9.368 -0.2346 -0.4160 -0.0896
  756MPD2    C411170   3.141   3.153   9.262  1.3088  0.2358  0.6350
  756MPD2    C511171   3.253   3.226   9.242 -0.1017 -0.1113 -0.6853
  756MPD2     H11172   3.236   2.992   9.529 -0.7424  2.4854  0.3649
  756MPD2    H111173   3.054   3.172   9.201  2.0294  0.3324 -0.3559
  756MPD2    H211174   3.459   3.266   9.289 -1.6440 -0.8700 -3.0995
  756MPD2    H311175   3.264   3.294   9.158 -0.5769  0.6298 -0.1498
  756MPD2     N11176   3.015   3.000   9.403  0.6291  0.1284 -0.2293
  756MPD2    H511177   3.021   2.926   9.472 -0.0896  2.5441  2.4156
  756MPD2    N111178   3.470   3.101   9.505  0.3576 -0.0235 -0.1001
  756MPD2    H711179   3.448   3.034   9.578 -0.9403  0.4741 -0.0455
  757MPD2     C11180   2.938   2.237   9.825  0.0601  0.3268  0.4812
  757MPD2    C111181   3.037   2.327   9.802  0.5588 -0.5475 -0.3809
  757MPD2    C211182   3.005   2.448   9.746  0.6187 -0.6957 -0.0779
  757MPD2    C311183   2.872   2.485   9.708 -0.2965  0.2445 -0.5023
  757MPD2    C411184   2.777   2.392   9.733 -0.1572  0.0926 -0.4115
  757MPD2    C511185   2.808   2.273   9.794  0.1126 -0.0173 -0.8772
  757MPD2     H11186   3.075   2.523   9.711  1.8504 -1.4271  0.8292
  757MPD2    H111187   2.671   2.412   9.718 -0.6142 -0.7973  1.7013
  757MPD2    H211188   2.967   2.141   9.869 -0.0112 -0.6139 -1.5522
  757MPD2    H311189   2.724   2.205   9.797 -0.1987  0.5807  3.7273
  757MPD2     N11190   2.849   2.611   9.653 -0.0963  0.5668  0.4625
  757MPD2    H511191   2.933   2.667   9.647 -0.6808  1.4310  0.3776
  757MPD2    N111192   3.174   2.281   9.807  0.0376 -0.0109 -0.5282
  757MPD2    H711193   3.193   2.183   9.827 -1.5319  0.3145  2.5183
  758MPD2     C11194   2.845   2.584  16.060  0.1813  0.3337 -0.9646
  758MPD2    C111195   2.831   2.474  16.142 -1.2126 -0.1316 -0.6823
  758MPD2    C211196   2.730   2.466  16.230  0.4754  0.1280 -0.0105
  758MPD2    C311197   2.627   2.559  16.238 -0.6897 -0.3630 -0.1645
  758MPD2    C411198   2.629   2.662  16.146 -0.2569 -0.8849 -0.4352
  758MPD2    C511199   2.741   2.680  16.065 -0.1164 -0.0703 -0.4174
  758MPD2     H11200   2.699   2.379  16.287 -0.3968  0.4571  0.0246
  758MPD2    H111201   2.543   2.728  16.141 -0.5002 -1.1666 -0.0014
  758MPD2    H211202   2.919   2.590  15.981 -0.2062 -1.5055 -1.4811
  758MPD2    H311203   2.743   2.762  15.993 -2.5682 -1.2632 -1.8493
  758MPD2     N11204   2.526   2.536  16.332  0.0382  0.2003 -0.1944
  758MPD2    H511205   2.533   2.459  16.397  0.5046  0.8294  0.4966
  758MPD2    N111206   2.936   2.380  16.139  0.1361  0.2726 -0.1666
  758MPD2    H711207   3.015   2.401  16.078 -0.4784 -0.2694 -1.1594
  759MPD2     C11208   2.435   4.536   9.473 -0.4717 -0.0427 -0.3907
  759MPD2    C111209   2.336   4.630   9.466  0.2515  0.4637 -0.1254
  759MPD2    C211210   2.358   0.032   9.414 -0.2161  0.5478 -0.0812
  759MPD2    C311211   2.494   0.069   9.372 -0.3440 -0.2083 -0.4317
  759MPD2    C411212   2.587   4.688   9.370 -0.3158 -0.1004  0.3099
  759MPD2    C511213   2.556   4.562   9.419 -0.1606 -0.4573 -0.0408
  759MPD2     H11214   2.280   0.106   9.417 -0.2301  0.5487 -0.5872
  759MPD2    H111215   2.684   4.702   9.323 -0.4504 -0.1446  0.0184
  759MPD2    H211216   2.417   4.441   9.521 -0.5512 -0.2457 -0.8283
  759MPD2    H311217   2.630   4.484   9.408 -1.6379 -1.5379 -2.2299
  759MPD2     N11218   2.523   0.202   9.340  1.0188 -0.0913 -0.3529
  759MPD2    H511219   2.445   0.262   9.365  0.3331 -2.7513  3.8836
  759MPD2    N111220   2.215   4.610   9.533  0.1921  0.6021 -0.0199
  759MPD2    H711221   2.158   4.693   9.545  0.6561  0.9870 -0.4593
  760MPD2     C11222   1.721   2.616  11.855  0.2003  0.0396  0.4167
  760MPD2    C111223   1.848   2.590  11.898  0.7991  0.5236 -0.1972
  760MPD2    C211224   1.869   2.472  11.966 -0.0626  0.3613 -0.2604
  760MPD2    C311225   1.769   2.376  11.990  0.1054 -0.1788 -0.5133
  760MPD2    C411226   1.647   2.409  11.944 -0.2575 -0.6190  0.4052
  760MPD2    C511227   1.619   2.526  11.879  0.4015 -0.3441 -0.3153
  760MPD2     H11228   1.972   2.457  11.997 -0.7787 -0.0508  1.9128
  760MPD2    H111229   1.555   2.351  11.946 -0.9385  0.4176 -1.4875
  760MPD2    H211230   1.693   2.693  11.784 -0.3575 -1.1002 -0.5807
  760MPD2    H311231   1.523   2.537  11.830  0.3759 -3.0548 -0.9149
  760MPD2     N11232   1.798   2.244  12.046 -0.1083 -0.2945 -0.5287
  760MPD2    H511233   1.710   2.195  12.063 -0.4926  0.8358  0.7254
  760MPD2    N111234   1.956   2.680  11.879  1.0337 -0.7367 -0.5783
  760MPD2    H711235   2.044   2.663  11.927  0.5856 -2.4997 -0.3623
  761MPD2     C11236   3.134   1.644  11.759 -0.1320  0.0048 -0.0251
  761MPD2    C111237   3.156   1.673  11.626 -0.0500  0.0964  0.5536
  761MPD2    C211238   3.189   1.801  11.588 -0.0886 -0.0654 -0.3541
  761MPD2    C311239   3.204   1.899  11.687  0.6547  0.2267 -0.3784
  761MPD2    C411240   3.174   1.870  11.818  0.4912  0.1609 -0.5400
  761MPD2    C511241   3.143   1.743  11.855  0.4605  0.2966 -0.1257
  761MPD2     H11242   3.219   1.823  11.486  2.0846  1.5801  0.6402
  761MPD2    H111243   3.171   1.939  11.901 -0.6953  1.3657 -1.5727
  761MPD2    H211244   3.107   1.541  11.783  1.8102 -0.3762  0.4838
  761MPD2    H311245   3.129   1.707  11.956 -1.6815 -0.9504 -0.8641
  761MPD2     N11246   3.249   2.029  11.648 -0.6738 -0.1306  0.3075
  761MPD2    H511247   3.261   2.040  11.548  3.1544 -3.6291  0.3712
  761MPD2    N111248   3.146   1.576  11.530 -0.2222 -0.1815  0.7210
  761MPD2    H711249   3.141   1.479  11.558  2.7250 -1.3844 -2.9551
  762MPD2     C11250   3.404   1.119  10.787  0.1773  0.6791 -0.1924
  762MPD2    C111251   3.439   1.240  10.833  0.5524 -0.3777  0.0380
  762MPD2    C211252   3.517   1.328  10.758  0.0274 -0.6633 -0.0793
  762MPD2    C311253   3.576   1.285  10.641  0.3777 -0.7004  0.0372
  762MPD2    C411254   3.546   1.155  10.601  0.1182 -0.6584  0.8487
  762MPD2    C511255   3.463   1.073  10.672  0.1043  0.3686 -1.0316
  762MPD2     H11256   3.527   1.432  10.788  0.4899 -0.2942 -1.5016
  762MPD2    H111257   3.591   1.110  10.513 -0.4199 -0.7657  0.6301
  762MPD2    H211258   3.340   1.054  10.846 -0.2045 -2.6026 -4.1817
  762MPD2    H311259   3.448   0.969  10.647 -0.9402  0.0620  0.8453
  762MPD2     N11260   3.663   1.360  10.561  0.4564  0.3745  0.0019
  762MPD2    H511261   3.688   1.301  10.483  1.9547  0.2372  0.5807
  762MPD2    N111262   3.387   1.271  10.952 -0.3469 -0.5074 -0.2113
  762MPD2    H711263   3.335   1.208  11.012 -0.8281 -1.1990 -1.3454
  763MPD2     C11264   0.424   2.351  16.311  0.4191  1.6981  0.3158
  763MPD2    C111265   0.289   2.376  16.309 -0.6339 -0.0869 -0.3734
  763MPD2    C211266   0.233   2.463  16.405 -0.4397  0.0613 -0.1307
  763MPD2    C311267   0.311   2.538  16.494 -0.1007  1.1805 -1.4873
  763MPD2    C411268   0.447   2.515  16.486  0.4058 -0.4340  0.5804
  763MPD2    C511269   0.498   2.422  16.400  0.1736  0.1104  0.2449
  763MPD2     H11270   0.127   2.479  16.390 -0.6901 -0.6174  0.8925
  763MPD2    H111271   0.522   2.578  16.533 -0.3524  0.1739  0.9716
  763MPD2    H211272   0.471   2.286  16.238 -1.7246  0.6326 -0.0941
  763MPD2    H311273   0.606   2.413  16.385  0.6255  2.2845  2.2548
  763MPD2     N11274   0.276   2.646  16.569  0.4041 -0.4932 -0.4407
  763MPD2    H511275   0.345   2.705  16.615  1.0753 -1.4821 -0.1647
  763MPD2    N111276   0.208   2.305  16.221  0.4864  0.7216 -0.0090
  763MPD2    H711277   0.114   2.344  16.218  0.1920 -0.0799 -1.6943
  764MPD2     C11278   2.425   3.574  17.326 -0.0358  0.8254  0.2630
  764MPD2    C111279   2.289   3.603  17.303  0.3631 -0.2076 -0.4093
  764MPD2    C211280   2.200   3.574  17.405 -0.6907  0.3220 -0.2207
  764MPD2    C311281   2.245   3.526  17.531  0.5318 -0.3766  0.1729
  764MPD2    C411282   2.382   3.515  17.551  0.8949  0.2328  0.2111
  764MPD2    C511283   2.468   3.532  17.446 -0.7400  1.1833 -0.0759
  764MPD2     H11284   2.097   3.602  17.389 -1.4069 -0.7345  2.4831
  764MPD2    H111285   2.418   3.476  17.646  0.4171  0.3519  0.4440
  764MPD2    H211286   2.498   3.589  17.248  0.3487  1.5502  0.7668
  764MPD2    H311287   2.571   3.497  17.453 -1.1615  0.1551  1.0638
  764MPD2     N11288   2.145   3.492  17.623  0.1294  0.0083 -0.1423
  764MPD2    H511289   2.047   3.499  17.594  0.4531  0.2083 -1.1912
  764MPD2    N111290   2.232   3.636  17.176 -0.1507 -0.6274  0.2992
  764MPD2    H711291   2.138   3.676  17.179  0.6694  1.3774 -0.8349
  765MPD2     C11292   2.497   1.515  16.156 -0.1761  0.4005 -0.4173
  765MPD2    C111293   2.584   1.594  16.090  0.1690  0.1305  0.6757
  765MPD2    C211294   2.677   1.535  15.999 -0.5983  0.5640 -1.3467
  765MPD2    C311295   2.675   1.397  15.972  0.1474  0.3097 -0.6420
  765MPD2    C411296   2.572   1.324  16.036 -0.7786  0.3691  0.5655
  765MPD2    C511297   2.488   1.384  16.126  0.3448 -0.3997 -0.6091
  765MPD2     H11298   2.755   1.588  15.944 -1.1024  2.3679 -0.3496
  765MPD2    H111299   2.558   1.218  16.016  2.7311  0.3416 -1.8195
  765MPD2    H211300   2.445   1.564  16.238 -1.0930  1.0593 -1.3857
  765MPD2    H311301   2.424   1.310  16.171 -0.2435  0.7942  0.5019
  765MPD2     N11302   2.767   1.356  15.875 -0.4818 -0.0084 -0.2001
  765MPD2    H511303   2.832   1.426  15.841 -0.7732  0.4439  0.1648
  765MPD2    N111304   2.574   1.731  16.126  0.4300 -0.8641  0.3621
  765MPD2    H711305   2.496   1.763  16.182  0.2688 -0.1359 -0.2721
  766MPD2     C11306   2.135   1.884  15.634  0.3463 -1.1344  0.1199
  766MPD2    C111307   2.266   1.920  15.632  0.0165 -0.4055  0.3823
  766MPD2    C211308   2.333   1.901  15.516 -0.2682 -0.0507  0.1808
  766MPD2    C311309   2.277   1.848  15.402  0.4833 -0.6355  0.1442
  766MPD2    C411310   2.139   1.826  15.405 -0.3537 -0.3786 -0.3345
  766MPD2    C511311   2.080   1.829  15.524  0.1838  0.6596 -0.3432
  766MPD2     H11312   2.440   1.918  15.517 -0.3444  0.3728  0.9823
  766MPD2    H111313   2.078   1.797  15.320  0.4522  0.5274 -1.2119
  766MPD2    H211314   2.074   1.892  15.723 -0.1420  0.0885 -0.3250
  766MPD2    H311315   1.977   1.801  15.540 -0.2613  1.7195 -1.3881
  766MPD2     N11316   2.350   1.838  15.282 -0.3783  0.5558 -0.0850
  766MPD2    H511317   2.295   1.815  15.200 -0.2099  0.3941 -0.1522
  766MPD2    N111318   2.333   1.966  15.740 -0.0056 -0.3959 -0.4730
  766MPD2    H711319   2.432   1.984  15.726 -0.0003  1.5347  2.1573
  767MPD2     C11320   1.995   2.135  15.306 -0.3110  0.1163 -0.5333
  767MPD2    C111321   2.123   2.141  15.256 -0.6211 -0.4429  0.0234
  767MPD2    C211322   2.132   2.079  15.131 -0.4524 -0.4902  0.4068
  767MPD2    C311323   2.016   2.026  15.063  0.4445 -0.0352  0.5468
  767MPD2    C411324   1.897   2.026  15.119  0.1672 -0.1755 -0.1454
  767MPD2    C511325   1.884   2.092  15.237 -0.3709 -0.0064 -0.7617
  767MPD2     H11326   2.229   2.073  15.083 -0.4282 -0.3081  0.4322
  767MPD2    H111327   1.804   1.983  15.082 -0.6662  0.3632  1.3030
  767MPD2    H211328   1.979   2.166  15.409 -4.1138  1.1012 -1.4310
  767MPD2    H311329   1.790   2.106  15.288 -0.8431  4.7669 -2.9181
  767MPD2     N11330   2.035   1.977  14.930 -0.3450 -0.5331 -0.3572
  767MPD2    H511331   2.133   1.973  14.901  0.6026 -0.9376  2.8627
  767MPD2    N111332   2.233   2.188  15.328  0.2292  0.5905  0.2752
  767MPD2    H711333   2.210   2.211  15.424  2.1485 -3.9071  1.7960
  768MPD2     C11334   3.101   4.251  11.583 -0.4223 -0.0128  0.4270
  768MPD2    C111335   3.049   4.375  11.612  0.4040 -0.0352  0.3479
  768MPD2    C211336   3.047   4.431  11.739  0.5305 -0.5250  0.6155
  768MPD2    C311337   3.106   4.355  11.844  0.2238  0.3638  0.2306
  768MPD2    C411338   3.157   4.233  11.819 -0.1379  0.4364 -0.3197
  768MPD2    C511339   3.154   4.184  11.688  0.1682  0.3897 -0.1019
  768MPD2     H11340   2.997   4.527  11.750 -1.1964 -1.3812  0.3387
  768MPD2    H111341   3.214   4.171  11.887  0.4089  0.1263 -1.0540
  768MPD2    H211342   3.105   4.207  11.484 -1.3356  2.4756 -0.7051
  768MPD2    H311343   3.203   4.090  11.666 -0.8954 -0.2091  0.1423
  768MPD2     N11344   3.104   4.420  11.973  0.0708  0.8375 -0.1293
  768MPD2    H511345   3.037   4.492  11.998 -1.2215 -0.7292  0.9640
  768MPD2    N111346   3.018   4.464  11.508 -0.8786 -0.3601 -0.3695
  768MPD2    H711347   2.967   4.549  11.529  0.4721 -0.0064  1.3935
  769MPD2     C11348   4.367   2.813  15.011 -0.5310  0.6924 -0.4887
  769MPD2    C111349   4.260   2.891  14.991  0.7793  0.1524  0.4493
  769MPD2    C211350   4.212   2.971  15.099 -0.1883  0.2167  0.1847
  769MPD2    C311351   4.272   2.978  15.218 -0.1803 -0.4392  0.1125
  769MPD2    C411352   4.386   2.904  15.231 -0.1869  0.2098  0.0876
  769MPD2    C511353   4.424   2.811  15.136  0.2822  0.4486  0.1517
  769MPD2     H11354   4.126   3.034  15.082 -2.2959 -2.5812  0.4199
  769MPD2    H111355   4.440   2.892  15.324 -2.0640 -0.7407  1.0708
  769MPD2    H211356   4.419   2.752  14.938 -1.0489  1.1052 -1.2010
  769MPD2    H311357   4.508   2.744  15.153 -0.3464 -0.4340 -0.2653
  769MPD2     N11358   4.221   3.057  15.321 -0.2221 -0.1390 -0.5764
  769MPD2    H511359   4.142   3.114  15.294  0.0460  1.3963  1.8888
  769MPD2    N111360   4.185   2.882  14.873 -0.4421 -0.6159 -0.0793
  769MPD2    H711361   4.229   2.832  14.796 -2.7071 -0.2300 -1.6236
  770MPD2     C11362   4.118   2.144  14.923 -0.6169  0.0940 -0.7737
  770MPD2    C111363   3.995   2.200  14.926 -0.2889  0.1624 -0.2547
  770MPD2    C211364   3.970   2.308  14.842  0.1911 -0.0608  0.6087
  770MPD2    C311365   4.070   2.362  14.764  0.0005 -0.3016 -0.1279
  770MPD2    C411366   4.195   2.305  14.767  0.9193 -0.4071 -0.1160
  770MPD2    C511367   4.219   2.196  14.844 -0.2990  0.2647  0.3427
  770MPD2     H11368   3.873   2.354  14.837  0.1223 -0.1774  0.9181
  770MPD2    H111369   4.279   2.341  14.708 -0.6628 -0.1010 -2.1656
  770MPD2    H211370   4.134   2.057  14.986 -1.5487 -1.6198 -2.9116
  770MPD2    H311371   4.312   2.140  14.852 -0.6797 -0.2572  1.1591
  770MPD2     N11372   4.043   2.484  14.708 -0.0920  0.0203 -0.1277
  770MPD2    H511373   3.950   2.520  14.728  0.9973  1.7977  1.6808
  770MPD2    N111374   3.902   2.155  15.017  0.4671 -0.5579 -0.4552
  770MPD2    H711375   3.919   2.077  15.080 -1.1864 -1.0970 -0.6746
  771MPD2     C11376   4.590   1.119  14.100  0.3051  0.8011  0.1967
  771MPD2    C111377   4.542   1.219  14.020  0.5509  0.4316  0.2792
  771MPD2    C211378   4.429   1.193  13.947  0.4726 -0.3934 -0.1400
  771MPD2    C311379   4.366   1.074  13.941  0.3033  0.1677  0.3333
  771MPD2    C411380   4.418   0.969  14.017 -0.5049 -0.0713  0.4017
  771MPD2    C511381   4.523   0.996  14.101  0.1315 -0.3529  0.2330
  771MPD2     H11382   4.388   1.270  13.883  0.5491  1.1377  1.6480
  771MPD2    H111383   4.369   0.873  14.027 -1.6803  0.6354  1.4066
  771MPD2    H211384   4.683   1.135  14.154  1.0848 -0.6662 -0.7112
  771MPD2    H311385   4.572   0.922  14.164 -0.6164 -2.0858 -1.2122
  771MPD2     N11386   4.239   1.070  13.872 -0.1209 -0.5963 -0.2937
  771MPD2    H511387   4.213   1.152  13.818  1.2426 -0.0113 -0.0640
  771MPD2    N111388   4.611   1.341  13.997  0.5371 -0.3378  0.0260
  771MPD2    H711389   4.561   1.408  13.938  1.0805 -0.7886 -0.9501
  772MPD2     C11390   4.403   1.954  13.695 -0.2574  0.2373 -0.4050
  772MPD2    C111391   4.394   1.857  13.796 -0.1722  0.2882 -0.3649
  772MPD2    C211392   4.267   1.807  13.834 -0.5290 -0.1419 -0.1520
  772MPD2    C311393   4.151   1.852  13.769 -0.9566  0.6647  0.5236
  772MPD2    C411394   4.162   1.956  13.681 -0.3223  0.1527 -0.4384
  772MPD2    C511395   4.286   2.007  13.646  0.1204 -0.2247  0.5225
  772MPD2     H11396   4.260   1.734  13.914 -0.7473  0.9267  0.8034
  772MPD2    H111397   4.081   1.992  13.618  1.2551  0.8600 -2.0507
  772MPD2    H211398   4.499   2.002  13.682  1.4558 -2.9104  0.7029
  772MPD2    H311399   4.295   2.087  13.573  0.5049 -0.4596  0.3097
  772MPD2     N11400   4.015   1.811  13.800  0.2248  0.0648 -0.3885
  772MPD2    H511401   3.938   1.862  13.758  1.2961  0.0148 -2.4025
  772MPD2    N111402   4.509   1.792  13.860  0.1755 -0.3251 -0.4502
  772MPD2    H711403   4.482   1.717  13.922  0.2619  1.2406  1.4544
  773MPD2     C11404   2.959   2.942   0.069  0.3766 -0.2474 -1.3123
  773MPD2    C111405   2.935   2.828   0.002  0.4150  0.8724 -0.2460
  773MPD2    C211406   2.977   2.704   0.055 -0.3080 -0.5034 -0.5068
  773MPD2    C311407   3.037   2.698   0.183 -0.6600 -0.4551  0.1170
  773MPD2    C411408   3.054   2.815   0.255 -0.0760  0.6236 -0.1313
  773MPD2    C511409   3.024   2.935   0.190 -0.7190 -0.3688  0.3266
  773MPD2     H11410   2.946   2.612   0.007 -1.1025 -1.6657  2.2639
  773MPD2    H111411   3.105   2.830   0.349 -1.8455 -0.7469  1.0304
  773MPD2    H211412   2.922   3.036   0.029  1.7327  0.4177 -0.9886
  773MPD2    H311413   3.054   3.027   0.239 -0.6688 -1.1183  1.7031
  773MPD2     N11414   3.084   2.576   0.239 -0.2313  0.4315  0.4558
  773MPD2    H511415   3.105   2.502   0.173 -1.3737 -0.7945  1.4832
  773MPD2    N111416   2.867   2.816  17.576 -0.8956  0.0982 -0.3017
  773MPD2    H711417   2.850   2.724  17.537  1.2437 -0.9956  1.3783
  774MPD2     C11418   2.253   1.561  13.911 -0.4461 -0.1809 -0.3396
  774MPD2    C111419   2.382   1.583  13.957  0.3755 -0.0454 -0.2285
  774MPD2    C211420   2.431   1.715  13.947 -0.3450 -0.3139 -0.1074
  774MPD2    C311421   2.349   1.820  13.915  0.5821  0.3728 -0.4477
  774MPD2    C411422   2.208   1.803  13.895 -0.4777  0.0414  0.0269
  774MPD2    C511423   2.167   1.671  13.889 -0.0858 -0.4976  0.1163
  774MPD2     H11424   2.536   1.727  13.973 -0.4132  0.7510 -0.3247
  774MPD2    H111425   2.148   1.891  13.879  1.1942  0.8743 -1.7314
  774MPD2    H211426   2.201   1.467  13.898 -1.2373  0.6809 -3.2383
  774MPD2    H311427   2.063   1.656  13.861  0.2407  2.4654 -2.7091
  774MPD2     N11428   2.395   1.949  13.901  0.2676 -0.9200 -0.2612
  774MPD2    H511429   2.325   2.020  13.918  0.2346 -0.3495 -2.8757
  774MPD2    N111430   2.457   1.472  14.002 -0.5444 -0.2452 -0.0866
  774MPD2    H711431   2.403   1.388  14.021  0.6535 -1.1605 -0.7064
  775MPD2     C11432   4.295   3.013  16.022  0.0074 -0.1679  0.9824
  775MPD2    C111433   4.233   3.135  16.054 -0.9909 -0.2245  0.2172
  775MPD2    C211434   4.301   3.257  16.043  0.2064  0.6168 -0.4676
  775MPD2    C311435   4.426   3.256  15.994 -0.4822 -0.1603 -0.1675
  775MPD2    C411436   4.483   3.134  15.953  0.4108 -0.3066 -0.1915
  775MPD2    C511437   4.421   3.013  15.976 -0.0614  0.0095  0.3956
  775MPD2     H11438   4.259   3.348  16.084 -1.2434  0.4350 -1.5661
  775MPD2    H111439   4.587   3.127  15.926  0.8064  1.5854  0.8134
  775MPD2    H211440   4.244   2.920  16.043  0.9077 -1.2159 -1.4970
  775MPD2    H311441   4.462   2.914  15.957  1.8663  0.9778 -0.4534
  775MPD2     N11442   4.508   3.373  15.979 -0.2865  0.7724  0.4807
  775MPD2    H511443   4.590   3.364  15.920  0.5977  1.6027  1.5807
  775MPD2    N111444   4.106   3.121  16.113  0.1099  0.2648  0.2343
  775MPD2    H711445   4.083   3.025  16.137 -3.2528  0.7982 -0.8309
  776MPD2     C11446   3.513   3.601  12.006 -0.3185 -0.4703  0.7321
  776MPD2    C111447   3.417   3.530  11.932  0.5833  0.6796  1.0003
  776MPD2    C211448   3.442   3.507  11.800 -0.0255 -0.2495 -0.1373
  776MPD2    C311449   3.564   3.540  11.741  0.2650  0.5180  0.6384
  776MPD2    C411450   3.656   3.611  11.820 -0.2800  0.5014 -0.1343
  776MPD2    C511451   3.625   3.647  11.946 -0.2580 -0.3223  0.4716
  776MPD2     H11452   3.360   3.472  11.737 -1.7334  0.7793  1.5170
  776MPD2    H111453   3.747   3.651  11.775 -0.1578  1.4590  0.9609
  776MPD2    H211454   3.499   3.635  12.108  2.1593 -0.8981  1.2205
  776MPD2    H311455   3.704   3.699  11.999 -1.1610 -0.4425  1.9417
  776MPD2     N11456   3.595   3.523  11.601 -0.3099 -1.0070  0.1876
  776MPD2    H511457   3.679   3.567  11.565 -1.7457  0.5574 -1.2820
  776MPD2    N111458   3.303   3.483  12.002 -0.3882  0.3581 -0.1865
  776MPD2    H711459   3.302   3.508  12.100 -3.0374 -1.4767  0.2537
  777MPD2     C11460   3.342   1.309   0.604 -0.0582  0.6940  0.7999
  777MPD2    C111461   3.456   1.289   0.689  0.3804 -0.7337  0.0837
  777MPD2    C211462   3.537   1.180   0.659  0.4065 -0.5377  0.2116
  777MPD2    C311463   3.516   1.095   0.554 -0.2229  0.1590 -0.6297
  777MPD2    C411464   3.411   1.127   0.465 -0.3891 -0.2816 -0.0110
  777MPD2    C511465   3.323   1.230   0.492 -0.1797 -0.2650 -0.4619
  777MPD2     H11466   3.617   1.149   0.726 -0.5152 -1.6484  0.8059
  777MPD2    H111467   3.379   1.065   0.382 -1.0518  1.3881 -1.0098
  777MPD2    H211468   3.273   1.391   0.617  0.2436  0.3250  4.6672
  777MPD2    H311469   3.237   1.250   0.429 -0.0741 -2.5417 -1.3094
  777MPD2     N11470   3.600   0.984   0.544 -0.1903  0.5670  0.5311
  777MPD2    H511471   3.685   0.975   0.599 -0.5747 -1.3266  0.8379
  777MPD2    N111472   3.464   1.373   0.802 -0.4910  0.3475  0.0842
  777MPD2    H711473   3.381   1.423   0.831 -1.1076 -0.5353 -0.1532
  778MPD2     C11474   4.633   0.894  15.243  0.8757 -0.0587  0.0148
  778MPD2    C111475   4.564   0.842  15.132  0.3997 -0.2082 -1.0054
  778MPD2    C211476   4.602   0.875  15.003  0.0315 -0.1999  0.0616
  778MPD2    C311477   4.686   0.974  14.983 -0.3523 -0.1445  0.2266
  778MPD2    C411478   0.028   1.033  15.088  0.0336  0.2802  0.0853
  778MPD2    C511479   0.000   0.993  15.215 -0.2053  0.2820 -0.1969
  778MPD2     H11480   4.537   0.830  14.928 -1.1060  1.1167  0.2490
  778MPD2    H111481   0.101   1.112  15.073  0.2951  0.0148 -0.0449
  778MPD2    H211482   4.623   0.865  15.346  0.1502  0.5926  0.1304
  778MPD2    H311483   0.053   1.040  15.298 -1.2106 -0.3516  0.8020
  778MPD2     N11484   4.712   1.035  14.855 -0.7001  0.0847 -0.1932
  778MPD2    H511485   0.056   1.110  14.851  0.7977 -1.3004 -0.3966
  778MPD2    N111486   4.449   0.762  15.147 -0.0893 -0.2332  0.9188
  778MPD2    H711487   4.396   0.740  15.063 -2.1426  1.4291  1.7695
  779MPD2     C11488   4.173   4.514  14.361 -0.7224 -0.5234 -0.3334
  779MPD2    C111489   4.301   4.548  14.366  0.1372 -0.3822 -0.6833
  779MPD2    C211490   4.341   4.687  14.373  0.0517  0.2029  0.5973
  779MPD2    C311491   4.239   0.057  14.376  0.5224  0.1498 -0.0808
  779MPD2    C411492   4.110   0.010  14.362  0.3343 -0.1590 -0.6639
  779MPD2    C511493   4.072   4.605  14.371  0.2688 -0.3900  0.1290
  779MPD2     H11494   4.444   4.721  14.381  0.7550 -1.3026 -1.8153
  779MPD2    H111495   4.029   0.080  14.352  1.7754  1.4065 -1.2480
  779MPD2    H211496   4.145   4.411  14.341 -1.2176  0.3750 -4.3112
  779MPD2    H311497   3.968   4.581  14.356 -0.4276  1.7174  1.6303
  779MPD2     N11498   4.263   0.199  14.384  0.3274  0.1264  0.1089
  779MPD2    H511499   4.362   0.222  14.386  0.2153  0.5754  0.3744
  779MPD2    N111500   4.383   4.439  14.359 -0.3034  0.0283 -0.2082
  779MPD2    H711501   4.337   4.353  14.332  1.8921  0.3133 -4.8288
  780MPD2     C11502   3.065   0.211   0.800  0.2741  0.0700 -0.5331
  780MPD2    C111503   3.098   0.081   0.833 -0.8018 -0.8172 -0.2170
  780MPD2    C211504   3.225   0.035   0.795 -0.3426  0.1470 -0.3173
  780MPD2    C311505   3.306   0.110   0.712  0.0520 -0.0187 -0.8689
  780MPD2    C411506   3.272   0.244   0.694 -0.5328 -0.0613 -0.5834
  780MPD2    C511507   3.152   0.287   0.737 -0.2729  0.2083 -0.0791
  780MPD2     H11508   3.253   4.656   0.813  2.7061  0.6089 -2.3789
  780MPD2    H111509   3.342   0.312   0.647  1.2073 -0.5810  1.2427
  780MPD2    H211510   2.974   0.253   0.841  1.1216 -0.1261  1.5225
  780MPD2    H311511   3.117   0.389   0.727 -0.4554  0.0914 -0.6306
  780MPD2     N11512   3.423   0.051   0.657 -0.4856  0.4538 -0.0307
  780MPD2    H511513   3.436   4.679   0.687 -1.8940  0.3938  0.4018
  780MPD2    N111514   3.008   0.002   0.905 -0.3872 -0.4204 -0.0697
  780MPD2    H711515   2.911   0.026   0.887 -0.7058 -1.1495  0.6506
  781MPD2     C11516   0.993   2.044  11.939 -0.1909  0.5566 -0.1580
  781MPD2    C111517   1.099   1.974  11.995 -0.0593 -0.3355 -0.4529
  781MPD2    C211518   1.226   1.956  11.934 -0.2892  0.3671 -0.0188
  781MPD2    C311519   1.242   2.026  11.809 -0.0608 -0.2673 -1.1713
  781MPD2    C411520   1.134   2.101  11.766  0.1508  0.2935 -0.1922
  781MPD2    C511521   1.008   2.109  11.819  0.4670 -0.7844  0.5646
  781MPD2     H11522   1.301   1.894  11.982  0.7158  0.0274 -2.0126
  781MPD2    H111523   1.155   2.161  11.678  0.0756  0.3453 -0.1747
  781MPD2    H211524   0.906   2.056  12.002  1.3817  0.1130  2.0973
  781MPD2    H311525   0.927   2.169  11.778 -0.2638 -1.9135  0.3384
  781MPD2     N11526   1.365   2.028  11.735  0.0612 -0.1297 -0.2437
  781MPD2    H511527   1.371   2.092  11.657  0.4195 -0.3041 -0.3591
  781MPD2    N111528   1.092   1.909  12.122 -0.2229 -0.1757  0.1375
  781MPD2    H711529   1.183   1.883  12.158 -0.2477 -0.7255 -0.2008
  782MPD2     C11530   3.882   2.839  10.381  0.0120 -0.4342  0.2797
  782MPD2    C111531   3.883   2.739  10.483 -0.1873  0.0810 -1.2098
  782MPD2    C211532   3.913   2.786  10.613  0.3873  1.0657  0.5153
  782MPD2    C311533   3.946   2.921  10.637 -0.0805  0.0611 -0.1900
  782MPD2    C411534   3.950   3.012  10.535 -0.6774 -0.8061  0.3490
  782MPD2    C511535   3.916   2.973  10.410 -0.2525 -0.3169  0.4395
  782MPD2     H11536   3.906   2.710  10.690 -0.6139  2.0863  1.4399
  782MPD2    H111537   3.977   3.117  10.540 -0.8591 -0.8250  1.6820
  782MPD2    H211538   3.844   2.821  10.281  0.8520  2.4746 -0.5701
  782MPD2    H311539   3.903   3.048  10.333 -0.8757 -1.1200 -0.2393
  782MPD2     N11540   3.992   2.946  10.766  0.2220  0.0901 -0.3862
  782MPD2    H511541   3.982   2.867  10.830 -0.8373  0.2021 -0.4106
  782MPD2    N111542   3.842   2.607  10.448  0.0827  0.0284  0.2117
  782MPD2    H711543   3.795   2.601  10.358  0.9624 -1.7057 -0.1305
  783MPD2     C11544   3.750   1.994  11.273 -0.5753  0.3332 -0.1150
  783MPD2    C111545   3.711   2.129  11.274 -0.0867 -0.1840 -0.3002
  783MPD2    C211546   3.760   2.212  11.172 -0.8958  0.9094 -0.1676
  783MPD2    C311547   3.843   2.150  11.079  0.4016  0.4864  0.0023
  783MPD2    C411548   3.882   2.019  11.074  0.8623 -0.0926 -0.1889
  783MPD2    C511549   3.828   1.943  11.173 -0.2851 -0.2336  0.2087
  783MPD2     H11550   3.737   2.318  11.162 -2.1823  0.5139 -1.4575
  783MPD2    H111551   3.936   1.973  10.992  0.4925  0.7369 -0.8925
  783MPD2    H211552   3.697   1.936  11.348  1.8228 -1.6755 -0.0020
  783MPD2    H311553   3.829   1.834  11.170  0.9226 -0.2508  1.4833
  783MPD2     N11554   3.881   2.240  10.974 -0.0638  0.7196 -0.4669
  783MPD2    H511555   3.836   2.331  10.972  1.0815  1.3252  1.8440
  783MPD2    N111556   3.633   2.171  11.385 -0.1064  0.1541  0.3197
  783MPD2    H711557   3.583   2.102  11.440  2.2125 -0.7231  1.3365
  784MPD2     C11558   1.572   2.645   0.852 -0.6839 -0.2434  0.0844
  784MPD2    C111559   1.512   2.717   0.952 -0.0209  0.5211  0.9083
  784MPD2    C211560   1.374   2.738   0.933  0.0109 -0.8242  0.5079
  784MPD2    C311561   1.301   2.674   0.836  0.4074 -0.6367  0.2268
  784MPD2    C411562   1.365   2.591   0.745  0.0492  0.1517  0.1582
  784MPD2    C511563   1.501   2.586   0.746  0.5566 -0.4077 -0.2790
  784MPD2     H11564   1.331   2.808   1.004  1.1433  0.2672  0.1227
  784MPD2    H111565   1.319   2.532   0.668  0.0029 -0.0156  0.3144
  784MPD2    H211566   1.678   2.627   0.853 -0.9104 -1.7126 -3.0547
  784MPD2    H311567   1.558   2.535   0.670 -0.7160 -0.2070 -1.3591
  784MPD2     N11568   1.162   2.697   0.829 -0.2140  0.1003 -0.3431
  784MPD2    H511569   1.117   2.761   0.894  1.0760 -1.3334  1.9617
  784MPD2    N111570   1.578   2.791   1.046  0.3022 -0.8677 -0.1667
  784MPD2    H711571   1.505   2.841   1.096 -1.0471 -1.0681 -1.9174
  785MPD2     C11572   2.102   1.470  10.262 -0.4998 -0.0901  0.5311
  785MPD2    C111573   2.009   1.509  10.168  0.3114 -0.1465  0.1544
  785MPD2    C211574   1.917   1.414  10.116  0.0215  0.4184  0.3024
  785MPD2    C311575   1.946   1.275  10.131 -0.1583  0.8646  0.1841
  785MPD2    C411576   2.062   1.237  10.200  0.3455 -0.0424  0.6582
  785MPD2    C511577   2.131   1.335  10.268 -0.4291 -0.0264 -0.3063
  785MPD2     H11578   1.840   1.449  10.048  2.7983 -0.3109 -3.2542
  785MPD2    H111579   2.093   1.134  10.216 -1.0437 -0.3962  1.0548
  785MPD2    H211580   2.163   1.540  10.317  1.0580 -1.2101  0.2269
  785MPD2    H311581   2.217   1.307  10.328 -1.3635  1.8881  1.9492
  785MPD2     N11582   1.865   1.186  10.057  0.3260  0.4253  0.0453
  785MPD2    H511583   1.791   1.235  10.008 -1.2511 -1.0465  0.9096
  785MPD2    N111584   2.008   1.652  10.135 -0.1569  0.1492 -0.1307
  785MPD2    H711585   2.064   1.710  10.195 -1.2667 -2.1043  3.0716
  786MPD2     C11586   4.679   3.807  14.674 -0.6106 -0.1278 -0.5213
  786MPD2    C111587   0.069   3.736  14.678  0.9022  0.2197  0.3337
  786MPD2    C211588   0.154   3.740  14.785 -1.0038 -0.7539 -0.0209
  786MPD2    C311589   0.123   3.814  14.892 -0.0279 -0.7379 -1.0152
  786MPD2    C411590   4.719   3.873  14.899  0.9940 -0.0342  0.3454
  786MPD2    C511591   4.634   3.866  14.786 -0.1729  0.0055  0.3535
  786MPD2     H11592   0.251   3.691  14.783 -0.3945  0.3894  1.4947
  786MPD2    H111593   4.696   3.924  14.992 -0.0216  1.7676 -0.8868
  786MPD2    H211594   4.611   3.786  14.593 -0.1396 -0.4527 -0.8348
  786MPD2    H311595   4.534   3.908  14.780  0.3566  1.0754 -0.8726
  786MPD2     N11596   0.203   3.823  15.013 -0.5579 -0.5270 -0.0715
  786MPD2    H511597   0.162   3.864  15.097  1.0077 -1.8201  1.3238
  786MPD2    N111598   0.122   3.663  14.564 -0.1795 -0.4319  0.1804
  786MPD2    H711599   0.210   3.617  14.583 -0.1235 -1.4063 -2.4556
  787MPD2     C11600   0.455   3.317  14.782 -0.2355  0.4856  0.0810
  787MPD2    C111601   0.458   3.256  14.656 -0.2346 -0.7405 -0.2386
  787MPD2    C211602   0.552   3.154  14.639  0.4064  0.0989 -0.5110
  787MPD2    C311603   0.637   3.109  14.734 -0.5336 -0.7780  0.6945
  787MPD2    C411604   0.626   3.169  14.862  0.4174  0.2653 -0.1425
  787MPD2    C511605   0.538   3.272  14.886  1.5027  0.5422  0.1185
  787MPD2     H11606   0.567   3.094  14.549 -0.9212 -0.1458 -0.5668
  787MPD2    H111607   0.693   3.160  14.947 -0.5398  2.5275  0.8620
  787MPD2    H211608   0.384   3.396  14.802  1.4413  1.6883  1.3669
  787MPD2    H311609   0.544   3.322  14.982 -3.4582 -0.6709  1.0565
  787MPD2     N11610   0.727   3.004  14.707 -0.3709  0.0297 -0.2922
  787MPD2    H511611   0.736   2.974  14.610  0.3509  2.4757 -1.0114
  787MPD2    N111612   0.371   3.296  14.551  0.0141 -0.1208  0.1056
  787MPD2    H711613   0.320   3.380  14.577 -0.3687 -0.5185  0.6320
  788MPD2     C11614   1.997   1.738   1.228  0.0056  0.1357  0.1355
  788MPD2    C111615   1.876   1.721   1.166  0.6304 -0.0450 -0.2016
  788MPD2    C211616   1.823   1.805   1.071 -0.1824 -0.7124 -0.6584
  788MPD2    C311617   1.902   1.902   1.019  0.2063 -0.1625 -0.2399
  788MPD2    C411618   2.023   1.925   1.086  0.4030  0.0442  0.2625
  788MPD2    C511619   2.068   1.852   1.196  0.0543  0.5625  0.8555
  788MPD2     H11620   1.730   1.793   1.017 -0.7188 -0.5379  0.2414
  788MPD2    H111621   2.074   2.017   1.059  1.8753 -1.0785 -0.7024
  788MPD2    H211622   2.020   1.669   1.309 -0.3881  0.4620  0.5242
  788MPD2    H311623   2.160   1.887   1.241 -0.5173  1.5299  1.2810
  788MPD2     N11624   1.865   1.995   0.918 -0.0736  0.4514 -0.3369
  788MPD2    H511625   1.946   2.044   0.881  0.5097  0.6341  1.1659
  788MPD2    N111626   1.806   1.601   1.198 -0.1869 -0.5499  0.7032
  788MPD2    H711627   1.853   1.542   1.267  0.6155  3.0699  3.2420
  789MPD2     C11628   2.538   1.842  16.729  0.4312  0.2917  0.3097
  789MPD2    C111629   2.449   1.755  16.795 -0.2013 -0.7844 -0.7120
  789MPD2    C211630   2.321   1.781  16.817  0.5097  0.4476 -0.0286
  789MPD2    C311631   2.270   1.891  16.749 -0.0751  0.0713 -0.4917
  789MPD2    C411632   2.343   1.970  16.666 -0.3304 -0.1592 -0.1917
  789MPD2    C511633   2.482   1.953  16.668 -0.4165  0.2906  0.3887
  789MPD2     H11634   2.253   1.725  16.881 -1.4862  0.3021 -2.2816
  789MPD2    H111635   2.291   2.048  16.613  1.7434  0.4810 -1.2902
  789MPD2    H211636   2.643   1.817  16.738  1.0299  2.3856 -1.0850
  789MPD2    H311637   2.537   2.028  16.613  1.0244 -1.5510 -0.7232
  789MPD2     N11638   2.133   1.930  16.761 -0.0680 -0.3734 -0.1246
  789MPD2    H511639   2.101   2.013  16.713  0.3873 -1.1895 -1.8631
  789MPD2    N111640   2.497   1.635  16.856  0.2689 -0.3880  0.9811
  789MPD2    H711641   2.432   1.581  16.912  0.3411 -0.1404  1.3011
  790MPD2     C11642   3.368   3.371  14.058 -0.0951 -0.7757 -0.9288
  790MPD2    C111643   3.488   3.310  14.018  0.5610  0.1562  0.3742
  790MPD2    C211644   3.502   3.286  13.876  0.6244  0.2492  0.3787
  790MPD2    C311645   3.413   3.346  13.785 -0.6163  0.2295 -0.3075
  790MPD2    C411646   3.302   3.412  13.830  0.5153  0.6432 -0.1772
  790MPD2    C511647   3.283   3.426  13.968 -0.5333 -0.1494 -0.4220
  790MPD2     H11648   3.595   3.245  13.838 -0.4566 -1.8170 -0.0118
  790MPD2    H111649   3.234   3.468  13.767  1.3779  0.2134 -1.4925
  790MPD2    H211650   3.337   3.382  14.161 -0.4252  0.8981 -1.2067
  790MPD2    H311651   3.197   3.482  14.005  0.1812  0.4848  0.2739
  790MPD2     N11652   3.435   3.335  13.647  0.6441 -0.3718  0.2387
  790MPD2    H511653   3.508   3.278  13.607 -0.6042 -1.8791  0.1004
  790MPD2    N111654   3.580   3.265  14.116 -0.0822 -0.3365  0.1161
  790MPD2    H711655   3.559   3.297  14.211  0.0807  2.0143 -0.6354
  791MPD2     C11656   3.016   3.419  12.938 -0.4283 -0.0271 -0.7104
  791MPD2    C111657   3.115   3.333  12.961 -0.4114 -1.2270  0.2030
  791MPD2    C211658   3.094   3.200  12.922  0.3832  0.4715  0.0108
  791MPD2    C311659   2.982   3.156  12.851 -0.8969  0.4640  0.1060
  791MPD2    C411660   2.878   3.249  12.829  0.3372 -0.9153  0.6426
  791MPD2    C511661   2.902   3.380  12.868 -0.7169 -0.8761 -0.5122
  791MPD2     H11662   3.172   3.132  12.955  2.4275  1.9069 -1.8777
  791MPD2    H111663   2.780   3.227  12.789  0.5662  0.3593 -0.6128
  791MPD2    H211664   3.016   3.523  12.968 -2.5824  0.0458 -0.9416
  791MPD2    H311665   2.822   3.450  12.847 -1.2608 -1.4543 -0.3787
  791MPD2     N11666   2.967   3.016  12.823 -0.0560  0.7585  0.4013
  791MPD2    H511667   3.035   2.953  12.865 -0.8768 -0.0342  0.5488
  791MPD2    N111668   3.221   3.378  13.041  0.6584 -0.2548 -0.1099
  791MPD2    H711669   3.216   3.473  13.079 -3.9178 -0.4182 -0.2736
  792MPD2     C11670   3.943   3.315  11.345  0.6190  0.3456 -0.0071
  792MPD2    C111671   3.963   3.307  11.208 -0.2887  0.0927 -0.3730
  792MPD2    C211672   3.883   3.234  11.128 -0.3324 -0.2306 -0.1524
  792MPD2    C311673   3.781   3.152  11.184 -1.0528  0.4418 -0.5927
  792MPD2    C411674   3.757   3.160  11.320  0.1052 -0.6015  0.7889
  792MPD2    C511675   3.837   3.248  11.399 -0.4842 -0.0968 -0.2367
  792MPD2     H11676   3.898   3.235  11.020 -0.2828 -0.9748 -0.1495
  792MPD2    H111677   3.679   3.101  11.366 -1.5725 -0.5336 -1.9176
  792MPD2    H211678   4.007   3.377  11.407  0.0079  0.7610  0.2041
  792MPD2    H311679   3.830   3.243  11.507  0.4668 -2.5203 -0.2729
  792MPD2     N11680   3.697   3.069  11.108 -0.0568 -0.5974 -0.2125
  792MPD2    H511681   3.637   3.004  11.157 -1.1444  0.8249  0.3467
  792MPD2    N111682   4.063   3.387  11.161  0.0985 -0.3213  0.1888
  792MPD2    H711683   4.115   3.424  11.240 -0.9208 -0.6131  1.0049
  793MPD2     C11684   3.614   2.718  10.137  0.4602  0.5975 -0.8439
  793MPD2    C111685   3.591   2.855  10.151 -0.1534 -0.6712 -0.7047
  793MPD2    C211686   3.557   2.905  10.278 -0.2744  0.7391 -0.2739
  793MPD2    C311687   3.540   2.815  10.388  0.2147  0.0138  0.1568
  793MPD2    C411688   3.567   2.686  10.370 -0.1641  0.1059 -0.3652
  793MPD2    C511689   3.604   2.636  10.247  0.4573 -0.0961  0.4223
  793MPD2     H11690   3.532   3.010  10.289  1.7083  1.1799 -0.0199
  793MPD2    H111691   3.563   2.612  10.449  1.5070  0.2205 -0.1759
  793MPD2    H211692   3.651   2.665  10.050  2.5338 -2.0899  1.6614
  793MPD2    H311693   3.636   2.534  10.232  0.7730 -0.2046  1.7712
  793MPD2     N11694   3.515   2.871  10.515  0.3159  0.3213  0.0208
  793MPD2    H511695   3.511   2.972  10.529 -0.5624  0.3992 -0.7727
  793MPD2    N111696   3.607   2.949  10.048 -0.2961 -0.2066 -0.5086
  793MPD2    H711697   3.596   3.047  10.073  1.0396 -0.4092  0.8790
  794MPD2     C11698   2.554   3.186  16.881 -0.5295  0.2214  0.4481
  794MPD2    C111699   2.628   3.083  16.843 -0.9204 -0.1070  0.2673
  794MPD2    C211700   2.628   3.047  16.708 -0.2643  0.0122  0.1483
  794MPD2    C311701   2.551   3.115  16.619 -0.1297 -0.4991  0.2470
  794MPD2    C411702   2.473   3.215  16.668 -0.2486 -0.3968 -0.6345
  794MPD2    C511703   2.472   3.256  16.797  0.4487  0.0702 -0.4555
  794MPD2     H11704   2.691   2.963  16.682  1.2417  1.0968  0.2422
  794MPD2    H111705   2.404   3.261  16.599  0.2678 -0.1701 -0.9997
  794MPD2    H211706   2.536   3.204  16.986 -0.5290 -0.8671  0.6338
  794MPD2    H311707   2.408   3.337  16.829  0.9627  0.1894  0.2894
  794MPD2     N11708   2.538   3.078  16.486  0.0689 -0.4296  0.2766
  794MPD2    H511709   2.480   3.140  16.430  0.0528  0.1749  0.9702
  794MPD2    N111710   2.695   2.999  16.937 -0.4764 -0.7909  0.3248
  794MPD2    H711711   2.727   2.906  16.910 -1.3299 -1.2167  0.7420
  795MPD2     C11712   0.913   0.186  13.311  0.1139  0.2843  0.6308
  795MPD2    C111713   0.836   0.142  13.421  0.8635 -0.1172  0.3518
  795MPD2    C211714   0.901   0.052  13.512  0.6268 -0.1333 -0.3597
  795MPD2    C311715   1.034   0.018  13.491 -0.3955  0.0212 -0.2607
  795MPD2    C411716   1.107   0.057  13.377 -0.2364  0.5742  0.0788
  795MPD2    C511717   1.040   0.145  13.292  0.2429 -0.0497 -0.1595
  795MPD2     H11718   0.850   0.023  13.603  1.7368  0.9968  0.6191
  795MPD2    H111719   1.211   0.036  13.352 -1.9188 -1.2608 -5.3704
  795MPD2    H211720   0.874   0.250  13.233 -0.9784 -1.2025 -0.0512
  795MPD2    H311721   1.080   0.169  13.194  2.4635  0.3640  0.8617
  795MPD2     N11722   1.096   4.663  13.593 -1.0820  0.2876  0.3390
  795MPD2    H511723   1.035   4.620  13.662 -1.0132 -0.3432 -0.0033
  795MPD2    N111724   0.698   0.187  13.446 -0.2218  0.4048 -0.2061
  795MPD2    H711725   0.645   0.149  13.523 -0.0833  1.9222  0.6349
  796MPD2     C11726   0.539   2.132  15.849  0.2604 -0.2984  0.0663
  796MPD2    C111727   0.603   2.164  15.963  0.5083  0.4601  0.3576
  796MPD2    C211728   0.598   2.298  16.015 -0.4260  0.1401  0.1053
  796MPD2    C311729   0.525   2.394  15.949 -0.1779  0.1911  0.0908
  796MPD2    C411730   0.455   2.357  15.837 -0.2665  0.0703  0.0912
  796MPD2    C511731   0.458   2.227  15.794 -0.1786 -0.1724 -1.1514
  796MPD2     H11732   0.661   2.329  16.097  0.2098 -1.5592  0.2553
  796MPD2    H111733   0.388   2.418  15.778  0.0533  2.2376  1.9598
  796MPD2    H211734   0.533   2.040  15.791 -0.1327 -0.9844  1.1889
  796MPD2    H311735   0.396   2.203  15.708 -1.6593 -0.1504 -0.0780
  796MPD2     N11736   0.510   2.519  16.005  0.4336 -0.9282 -0.1115
  796MPD2    H511737   0.551   2.529  16.098  1.6899  1.7865 -0.9244
  796MPD2    N111738   0.669   2.067  16.027  0.4106  0.5585  0.4138
  796MPD2    H711739   0.682   1.979  15.978  1.1661  0.7260  0.2996
  797MPD2     C11740   0.968   1.091  17.338  0.6718  0.4861 -0.7538
  797MPD2    C111741   0.912   1.149  17.450  0.5305  0.2199 -0.0441
  797MPD2    C211742   0.826   1.258  17.427  0.4861  0.5304 -0.2876
  797MPD2    C311743   0.783   1.294  17.301 -0.1334  0.1959  0.5597
  797MPD2    C411744   0.835   1.224  17.190 -0.7274 -0.3374  0.2628
  797MPD2    C511745   0.928   1.128  17.215  0.0595  0.0655 -0.8654
  797MPD2     H11746   0.790   1.316  17.511 -1.8727 -1.1155 -0.1765
  797MPD2    H111747   0.807   1.256  17.090 -1.8799 -0.3250  0.5787
  797MPD2    H211748   1.046   1.016  17.341 -0.4206 -0.5448  1.5307
  797MPD2    H311749   0.964   1.069  17.132 -1.3722 -0.5778 -1.0421
  797MPD2     N11750   0.696   1.398  17.279  0.1273  0.2168  0.4802
  797MPD2    H511751   0.673   1.426  17.184 -1.5419  1.3683  1.2183
  797MPD2    N111752   0.933   1.111  17.582 -0.5824 -0.1546 -0.1031
  797MPD2    H711753   0.872   1.159  17.647 -0.5701  0.1975 -0.3518
  798MPD2     C11754   0.674   1.735   0.182 -0.3854  0.3966 -0.5181
  798MPD2    C111755   0.666   1.651   0.080  0.0504 -0.3778 -0.1637
  798MPD2    C211756   0.737   1.530   0.079 -0.8609  0.9318 -0.3930
  798MPD2    C311757   0.817   1.507   0.193  0.0452 -0.7775 -0.2075
  798MPD2    C411758   0.814   1.589   0.310  0.4847 -0.9782  0.0934
  798MPD2    C511759   0.734   1.703   0.305 -0.1911  0.0716  0.3317
  798MPD2     H11760   0.739   1.458  17.697 -1.0363  1.5055 -0.9081
  798MPD2    H111761   0.883   1.585   0.393  0.5315 -1.9619  0.0035
  798MPD2    H211762   0.633   1.835   0.179 -0.2941  0.4664  0.5202
  798MPD2    H311763   0.732   1.774   0.387  1.5247  1.4539 -0.8075
  798MPD2     N11764   0.899   1.392   0.188  0.2312 -0.2129 -0.1775
  798MPD2    H511765   0.890   1.332   0.106 -2.0039 -0.2992  0.1124
  798MPD2    N111766   0.602   1.684  17.657 -0.3479  0.0701 -0.1298
  798MPD2    H711767   0.608   1.619  17.580 -2.3537 -0.7233  0.3690
  799MPD2     C11768   0.039   2.970  14.109  0.1411  0.3168  0.5917
  799MPD2    C111769   0.101   2.862  14.050 -0.1623 -1.1315 -0.2392
  799MPD2    C211770   0.104   2.843  13.919 -0.2276 -0.6781  0.3345
  799MPD2    C311771   0.063   2.953  13.836  0.6653  0.1634 -0.3322
  799MPD2    C411772   0.003   3.063  13.890  1.1981 -0.4092 -0.1069
  799MPD2    C511773   4.712   3.073  14.026  0.2048 -0.1639  0.4083
  799MPD2     H11774   0.158   2.765  13.867 -2.0766 -1.1549 -0.8865
  799MPD2    H111775   4.691   3.146  13.831 -0.6865  0.1944  1.8793
  799MPD2    H211776   0.023   2.981  14.216 -0.7355  3.0023  0.1747
  799MPD2    H311777   4.659   3.153  14.076 -0.5643  0.0110 -0.6780
  799MPD2     N11778   0.103   2.966  13.700 -0.8775 -0.7827 -0.8794
  799MPD2    H511779   0.085   3.059  13.663  1.4215 -0.1261 -0.3345
  799MPD2    N111780   0.161   2.761  14.125 -0.3486 -0.3566 -0.7994
  799MPD2    H711781   0.172   2.671  14.078 -1.1899 -1.7065  1.5425
  800MPD2     C11782   0.547   3.969  13.719 -0.4585 -0.1880  0.3156
  800MPD2    C111783   0.663   3.951  13.790 -0.7772  0.7208  0.1168
  800MPD2    C211784   0.726   3.831  13.786 -0.4445  0.5529 -0.0289
  800MPD2    C311785   0.680   3.731  13.710 -0.0541  0.6180  0.4481
  800MPD2    C411786   0.564   3.748  13.639 -0.2077  0.2007  0.1835
  800MPD2    C511787   0.493   3.868  13.650  0.4431  0.4712 -0.4366
  800MPD2     H11788   0.823   3.818  13.834 -0.2725  1.0549 -0.2357
  800MPD2    H111789   0.518   3.672  13.577 -0.4310  0.8286 -0.4226
  800MPD2    H211790   0.493   4.063  13.719 -1.4267 -0.7447  0.0802
  800MPD2    H311791   0.403   3.882  13.590  0.1675 -0.3596 -0.2074
  800MPD2     N11792   0.763   3.613  13.701  0.1636 -0.1392  0.4554
  800MPD2    H511793   0.838   3.596  13.766  0.0783  2.2570  1.1450
  800MPD2    N111794   0.706   4.069  13.856  0.3215 -0.5459  0.0452
  800MPD2    H711795   0.658   4.154  13.830  1.5877  0.6270  1.4791
  801MPD2     C11796   0.895   0.087  13.877  0.0364  0.2254  0.0086
  801MPD2    C111797   0.791   0.042  13.955 -0.7853  0.6399  0.3323
  801MPD2    C211798   0.727   0.131  14.034  0.3149 -0.3097 -0.0948
  801MPD2    C311799   0.772   0.261  14.049  0.2079 -0.0612  0.3990
  801MPD2    C411800   0.886   0.301  13.979  0.3232  0.0528  0.5303
  801MPD2    C511801   0.933   0.220  13.888 -0.9163 -0.2959 -0.3619
  801MPD2     H11802   0.643   0.091  14.090  0.5671 -1.6493 -0.6722
  801MPD2    H111803   0.932   0.399  13.987 -2.0184  1.4158 -2.5964
  801MPD2    H211804   0.963   0.032  13.813 -1.4235 -0.0335 -1.3051
  801MPD2    H311805   1.007   0.259  13.819 -0.7468 -0.6324 -0.3700
  801MPD2     N11806   0.709   0.362  14.117 -0.0670  0.4104 -0.5145
  801MPD2    H511807   0.753   0.453  14.123  2.5802 -0.7735 -1.6746
  801MPD2    N111808   0.776   4.630  13.971 -0.4808  0.7369  0.4415
  801MPD2    H711809   0.738   4.606  14.062  0.3236 -0.1563  0.5362
  802MPD2     C11810   4.291   0.294  17.175  0.2563 -0.1276 -0.5049
  802MPD2    C111811   4.376   0.289  17.280  0.4599 -0.9047  0.6278
  802MPD2    C211812   4.459   0.181  17.290  0.6256  0.1639  1.0238
  802MPD2    C311813   4.475   0.090  17.182  0.0506  0.8375  0.6111
  802MPD2    C411814   4.383   0.088  17.082 -0.0506 -0.1733 -0.0438
  802MPD2    C511815   4.293   0.194  17.076  0.0993  0.7595 -0.4141
  802MPD2     H11816   4.527   0.174  17.375 -0.2756  0.9090  1.8010
  802MPD2    H111817   4.372   0.014  17.004  0.0724 -1.5359  1.2436
  802MPD2    H211818   4.226   0.378  17.155  0.3491 -0.1649 -0.9640
  802MPD2    H311819   4.236   0.203  16.985 -0.3299 -1.8670 -0.3835
  802MPD2     N11820   4.590   0.008  17.191 -0.0987 -0.2982 -0.8253
  802MPD2    H511821   4.636   0.002  17.281  1.0399  1.0140 -1.3138
  802MPD2    N111822   4.375   0.390  17.376 -0.0057  0.8635  0.0435
  802MPD2    H711823   4.430   0.374  17.459  1.8366  3.4277 -0.6988
  803MPD2     C11824   1.961   3.247  11.860 -0.5007 -1.0190 -0.1277
  803MPD2    C111825   2.050   3.229  11.959  1.0666  0.3350  0.3156
  803MPD2    C211826   2.009   3.131  12.053 -0.4154 -0.0743  0.7762
  803MPD2    C311827   1.886   3.061  12.054  0.6397  0.0790 -0.3602
  803MPD2    C411828   1.805   3.088  11.945  0.2158 -0.1374 -0.0082
  803MPD2    C511829   1.841   3.176  11.845  1.0851  0.3956 -0.5301
  803MPD2     H11830   2.074   3.123  12.140  0.2851  3.1002  0.5462
  803MPD2    H111831   1.706   3.043  11.943  0.1526 -0.0163  0.4441
  803MPD2    H211832   1.970   3.325  11.784  0.8746  0.1361  1.2390
  803MPD2    H311833   1.777   3.201  11.761  0.1495  2.2968  0.7400
  803MPD2     N11834   1.843   2.977  12.157  0.0371 -0.3657  0.1053
  803MPD2    H511835   1.745   2.948  12.153  0.3914 -1.5627 -0.0203
  803MPD2    N111836   2.150   3.327  11.982  0.7958 -0.2459  0.0925
  803MPD2    H711837   2.196   3.310  12.071  1.8322 -0.5395 -0.4986
  804MPD2     C11838   0.704   4.642  17.061  0.1249 -0.1769  0.2267
  804MPD2    C111839   0.719   4.599  17.195 -0.4846  0.1127 -0.6651
  804MPD2    C211840   0.797   4.691  17.273  0.0580 -0.1808  0.2489
  804MPD2    C311841   0.869   0.070  17.222 -0.0750 -0.3453  0.6543
  804MPD2    C411842   0.854   0.101  17.087 -0.4736 -0.1779 -0.7432
  804MPD2    C511843   0.762   0.033  17.016  0.6035 -0.6039  0.4732
  804MPD2     H11844   0.812   4.659  17.375  2.1428 -0.5359 -0.1627
  804MPD2    H111845   0.907   0.182  17.038  0.2662 -0.4119 -0.3347
  804MPD2    H211846   0.641   4.579  16.999 -0.7750  0.7432  0.1988
  804MPD2    H311847   0.769   0.064  16.912  1.2583 -1.0894  0.3720
  804MPD2     N11848   0.949   0.149  17.304 -0.5104 -0.1587  1.2591
  804MPD2    H511849   0.942   0.130  17.404 -2.5665 -1.4004  0.8856
  804MPD2    N111850   0.674   4.477  17.252 -0.8257  0.5608  0.8590
  804MPD2    H711851   0.699   4.462  17.349 -3.2102  0.4984  1.4800
  805MPD2     C11852   4.542   3.308  15.275  0.2219 -1.2164 -0.3180
  805MPD2    C111853   4.623   3.193  15.260 -0.3221 -0.0907  0.3049
  805MPD2    C211854   4.694   3.154  15.372 -0.1415  0.2563 -0.1469
  805MPD2    C311855   4.712   3.235  15.481 -0.9565 -0.7155  0.4117
  805MPD2    C411856   4.628   3.348  15.497 -0.0389  0.3442  0.7301
  805MPD2    C511857   4.544   3.383  15.391  0.0660 -0.0772 -0.5446
  805MPD2     H11858   0.035   3.068  15.361  1.9828  2.3803 -4.0886
  805MPD2    H111859   4.634   3.400  15.591  0.8409 -2.3060  2.1439
  805MPD2    H211860   4.478   3.341  15.194 -0.1601 -1.6033 -0.1707
  805MPD2    H311861   4.500   3.481  15.407 -1.7630 -1.0603  0.4181
  805MPD2     N11862   0.081   3.180  15.576  0.1270 -0.1972  0.3296
  805MPD2    H511863   0.127   3.098  15.538 -3.0168 -0.4550 -2.9091
  805MPD2    N111864   4.631   3.109  15.146 -0.3566  0.0472  0.4330
  805MPD2    H711865   4.695   3.031  15.158  1.7138  1.5873 -0.6492
  806MPD2     C11866   0.480   2.517   0.789  0.7298 -0.0065  0.1919
  806MPD2    C111867   0.498   2.639   0.841  0.6374  0.0993  0.6054
  806MPD2    C211868   0.515   2.748   0.763  0.1085  0.0104  0.1505
  806MPD2    C311869   0.528   2.732   0.623 -0.4136 -0.6035 -0.8601
  806MPD2    C411870   0.514   2.604   0.573 -0.2508 -0.2124  0.2459
  806MPD2    C511871   0.491   2.505   0.653  0.2082  0.0431  0.3627
  806MPD2     H11872   0.532   2.844   0.810 -0.5295 -0.1932  0.7860
  806MPD2    H111873   0.526   2.581   0.467 -0.6118 -2.7809  0.7683
  806MPD2    H211874   0.445   2.437   0.854  1.5092  1.6085  2.5614
  806MPD2    H311875   0.493   2.407   0.606  1.8311 -0.4625  1.4834
  806MPD2     N11876   0.538   2.844   0.537  0.5929 -0.0600 -0.4899
  806MPD2    H511877   0.541   2.932   0.588  0.0982 -0.7756  0.7811
  806MPD2    N111878   0.494   2.645   0.983 -0.0601 -0.0200  0.2889
  806MPD2    H711879   0.494   2.555   1.031  0.9226  0.2597  0.8199
  807MPD2     C11880   0.287   2.790   1.763  0.0307 -0.3067 -0.1023
  807MPD2    C111881   0.305   2.686   1.677  0.0131  0.5678  0.4278
  807MPD2    C211882   0.223   2.575   1.682  0.2699 -0.0188 -0.2236
  807MPD2    C311883   0.122   2.567   1.777 -0.2936  0.0698  0.5366
  807MPD2    C411884   0.104   2.668   1.868 -0.1187 -0.4217  0.5688
  807MPD2    C511885   0.190   2.776   1.860 -0.2179  0.4578 -0.5785
  807MPD2     H11886   0.245   2.494   1.613 -1.2009 -0.7296  0.1503
  807MPD2    H111887   0.037   2.664   1.953 -1.2417  0.2280 -0.2969
  807MPD2    H211888   0.341   2.884   1.758 -0.5961  0.0688  0.1240
  807MPD2    H311889   0.174   2.863   1.922 -0.6424 -0.8466  1.1514
  807MPD2     N11890   0.056   2.439   1.781 -0.2407  0.2246  0.4149
  807MPD2    H511891   0.083   2.372   1.710  1.4295  0.2173  1.0633
  807MPD2    N111892   0.406   2.697   1.578 -1.1094  0.1240 -0.2499
  807MPD2    H711893   0.435   2.611   1.533 -0.5477  1.1024 -1.7948
  808MPD2     C11894   0.947   4.066   9.827  0.3034 -0.0078  0.2121
  808MPD2    C111895   0.883   3.986   9.732 -0.0171  0.0718 -0.1945
  808MPD2    C211896   0.902   4.020   9.601  0.5867 -0.5635  0.1342
  808MPD2    C311897   0.983   4.129   9.561  0.2441 -0.5547 -0.7438
  808MPD2    C411898   1.038   4.213   9.664 -0.3260  0.0786 -0.9909
  808MPD2    C511899   1.017   4.182   9.793 -0.2652 -0.0324  0.7429
  808MPD2     H11900   0.855   3.954   9.529  0.4834 -0.7719  0.3964
  808MPD2    H111901   1.091   4.300   9.626  1.4112 -1.0117 -1.1057
  808MPD2    H211902   0.912   4.049   9.928 -2.2486 -0.6704 -0.7608
  808MPD2    H311903   1.047   4.240   9.880 -0.7987  1.3911 -0.0281
  808MPD2     N11904   1.019   4.157   9.432 -0.3474 -0.2369  0.1539
  808MPD2    H511905   1.097   4.220   9.419 -0.9350  0.2265 -1.2255
  808MPD2    N111906   0.814   3.866   9.758 -0.0826 -0.5117  0.1108
  808MPD2    H711907   0.787   3.809   9.679 -1.1817 -1.6716  1.3111
  809MPD2     C11908   1.512   3.699   8.620  0.3461  0.3952  0.3054
  809MPD2    C111909   1.458   3.666   8.744 -0.2940 -0.0938 -0.4054
  809MPD2    C211910   1.393   3.758   8.820  0.3286  0.2131 -0.3048
  809MPD2    C311911   1.381   3.889   8.778 -0.0827 -1.4046  0.2119
  809MPD2    C411912   1.429   3.929   8.658 -0.4943 -0.2739  0.1193
  809MPD2    C511913   1.496   3.831   8.585  0.0526  0.4588 -0.4514
  809MPD2     H11914   1.364   3.729   8.920 -1.0754 -2.5941 -1.5320
  809MPD2    H111915   1.423   4.031   8.621 -0.9937  0.1897  1.4682
  809MPD2    H211916   1.553   3.631   8.546  0.2613  0.5328  0.1325
  809MPD2    H311917   1.530   3.860   8.486  0.4739 -0.6853 -0.6442
  809MPD2     N11918   1.314   3.989   8.855  0.1540  0.2330  0.2263
  809MPD2    H511919   1.313   4.081   8.812  0.9531  0.0490 -0.1770
  809MPD2    N111920   1.475   3.541   8.800 -0.0748  0.0847  0.1788
  809MPD2    H711921   1.432   3.518   8.889  2.5886  1.2308  1.7567
  810MPD2     C11922   1.088   4.023  10.185  0.8742  0.2852 -0.4948
  810MPD2    C111923   1.048   3.941  10.287 -0.7041 -0.3105  0.1244
  810MPD2    C211924   1.102   3.962  10.414 -0.0087  0.2342 -0.7909
  810MPD2    C311925   1.198   4.062  10.445  0.9998 -0.1067  0.3475
  810MPD2    C411926   1.242   4.137  10.337 -0.9652  0.7134 -0.1169
  810MPD2    C511927   1.188   4.117  10.210 -0.2196  0.0764  0.7598
  810MPD2     H11928   1.054   3.912  10.497  0.0952  1.6724  0.1491
  810MPD2    H111929   1.312   4.217  10.356 -1.2592  1.1883 -1.0317
  810MPD2    H211930   1.045   4.009  10.087 -1.1002  2.2653  0.0688
  810MPD2    H311931   1.218   4.184  10.131  1.4951 -1.2549  0.2887
  810MPD2     N11932   1.237   4.092  10.583  0.7171 -0.0161 -0.3237
  810MPD2    H511933   1.314   4.158  10.583  0.6566  0.0456  1.4278
  810MPD2    N111934   0.939   3.856  10.260 -0.2453 -0.7977 -0.2302
  810MPD2    H711935   0.895   3.862  10.169 -0.6178  0.4405  0.0334
  811MPD2     C11936   0.145   3.640   9.945  0.1210 -0.0788 -0.1253
  811MPD2    C111937   0.245   3.736   9.988 -0.3739 -0.4927  0.2940
  811MPD2    C211938   0.225   3.868   9.952  0.1780 -0.1339 -0.7669
  811MPD2    C311939   0.113   3.912   9.880  0.9166 -0.5556  0.1189
  811MPD2    C411940   0.019   3.822   9.845  0.4387 -0.1231 -0.3076
  811MPD2    C511941   0.033   3.691   9.884 -0.8385 -0.4153  0.5556
  811MPD2     H11942   0.281   3.949   9.998 -1.8863 -0.3777  2.1267
  811MPD2    H111943   4.648   3.855   9.806 -0.3113 -0.5278  1.1673
  811MPD2    H211944   0.147   3.536   9.977 -0.1512 -0.0252  0.0645
  811MPD2    H311945   4.669   3.629   9.873  0.0077 -1.4851 -0.1593
  811MPD2     N11946   0.101   4.046   9.858  0.4879 -0.4691  0.1264
  811MPD2    H511947   0.180   4.100   9.891  0.6654 -0.1370 -0.8279
  811MPD2    N111948   0.344   3.700  10.080  0.1889  0.0717  0.2316
  811MPD2    H711949   0.331   3.605  10.113  0.6067  0.1233  0.5502
  812MPD2     C11950   4.602   3.526  12.054 -0.1338 -0.2803 -0.1555
  812MPD2    C111951   4.491   3.602  12.079  0.3637 -0.3410 -0.0633
  812MPD2    C211952   4.400   3.563  12.180 -0.5326 -0.3311  0.5577
  812MPD2    C311953   4.428   3.450  12.256 -0.4845 -0.0849 -0.6366
  812MPD2    C411954   4.544   3.382  12.227 -0.0435 -0.7672  0.0486
  812MPD2    C511955   4.620   3.413  12.123  0.0450  0.0053  0.0875
  812MPD2     H11956   4.303   3.611  12.184 -0.2748  0.5065 -2.6702
  812MPD2    H111957   4.579   3.302  12.291  0.1380  0.1535  1.1022
  812MPD2    H211958   4.676   3.541  11.977 -0.5183  0.4372 -0.3788
  812MPD2    H311959   4.712   3.359  12.107  0.5497  1.0642 -0.5694
  812MPD2     N11960   4.323   3.403  12.342  0.8382  1.1307  0.3369
  812MPD2    H511961   4.241   3.462  12.351  1.3722  2.3473 -3.0339
  812MPD2    N111962   4.466   3.707  11.992  0.2606  0.2055  0.0662
  812MPD2    H711963   4.525   3.708  11.909 -0.5124  3.0881 -0.4410
  813MPD2     C11964   2.739   1.260  13.401  0.1738 -0.4356 -0.6804
  813MPD2    C111965   2.738   1.131  13.451 -0.3252  0.1722  0.6244
  813MPD2    C211966   2.640   1.102  13.546  0.4365 -0.3399  0.0348
  813MPD2    C311967   2.558   1.205  13.590  0.7375 -0.2909  0.6792
  813MPD2    C411968   2.555   1.327  13.534 -0.0756 -0.5615  0.1515
  813MPD2    C511969   2.649   1.351  13.440  0.3833  0.1125  0.6694
  813MPD2     H11970   2.635   1.004  13.592 -0.8064 -1.1522 -1.7981
  813MPD2    H111971   2.490   1.408  13.565  0.3066 -0.1801 -0.0347
  813MPD2    H211972   2.803   1.291  13.320  0.0375  3.2635  0.6287
  813MPD2    H311973   2.643   1.445  13.387 -0.1971 -1.5086 -2.1399
  813MPD2     N11974   2.463   1.189  13.689  0.2817  0.4085  0.0959
  813MPD2    H511975   2.390   1.260  13.687 -1.3952 -1.3510 -1.5499
  813MPD2    N111976   2.831   1.040  13.401 -0.0966 -0.0510 -0.4735
  813MPD2    H711977   2.906   1.080  13.345 -0.1665 -1.5829 -1.6563
  814MPD2     C11978   3.915   1.857  12.508  0.1875 -0.1758 -0.0653
  814MPD2    C111979   3.989   1.905  12.399 -0.6904 -0.8392 -0.4690
  814MPD2    C211980   4.090   1.996  12.418  0.4059 -0.6219 -0.2212
  814MPD2    C311981   4.124   2.044  12.547  0.4649 -0.3812  0.0845
  814MPD2    C411982   4.041   2.007  12.653  0.4311 -0.0881  0.2231
  814MPD2    C511983   3.939   1.918  12.633  0.3208  0.4414 -0.0831
  814MPD2     H11984   4.140   2.029  12.328 -3.5313 -1.4636 -2.6831
  814MPD2    H111985   4.061   2.047  12.752  1.9312 -2.9140  1.0435
  814MPD2    H211986   3.827   1.793  12.497  1.7497 -2.1134 -1.2706
  814MPD2    H311987   3.872   1.903  12.717  1.7683 -0.3924  0.9320
  814MPD2     N11988   4.234   2.124  12.586 -0.3175 -0.0395  0.0434
  814MPD2    H511989   4.244   2.145  12.685 -1.9228 -1.2743  0.4568
  814MPD2    N111990   3.978   1.856  12.268 -0.4875 -1.0704 -0.3921
  814MPD2    H711991   4.034   1.907  12.201 -1.0697  0.6395  0.4169
  815MPD2     C11992   4.633   4.671  12.445  0.4764 -0.2313  0.2107
  815MPD2    C111993   4.537   4.719  12.364  0.2297 -0.4287 -0.1857
  815MPD2    C211994   4.417   0.043  12.417 -0.3457 -0.0323 -0.8029
  815MPD2    C311995   4.418   0.073  12.546 -0.4068  0.0428  0.2182
  815MPD2    C411996   4.525   0.044  12.630 -0.4649  0.1243 -0.1734
  815MPD2    C511997   4.627   4.697  12.580  0.6803  0.4203  0.1512
  815MPD2     H11998   4.324   0.059  12.364 -0.8455 -1.5826 -0.3898
  815MPD2    H111999   4.519   0.063  12.737 -0.7746 -1.5773  0.1151
  815MPD2    H212000   4.714   4.613  12.404 -0.0296 -1.5442  1.0705
  815MPD2    H312001   4.713   4.671  12.641  1.8246 -2.3881 -2.6686
  815MPD2     N12002   4.302   0.128  12.594  0.2046 -0.2730  0.0975
  815MPD2    H512003   4.218   0.112  12.539  2.1657 -0.6550 -2.7779
  815MPD2    N112004   4.552   4.702  12.224 -0.1098  1.0031 -0.5871
  815MPD2    H712005   4.639   4.657  12.195 -1.6590 -0.8925 -2.3079
  816MPD2     C12006   4.203   4.683  17.498 -0.1004  0.0839 -0.5258
  816MPD2    C112007   4.147   4.691  17.372 -0.8982 -0.1232  0.1527
  816MPD2    C212008   4.193   4.607  17.271 -0.0895 -0.3540 -0.0600
  816MPD2    C312009   4.276   4.504  17.298 -0.2154  0.1261 -0.1215
  816MPD2    C412010   4.323   4.491  17.426  0.5000 -0.0981  0.4235
  816MPD2    C512011   4.290   4.584  17.524 -0.2992 -0.0378  0.1121
  816MPD2     H12012   4.171   4.615  17.165 -1.4384 -1.0860  0.1624
  816MPD2    H112013   4.390   4.408  17.446 -0.2696 -1.4980 -2.9110
  816MPD2    H212014   4.187   0.040  17.568  1.8249 -1.1083  1.2753
  816MPD2    H312015   4.331   4.575  17.625  0.8678 -0.8145 -0.4216
  816MPD2     N12016   4.311   4.425  17.188 -0.2720 -0.1210  0.7431
  816MPD2    H512017   4.269   4.448  17.099 -1.2254  0.4207  1.3289
  816MPD2    N112018   4.059   0.079  17.338  0.1238  0.8697 -0.5646
  816MPD2    H712019   4.050   0.152  17.407 -2.6343 -0.7227  0.7223
  817MPD2     C12020   4.634   1.684   9.771 -0.2637  0.7829 -0.2265
  817MPD2    C112021   4.502   1.639   9.772 -0.1362  0.2152 -0.7208
  817MPD2    C212022   4.411   1.745   9.772  0.1655 -0.1373  0.8171
  817MPD2    C312023   4.441   1.884   9.773 -0.7103  0.1797 -0.1464
  817MPD2    C412024   4.571   1.914   9.767  0.4532 -0.0978 -0.1683
  817MPD2    C512025   4.665   1.817   9.774  0.0140 -0.3736 -0.0942
  817MPD2     H12026   4.306   1.716   9.775 -0.0270  0.2972 -2.1697
  817MPD2    H112027   4.603   2.017   9.777  1.2753 -0.4390  0.7070
  817MPD2    H212028   4.716   1.613   9.775  0.4267  1.4339 -2.5679
  817MPD2    H312029   0.045   1.847   9.768  0.0914 -0.7442 -0.6251
  817MPD2     N12030   4.340   1.980   9.789  0.4356 -0.5454 -0.1761
  817MPD2    H512031   4.250   1.940   9.815 -0.3636  0.9600 -0.6388
  817MPD2    N112032   4.456   1.498   9.782 -0.3011  0.1553  0.7738
  817MPD2    H712033   4.356   1.486   9.775 -0.4064  1.2132  0.5193
  818MPD2     C12034   2.628   0.315   9.836  0.5708  0.3183  1.0291
  818MPD2    C112035   2.665   0.223   9.934 -0.2644  0.1152  0.2541
  818MPD2    C212036   2.626   0.085   9.923  0.1408  0.2761  0.1657
  818MPD2    C312037   2.552   0.050   9.817  0.4128  0.3616  0.6181
  818MPD2    C412038   2.532   0.144   9.719  0.1898  0.1029 -0.0880
  818MPD2    C512039   2.574   0.269   9.720  0.0979 -0.3487 -0.6118
  818MPD2     H12040   2.663   0.011   9.993  1.1314 -1.4308 -2.1795
  818MPD2    H112041   2.488   0.114   9.625 -1.4083  0.8419  0.4276
  818MPD2    H212042   2.648   0.422   9.840  1.0885  0.2043  1.3729
  818MPD2    H312043   2.556   0.334   9.636 -0.7333 -1.6468 -1.4431
  818MPD2     N12044   2.531   4.638   9.789 -0.2507 -0.2566  0.1828
  818MPD2    H512045   2.491   4.608   9.701  1.5042 -0.3766 -0.5800
  818MPD2    N112046   2.739   0.256  10.049  0.3463  0.1672 -0.0721
  818MPD2    H712047   2.753   0.180  10.114 -0.9149  0.0629  0.0705
  819MPD2     C12048   1.178   2.405  15.231 -0.3080 -0.1151 -0.3517
  819MPD2    C112049   1.121   2.418  15.353 -0.0593 -0.5899  0.3971
  819MPD2    C212050   1.200   2.438  15.465 -0.2407 -0.0056  0.6419
  819MPD2    C312051   1.339   2.426  15.448 -0.0835 -0.2325  0.4879
  819MPD2    C412052   1.393   2.408  15.322  0.9786 -0.1479  0.1131
  819MPD2    C512053   1.311   2.395  15.216  0.7261 -0.1221  0.4163
  819MPD2     H12054   1.154   2.449  15.562 -1.1027 -2.6887  0.5427
  819MPD2    H112055   1.500   2.421  15.312  0.8540  0.3629 -0.5372
  819MPD2    H212056   1.118   2.386  15.142  1.2208  2.1006 -1.8427
  819MPD2    H312057   1.351   2.383  15.116  0.0227  1.5155 -0.0567
  819MPD2     N12058   1.440   2.431  15.552  0.1089 -0.0726  0.3419
  819MPD2    H512059   1.536   2.412  15.525  0.6860  2.0798  0.8904
  819MPD2    N112060   0.982   2.418  15.354 -0.0654 -0.0091 -0.7292
  819MPD2    H712061   0.935   2.419  15.264 -1.2104  0.1159 -0.1302
  820MPD2     C12062   0.503   2.721  14.716  0.6121  0.6426 -0.7815
  820MPD2    C112063   0.429   2.742  14.831  1.0412 -0.2889 -0.3250
  820MPD2    C212064   0.466   2.683  14.953  0.1543 -0.5996 -0.0489
  820MPD2    C312065   0.580   2.604  14.958 -0.5873  0.1208 -0.1974
  820MPD2    C412066   0.662   2.596  14.852  0.2890  0.9133  0.1723
  820MPD2    C512067   0.620   2.649  14.733  0.1066  0.4264 -0.1750
  820MPD2     H12068   0.391   2.685  15.032  0.0481 -2.9306 -0.0877
  820MPD2    H112069   0.746   2.528  14.859 -1.0783 -0.5910  2.0024
  820MPD2    H212070   0.493   2.773  14.621  1.1670  2.8098  0.3317
  820MPD2    H312071   0.685   2.651  14.647 -2.3775 -0.3504 -2.0589
  820MPD2     N12072   0.623   2.529  15.074  0.3335 -0.0661 -0.7141
  820MPD2    H512073   0.707   2.474  15.085  0.8456  0.9397  0.3716
  820MPD2    N112074   0.315   2.832  14.811  0.0516 -0.6011 -0.1191
  820MPD2    H712075   0.306   2.865  14.716 -1.9448 -0.9572 -0.0492
  821MPD2     C12076   1.235   3.606  13.081 -0.3769 -0.5629  0.1783
  821MPD2    C112077   1.241   3.679  13.204 -0.5924  0.4287  0.0779
  821MPD2    C212078   1.313   3.801  13.203  0.7065 -0.1579 -0.5050
  821MPD2    C312079   1.372   3.853  13.087  0.4769 -0.0172 -0.6669
  821MPD2    C412080   1.360   3.778  12.971 -0.1815  0.1605  0.1014
  821MPD2    C512081   1.299   3.653  12.971  0.0433 -0.2477 -0.4291
  821MPD2     H12082   1.325   3.856  13.296  0.8659  2.3080 -1.9914
  821MPD2    H112083   1.392   3.820  12.876  2.0590  0.1833  0.8752
  821MPD2    H212084   1.170   3.522  13.061 -0.5621 -0.4766  0.4196
  821MPD2    H312085   1.297   3.604  12.874  0.0143 -0.3840 -0.3600
  821MPD2     N12086   1.443   3.973  13.080 -0.0929  0.5659  0.4623
  821MPD2    H512087   1.476   4.008  12.991 -3.1412  2.4192  0.0712
  821MPD2    N112088   1.186   3.634  13.328  0.2535  0.0289 -0.2427
  821MPD2    H712089   1.201   3.697  13.407 -0.7127  2.7745 -2.2478
  822MPD2     C12090   1.550   3.993  15.672  0.2672 -0.2155  0.0474
  822MPD2    C112091   1.538   3.959  15.812 -0.2379  0.2285 -0.4254
  822MPD2    C212092   1.441   4.022  15.893  0.0201 -0.0143 -0.4258
  822MPD2    C312093   1.367   4.128  15.845  0.2473 -0.1037 -0.6013
  822MPD2    C412094   1.388   4.165  15.714 -0.1695 -0.1272  0.0195
  822MPD2    C512095   1.465   4.093  15.629 -0.0428  0.6401  0.1819
  822MPD2     H12096   1.440   3.999  15.999 -1.3206  1.8565 -0.0320
  822MPD2    H112097   1.326   4.247  15.679 -1.0781 -0.7418  0.1907
  822MPD2    H212098   1.636   3.964  15.613 -0.6067  0.8263 -1.7296
  822MPD2    H312099   1.476   4.128  15.527 -0.8725  0.1985 -0.0516
  822MPD2     N12100   1.274   4.194  15.936 -0.4952  0.2193  0.8533
  822MPD2    H512101   1.255   4.154  16.028 -0.9138  1.3882  1.2702
  822MPD2    N112102   1.620   3.869  15.873 -0.4895 -0.1829  0.5291
  822MPD2    H712103   1.614   3.864  15.974 -1.1022 -1.8948  0.4023
  823MPD2     C12104   0.848   4.403  16.674  0.4807  0.5584 -0.1842
  823MPD2    C112105   0.931   4.328  16.602 -0.6450  0.2103 -0.5306
  823MPD2    C212106   0.990   4.215  16.659 -0.2490  0.7986 -0.1754
  823MPD2    C312107   0.973   4.187  16.792  0.4454 -0.5050  0.2380
  823MPD2    C412108   0.891   4.263  16.873  0.0921  0.5832 -0.5035
  823MPD2    C512109   0.822   4.362  16.802 -0.6619 -0.0542  0.1794
  823MPD2     H12110   1.057   4.154  16.600  0.0748  2.0674 -1.1154
  823MPD2    H112111   0.872   4.242  16.977  0.5530 -1.1765 -0.7633
  823MPD2    H212112   0.801   4.496  16.645  0.9415  0.1418 -2.2546
  823MPD2    H312113   0.754   4.427  16.856 -1.9643  0.4553 -2.0456
  823MPD2     N12114   1.051   4.091  16.857  0.2364  0.2013  0.1545
  823MPD2    H512115   1.035   4.079  16.957 -2.1565 -3.8281 -0.7193
  823MPD2    N112116   0.943   4.362  16.471  0.0335 -0.1980 -0.0357
  823MPD2    H712117   0.914   4.456  16.447  2.2267  0.5971  0.3672
  824MPD2     C12118   1.997   3.057  16.043  0.0800  0.4029  0.2367
  824MPD2    C112119   2.043   3.175  15.990 -0.5243 -0.9681 -0.3066
  824MPD2    C212120   2.162   3.184  15.927 -0.6453  0.3135 -0.0784
  824MPD2    C312121   2.248   3.079  15.921  0.0996  0.4746 -1.0284
  824MPD2    C412122   2.197   2.963  15.978 -0.1980  0.2296  0.6094
  824MPD2    C512123   2.073   2.948  16.030  0.1827  0.0032 -0.9527
  824MPD2     H12124   2.196   3.277  15.884  0.7478  0.4203  1.2768
  824MPD2    H112125   2.250   2.868  15.983  0.0201  0.3494  0.5670
  824MPD2    H212126   1.895   3.048  16.078  0.2549  1.4941  1.0140
  824MPD2    H312127   2.035   2.853  16.065 -2.9492  1.0836 -1.3947
  824MPD2     N12128   2.370   3.096  15.857  0.6713  0.0187  0.6106
  824MPD2    H512129   2.386   3.187  15.813 -3.4670 -0.3450 -1.6324
  824MPD2    N112130   1.961   3.286  15.996 -0.2844  0.1209  0.7243
  824MPD2    H712131   1.881   3.284  16.059  1.0401  3.9623  2.5319
  825MPD2     C12132   2.952   3.451  15.347 -0.0650  0.3390 -0.4755
  825MPD2    C112133   2.846   3.445  15.434 -0.5409 -0.1551 -0.4047
  825MPD2    C212134   2.773   3.562  15.457  0.6478 -0.4763  0.3157
  825MPD2    C312135   2.813   3.681  15.399 -0.5020 -0.0818  0.4602
  825MPD2    C412136   2.919   3.678  15.308 -0.4739 -0.4585 -0.2479
  825MPD2    C512137   2.991   3.564  15.286 -0.0622 -0.0431  0.5151
  825MPD2     H12138   2.683   3.571  15.517  0.2929 -0.1151 -0.2709
  825MPD2    H112139   2.941   3.769  15.254 -0.1955 -0.0204  0.6025
  825MPD2    H212140   3.020   3.367  15.339  1.3541  1.2246  2.5166
  825MPD2    H312141   3.079   3.561  15.223  0.4285 -1.2568  1.2503
  825MPD2     N12142   2.748   3.805  15.418 -0.0962  0.8009  0.4595
  825MPD2    H512143   2.747   3.865  15.336 -1.3334 -0.0147 -0.1185
  825MPD2    N112144   2.814   3.312  15.490 -0.2383  0.2477  0.1180
  825MPD2    H712145   2.866   3.233  15.453 -0.8777  0.0371 -0.3252
  826MPD2     C12146   2.249   3.435  13.615 -0.4970 -1.2215 -0.3994
  826MPD2    C112147   2.340   3.507  13.540  0.3515  0.1926  0.5952
  826MPD2    C212148   2.334   3.646  13.536 -0.1803  0.1372 -0.0978
  826MPD2    C312149   2.224   3.707  13.593 -0.2177 -0.8278  0.8860
  826MPD2    C412150   2.145   3.633  13.678 -0.5062  0.2453  0.1085
  826MPD2    C512151   2.158   3.498  13.687  0.1916  0.3474  0.2282
  826MPD2     H12152   2.406   3.695  13.471 -1.8113  0.6599 -1.5197
  826MPD2    H112153   2.076   3.684  13.745 -0.7824  1.5224 -1.1503
  826MPD2    H212154   2.245   3.327  13.606 -1.2091 -1.1000 -1.5190
  826MPD2    H312155   2.102   3.444  13.763  0.4484  0.9108  0.8219
  826MPD2     N12156   2.194   3.842  13.588 -0.1410 -0.1598 -0.1871
  826MPD2    H512157   2.106   3.874  13.626 -0.0805 -0.7037  0.4062
  826MPD2    N112158   2.440   3.428  13.478  0.5133 -0.5301 -0.4506
  826MPD2    H712159   2.432   3.330  13.504  0.2669 -0.0520  1.3064
  827MPD2     C12160   3.488   4.649   9.778 -0.0799  0.0067  0.8249
  827MPD2    C112161   3.471   4.546   9.869  0.5014  0.0975 -0.6464
  827MPD2    C212162   3.397   4.431   9.824  0.0115  0.0975  0.2462
  827MPD2    C312163   3.339   4.419   9.698  1.0045 -0.4239 -0.3928
  827MPD2    C412164   3.357   4.528   9.613 -0.0830  0.2100 -0.8765
  827MPD2    C512165   3.439   4.635   9.646 -0.1221  0.0872 -0.3727
  827MPD2     H12166   3.365   4.360   9.899  1.0452  0.0281  0.6255
  827MPD2    H112167   3.303   4.537   9.520 -0.8273  0.3512 -0.4336
  827MPD2    H212168   3.556   0.004   9.805 -0.4714  0.5181  0.3087
  827MPD2    H312169   3.459   4.714   9.575 -0.7188  0.0689 -0.5601
  827MPD2     N12170   3.255   4.311   9.673  0.2051  0.0493  0.7927
  827MPD2    H512171   3.251   4.239   9.745 -0.0447 -2.3021 -1.5696
  827MPD2    N112172   3.525   4.560  10.000  0.1274  0.0520 -0.0223
  827MPD2    H712173   3.566   4.651  10.021  0.8186 -0.5680  1.3241
  828MPD2     C12174   1.815   4.063  12.863 -0.4136  0.1251  0.0595
  828MPD2    C112175   1.806   4.113  12.730  0.0458  0.8775  0.5108
  828MPD2    C212176   1.926   4.120  12.663  0.0936  0.0932 -0.0050
  828MPD2    C312177   2.042   4.068  12.718  0.0901  0.4140 -0.5647
  828MPD2    C412178   2.050   4.025  12.845  0.4886  0.0799 -0.9359
  828MPD2    C512179   1.934   4.025  12.919 -0.2948 -0.9698  0.3987
  828MPD2     H12180   1.925   4.157  12.561 -0.5662 -3.1637 -1.1919
  828MPD2    H112181   2.138   3.975  12.882 -0.0819 -0.9236 -0.9338
  828MPD2    H212182   1.728   4.052  12.926 -0.2025  0.6681  0.4469
  828MPD2    H312183   1.940   3.988  13.020  1.0655 -1.5305  0.1099
  828MPD2     N12184   2.164   4.059  12.647  0.0359 -0.2182  0.2204
  828MPD2    H512185   2.251   4.034  12.692 -1.0299 -2.0312  1.2810
  828MPD2    N112186   1.687   4.147  12.664 -0.0258 -0.4408  0.1656
  828MPD2    H712187   1.688   4.170  12.565 -1.3931  1.4623  0.5850
  829MPD2     C12188   1.686   4.564  11.953 -0.4776  0.1016  0.0127
  829MPD2    C112189   1.547   4.566  11.964  0.3786  0.4288 -0.1377
  829MPD2    C212190   1.484   4.500  12.064  0.2122 -0.0254  0.0067
  829MPD2    C312191   1.563   4.436  12.157 -0.2832 -0.2826 -0.2185
  829MPD2    C412192   1.697   4.443  12.152 -0.6320 -0.1283 -0.2384
  829MPD2    C512193   1.760   4.512  12.053 -0.2390 -0.6377  0.3162
  829MPD2     H12194   1.376   4.492  12.072  0.3645 -2.6787 -0.3116
  829MPD2    H112195   1.756   4.412  12.238  0.4510  2.4919 -0.0590
  829MPD2    H212196   1.742   4.614  11.875  2.6885 -1.0462  1.5452
  829MPD2    H312197   1.867   4.515  12.064 -0.2253 -1.4391  0.4157
  829MPD2     N12198   1.514   4.361  12.264  1.0363 -0.0050  0.7531
  829MPD2    H512199   1.576   4.287  12.298 -0.2103 -1.6868 -0.6659
  829MPD2    N112200   1.468   4.631  11.860  0.1918 -0.0784 -0.2723
  829MPD2    H712201   1.521   4.676  11.786 -0.5690 -1.0897 -1.4181
  830MPD2     C12202   2.214   2.561  15.871  0.6602  0.2290  0.1127
  830MPD2    C112203   2.115   2.547  15.776 -0.2281  0.1963  0.0810
  830MPD2    C212204   2.153   2.578  15.648  0.4172 -0.2193  0.6378
  830MPD2    C312205   2.280   2.626  15.619 -0.0276  0.0419 -0.1431
  830MPD2    C412206   2.365   2.651  15.728 -0.1671 -0.3890  0.2365
  830MPD2    C512207   2.337   2.606  15.849  0.0221 -0.7382 -0.2024
  830MPD2     H12208   2.090   2.545  15.566  0.6534  1.1892 -0.1135
  830MPD2    H112209   2.464   2.689  15.707  0.5137 -1.3624  1.7074
  830MPD2    H212210   2.187   2.536  15.973  0.3774 -1.2893 -0.3310
  830MPD2    H312211   2.405   2.630  15.930 -2.5322 -1.9597  2.3113
  830MPD2     N12212   2.328   2.671  15.492  0.0015 -0.3188  0.0865
  830MPD2    H512213   2.426   2.697  15.480 -0.9669  2.7622 -1.1885
  830MPD2    N112214   1.985   2.498  15.812  0.5294  0.3980 -0.8014
  830MPD2    H712215   1.966   2.500  15.912 -1.6458 -2.4086 -1.1439
  831MPD2     C12216   1.467   4.381  16.354 -0.0018  0.3301 -0.1093
  831MPD2    C112217   1.496   4.286  16.267 -0.7028 -0.2375  0.0343
  831MPD2    C212218   1.427   4.166  16.291 -0.7995  0.3786 -0.8415
  831MPD2    C312219   1.338   4.150  16.397  0.0358 -0.0550  0.0606
  831MPD2    C412220   1.320   4.237  16.493  0.7412 -0.5213  0.3239
  831MPD2    C512221   1.391   4.353  16.466 -0.8040 -0.0235 -0.0360
  831MPD2     H12222   1.439   4.088  16.217  2.0510  1.9524 -2.0615
  831MPD2    H112223   1.260   4.229  16.583  0.7453 -2.0081  0.2055
  831MPD2    H212224   1.515   4.479  16.353 -3.4535  2.0140  0.2145
  831MPD2    H312225   1.368   4.433  16.536  1.8510  0.6332  0.1060
  831MPD2     N12226   1.256   4.030  16.401  0.6473  0.6471 -0.2612
  831MPD2    H512227   1.204   4.018  16.487 -1.7186  2.9071 -1.3531
  831MPD2    N112228   1.583   4.304  16.155  0.3304  0.5072  0.6544
  831MPD2    H712229   1.619   4.398  16.140  1.7392 -0.0040  0.8385
  832MPD2     C12230   4.647   1.056  17.255  0.3300 -0.4949 -0.1375
  832MPD2    C112231   4.669   1.169  17.180 -0.2626  0.6279 -0.2265
  832MPD2    C212232   4.614   1.190  17.055  0.5130 -0.4692  0.7803
  832MPD2    C312233   4.521   1.099  17.000 -0.3029 -0.3234 -1.2177
  832MPD2    C412234   4.510   0.985  17.077  0.2307  0.7407 -0.4629
  832MPD2    C512235   4.562   0.964  17.204  0.9726 -0.0190 -0.1628
  832MPD2     H12236   4.632   1.287  17.009 -1.2704  0.4255  2.0030
  832MPD2    H112237   4.437   0.912  17.042 -0.8751  2.0859 -0.9392
  832MPD2    H212238   4.689   1.059  17.355 -2.4201  1.0563  0.9617
  832MPD2    H312239   4.542   0.875  17.263  0.7630  0.6863  0.8409
  832MPD2     N12240   4.446   1.120  16.884 -0.6522 -0.4348 -0.7158
  832MPD2    H512241   4.381   1.045  16.860 -0.8832 -0.5968  0.4452
  832MPD2    N112242   0.005   1.280  17.244 -0.5769  0.0666 -1.1556
  832MPD2    H712243   0.045   1.250  17.333 -1.7742 -0.9327 -0.9416
  833MPD2     C12244   2.362   1.765  12.480  0.0837  0.0943  0.0701
  833MPD2    C112245   2.426   1.880  12.446  0.2202 -0.5311  0.5594
  833MPD2    C212246   2.524   1.887  12.354 -0.5961  0.5880 -0.1605
  833MPD2    C312247   2.566   1.765  12.295 -0.7882 -0.0738  0.5837
  833MPD2    C412248   2.523   1.645  12.349 -0.4034  0.2219 -0.9202
  833MPD2    C512249   2.416   1.652  12.434 -0.7770  0.1779  0.4164
  833MPD2     H12250   2.563   1.982  12.321 -2.4629  1.2080 -0.5800
  833MPD2    H112251   2.569   1.550  12.326 -1.3665 -0.2782 -0.7641
  833MPD2    H212252   2.288   1.767  12.559 -0.5865 -2.6671 -0.5010
  833MPD2    H312253   2.379   1.555  12.466  0.1767 -0.4234 -0.2620
  833MPD2     N12254   2.670   1.759  12.200  0.3740 -0.7529  0.0300
  833MPD2    H512255   2.702   1.665  12.178 -0.1722 -0.8679 -0.2757
  833MPD2    N112256   2.374   1.994  12.510 -0.0688  0.3857  0.2247
  833MPD2    H712257   2.298   1.982  12.576  0.3054  0.7437  0.7163
  834MPD2     C12258   2.871   1.207  11.422 -0.7114  0.9265 -0.0224
  834MPD2    C112259   2.842   1.325  11.367 -0.2149  0.4776 -0.0203
  834MPD2    C212260   2.809   1.436  11.446 -0.1084  0.1734 -0.2545
  834MPD2    C312261   2.815   1.421  11.585 -0.6088 -0.4953 -0.2268
  834MPD2    C412262   2.820   1.296  11.637 -0.0254 -0.3999  0.1157
  834MPD2    C512263   2.853   1.192  11.558 -0.3638 -0.8535  0.3326
  834MPD2     H12264   2.781   1.532  11.405 -1.8450 -0.5049 -0.6626
  834MPD2    H112265   2.814   1.272  11.743 -1.0326 -0.2482  0.0944
  834MPD2    H212266   2.895   1.123  11.359 -1.7138  1.7732 -1.5429
  834MPD2    H312267   2.861   1.092  11.599 -0.4705 -0.9884  0.0268
  834MPD2     N12268   2.809   1.540  11.662  0.1630  0.1567 -0.2416
  834MPD2    H512269   2.819   1.629  11.614 -2.4605 -0.7602 -2.4960
  834MPD2    N112270   2.835   1.345  11.226 -0.3236 -0.1316 -0.0081
  834MPD2    H712271   2.785   1.429  11.198 -1.7800 -1.6943 -2.1086
  835MPD2     C12272   2.785   4.258  11.202 -0.2812  0.1680  0.2388
  835MPD2    C112273   2.685   4.347  11.198 -0.2664 -0.5987 -0.1967
  835MPD2    C212274   2.618   4.375  11.316 -0.4648  0.1035 -0.7194
  835MPD2    C312275   2.657   4.327  11.436 -0.8950  0.1610  0.7350
  835MPD2    C412276   2.748   4.225  11.440  0.1584 -0.3057  0.2194
  835MPD2    C512277   2.812   4.200  11.322  0.1348  0.3060 -0.0522
  835MPD2     H12278   2.539   4.447  11.296 -0.6495  0.0109 -0.3225
  835MPD2    H112279   2.794   4.175  11.525 -0.1657  0.6360  0.9484
  835MPD2    H212280   2.855   4.241  11.120  0.1044 -0.1861  0.6412
  835MPD2    H312281   2.899   4.135  11.324  0.3644  0.5581 -1.7485
  835MPD2     N12282   2.600   4.380  11.555 -0.4470  0.4907  0.3146
  835MPD2    H512283   2.651   4.354  11.639  1.0873  1.4031 -0.3415
  835MPD2    N112284   2.643   4.410  11.079  0.3249  0.0919  0.4677
  835MPD2    H712285   2.584   4.493  11.080  1.2388  0.7565 -1.3502
  836MPD2     C12286   1.936   0.087  11.647  0.8845 -0.2295  0.1433
  836MPD2    C112287   1.965   0.028  11.759  0.2478 -0.5433 -0.1486
  836MPD2    C212288   1.901   0.060  11.878 -0.1720 -0.4109 -0.4527
  836MPD2    C312289   1.792   0.153  11.865  0.0948 -0.0237  0.0100
  836MPD2    C412290   1.765   0.211  11.738  0.3572  0.6038 -0.2281
  836MPD2    C512291   1.831   0.174  11.631  0.5098 -0.0949 -0.2695
  836MPD2     H12292   1.929   0.025  11.976 -0.5413 -1.2146 -0.6390
  836MPD2    H112293   1.677   0.275  11.731 -1.1528 -1.5629 -1.0538
  836MPD2    H212294   1.982   0.055  11.554 -0.5551 -2.3142  0.1599
  836MPD2    H312295   1.810   0.217  11.534  1.2569 -0.0705 -0.4186
  836MPD2     N12296   1.713   0.202  11.968 -0.1975  0.4245 -0.7391
  836MPD2    H512297   1.638   0.267  11.947 -0.4162  0.3552 -0.1703
  836MPD2    N112298   2.084   4.659  11.754  0.1925 -0.3276  0.2389
  836MPD2    H712299   2.117   4.650  11.659 -1.0237  1.5962 -0.3654
  837MPD2     C12300   0.336   4.690  10.171 -0.3245 -0.0925  0.2185
  837MPD2    C112301   0.209   4.723  10.128  0.8116 -0.4247 -0.6936
  837MPD2    C212302   0.168   0.129  10.089 -0.0427 -0.4009 -0.1396
  837MPD2    C312303   0.258   0.229  10.099 -0.6911  0.0524 -0.4730
  837MPD2    C412304   0.383   0.200  10.147 -0.8315 -0.1496 -0.1657
  837MPD2    C512305   0.425   0.071  10.171  0.0687 -0.0412 -0.5682
  837MPD2     H12306   0.068   0.132  10.047 -0.6120 -4.2878  0.9132
  837MPD2    H112307   0.460   0.276  10.158  0.0125 -0.7295 -2.1115
  837MPD2    H212308   0.372   4.594  10.206  1.3515  0.8534  1.0522
  837MPD2    H312309   0.517   0.056  10.227  0.1462  0.0589 -0.6669
  837MPD2     N12310   0.231   0.354  10.041 -0.2447  0.7373  0.7324
  837MPD2    H512311   0.151   0.344   9.979 -0.1477  3.1624  0.2452
  837MPD2    N112312   0.112   4.620  10.097  0.5683  0.0709 -0.2016
  837MPD2    H712313   0.022   4.661  10.074  0.4738 -0.7714 -1.3198
  838MPD2     C12314   3.161   2.709  12.092 -0.2402 -0.4096 -1.0579
  838MPD2    C112315   3.244   2.601  12.108 -0.1329  0.7027 -0.4147
  838MPD2    C212316   3.205   2.492  12.192  0.7458  0.1687 -0.3363
  838MPD2    C312317   3.077   2.495  12.250  0.2539 -0.3928  0.7036
  838MPD2    C412318   2.989   2.597  12.220  0.2209 -0.6973 -0.0589
  838MPD2    C512319   3.036   2.701  12.146 -0.5056 -0.5078  0.1320
  838MPD2     H12320   3.279   2.417  12.220 -0.2256 -1.2305 -1.5626
  838MPD2    H112321   2.885   2.608  12.250  0.4608 -3.6882  1.8720
  838MPD2    H212322   3.186   2.786  12.020 -0.5384 -0.2620 -1.0035
  838MPD2    H312323   2.961   2.775  12.118  0.5624 -0.2680 -2.0743
  838MPD2     N12324   3.025   2.395  12.344  0.2258 -0.2191  0.4017
  838MPD2    H512325   2.941   2.411  12.399 -0.2952  1.9498 -1.0389
  838MPD2    N112326   3.372   2.586  12.052 -0.5218  0.2343 -0.3645
  838MPD2    H712327   3.405   2.491  12.062 -0.6275  0.2608  0.2681
  839MPD2     C12328   3.624   1.891  12.144 -0.0019 -0.0947  0.4322
  839MPD2    C112329   3.592   1.916  12.008 -0.3113 -0.2578 -0.2028
  839MPD2    C212330   3.617   2.043  11.953  0.0303 -0.9307 -0.3119
  839MPD2    C312331   3.680   2.146  12.029  0.3772  0.2065  0.1322
  839MPD2    C412332   3.733   2.111  12.152 -0.1480 -0.1933 -0.2559
  839MPD2    C512333   3.698   1.987  12.206  0.8819 -0.0753  0.3170
  839MPD2     H12334   3.559   2.072  11.866 -0.2221 -1.3667 -0.2849
  839MPD2    H112335   3.792   2.177  12.214 -2.8266  0.2109  1.8992
  839MPD2    H212336   3.606   1.798  12.196  0.2273 -0.0312  0.6272
  839MPD2    H312337   3.738   1.962  12.304 -0.8846 -2.2362  0.5056
  839MPD2     N12338   3.705   2.275  11.975  1.0794  0.5781  0.6578
  839MPD2    H512339   3.733   2.347  12.041  0.7440  0.9070  0.4408
  839MPD2    N112340   3.536   1.819  11.922 -0.3432 -0.8323 -0.5132
  839MPD2    H712341   3.523   1.855  11.828  0.3562  1.4998  0.2922
  840MPD2     C12342   3.776   0.348  10.224  0.6115 -0.1222 -0.2427
  840MPD2    C112343   3.756   0.271  10.334  0.5813 -0.1319  0.6027
  840MPD2    C212344   3.817   0.315  10.454 -0.5276 -0.0797 -0.6159
  840MPD2    C312345   3.881   0.444  10.462  0.0312 -0.4774 -0.8732
  840MPD2    C412346   3.890   0.517  10.344 -0.1289  0.3962 -0.7194
  840MPD2    C512347   3.825   0.471  10.237 -0.1769 -0.3067 -0.5608
  840MPD2     H12348   3.822   0.252  10.542 -0.1765  1.0302  0.1590
  840MPD2    H112349   3.952   0.607  10.341  2.4609 -1.3887 -0.7597
  840MPD2    H212350   3.736   0.313  10.130  1.5077  1.0324 -1.0579
  840MPD2    H312351   3.828   0.530  10.146 -0.6995 -0.9922 -1.0260
  840MPD2     N12352   3.954   0.488  10.578  0.4582 -0.4880 -0.6153
  840MPD2    H512353   4.008   0.573  10.575  0.1866 -0.2825  0.3633
  840MPD2    N112354   3.691   0.146  10.322 -0.1059 -0.5291  0.0453
  840MPD2    H712355   3.650   0.112  10.235 -2.7892  1.3897  0.5704
  841MPD2     C12356   2.996   4.065  15.222  0.3635  0.0605  0.5966
  841MPD2    C112357   3.035   4.014  15.102 -0.0308 -0.1648 -0.2846
  841MPD2    C212358   3.162   4.050  15.053  0.5667 -0.3202  0.0590
  841MPD2    C312359   3.250   4.123  15.131  0.1790  0.4584  0.0922
  841MPD2    C412360   3.211   4.166  15.261  0.3361  1.1973 -0.4517
  841MPD2    C512361   3.087   4.134  15.307  0.5785 -0.8090  0.5159
  841MPD2     H12362   3.190   4.005  14.958 -2.7382 -2.0190 -0.1149
  841MPD2    H112363   3.273   4.218  15.333 -1.4016  0.6648  1.4236
  841MPD2    H212364   2.897   4.044  15.261 -0.2545  1.2443 -0.3350
  841MPD2    H312365   3.063   4.163  15.409 -0.5468  0.6410 -0.1761
  841MPD2     N12366   3.373   4.167  15.067  1.2077  0.4045  0.1722
  841MPD2    H512367   3.391   4.122  14.978 -1.4240 -0.9508  0.2950
  841MPD2    N112368   2.955   3.926  15.022  0.1747  0.0921  0.0082
  841MPD2    H712369   2.992   3.897  14.932  0.6721 -1.6284  0.7558
  842MPD2     C12370   3.421   0.895  16.466 -0.1118 -0.2694 -0.2643
  842MPD2    C112371   3.402   0.768  16.497  0.4106 -0.5031  0.0613
  842MPD2    C212372   3.436   0.719  16.621  0.8307  0.4813 -0.4258
  842MPD2    C312373   3.501   0.799  16.711  0.9872 -0.7712  0.4461
  842MPD2    C412374   3.497   0.937  16.684 -0.2149 -0.6603 -0.3394
  842MPD2    C512375   3.463   0.984  16.561 -0.4695  0.4191  0.8379
  842MPD2     H12376   3.439   0.613  16.639  2.3425  0.4940 -0.5964
  842MPD2    H112377   3.532   1.013  16.752 -0.4284 -0.1792 -0.7652
  842MPD2    H212378   3.387   0.931  16.369 -1.5606  0.8604  0.6777
  842MPD2    H312379   3.488   1.086  16.533  1.6426  0.8029  4.2738
  842MPD2     N12380   3.563   0.769  16.831 -0.1015  0.2152 -0.2321
  842MPD2    H512381   3.576   0.852  16.889  1.8894 -0.2453 -0.0409
  842MPD2    N112382   3.357   0.682  16.395 -1.0307  0.3293  0.1539
  842MPD2    H712383   3.368   0.714  16.299  0.2453 -2.0355 -0.4850
  843MPD2     C12384   0.498   1.270   0.590 -0.1834 -0.5696  0.0986
  843MPD2    C112385   0.550   1.147   0.623  1.0595 -0.1398  0.7711
  843MPD2    C212386   0.688   1.136   0.620 -0.8044  0.1247  0.1285
  843MPD2    C312387   0.771   1.242   0.597 -0.3777  0.6720  0.0603
  843MPD2    C412388   0.717   1.365   0.570  0.2202  0.6242 -0.0601
  843MPD2    C512389   0.583   1.379   0.565 -0.5454 -0.5363 -0.6526
  843MPD2     H12390   0.723   1.035   0.640  1.2604  0.7020 -0.5625
  843MPD2    H112391   0.779   1.453   0.556  0.3580  0.7040  1.0630
  843MPD2    H212392   0.394   1.287   0.567 -0.4883  0.5865  2.3186
  843MPD2    H312393   0.543   1.470   0.523  0.3807  0.2953  0.2647
  843MPD2     N12394   0.911   1.244   0.597 -0.2169  0.2639  0.2572
  843MPD2    H512395   0.954   1.330   0.564 -1.2181  1.3251  1.6858
  843MPD2    N112396   0.460   1.039   0.631  0.1425  0.4247 -1.1955
  843MPD2    H712397   0.362   1.063   0.637 -0.6391 -2.6255 -1.9685
  844MPD2     C12398   4.277   0.524  16.365 -0.3831 -0.3924  0.6433
  844MPD2    C112399   4.406   0.470  16.380 -0.0025 -0.3234 -0.2553
  844MPD2    C212400   4.493   0.534  16.458 -0.2689 -1.4599  0.5518
  844MPD2    C312401   4.472   0.663  16.507 -0.3963 -0.4215  0.2779
  844MPD2    C412402   4.349   0.720  16.489  0.0493 -0.9813 -0.0784
  844MPD2    C512403   4.260   0.654  16.410 -0.0345 -0.0118  0.7563
  844MPD2     H12404   4.589   0.491  16.483  0.5672 -0.4674 -0.9891
  844MPD2    H112405   4.314   0.817  16.523  1.2658 -0.8017  0.6623
  844MPD2    H212406   4.196   0.472  16.315  0.1240 -1.3820  0.8641
  844MPD2    H312407   4.169   0.712  16.398 -0.3673 -1.1116 -1.9600
  844MPD2     N12408   4.567   0.711  16.590 -0.9455 -0.5489 -0.7270
  844MPD2    H512409   4.652   0.657  16.601 -0.7480 -0.3009 -1.0356
  844MPD2    N112410   4.445   0.347  16.311  0.7058  0.7919  0.4810
  844MPD2    H712411   4.544   0.327  16.322  0.1932 -1.8853  0.2501
  845MPD2     C12412   0.261   1.652  16.744 -0.5102 -0.1724  0.2212
  845MPD2    C112413   0.129   1.631  16.715  0.2607 -0.3634  0.0527
  845MPD2    C212414   0.075   1.504  16.738 -0.2960  0.0696  0.3581
  845MPD2    C312415   0.147   1.392  16.776  0.3545  0.5381  0.4697
  845MPD2    C412416   0.282   1.415  16.786 -0.9200 -0.5046  0.4767
  845MPD2    C512417   0.341   1.544  16.773  0.7865  0.4851  0.8084
  845MPD2     H12418   4.693   1.482  16.728 -0.2112 -0.3668  0.4302
  845MPD2    H112419   0.352   1.335  16.807  2.5043  2.4178  0.2393
  845MPD2    H212420   0.311   1.747  16.728  1.4383 -1.0761  1.0433
  845MPD2    H312421   0.448   1.561  16.779  0.6962  0.5095  2.3232
  845MPD2     N12422   0.100   1.259  16.792  0.3618 -0.0223 -0.2651
  845MPD2    H512423   0.003   1.245  16.767  0.4043 -1.7181  0.4992
  845MPD2    N112424   0.055   1.748  16.698  0.4068  0.4145  0.0527
  845MPD2    H712425   0.094   1.838  16.724 -1.0261  0.0660  3.4560
  846MPD2     C12426   1.671   1.690  13.622  0.1602  0.2288  0.0952
  846MPD2    C112427   1.575   1.790  13.618  0.1566  0.1242 -0.0324
  846MPD2    C212428   1.505   1.817  13.732  0.5130  0.3784  0.1893
  846MPD2    C312429   1.521   1.741  13.849 -0.0927  0.9879 -0.2734
  846MPD2    C412430   1.623   1.646  13.850  0.9726 -1.0274  0.0751
  846MPD2    C512431   1.696   1.624  13.738 -0.2373 -0.1366 -0.2388
  846MPD2     H12432   1.430   1.895  13.728 -0.8973 -0.8518  2.5663
  846MPD2    H112433   1.640   1.583  13.936 -0.5442  0.5842  1.5590
  846MPD2    H212434   1.718   1.677  13.526 -0.1252  0.7360 -0.1121
  846MPD2    H312435   1.766   1.541  13.745  3.7844  3.2523 -0.3053
  846MPD2     N12436   1.441   1.764  13.962  0.2377 -0.1166  0.0370
  846MPD2    H512437   1.360   1.823  13.947  1.7101  1.4424 -1.7707
  846MPD2    N112438   1.554   1.869  13.501  0.7103 -0.2235 -0.4837
  846MPD2    H712439   1.498   1.952  13.507  1.8853  0.4526  1.1570
  847MPD2     C12440   1.703   2.476  14.300  0.1739 -0.1736  0.2534
  847MPD2    C112441   1.827   2.523  14.333  0.3427 -0.7821  0.4364
  847MPD2    C212442   1.880   2.481  14.450 -0.2256  0.4794 -0.4825
  847MPD2    C312443   1.827   2.379  14.531  0.1875 -0.3454  0.5581
  847MPD2    C412444   1.698   2.342  14.503 -0.0050 -0.4216  0.5649
  847MPD2    C512445   1.636   2.378  14.381  0.3838  0.3903  1.3215
  847MPD2     H12446   1.968   2.533  14.486 -0.0249  0.1553 -0.5067
  847MPD2    H112447   1.645   2.285  14.579  0.1895 -0.5645  0.5944
  847MPD2    H212448   1.647   2.521  14.218  0.5322  2.8311  1.6870
  847MPD2    H312449   1.534   2.351  14.356  0.4741 -0.5893  2.0240
  847MPD2     N12450   1.899   2.327  14.646 -0.6952 -0.1058 -0.0249
  847MPD2    H512451   1.843   2.255  14.691  1.0544  0.3134  2.8158
  847MPD2    N112452   1.899   2.625  14.268  0.2732  0.0987  0.7695
  847MPD2    H712453   1.982   2.656  14.318  0.4309 -1.0365  1.2110
  848MPD2     C12454   4.322   1.405  16.090 -0.0386 -0.0406  0.2027
  848MPD2    C112455   4.219   1.328  16.143  0.2561 -0.2305  0.0957
  848MPD2    C212456   4.094   1.350  16.090 -0.2560  0.0242 -0.2438
  848MPD2    C312457   4.062   1.455  15.998 -0.0778 -0.0995  0.1196
  848MPD2    C412458   4.166   1.527  15.952 -0.7599  0.3204  0.4552
  848MPD2    C512459   4.296   1.500  15.990  0.1843 -0.4160  0.4123
  848MPD2     H12460   4.010   1.296  16.134 -0.8335  0.0844 -1.2780
  848MPD2    H112461   4.154   1.622  15.901  1.1793  0.0891 -0.3893
  848MPD2    H212462   4.427   1.404  16.119 -0.6770 -0.2514  2.5165
  848MPD2    H312463   4.357   1.588  15.971 -0.8332  0.3093  0.5188
  848MPD2     N12464   3.931   1.489  15.968  0.0577  0.0474 -0.0929
  848MPD2    H512465   3.911   1.579  15.925 -0.8286  0.0613  0.3442
  848MPD2    N112466   4.234   1.248  16.266 -0.0312 -0.1842  0.0538
  848MPD2    H712467   4.149   1.205  16.302 -0.2171 -0.8216 -1.1437
  849MPD2     C12468   3.184   4.697  14.935  0.3548 -0.4716  0.2873
  849MPD2    C112469   3.177   0.085  14.858  0.0587  0.2293  0.1056
  849MPD2    C212470   3.277   0.179  14.873  0.0929  0.5206 -0.8318
  849MPD2    C312471   3.379   0.155  14.967  0.5978 -0.3043 -0.3362
  849MPD2    C412472   3.379   0.041  15.048 -0.3458  0.1189 -0.3042
  849MPD2    C512473   3.276   4.673  15.033 -0.1936  0.3122 -0.0394
  849MPD2     H12474   3.289   0.263  14.806  0.8205  0.6633 -0.5207
  849MPD2    H112475   3.455   0.023  15.123  2.2848 -1.5799 -3.4115
  849MPD2    H212476   3.101   4.628  14.939  1.0259 -1.4034 -1.7044
  849MPD2    H312477   3.268   4.585  15.096 -2.4395  0.1587 -0.5508
  849MPD2     N12478   3.492   0.238  14.974 -0.0206 -0.3621 -0.0669
  849MPD2    H512479   3.568   0.198  15.028 -2.0604 -0.3578  2.8090
  849MPD2    N112480   3.082   0.092  14.752 -0.2902  0.1479  0.1341
  849MPD2    H712481   3.023   0.011  14.734  0.8874 -0.6931  0.0037
  850MPD2     C12482   1.771   3.352  14.568 -0.3171  0.1640 -0.2348
  850MPD2    C112483   1.712   3.428  14.662  0.2794  0.9743  0.1774
  850MPD2    C212484   1.781   3.533  14.714  0.3010  0.5380  0.6987
  850MPD2    C312485   1.908   3.558  14.677 -0.5729 -0.0907 -0.4315
  850MPD2    C412486   1.968   3.482  14.587  0.0951 -0.4367 -0.0960
  850MPD2    C512487   1.900   3.372  14.538 -0.7346 -0.3360 -0.4136
  850MPD2     H12488   1.746   3.595  14.796 -0.4530 -1.4742  1.9001
  850MPD2    H112489   2.062   3.509  14.540  0.6365 -0.7406  0.7991
  850MPD2    H212490   1.725   3.270  14.514  1.4003 -1.3488  0.6098
  850MPD2    H312491   1.946   3.317  14.457 -2.3344  0.0114 -1.5852
  850MPD2     N12492   1.993   3.656  14.746 -0.2093  0.0531 -0.3735
  850MPD2    H512493   2.089   3.657  14.713  0.5475 -1.5119  1.7683
  850MPD2    N112494   1.586   3.383  14.709 -0.4031  0.5124 -0.0167
  850MPD2    H712495   1.572   3.284  14.696 -1.3408  0.6656 -0.2043
  851MPD2     C12496   1.739   3.267  15.509 -1.0098 -0.4355  0.1768
  851MPD2    C112497   1.737   3.237  15.380 -0.5120 -0.6213  0.3530
  851MPD2    C212498   1.839   3.165  15.333  0.0658  0.6213 -0.1616
  851MPD2    C312499   1.958   3.154  15.403 -0.9751  0.5740 -0.3706
  851MPD2    C412500   1.965   3.195  15.536  0.2326 -0.0325 -0.1748
  851MPD2    C512501   1.851   3.243  15.589  0.2991  0.2267 -0.4615
  851MPD2     H12502   1.834   3.127  15.231  1.3932  2.1555 -0.7968
  851MPD2    H112503   2.059   3.201  15.590 -0.8484 -0.1292  1.7190
  851MPD2    H212504   1.656   3.325  15.548 -1.7394 -0.4851 -1.3242
  851MPD2    H312505   1.849   3.292  15.686 -1.9866 -0.6692 -0.0553
  851MPD2     N12506   2.074   3.100  15.335 -0.1175  0.0453  0.0767
  851MPD2    H512507   2.056   3.080  15.237 -0.2476  0.7871 -0.0518
  851MPD2    N112508   1.626   3.268  15.299 -0.0004 -0.6953 -0.7747
  851MPD2    H712509   1.567   3.345  15.329  2.3444  1.1673 -0.9808
  852MPD2     C12510   2.204   0.875   9.476  0.8750 -0.3781  0.0159
  852MPD2    C112511   2.160   1.000   9.512 -0.7056  0.2846 -0.5376
  852MPD2    C212512   2.246   1.109   9.514 -0.0747 -0.0788  1.3316
  852MPD2    C312513   2.374   1.088   9.461  0.3069  0.5670 -0.3233
  852MPD2    C412514   2.418   0.961   9.428  0.2135  0.1800 -0.1575
  852MPD2    C512515   2.336   0.860   9.437 -0.2596 -0.2070 -0.1358
  852MPD2     H12516   2.196   1.201   9.542 -1.7630 -0.6421  0.1837
  852MPD2    H112517   2.522   0.942   9.405  0.0940 -0.5078 -0.1130
  852MPD2    H212518   2.143   0.786   9.486  1.3099 -0.9125 -2.1084
  852MPD2    H312519   2.378   0.766   9.403  1.7571  1.4221 -2.1415
  852MPD2     N12520   2.460   1.198   9.450  0.8489  0.3116  0.4401
  852MPD2    H512521   2.418   1.283   9.485 -1.0401 -0.4557 -0.0045
  852MPD2    N112522   2.036   1.030   9.572 -0.4735  0.5110 -0.6711
  852MPD2    H712523   2.011   1.123   9.604  0.6567 -0.0762  1.8788
  853MPD2     C12524   2.972   1.579  12.614  0.3489  0.1585 -0.1754
  853MPD2    C112525   3.010   1.456  12.662 -0.4717 -0.5409 -0.3364
  853MPD2    C212526   2.989   1.342  12.587  0.3002 -0.5046  0.4321
  853MPD2    C312527   2.939   1.346  12.459 -0.0975 -0.8010 -0.3547
  853MPD2    C412528   2.901   1.472  12.411  0.1263 -0.4132 -0.2260
  853MPD2    C512529   2.922   1.585  12.486 -0.0531 -0.1888  0.6663
  853MPD2     H12530   3.016   1.243  12.623  1.2519 -0.2928  0.2797
  853MPD2    H112531   2.869   1.473  12.307 -2.1510 -0.8665  0.4843
  853MPD2    H212532   2.986   1.665  12.678 -4.2145 -0.4952  1.6866
  853MPD2    H312533   2.899   1.681  12.440  1.9216 -1.3562 -2.7344
  853MPD2     N12534   2.907   1.232  12.373  0.1886  0.1575  0.0920
  853MPD2    H512535   2.864   1.253  12.284 -1.3032  0.0309  0.7844
  853MPD2    N112536   3.076   1.449  12.785 -0.7868  0.2282 -0.2903
  853MPD2    H712537   3.078   1.533  12.842  1.2039  0.3471 -0.5253
  854MPD2     C12538   0.389   0.454  12.452  0.3999  0.4798  0.3285
  854MPD2    C112539   0.419   0.523  12.566 -0.9146 -0.0980 -0.4779
  854MPD2    C212540   0.538   0.503  12.636  0.5669  0.1558 -0.2465
  854MPD2    C312541   0.640   0.416  12.580  0.1052  0.3488  0.2653
  854MPD2    C412542   0.606   0.351  12.463 -0.1695  0.0909  0.8590
  854MPD2    C512543   0.486   0.374  12.399 -0.7778  0.1049 -0.2795
  854MPD2     H12544   0.552   0.555  12.730  1.3989 -2.3087  0.9880
  854MPD2    H112545   0.666   0.273  12.417  2.3354  1.4237  1.8783
  854MPD2    H212546   0.296   0.458  12.396  0.8141 -0.7725 -0.4706
  854MPD2    H312547   0.460   0.314  12.312  0.3020 -1.9873  0.8284
  854MPD2     N12548   0.768   0.407  12.640 -0.2846 -0.4278  0.0107
  854MPD2    H512549   0.778   0.467  12.720  1.3840  0.2722 -0.7260
  854MPD2    N112550   0.313   0.606  12.609  0.0913 -0.2602 -0.5018
  854MPD2    H712551   0.239   0.609  12.540 -0.4272 -2.4107 -0.0414
  855MPD2     C12552   1.317   0.418  13.474 -0.1416  0.3440 -0.5037
  855MPD2    C112553   1.198   0.472  13.425 -0.4978 -0.6159  0.1033
  855MPD2    C212554   1.167   0.460  13.295  0.0406 -0.3389 -0.6610
  855MPD2    C312555   1.248   0.398  13.199 -0.5217 -0.4946  0.0835
  855MPD2    C412556   1.371   0.352  13.245  0.1916 -0.4619 -0.2086
  855MPD2    C512557   1.399   0.367  13.381  0.1963 -0.0737  0.0427
  855MPD2     H12558   1.063   0.484  13.272 -1.1475 -2.2047  2.7226
  855MPD2    H112559   1.448   0.308  13.184  0.9643 -3.1827  2.7949
  855MPD2    H212560   1.330   0.429  13.581 -1.5948 -0.9231 -0.1946
  855MPD2    H312561   1.499   0.341  13.414  0.3333  0.6991  0.2506
  855MPD2     N12562   1.218   0.388  13.065  0.2942 -0.0361  0.1917
  855MPD2    H512563   1.273   0.321  13.012  1.1682  0.2436  0.7418
  855MPD2    N112564   1.091   0.531  13.502  0.7488 -0.4122 -0.1476
  855MPD2    H712565   1.005   0.549  13.450  1.6011 -0.7086 -1.6580
  856MPD2     C12566   2.078   2.204  14.214  0.5416  0.6180 -0.0179
  856MPD2    C112567   2.206   2.252  14.176  0.6709 -0.5625  0.2725
  856MPD2    C212568   2.220   2.370  14.101 -0.8802 -0.5869  0.1853
  856MPD2    C312569   2.114   2.436  14.063  0.1414  1.2365 -0.2742
  856MPD2    C412570   1.991   2.378  14.084  0.9095  0.4626  0.3133
  856MPD2    C512571   1.974   2.262  14.149 -0.3044 -0.8592 -0.2857
  856MPD2     H12572   2.322   2.385  14.066 -0.0048 -1.0011  2.5473
  856MPD2    H112573   1.902   2.431  14.054 -0.4647 -1.1025  1.6244
  856MPD2    H212574   2.057   2.122  14.282  0.5639  2.6597  2.4486
  856MPD2    H312575   1.876   2.222  14.170 -0.3663 -0.6023 -0.0860
  856MPD2     N12576   2.122   2.556  13.985  0.5916 -0.1531  0.4136
  856MPD2    H512577   2.046   2.579  13.922  1.3635  1.4974  0.0932
  856MPD2    N112578   2.322   2.175  14.193  0.2923 -0.0768 -0.9553
  856MPD2    H712579   2.412   2.217  14.172 -0.3188  1.4746 -0.4397
  857MPD2     C12580   4.311   4.301  12.578 -0.2681 -0.0992  0.5212
  857MPD2    C112581   4.309   4.225  12.692 -0.9421 -0.1842 -0.3291
  857MPD2    C212582   4.281   4.286  12.812 -0.2191 -0.0012 -0.9048
  857MPD2    C312583   4.243   4.417  12.814 -0.4619  0.1428 -0.6151
  857MPD2    C412584   4.240   4.494  12.703  0.2159  0.0940  0.7988
  857MPD2    C512585   4.279   4.434  12.584 -0.2658 -0.7469  0.5657
  857MPD2     H12586   4.262   4.233  12.905 -2.0965 -0.5666 -1.6198
  857MPD2    H112587   4.222   4.600  12.700  1.7108  0.3026 -1.6902
  857MPD2    H212588   4.310   4.259  12.478 -1.2026 -0.1028  0.5338
  857MPD2    H312589   4.286   4.502  12.500  0.4704 -0.9294  0.4823
  857MPD2     N12590   4.196   4.466  12.933 -0.1493 -0.4141 -0.0925
  857MPD2    H512591   4.204   4.403  13.012 -3.7827 -1.2354 -0.3369
  857MPD2    N112592   4.327   4.091  12.669 -0.0151  0.3142 -0.0731
  857MPD2    H712593   4.336   4.061  12.572  3.2575 -0.2287  0.4038
  858MPD2     C12594   4.347   3.007  16.835  0.7583 -0.2941  0.3621
  858MPD2    C112595   4.470   3.056  16.836 -0.2461  0.3779 -0.0920
  858MPD2    C212596   4.497   3.152  16.932 -0.5943 -0.4183  0.1162
  858MPD2    C312597   4.410   3.190  17.031  0.0293 -0.7743 -0.0100
  858MPD2    C412598   4.284   3.136  17.028  0.2993 -1.0192  0.2211
  858MPD2    C512599   4.245   3.052  16.925  0.0200  0.0493  0.6771
  858MPD2     H12600   4.596   3.196  16.931 -0.5467 -0.4696  2.2714
  858MPD2    H112601   4.209   3.155  17.104  0.0234 -0.8872 -0.0853
  858MPD2    H212602   4.321   2.949  16.748  0.8750  0.9477 -0.5095
  858MPD2    H312603   4.150   3.000  16.924 -0.1446  0.3866 -2.9283
  858MPD2     N12604   4.431   3.280  17.139 -0.2348  0.1641 -0.6345
  858MPD2    H512605   4.353   3.308  17.197  1.2561  1.6974  0.5992
  858MPD2    N112606   4.561   3.019  16.734  0.6884  0.4850  0.0022
  858MPD2    H712607   4.545   2.930  16.688  0.9487  0.4884 -0.1011
  859MPD2     C12608   3.411   0.329  15.338  0.7990  0.1144 -0.2417
  859MPD2    C112609   3.534   0.380  15.322 -0.0974  0.1183  0.8915
  859MPD2    C212610   3.647   0.301  15.320 -0.6848  0.0802  0.2628
  859MPD2    C312611   3.637   0.164  15.336 -0.6381  0.0890 -0.7577
  859MPD2    C412612   3.513   0.120  15.366 -0.9592 -0.0350 -0.0961
  859MPD2    C512613   3.397   0.197  15.363  0.2284  0.2947 -0.0900
  859MPD2     H12614   3.745   0.344  15.304 -0.4479 -1.3275 -2.2806
  859MPD2    H112615   3.505   0.015  15.395 -1.5580  0.1150  0.2620
  859MPD2    H212616   3.331   0.402  15.344  0.0006 -0.8133  0.5882
  859MPD2    H312617   3.306   0.152  15.400  0.1277  0.4528 -0.1493
  859MPD2     N12618   3.743   0.071  15.335  0.7519 -0.0426 -0.1837
  859MPD2    H512619   3.725   4.697  15.354 -1.2837  0.0923 -1.3804
  859MPD2    N112620   3.545   0.521  15.298 -0.1989  0.2159  0.2542
  859MPD2    H712621   3.457   0.571  15.310 -1.6647 -1.9760 -1.3905
  860MPD2     C12622   1.574   1.418  11.344 -0.3277  0.3290 -0.4086
  860MPD2    C112623   1.550   1.451  11.477  0.3853 -0.8273  0.0833
  860MPD2    C212624   1.459   1.372  11.552 -0.6931 -0.2607  0.2809
  860MPD2    C312625   1.409   1.257  11.500 -0.4743 -0.0071 -0.1765
  860MPD2    C412626   1.412   1.237  11.366 -0.1602 -0.0753  0.2025
  860MPD2    C512627   1.496   1.319  11.289  0.3306  0.4567 -0.2413
  860MPD2     H12628   1.453   1.395  11.657 -1.1058 -1.8168  0.6062
  860MPD2    H112629   1.348   1.167  11.314 -0.6081  0.1705  0.4217
  860MPD2    H212630   1.636   1.482  11.283  2.1027 -3.4695 -1.9520
  860MPD2    H312631   1.505   1.316  11.181  1.9269  1.1138 -0.1296
  860MPD2     N12632   1.329   1.184  11.590 -0.5539 -0.7315 -0.3241
  860MPD2    H512633   1.310   1.222  11.682 -1.1642 -0.3144 -0.6206
  860MPD2    N112634   1.633   1.546  11.544 -0.0721 -0.4714 -0.4334
  860MPD2    H712635   1.721   1.569  11.499  0.5349 -0.3580  0.7912
  861MPD2     C12636   0.490   4.108  10.990 -0.3634 -0.0151 -0.5411
  861MPD2    C112637   0.379   4.074  11.064  0.4961 -0.1021  0.2114
  861MPD2    C212638   0.257   4.113  11.019 -0.4570 -0.6293  0.6660
  861MPD2    C312639   0.240   4.191  10.906  0.7133 -0.5083 -0.0658
  861MPD2    C412640   0.348   4.204  10.821  0.4218 -0.6406  0.0933
  861MPD2    C512641   0.474   4.169  10.869  0.2757  0.2474  0.0185
  861MPD2     H12642   0.178   4.084  11.086  1.9468 -3.1846  2.3768
  861MPD2    H112643   0.351   4.254  10.725  0.3900  0.6360  0.7577
  861MPD2    H212644   0.591   4.086  11.021  0.1574  1.5616 -1.0909
  861MPD2    H312645   0.561   4.169  10.805  0.1513  1.1730 -0.1506
  861MPD2     N12646   0.119   4.245  10.862 -0.4659 -0.0071 -0.0392
  861MPD2    H512647   0.115   4.306  10.781 -0.1930  0.9077  0.6424
  861MPD2    N112648   0.386   3.991  11.180 -0.4839 -0.4421 -0.0288
  861MPD2    H712649   0.297   3.962  11.220  0.4696  0.8725  3.0873
  862MPD2     C12650   4.279   4.341  10.380  0.5738  0.1476  0.1654
  862MPD2    C112651   4.347   4.266  10.471  0.2220  0.6902 -0.6813
  862MPD2    C212652   4.364   4.136  10.452 -0.2945 -0.3310 -0.6424
  862MPD2    C312653   4.307   4.076  10.341 -0.7541 -0.1316  0.8470
  862MPD2    C412654   4.238   4.149  10.248  0.0860  0.5305 -0.7982
  862MPD2    C512655   4.222   4.287  10.267 -0.2990  0.5980 -0.4485
  862MPD2     H12656   4.423   4.080  10.523 -2.0427  0.1230  1.1626
  862MPD2    H112657   4.186   4.097  10.167 -1.4210  0.3651  0.2758
  862MPD2    H212658   4.262   4.447  10.396  0.3158  0.0953  0.2422
  862MPD2    H312659   4.171   4.348  10.194 -0.7431  1.0269  0.2260
  862MPD2     N12660   4.320   3.936  10.318 -0.4967 -0.5979 -0.6121
  862MPD2    H512661   4.271   3.892  10.241  2.8734 -2.3442 -1.7910
  862MPD2    N112662   4.418   4.319  10.582  0.5022  0.3923  0.5637
  862MPD2    H712663   4.465   4.251  10.641 -0.9258 -2.8783 -1.9991
  863MPD2     C12664   3.034   2.469  16.498 -0.0328  0.9826  0.5115
  863MPD2    C112665   2.967   2.421  16.610 -0.5421  0.2385 -0.5139
  863MPD2    C212666   3.035   2.336  16.698 -0.0267 -0.2160  0.5199
  863MPD2    C312667   3.171   2.313  16.679 -0.0801 -1.2356  0.2589
  863MPD2    C412668   3.230   2.354  16.563  0.2504 -0.2153  0.3290
  863MPD2    C512669   3.164   2.432  16.470 -0.7576  0.4757  0.0503
  863MPD2     H12670   2.986   2.290  16.782  4.1451 -0.8777  2.5584
  863MPD2    H112671   3.333   2.339  16.534  0.2708 -0.5634  0.5847
  863MPD2    H212672   2.990   2.531  16.421 -0.2449 -0.6111 -0.6430
  863MPD2    H312673   3.209   2.460  16.376 -2.8974  2.0234 -0.5155
  863MPD2     N12674   3.254   2.254  16.770  0.0091  0.1968  0.6688
  863MPD2    H512675   3.348   2.234  16.738 -0.4028 -0.1608 -0.3249
  863MPD2    N112676   2.834   2.474  16.620  0.7342 -0.1118 -0.5820
  863MPD2    H712677   2.807   2.543  16.549 -0.1070 -0.1024 -0.2532
  864MPD2     C12678   2.982   2.991  16.709  0.2562 -0.1487 -0.0988
  864MPD2    C112679   3.023   3.019  16.844 -0.8065 -1.2494 -0.3323
  864MPD2    C212680   3.102   3.130  16.859  1.0175 -0.1861 -0.2156
  864MPD2    C312681   3.122   3.222  16.747  1.0122 -0.1903 -0.5969
  864MPD2    C412682   3.066   3.199  16.627  0.7757 -0.6357 -0.3168
  864MPD2    C512683   3.002   3.084  16.608  0.9027 -1.3367 -0.1438
  864MPD2     H12684   3.134   3.161  16.957 -1.9761 -2.4543  1.4795
  864MPD2    H112685   3.063   3.273  16.548 -1.3788  1.1929  1.4706
  864MPD2    H212686   2.921   2.906  16.683  2.0714 -1.1223 -1.1964
  864MPD2    H312687   2.967   3.065  16.507 -0.5541 -0.7853  0.2665
  864MPD2     N12688   3.215   3.333  16.758  0.2672  0.3389 -0.0270
  864MPD2    H512689   3.230   3.397  16.681 -0.7969  0.2869 -0.2676
  864MPD2    N112690   3.024   2.911  16.936 -0.0789  0.2040 -0.2510
  864MPD2    H712691   3.008   2.816  16.905  1.1864  0.5028 -1.8085
  865MPD2     C12692   3.569   3.742  16.211 -0.2496 -0.9505 -0.1603
  865MPD2    C112693   3.571   3.617  16.271  0.3535 -0.3113  0.6467
  865MPD2    C212694   3.530   3.604  16.403 -0.6105 -0.2063 -0.6158
  865MPD2    C312695   3.481   3.713  16.466  0.2153  0.2902  0.4753
  865MPD2    C412696   3.469   3.837  16.405 -0.0413 -0.4454 -0.0144
  865MPD2    C512697   3.515   3.849  16.275  0.5752 -0.5789  0.2345
  865MPD2     H12698   3.545   3.509  16.455  0.2594  0.7884  0.9450
  865MPD2    H112699   3.415   3.919  16.451  0.4793  0.5555 -1.1973
  865MPD2    H212700   3.609   3.748  16.110  1.2331  1.5468  0.5686
  865MPD2    H312701   3.516   3.944  16.222 -0.7394  0.4690  2.0781
  865MPD2     N12702   3.451   3.688  16.597 -0.7610 -0.0017  0.1405
  865MPD2    H512703   3.445   3.590  16.623  4.2112 -0.1738  0.6501
  865MPD2    N112704   3.621   3.499  16.208 -0.3309 -0.0233 -0.3550
  865MPD2    H712705   3.699   3.509  16.144 -1.6542  1.2115 -1.7659
  866MPD2     C12706   1.028   4.291  11.679  0.9120 -0.2768  0.6695
  866MPD2    C112707   1.037   4.308  11.544 -0.6988 -0.1388  0.9031
  866MPD2    C212708   0.917   4.332  11.468 -0.7971  0.8077  0.0201
  866MPD2    C312709   0.792   4.336  11.528  0.0454 -0.3523 -0.2740
  866MPD2    C412710   0.796   4.334  11.662 -0.3059 -0.3439  0.4380
  866MPD2    C512711   0.912   4.316  11.733  0.7140  0.1854 -0.7448
  866MPD2     H12712   0.919   4.333  11.360  1.6337 -4.1971  0.0175
  866MPD2    H112713   0.704   4.339  11.719  0.2827 -3.6320  1.6841
  866MPD2    H212714   1.116   4.284  11.742  0.5723 -0.9992  1.0715
  866MPD2    H312715   0.897   4.316  11.840 -0.3058 -0.2686 -0.8967
  866MPD2     N12716   0.668   4.347  11.459  0.5936 -0.2784 -0.5275
  866MPD2    H512717   0.583   4.337  11.513  1.0444  0.5876  0.3431
  866MPD2    N112718   1.162   4.297  11.486 -0.0550  0.6294  0.1150
  866MPD2    H712719   1.235   4.287  11.556  1.4182  2.1239 -1.2167
  867MPD2     C12720   2.222   3.548  16.072 -0.0016  0.2997  1.0140
  867MPD2    C112721   2.270   3.465  16.172 -0.3450  0.4864 -0.1690
  867MPD2    C212722   2.253   3.499  16.307  0.2885 -0.5679 -0.3568
  867MPD2    C312723   2.188   3.620  16.341  0.5162  0.0723  0.0279
  867MPD2    C412724   2.156   3.700  16.237  0.4543 -0.1518  0.0875
  867MPD2    C512725   2.172   3.669  16.104 -0.1309  0.0883 -1.1901
  867MPD2     H12726   2.302   3.446  16.388  0.2155 -2.0457 -1.2614
  867MPD2    H112727   2.094   3.789  16.249  0.3528 -0.3844  1.2998
  867MPD2    H212728   2.232   3.514  15.970  1.1848  0.5201  1.0622
  867MPD2    H312729   2.140   3.741  16.028  0.0197 -0.8731 -2.1636
  867MPD2     N12730   2.178   3.671  16.476  0.1657  0.0828  0.0738
  867MPD2    H512731   2.135   3.761  16.494  0.4155  0.2359 -0.0968
  867MPD2    N112732   2.346   3.352  16.140  0.6392 -0.5143 -0.1985
  867MPD2    H712733   2.369   3.336  16.043  0.3465  0.6272 -0.4584
  868MPD2     C12734   4.173   2.076  13.055 -0.5124 -0.3938 -0.1259
  868MPD2    C112735   4.276   2.086  13.148 -0.4440  0.4826 -0.3844
  868MPD2    C212736   4.258   2.159  13.264 -0.1886  0.3712 -0.3764
  868MPD2    C312737   4.139   2.219  13.293 -0.7319 -0.6455  0.0974
  868MPD2    C412738   4.028   2.197  13.208 -0.1874 -0.2198 -0.1232
  868MPD2    C512739   4.049   2.137  13.088 -0.2022  0.1291 -0.3671
  868MPD2     H12740   4.340   2.168  13.335 -0.1229  1.9392 -0.6376
  868MPD2    H112741   3.929   2.239  13.219  0.3885  0.9341  0.5932
  868MPD2    H212742   4.175   2.017  12.964 -1.4128 -1.2942  0.4483
  868MPD2    H312743   3.960   2.121  13.028 -0.8425 -0.9886  0.8833
  868MPD2     N12744   4.124   2.296  13.415  0.2955 -0.4635  0.3925
  868MPD2    H512745   4.211   2.303  13.466 -0.0587  3.2069  0.4988
  868MPD2    N112746   4.404   2.025  13.131 -0.0741  0.4627 -0.2097
  868MPD2    H712747   4.466   2.047  13.208 -1.0548  1.4282  0.3059
  869MPD2     C12748   0.064   0.954   2.137 -0.2092 -0.6367  0.6803
  869MPD2    C112749   4.716   0.863   2.066  0.1362 -0.4308 -0.2645
  869MPD2    C212750   4.663   0.899   1.944  0.4817 -0.0378  0.0565
  869MPD2    C312751   4.704   1.010   1.877 -0.6692 -0.3336 -0.0342
  869MPD2    C412752   0.075   1.099   1.941 -0.1471  0.1516 -0.1225
  869MPD2    C512753   0.103   1.075   2.075 -0.5788 -0.1393  0.5245
  869MPD2     H12754   4.593   0.833   1.894  0.8507 -0.7028  0.4113
  869MPD2    H112755   0.110   1.191   1.895  2.6748 -0.9054 -0.1223
  869MPD2    H212756   0.112   0.936   2.233  1.0847 -1.0580 -0.0491
  869MPD2    H312757   0.168   1.147   2.124 -0.3506  0.7018 -1.0179
  869MPD2     N12758   4.671   1.045   1.741 -0.2925 -0.2299 -0.4468
  869MPD2    H512759   0.011   1.110   1.697 -0.1042 -1.4220 -1.9370
  869MPD2    N112760   4.699   0.739   2.121  0.1034 -0.0512 -0.4806
  869MPD2    H712761   0.033   0.722   2.203  0.7582 -2.7078 -1.5105
  870MPD2     C12762   4.262   4.367   1.548 -0.5752 -0.1157  0.0767
  870MPD2    C112763   4.396   4.408   1.545 -0.3354 -0.1236  0.8463
  870MPD2    C212764   4.464   4.416   1.421  0.0841 -0.1622 -0.4088
  870MPD2    C312765   4.406   4.365   1.308 -0.9508 -0.2564 -0.3233
  870MPD2    C412766   4.271   4.325   1.310 -0.2013  1.2385  0.5535
  870MPD2    C512767   4.201   4.322   1.429  0.1657 -0.0447  0.7890
  870MPD2     H12768   4.571   4.432   1.418 -0.0505  0.8362 -0.1744
  870MPD2    H112769   4.229   4.282   1.220 -1.1353  1.1955  1.0134
  870MPD2    H212770   4.197   4.371   1.635 -0.4797 -0.2059  0.1520
  870MPD2    H312771   4.101   4.282   1.441 -0.3926  0.8577 -0.8740
  870MPD2     N12772   4.488   4.353   1.196 -0.3517  0.0151 -0.3563
  870MPD2    H512773   4.585   4.379   1.209 -0.6277  1.7177 -1.6899
  870MPD2    N112774   4.458   4.447   1.670  0.7213 -0.6408 -0.2169
  870MPD2    H712775   4.409   4.435   1.758 -0.1569  2.3099 -0.3170
  871MPD2     C12776   1.452   3.685  16.413 -0.5963  0.2714  0.0958
  871MPD2    C112777   1.453   3.610  16.525 -0.0951  0.5783 -0.2994
  871MPD2    C212778   1.491   3.479  16.515  0.0124 -0.0911  0.7459
  871MPD2    C312779   1.543   3.435  16.397  0.6913 -0.2378  0.9062
  871MPD2    C412780   1.548   3.510  16.280 -0.5174 -0.4886 -0.0968
  871MPD2    C512781   1.495   3.638  16.292  0.2876 -0.3660  0.1364
  871MPD2     H12782   1.479   3.413  16.600 -1.1483  1.3750  1.6898
  871MPD2    H112783   1.572   3.473  16.182 -0.7156 -1.3280  0.1746
  871MPD2    H212784   1.423   3.790  16.420 -1.0107  0.1998 -0.5856
  871MPD2    H312785   1.499   3.706  16.208 -0.9962  0.6618  0.9040
  871MPD2     N12786   1.586   3.301  16.389  0.1011 -0.4234 -0.4724
  871MPD2    H512787   1.562   3.239  16.466 -3.1932 -0.8100 -1.7760
  871MPD2    N112788   1.415   3.668  16.645 -0.8944  0.3990 -0.1907
  871MPD2    H712789   1.389   3.766  16.636 -2.3013  0.1440  1.2380
  872MPD2     C12790   2.503   1.195  14.678 -0.1480 -0.3084  0.0707
  872MPD2    C112791   2.448   1.265  14.576 -1.0985  0.0584  0.3949
  872MPD2    C212792   2.327   1.322  14.591  0.1585 -0.0346  0.6298
  872MPD2    C312793   2.258   1.319  14.717 -0.4164  0.9120 -0.1837
  872MPD2    C412794   2.318   1.262  14.818  0.0443  0.4214 -0.6021
  872MPD2    C512795   2.437   1.193  14.797 -0.4376  0.1102 -0.0925
  872MPD2     H12796   2.289   1.384  14.511 -2.4003 -2.6214 -0.1497
  872MPD2    H112797   2.267   1.258  14.914  1.8623  0.5741  0.3850
  872MPD2    H212798   2.591   1.132  14.678  1.0338  1.3270  1.4730
  872MPD2    H312799   2.469   1.130  14.879  1.7605 -1.8099 -2.4130
  872MPD2     N12800   2.128   1.378  14.735  0.5853  0.4587  0.2557
  872MPD2    H512801   2.077   1.377  14.823  2.0421 -1.5951  1.0677
  872MPD2    N112802   2.514   1.283  14.457  0.1871 -0.2004 -0.5544
  872MPD2    H712803   2.456   1.307  14.377 -1.1861 -0.3989  0.3836
  873MPD2     C12804   3.639   1.857   1.145 -0.1099  0.0853 -0.3762
  873MPD2    C112805   3.648   1.836   1.283  0.2171 -0.1302 -0.3152
  873MPD2    C212806   3.731   1.747   1.338 -0.1172 -0.6855  0.0398
  873MPD2    C312807   3.809   1.661   1.265  0.5129  0.2525 -0.7652
  873MPD2    C412808   3.792   1.667   1.130  0.0905 -0.3778 -0.2034
  873MPD2    C512809   3.709   1.761   1.067 -0.4955 -0.1881 -0.7166
  873MPD2     H12810   3.736   1.744   1.447  0.5473  1.1823  0.0538
  873MPD2    H112811   3.863   1.621   1.062  1.2095  0.4212  0.4351
  873MPD2    H212812   3.587   1.938   1.096  0.4687 -1.9391 -4.3981
  873MPD2    H312813   3.715   1.774   0.960 -0.5151 -0.5934 -0.7697
  873MPD2     N12814   3.900   1.572   1.313 -0.1298 -0.1114  0.1858
  873MPD2    H512815   3.933   1.510   1.240  0.4727  3.1496 -2.3348
  873MPD2    N112816   3.568   1.925   1.353 -0.3157 -0.5067 -0.0396
  873MPD2    H712817   3.520   1.992   1.294  1.9610 -0.7487 -2.1889
  874MPD2     C12818   2.986   1.066  16.117  0.3923 -0.8398  0.2677
  874MPD2    C112819   3.109   1.001  16.099 -0.1273  0.0332  1.3139
  874MPD2    C212820   3.224   1.081  16.082  0.3464  0.2476  0.3866
  874MPD2    C312821   3.223   1.220  16.110 -0.0007 -0.2001  0.0928
  874MPD2    C412822   3.102   1.275  16.146 -0.0123  0.2752 -0.2036
  874MPD2    C512823   2.984   1.202  16.141  0.1453 -0.6238  0.2230
  874MPD2     H12824   3.319   1.033  16.060  0.9966  1.3879  0.7051
  874MPD2    H112825   3.094   1.380  16.169 -0.4436 -0.1203  1.4311
  874MPD2    H212826   2.892   1.011  16.113 -0.3727  0.2147  3.5036
  874MPD2    H312827   2.884   1.244  16.152  1.0003  1.1635  1.1754
  874MPD2     N12828   3.342   1.297  16.093  0.2457 -0.0031  0.0731
  874MPD2    H512829   3.419   1.241  16.055  1.8219  2.4932 -0.4090
  874MPD2    N112830   3.108   0.862  16.077 -0.1045 -0.3159  0.7799
  874MPD2    H712831   3.016   0.823  16.055  0.3807 -1.0851  0.1339
  875MPD2     C12832   0.334   4.167  14.625  0.1192 -0.2896  0.4526
  875MPD2    C112833   0.209   4.175  14.686  0.3127  0.4814 -0.2728
  875MPD2    C212834   0.196   4.241  14.810 -0.1230  0.4296  0.2738
  875MPD2    C312835   0.304   4.294  14.877 -1.0672 -0.6243 -0.2333
  875MPD2    C412836   0.430   4.271  14.825  0.3963  0.8575  0.5297
  875MPD2    C512837   0.443   4.212  14.699 -0.2720 -0.6169  0.0869
  875MPD2     H12838   0.097   4.257  14.850 -0.7379 -0.7413 -0.7796
  875MPD2    H112839   0.516   4.312  14.878  1.3087 -0.2624 -0.0912
  875MPD2    H212840   0.361   4.137  14.524  2.0822 -0.0240  0.9017
  875MPD2    H312841   0.538   4.226  14.650 -0.6005  0.4443 -0.2588
  875MPD2     N12842   0.313   4.359  15.004 -0.0214  0.4804  0.2375
  875MPD2    H512843   0.400   4.401  15.033  0.9074 -0.5198 -1.1347
  875MPD2    N112844   0.093   4.144  14.613  0.1811 -0.3543  0.0154
  875MPD2    H712845   0.007   4.171  14.660  0.2630 -0.5949  0.3010
  876MPD2     C12846   3.705   0.998  16.122 -0.8975  0.0541 -0.3062
  876MPD2    C112847   3.804   0.938  16.054  0.3858  0.2158 -0.0804
  876MPD2    C212848   3.826   0.802  16.069 -0.6116  0.4824 -0.1782
  876MPD2    C312849   3.755   0.722  16.149  0.0778 -0.7415  0.0317
  876MPD2    C412850   3.648   0.783  16.218 -0.3424  0.2150  0.1361
  876MPD2    C512851   3.624   0.920  16.201 -1.0655  0.1126 -0.2026
  876MPD2     H12852   3.909   0.757  16.016 -0.4387 -1.9536  2.1768
  876MPD2    H112853   3.591   0.734  16.296 -0.3902  0.1023  0.0283
  876MPD2    H212854   3.683   1.102  16.101 -1.3084  0.1385  0.5303
  876MPD2    H312855   3.542   0.959  16.260  0.2170  1.8219  0.4503
  876MPD2     N12856   3.793   0.587  16.168 -0.0125  0.3957 -0.0049
  876MPD2    H512857   3.875   0.554  16.119 -1.2605 -0.7850 -1.3022
  876MPD2    N112858   3.884   1.026  15.973  0.0082 -0.0983 -0.3098
  876MPD2    H712859   3.851   1.120  15.952  0.6197  0.0130 -0.7801
  877MPD2     C12860   3.758   1.415  15.376 -0.2369  0.2086  0.2473
  877MPD2    C112861   3.894   1.384  15.349  0.3094  0.1878 -0.9091
  877MPD2    C212862   3.948   1.383  15.223  0.0124  0.4797  0.0726
  877MPD2    C312863   3.866   1.419  15.118 -0.1999  0.0254 -0.2215
  877MPD2    C412864   3.731   1.439  15.137  0.2771  0.9879  0.4359
  877MPD2    C512865   3.679   1.433  15.265  0.1313 -0.2657  0.4324
  877MPD2     H12866   4.052   1.366  15.197 -0.8947 -2.8669 -1.3801
  877MPD2    H112867   3.667   1.476  15.057  0.6311  0.9985  0.1575
  877MPD2    H212868   3.715   1.425  15.475 -5.8205  0.3961 -2.1540
  877MPD2    H312869   3.573   1.447  15.282 -0.3815 -0.7241 -2.4926
  877MPD2     N12870   3.908   1.426  14.980 -0.0272 -0.6449 -0.2310
  877MPD2    H512871   3.838   1.436  14.907  0.8942  0.2427 -0.9939
  877MPD2    N112872   3.983   1.338  15.450 -0.2606  0.2074  0.5131
  877MPD2    H712873   4.068   1.296  15.414 -1.2104 -1.7767  0.6078
  878MPD2     C12874   2.730   0.584  13.841  0.4555  0.3937  0.9654
  878MPD2    C112875   2.864   0.569  13.839  0.7616 -0.1668 -0.0181
  878MPD2    C212876   2.924   0.497  13.940  0.2519  0.1166 -0.0062
  878MPD2    C312877   2.850   0.436  14.043 -0.3341 -0.2209  0.7561
  878MPD2    C412878   2.713   0.447  14.040  0.0260 -0.8129  0.1645
  878MPD2    C512879   2.656   0.514  13.934  0.5957 -0.1010 -0.1703
  878MPD2     H12880   3.031   0.501  13.958  0.5231 -0.8018 -1.4665
  878MPD2    H112881   2.642   0.387  14.094  0.3679 -0.0383  1.4846
  878MPD2    H212882   2.666   0.634  13.768  0.2614 -2.0746 -0.5403
  878MPD2    H312883   2.548   0.510  13.923  0.3816  2.0350  1.2587
  878MPD2     N12884   2.928   0.378  14.148 -0.2059 -0.2227 -0.2113
  878MPD2    H512885   3.029   0.386  14.153 -0.4655  2.6202  0.7003
  878MPD2    N112886   2.934   0.638  13.736  0.1501  0.4744  0.4147
  878MPD2    H712887   2.879   0.693  13.671 -2.0440  1.5299  3.1488
  879MPD2     C12888   4.142   2.276  17.166  0.6016 -1.1892  0.0134
  879MPD2    C112889   4.067   2.234  17.271  0.9371 -0.5770  0.1238
  879MPD2    C212890   3.980   2.128  17.262 -0.7776  0.1117 -1.1645
  879MPD2    C312891   3.973   2.052  17.147 -0.3899 -0.9044 -0.5542
  879MPD2    C412892   4.046   2.100  17.035 -0.1040  0.1609  0.4141
  879MPD2    C512893   4.126   2.213  17.047  0.5823 -0.6196  0.1350
  879MPD2     H12894   3.916   2.099  17.344 -2.1541  0.2589 -2.1853
  879MPD2    H112895   4.026   2.051  16.940 -1.2710  0.8891  0.2896
  879MPD2    H212896   4.216   2.356  17.170 -0.2863 -0.3618  0.0435
  879MPD2    H312897   4.193   2.242  16.967  1.4041 -2.6122  0.1113
  879MPD2     N12898   3.886   1.941  17.131 -0.1805 -0.2941 -0.4527
  879MPD2    H512899   3.887   1.892  17.041 -1.9102 -0.4290 -0.3987
  879MPD2    N112900   4.071   2.311  17.388 -0.0453 -0.5034  0.2623
  879MPD2    H712901   4.129   2.394  17.381 -0.0001 -0.7465 -2.2590
  880MPD2     C12902   1.054   3.458   0.435  0.2341  0.4973 -0.2658
  880MPD2    C112903   0.944   3.474   0.522  0.3432  0.0804  0.2774
  880MPD2    C212904   0.884   3.364   0.575 -0.7338 -0.0343 -0.1026
  880MPD2    C312905   0.925   3.241   0.514 -0.5682 -1.0058  0.1497
  880MPD2    C412906   1.023   3.231   0.419  0.4665 -0.4825  0.2125
  880MPD2    C512907   1.098   3.338   0.387  0.1431 -0.6344  0.5017
  880MPD2     H12908   0.801   3.368   0.644 -0.7992 -0.8987 -0.1283
  880MPD2    H112909   1.067   3.136   0.391 -0.6885 -0.9381 -0.0764
  880MPD2    H212910   1.107   3.545   0.398  0.4561  1.0046  1.2301
  880MPD2    H312911   1.192   3.333   0.334  1.0729  0.5250  2.0335
  880MPD2     N12912   0.870   3.124   0.579 -0.8174 -0.4315 -0.4489
  880MPD2    H512913   0.806   3.135   0.657 -1.0749 -2.1723 -0.4127
  880MPD2    N112914   0.908   3.608   0.557 -0.3324  1.0588  0.0547
  880MPD2    H712915   0.960   3.681   0.510  2.3628 -0.4432  0.7261
  881MPD2     C12916   0.733   4.473   0.126  0.3003  0.0336 -0.1143
  881MPD2    C112917   0.759   4.344   0.081 -0.3120  0.0364 -0.6483
  881MPD2    C212918   0.763   4.252   0.183 -0.3474 -0.0176  0.5475
  881MPD2    C312919   0.768   4.288   0.319 -0.0309  0.1597  0.1447
  881MPD2    C412920   0.761   4.422   0.356  0.7665 -0.5220 -0.0193
  881MPD2    C512921   0.738   4.515   0.258  0.4830 -0.0341 -0.1384
  881MPD2     H12922   0.755   4.146   0.162 -2.4738  0.5059 -1.3606
  881MPD2    H112923   0.781   4.458   0.456  0.7221 -0.0235 -0.1893
  881MPD2    H212924   0.725   4.547   0.047 -2.2519  0.4656  0.5623
  881MPD2    H312925   0.737   4.621   0.277 -2.9780 -0.2755  0.9896
  881MPD2     N12926   0.788   4.193   0.420 -0.1345 -0.3590 -0.0353
  881MPD2    H512927   0.803   4.243   0.508 -0.9080 -0.5406  0.2048
  881MPD2    N112928   0.730   4.314  17.645 -0.4236 -0.6382  0.4183
  881MPD2    H712929   0.671   4.381  17.596 -0.4482 -1.7714 -1.1050
  882MPD2     C12930   3.398   1.393  14.485 -0.2702 -0.1174 -0.1659
  882MPD2    C112931   3.485   1.373  14.583 -0.3373 -0.1522 -0.2198
  882MPD2    C212932   3.462   1.263  14.662  1.2790  0.2321 -0.2281
  882MPD2    C312933   3.334   1.208  14.671  0.4825 -0.7327 -0.8886
  882MPD2    C412934   3.243   1.256  14.587 -0.7384 -0.1767  0.0928
  882MPD2    C512935   3.275   1.342  14.487 -0.4037 -0.4766  0.2164
  882MPD2     H12936   3.542   1.230  14.728  0.8516  0.4323  0.3977
  882MPD2    H112937   3.143   1.214  14.582 -0.6117 -0.1975 -2.2314
  882MPD2    H212938   3.419   1.463  14.405 -0.7603  0.9465  0.6264
  882MPD2    H312939   3.207   1.360  14.405  1.9858 -1.1917 -1.9361
  882MPD2     N12940   3.293   1.120  14.772  0.0402 -0.6058  0.4735
  882MPD2    H512941   3.201   1.078  14.774 -0.8603  1.1897 -2.5602
  882MPD2    N112942   3.617   1.427  14.578  0.4739  0.2522 -0.5278
  882MPD2    H712943   3.643   1.474  14.492 -0.4275  0.9949 -0.3974
  883MPD2     C12944   1.003   1.575  17.153 -0.0019 -0.2024  0.5773
  883MPD2    C112945   1.104   1.493  17.097  0.9170  0.1697 -0.6945
  883MPD2    C212946   1.218   1.458  17.165  0.4814  0.3392 -0.8015
  883MPD2    C312947   1.236   1.524  17.288 -0.1844 -0.2194 -0.1989
  883MPD2    C412948   1.129   1.590  17.351 -0.3779 -0.7623  0.1443
  883MPD2    C512949   1.013   1.614  17.282  0.0772 -0.2644 -0.1385
  883MPD2     H12950   1.296   1.395  17.124  1.0451 -0.7280  1.8696
  883MPD2    H112951   1.138   1.623  17.454 -0.1091  2.3054 -0.8411
  883MPD2    H212952   0.912   1.592  17.096 -1.0523 -0.3946  2.1748
  883MPD2    H312953   0.941   1.670  17.340 -1.2404 -0.9526 -1.1132
  883MPD2     N12954   1.364   1.517  17.349 -0.7943  0.3375  0.2532
  883MPD2    H512955   1.438   1.467  17.300 -1.5486 -0.1650 -0.3785
  883MPD2    N112956   1.102   1.458  16.960  0.2399 -0.4317  0.4745
  883MPD2    H712957   1.161   1.380  16.936 -1.1935 -1.5809  0.7011
  884MPD2     C12958   3.105   1.918  15.296  0.1474  0.5133  0.2545
  884MPD2    C112959   3.147   2.045  15.333  0.7499  0.4462  0.5879
  884MPD2    C212960   3.058   2.132  15.393  0.3447  0.4194 -0.5079
  884MPD2    C312961   2.930   2.092  15.422  0.7122  0.4127  0.4353
  884MPD2    C412962   2.890   1.968  15.392 -0.2524  0.1197 -0.4273
  884MPD2    C512963   2.978   1.877  15.327  0.5925 -0.1780 -0.8023
  884MPD2     H12964   3.091   2.233  15.410  0.3717  0.2900  0.2164
  884MPD2    H112965   2.788   1.934  15.405 -0.5911  0.1647 -2.9857
  884MPD2    H212966   3.179   1.859  15.244  0.0728  2.2572 -1.8652
  884MPD2    H312967   2.941   1.778  15.306  2.0632 -0.8284 -0.3096
  884MPD2     N12968   2.836   2.191  15.460 -0.1843 -0.1013 -0.0767
  884MPD2    H512969   2.856   2.289  15.446 -0.0368 -0.2704 -1.0929
  884MPD2    N112970   3.277   2.080  15.311 -0.3223  0.1340  0.3634
  884MPD2    H712971   3.297   2.159  15.371  1.2476  0.9469 -1.2366
  885MPD2     C12972   0.933   2.519   0.356 -0.2721  0.6704  0.1484
  885MPD2    C112973   0.986   2.409   0.296 -0.6293 -0.4991  0.7125
  885MPD2    C212974   1.005   2.412   0.153 -0.6386  0.5616 -0.1500
  885MPD2    C312975   0.958   2.522   0.082  0.2210  0.1918 -0.0767
  885MPD2    C412976   0.923   2.636   0.154 -0.3529 -0.2960  0.1786
  885MPD2    C512977   0.897   2.629   0.286 -0.7260 -0.0373  0.4660
  885MPD2     H12978   1.050   2.329   0.099 -0.3283 -1.1714  2.7117
  885MPD2    H112979   0.900   2.732   0.109  1.3170  0.6739  1.3769
  885MPD2    H212980   0.926   2.529   0.464  1.2003  0.4403  0.2669
  885MPD2    H312981   0.865   2.721   0.335 -0.8717  0.5447 -0.7158
  885MPD2     N12982   0.963   2.510  17.643  0.1675 -0.3971 -0.1777
  885MPD2    H512983   1.001   2.426  17.602 -0.3315  0.1192 -1.7174
  885MPD2    N112984   1.049   2.317   0.381  0.3392  0.4518 -0.3443
  885MPD2    H712985   1.053   2.339   0.480 -2.3599  2.7216 -0.7249
  886MPD2     C12986   2.248   0.466  15.261  0.9169  0.3522 -0.2778
  886MPD2    C112987   2.388   0.471  15.247 -0.6161 -0.2718 -0.7154
  886MPD2    C212988   2.450   0.591  15.206 -0.6593  0.6555  0.7676
  886MPD2    C312989   2.374   0.710  15.193  0.5015  0.4459  0.6058
  886MPD2    C412990   2.240   0.704  15.194  0.1702 -0.0954  0.6020
  886MPD2    C512991   2.181   0.583  15.228 -0.5845 -0.7214 -0.1425
  886MPD2     H12992   2.558   0.601  15.207 -0.4674 -1.4752  0.0390
  886MPD2    H112993   2.173   0.789  15.194 -0.9110 -0.9453  0.6042
  886MPD2    H212994   2.198   0.371  15.274  3.1754 -0.9738 -1.2240
  886MPD2    H312995   2.073   0.576  15.243 -0.6684  1.3573  0.2403
  886MPD2     N12996   2.427   0.836  15.220  0.2959 -0.5465 -0.3047
  886MPD2    H512997   2.364   0.914  15.236  1.6796  1.0224 -2.4568
  886MPD2    N112998   2.462   0.361  15.283  0.4362 -0.5160 -0.2055
  886MPD2    H712999   2.413   0.293  15.341 -0.0318  1.2682  1.5134
  887MPD2     C13000   3.216   0.498  15.563  0.2666 -0.3581 -0.7244
  887MPD2    C113001   3.082   0.539  15.545  0.3198  0.1325 -0.2377
  887MPD2    C213002   3.046   0.673  15.572  0.4944 -0.2148  0.2299
  887MPD2    C313003   3.136   0.762  15.620 -0.2687 -0.6487 -0.4008
  887MPD2    C413004   3.268   0.720  15.627  0.2416  0.2418 -0.1808
  887MPD2    C513005   3.309   0.590  15.597 -0.1488 -0.2406 -0.3071
  887MPD2     H13006   2.944   0.705  15.556  0.3289 -0.9378 -0.1976
  887MPD2    H113007   3.351   0.784  15.655  0.0713  0.0810  0.6815
  887MPD2    H213008   3.241   0.396  15.538  1.8221 -0.9667  3.3336
  887MPD2    H313009   3.414   0.562  15.597 -0.2777 -0.7364  2.2289
  887MPD2     N13010   3.098   0.891  15.659 -0.1069  0.1616 -0.3591
  887MPD2    H513011   3.007   0.926  15.628  0.2909 -0.2724 -2.0165
  887MPD2    N113012   2.978   0.451  15.520 -0.9903  0.0626  0.5335
  887MPD2    H713013   2.885   0.483  15.494 -1.0081 -0.7490 -0.4201
  888MPD2     C13014   0.379   0.947  14.728 -0.2185  0.1478 -0.9149
  888MPD2    C113015   0.358   0.974  14.866 -0.3729 -0.6508  0.0933
  888MPD2    C213016   0.361   1.106  14.904  0.3058 -0.6323 -0.0338
  888MPD2    C313017   0.360   1.215  14.818 -0.2083 -0.3613 -0.0160
  888MPD2    C413018   0.372   1.174  14.691 -0.3974  0.0034 -0.6803
  888MPD2    C513019   0.373   1.046  14.646  0.1151 -0.0925 -0.4905
  888MPD2     H13020   0.347   1.129  15.009 -0.6939 -0.7877 -0.1357
  888MPD2    H113021   0.384   1.253  14.617  2.4426 -0.1389 -0.3805
  888MPD2    H213022   0.363   0.849  14.685 -2.2982 -0.5349  1.4178
  888MPD2    H313023   0.379   1.039  14.538  0.1805  2.3930 -0.6563
  888MPD2     N13024   0.360   1.353  14.866  0.3460 -0.0972  0.3344
  888MPD2    H513025   0.348   1.362  14.966  0.5630 -1.5527  0.4972
  888MPD2    N113026   0.353   0.870  14.966  0.2895  0.4286 -0.2634
  888MPD2    H713027   0.347   0.896  15.063  2.2611 -1.3896  0.3503
  889MPD2     C13028   3.859   0.462  13.131 -0.3086 -0.0911 -0.3613
  889MPD2    C113029   3.899   0.422  13.256  0.0477 -0.0168  0.2146
  889MPD2    C213030   3.925   0.521  13.357 -0.3491 -0.1896 -0.3416
  889MPD2    C313031   3.907   0.660  13.339  0.2899 -0.2063 -0.1642
  889MPD2    C413032   3.875   0.691  13.209  0.5120 -0.3985 -0.3682
  889MPD2    C513033   3.854   0.596  13.109 -0.4808  0.7856  0.2852
  889MPD2     H13034   3.934   0.491  13.460  2.6752 -2.5579 -1.2959
  889MPD2    H113035   3.859   0.796  13.187 -1.8875 -1.1357 -2.0361
  889MPD2    H213036   3.879   0.396  13.048 -0.5577  0.3568 -0.7767
  889MPD2    H313037   3.840   0.635  13.009  1.7790  1.2980  0.1755
  889MPD2     N13038   3.924   0.755  13.447 -0.3461  1.0543 -0.2252
  889MPD2    H513039   3.934   0.710  13.537 -0.3317  1.3517 -0.0764
  889MPD2    N113040   3.954   0.292  13.276  0.2474  0.2079 -0.2039
  889MPD2    H713041   4.000   0.274  13.365 -0.6130  0.6677  0.3312
  890MPD2     C13042   3.743   1.854  14.748  0.7677 -0.1610 -0.3430
  890MPD2    C113043   3.880   1.862  14.765 -0.2615  0.1076 -0.1917
  890MPD2    C213044   3.939   1.834  14.887  1.1673  0.1595  0.4646
  890MPD2    C313045   3.858   1.795  14.994  0.5695 -0.5197  0.2318
  890MPD2    C413046   3.725   1.786  14.969  0.2734 -0.2126 -0.5919
  890MPD2    C513047   3.665   1.815  14.848 -0.6497 -0.8087 -0.4026
  890MPD2     H13048   4.045   1.846  14.905  1.4450 -0.4070 -0.8132
  890MPD2    H113049   3.649   1.778  15.046 -0.5234  1.3179 -1.2102
  890MPD2    H213050   3.690   1.878  14.656  1.5663  0.3885 -0.6653
  890MPD2    H313051   3.557   1.816  14.855 -0.6654 -3.1018 -0.1021
  890MPD2     N13052   3.919   1.783  15.124 -0.8413  0.2615  0.2627
  890MPD2    H513053   4.020   1.789  15.132 -0.8533  0.0641  0.6056
  890MPD2    N113054   3.949   1.913  14.651  0.0650  0.8659  0.0652
  890MPD2    H713055   3.893   1.934  14.569  1.4823 -1.9645 -1.6091
  891MPD2     C13056   1.847   0.130  16.687 -0.3586  0.8445 -0.3961
  891MPD2    C113057   1.777   0.180  16.795  0.5311  0.3010  0.2144
  891MPD2    C213058   1.840   0.187  16.916  0.0528 -0.0831  0.1336
  891MPD2    C313059   1.963   0.131  16.947 -0.3290 -0.2048  0.0949
  891MPD2    C413060   2.018   0.060  16.840  0.0097 -0.3703 -0.0729
  891MPD2    C513061   1.960   0.063  16.718 -0.1283  0.2680  0.1140
  891MPD2     H13062   1.786   0.240  16.994 -1.8247  0.3257 -1.4370
  891MPD2    H113063   2.116   0.016  16.847 -0.2223 -0.8807 -0.0664
  891MPD2    H213064   1.803   0.130  16.588 -1.4076 -1.5657  0.0525
  891MPD2    H313065   1.998   0.008  16.633  0.6499  0.1970  0.5078
  891MPD2     N13066   2.028   0.168  17.067 -0.6642  0.2202 -0.0603
  891MPD2    H513067   1.988   0.233  17.134 -2.1231  2.3142 -2.9510
  891MPD2    N113068   1.643   0.223  16.774  0.3943 -0.2707 -0.0941
  891MPD2    H713069   1.604   0.201  16.683  2.1001 -0.1765 -0.8439
  892MPD2     C13070   3.107   1.710  14.916 -0.1045 -0.4478  0.3171
  892MPD2    C113071   3.015   1.656  15.003 -0.2268 -0.1433 -0.9421
  892MPD2    C213072   3.029   1.530  15.057  0.5704 -0.8501  0.2248
  892MPD2    C313073   3.138   1.451  15.013 -0.7469 -0.0389  0.4122
  892MPD2    C413074   3.232   1.505  14.932  0.2863 -0.5805  0.4866
  892MPD2    C513075   3.218   1.637  14.900  0.7269  0.5545  0.3280
  892MPD2     H13076   2.963   1.491  15.133 -0.0432 -0.3149 -0.0289
  892MPD2    H113077   3.313   1.447  14.890  1.2853  0.7227  0.6133
  892MPD2    H213078   3.086   1.801  14.860  0.0257 -1.4677 -1.3879
  892MPD2    H313079   3.288   1.679  14.828  1.2894  0.1105  0.6118
  892MPD2     N13080   3.161   1.313  15.037  0.4750 -0.0321 -0.2926
  892MPD2    H513081   3.244   1.272  14.995  1.1238  0.7125  0.2721
  892MPD2    N113082   2.899   1.728  15.031  0.5386 -0.5637  0.2954
  892MPD2    H713083   2.836   1.686  15.099 -0.4046  1.7937  0.8661
  893MPD2     C13084   3.705   0.073   0.984  0.8447  0.2179  0.3285
  893MPD2    C113085   3.731   0.029   1.115 -0.1071  0.1031  0.4490
  893MPD2    C213086   3.619   0.001   1.192 -0.0784  0.0486  0.2325
  893MPD2    C313087   3.490   0.033   1.161 -0.2153  0.8045  0.0192
  893MPD2    C413088   3.471   0.097   1.039  0.2874 -0.2884 -0.2299
  893MPD2    C513089   3.575   0.117   0.951 -0.2441  0.0600  0.2962
  893MPD2     H13090   3.642   4.690   1.292  1.5690 -0.0743 -0.1839
  893MPD2    H113091   3.378   0.150   1.024  0.6102  0.5743  0.7987
  893MPD2    H213092   3.789   0.102   0.921  0.7722 -2.3003 -0.8977
  893MPD2    H313093   3.546   0.168   0.861 -1.6148 -1.4754 -0.1399
  893MPD2     N13094   3.381   0.003   1.246 -0.2059 -0.0746  0.3479
  893MPD2    H513095   3.293   0.044   1.218  0.2564 -0.1141 -1.1561
  893MPD2    N113096   3.866   0.009   1.161 -0.5516 -0.5727 -0.0526
  893MPD2    H713097   3.933   0.019   1.086 -1.7913  0.0817 -1.0589
  894MPD2     C13098   2.428   2.107   1.419  0.6048  0.0374 -0.7816
  894MPD2    C113099   2.394   2.235   1.457 -0.1463 -0.4200 -1.0973
  894MPD2    C213100   2.338   2.316   1.366  0.6444  0.3942 -0.4778
  894MPD2    C313101   2.319   2.281   1.230  0.0665  0.0612  0.1159
  894MPD2    C413102   2.353   2.154   1.195 -0.0616 -0.0382 -0.1475
  894MPD2    C513103   2.422   2.071   1.289  0.1260 -0.5810 -0.0841
  894MPD2     H13104   2.296   2.409   1.400  0.2043 -0.6879  1.9274
  894MPD2    H113105   2.337   2.109   1.098 -1.2123 -1.2944  0.6273
  894MPD2    H213106   2.469   2.047   1.500  0.5882  0.3835 -0.5150
  894MPD2    H313107   2.446   1.970   1.259  1.6321 -0.4544  0.6970
  894MPD2     N13108   2.276   2.381   1.142 -0.3540 -0.1838  0.3778
  894MPD2    H513109   2.275   2.479   1.171  0.4077 -0.1279  0.2179
  894MPD2    N113110   2.426   2.293   1.580  0.2608 -0.5461  0.7241
  894MPD2    H713111   2.380   2.382   1.592 -0.8960 -1.0763  0.2463
  895MPD2     C13112   2.005   0.740  13.895 -0.6223 -0.8081  0.4760
  895MPD2    C113113   1.946   0.647  13.816  0.0964  0.6191 -0.0216
  895MPD2    C213114   2.011   0.523  13.821  0.4135 -0.3728  0.2976
  895MPD2    C313115   2.129   0.503  13.893 -0.2674  0.7069 -0.4845
  895MPD2    C413116   2.183   0.598  13.968 -0.4060  0.5047 -0.1334
  895MPD2    C513117   2.121   0.718  13.969 -0.2873  0.1028  0.4580
  895MPD2     H13118   1.963   0.448  13.760 -0.1246  1.1543 -1.1619
  895MPD2    H113119   2.278   0.580  14.017 -0.0819 -1.3398 -1.4529
  895MPD2    H213120   1.954   0.834  13.911 -0.9011 -0.6774 -1.2525
  895MPD2    H313121   2.156   0.803  14.026  0.0178  0.2562  0.0447
  895MPD2     N13122   2.203   0.389  13.850 -0.1696  0.0389 -0.9556
  895MPD2    H513123   2.155   0.345  13.772 -0.7969  0.3922 -0.7688
  895MPD2    N113124   1.826   0.668  13.749  0.3821  0.4061 -0.2626
  895MPD2    H713125   1.788   0.577  13.724 -0.8606  0.8002  0.1611
  896MPD2     C13126   3.672   3.645   1.971 -0.0959  0.3356 -0.3925
  896MPD2    C113127   3.720   3.602   1.849  0.2513  0.0575  0.4220
  896MPD2    C213128   3.628   3.605   1.745  0.0393  1.0610  0.0590
  896MPD2    C313129   3.494   3.628   1.769  0.8041  0.4608  0.5764
  896MPD2    C413130   3.452   3.662   1.897  0.6160  0.2163  0.1322
  896MPD2    C513131   3.544   3.680   1.996 -0.2267 -0.0657  0.3164
  896MPD2     H13132   3.667   3.570   1.650 -1.4645 -1.9792  0.5864
  896MPD2    H113133   3.349   3.679   1.927  1.0052  0.5995  1.2606
  896MPD2    H213134   3.736   3.646   2.058 -0.6248 -0.6086 -0.0001
  896MPD2    H313135   3.509   3.712   2.094 -1.3377  0.9509 -0.4188
  896MPD2     N13136   3.405   3.622   1.657  0.5899 -0.5113  0.2004
  896MPD2    H513137   3.451   3.577   1.579 -1.4975 -1.4172 -0.5359
  896MPD2    N113138   3.863   3.588   1.836 -0.1113 -0.2345 -0.2883
  896MPD2    H713139   3.923   3.583   1.917 -0.2624 -1.4154 -0.2539
  897MPD2     C13140   0.800   0.282  10.299 -0.4230  0.8147  0.1117
  897MPD2    C113141   0.754   0.402  10.337 -0.3272  0.2987 -0.4043
  897MPD2    C213142   0.700   0.410  10.463  0.0759  0.3387 -0.0751
  897MPD2    C313143   0.690   0.301  10.546  0.5724 -0.6066 -0.2879
  897MPD2    C413144   0.749   0.185  10.509 -0.1515  0.1078 -0.0543
  897MPD2    C513145   0.799   0.173  10.380 -0.2131  0.2222 -0.0889
  897MPD2     H13146   0.652   0.497  10.506 -0.3401 -0.3602  0.8458
  897MPD2    H113147   0.739   0.086  10.553  1.7845  0.0048  0.1289
  897MPD2    H213148   0.843   0.260  10.202 -0.6339  1.0291 -0.0291
  897MPD2    H313149   0.842   0.078  10.352 -1.8976 -0.2988 -0.9190
  897MPD2     N13150   0.617   0.311  10.666 -0.6690 -0.1367  0.0377
  897MPD2    H513151   0.570   0.399  10.684  0.6486  0.3847  0.9390
  897MPD2    N113152   0.755   0.508  10.244  0.0332  0.0690  0.1960
  897MPD2    H713153   0.798   0.483  10.155  0.4061 -1.9829  0.9519
  898MPD2     C13154   3.274   0.485  17.313 -0.4826 -0.1024 -0.9647
  898MPD2    C113155   3.261   0.563  17.423  0.0177  0.2872  0.2528
  898MPD2    C213156   3.243   0.699  17.393 -0.5231  0.0422  0.2728
  898MPD2    C313157   3.256   0.752  17.266 -0.2920 -0.2217  0.1467
  898MPD2    C413158   3.287   0.674  17.162 -0.0138 -0.4684 -0.5838
  898MPD2    C513159   3.279   0.537  17.182 -0.2569 -0.0550 -0.2253
  898MPD2     H13160   3.224   0.773  17.470 -1.3816  1.7600 -1.6177
  898MPD2    H113161   3.292   0.720  17.064 -0.7665  1.3698  0.2205
  898MPD2    H213162   3.283   0.377  17.321  1.1558  0.1175  0.2984
  898MPD2    H313163   3.271   0.477  17.091 -1.9917  0.9193 -0.7006
  898MPD2     N13164   3.236   0.890  17.253  0.2362  0.0615  0.3494
  898MPD2    H513165   3.197   0.927  17.339 -0.4127 -0.8359  0.4408
  898MPD2    N113166   3.260   0.517  17.559  0.5204 -0.1877  0.0008
  898MPD2    H713167   3.235   0.583  17.632  0.7299 -0.9605  0.7743
  899MPD2     C13168   3.496   1.873  17.589 -0.3952 -0.5942 -0.5641
  899MPD2    C113169   3.395   1.897  17.507 -0.7426  0.0222 -0.4337
  899MPD2    C213170   3.264   1.884  17.546 -0.0444  0.0878 -0.2258
  899MPD2    C313171   3.236   1.846  17.678  0.0759 -0.0505  0.7433
  899MPD2    C413172   3.341   1.809   0.067 -0.7509 -0.2142  0.3290
  899MPD2    C513173   3.467   1.821   0.019 -0.0933 -0.1651  0.0717
  899MPD2     H13174   3.182   1.917  17.483  1.0799  1.9951 -0.6807
  899MPD2    H113175   3.333   1.777   0.170 -0.9649  0.6060  0.5659
  899MPD2    H213176   3.595   1.903  17.556 -0.6517  0.1981 -0.6101
  899MPD2    H313177   3.549   1.792   0.084 -0.0023  0.8570  0.4062
  899MPD2     N13178   3.109   1.856   0.041 -0.8170 -0.3675  0.5587
  899MPD2    H513179   3.106   1.843   0.142  0.2842 -0.1010  0.6224
  899MPD2    N113180   3.429   1.954  17.383  0.3880  0.4320  0.1530
  899MPD2    H713181   3.526   1.980  17.366  0.7949 -1.4472 -0.4270
  900MPD2     C13182   3.672   3.004  12.697 -0.7214 -0.8304 -0.4784
  900MPD2    C113183   3.577   2.956  12.783 -0.1157 -0.4632  0.7583
  900MPD2    C213184   3.451   3.017  12.783  0.9666  0.3920  1.0874
  900MPD2    C313185   3.417   3.105  12.681  1.0994 -0.2867  0.3586
  900MPD2    C413186   3.512   3.152  12.593  0.6473 -0.1867 -0.0604
  900MPD2    C513187   3.640   3.103  12.612  0.1563 -0.2593  0.9152
  900MPD2     H13188   3.369   2.996  12.851 -0.2452 -2.1902 -1.1637
  900MPD2    H113189   3.492   3.209  12.503 -0.7085  2.6664  2.0365
  900MPD2    H213190   3.771   2.961  12.690 -1.2678 -2.2039  0.3821
  900MPD2    H313191   3.709   3.136  12.535 -2.4602  0.3497 -1.1617
  900MPD2     N13192   3.282   3.143  12.665 -0.5715 -0.1159 -0.0452
  900MPD2    H513193   3.205   3.090  12.704 -1.0946 -0.5960 -1.7281
  900MPD2    N113194   3.621   2.854  12.874 -0.5840 -0.6535  1.0433
  900MPD2    H713195   3.719   2.829  12.867 -0.6885 -1.0252  0.9413
  901MPD2     C13196   3.485   2.009  13.530 -0.2083 -0.0590 -0.2320
  901MPD2    C113197   3.600   2.000  13.456 -0.0494  0.4306 -0.4939
  901MPD2    C213198   3.641   2.124  13.401  0.5387  0.0280 -0.2621
  901MPD2    C313199   3.575   2.244  13.403  0.2596  0.2379  0.0319
  901MPD2    C413200   3.456   2.240  13.473  1.2625  0.6481 -0.2559
  901MPD2    C513201   3.417   2.125  13.538 -0.3643  0.2699  0.2419
  901MPD2     H13202   3.732   2.133  13.343  2.0971 -0.4882  2.1040
  901MPD2    H113203   3.404   2.333  13.494  2.0362  1.2008 -0.7965
  901MPD2    H213204   3.442   1.921  13.576  3.1002 -2.8454 -2.4775
  901MPD2    H313205   3.334   2.140  13.607  0.6906  1.3094  1.2925
  901MPD2     N13206   3.624   2.361  13.337  0.5033 -0.6211  0.4982
  901MPD2    H513207   3.720   2.365  13.305 -0.3826 -0.9896 -2.2553
  901MPD2    N113208   3.671   1.881  13.426 -0.2720 -0.3875 -0.0624
  901MPD2    H713209   3.641   1.797  13.474  2.2236 -1.1792  0.1374
  902MPD2     C13210   2.142   1.014  12.945 -0.2440  0.1235  0.4108
  902MPD2    C113211   2.188   1.138  12.900 -0.6408  0.3216  0.6064
  902MPD2    C213212   2.283   1.142  12.800  0.1702 -1.0637 -0.0467
  902MPD2    C313213   2.315   1.020  12.740  0.3951  0.7256 -0.1229
  902MPD2    C413214   2.265   0.897  12.777  0.8061 -0.3394 -0.0406
  902MPD2    C513215   2.190   0.896  12.890 -0.2204 -0.1635  0.1879
  902MPD2     H13216   2.337   1.235  12.781 -1.0684 -0.2254  0.5557
  902MPD2    H113217   2.303   0.807  12.730 -1.2147 -1.4898  0.5098
  902MPD2    H213218   2.080   0.994  13.031  1.1439 -2.0259  0.8964
  902MPD2    H313219   2.158   0.800  12.929  0.6537 -1.1374 -1.4967
  902MPD2     N13220   2.414   1.011  12.640 -0.4117 -0.4628 -0.0373
  902MPD2    H513221   2.426   0.914  12.610 -2.7193 -0.9922  0.7824
  902MPD2    N113222   2.125   1.245  12.952  0.9227  0.6042 -0.4630
  902MPD2    H713223   2.055   1.217  13.021  0.3446  3.3974  0.0579
  903MPD2     C13224   2.474   1.258  11.773  0.0278  0.5661  0.4374
  903MPD2    C113225   2.423   1.270  11.900 -0.3666  0.2215  0.1837
  903MPD2    C213226   2.302   1.332  11.923  0.4690 -0.4258  0.7155
  903MPD2    C313227   2.247   1.407  11.817 -0.3545 -0.0240  0.2247
  903MPD2    C413228   2.304   1.400  11.692 -0.7145  0.0494  0.1909
  903MPD2    C513229   2.412   1.323  11.676 -0.4044 -0.3796 -0.0409
  903MPD2     H13230   2.253   1.332  12.020 -1.6529  0.1808 -0.3404
  903MPD2    H113231   2.267   1.451  11.604  1.1441 -0.5103 -0.9045
  903MPD2    H213232   2.561   1.196  11.761  0.3489  1.1727 -0.3790
  903MPD2    H313233   2.451   1.298  11.578 -0.1353 -0.1614  0.0101
  903MPD2     N13234   2.121   1.474  11.841 -0.0106  0.2041 -0.0398
  903MPD2    H513235   2.084   1.457  11.933 -0.8624 -0.7852 -0.5674
  903MPD2    N113236   2.485   1.193  11.997 -0.5886  0.5833  0.0442
  903MPD2    H713237   2.565   1.138  11.968 -0.4732  1.5088 -1.4175
  904MPD2     C13238   1.783   0.160  13.995  0.4619  0.8704 -0.7122
  904MPD2    C113239   1.734   0.114  14.115 -0.1289  0.2841 -0.4845
  904MPD2    C213240   1.816   0.104  14.231 -0.2020  0.4840  0.0170
  904MPD2    C313241   1.947   0.152  14.229 -0.2501 -0.1193  0.1098
  904MPD2    C413242   1.994   0.201  14.107 -0.3170 -0.0624  0.1897
  904MPD2    C513243   1.914   0.206  13.994  0.1925  0.7724  0.1926
  904MPD2     H13244   1.773   0.067  14.324 -0.1982 -1.0851 -0.6061
  904MPD2    H113245   2.091   0.247  14.091 -0.2287 -0.6425 -0.9949
  904MPD2    H213246   1.739   0.157  13.896  1.3418 -1.9999 -1.0120
  904MPD2    H313247   1.950   0.218  13.893  1.1020 -0.2244  0.4042
  904MPD2     N13248   2.023   0.153  14.344  0.3528  0.7140 -1.0189
  904MPD2    H513249   1.993   0.098  14.424  0.9345  0.5022 -0.9436
  904MPD2    N113250   1.595   0.076  14.131 -0.0598 -0.2197  1.0100
  904MPD2    H713251   1.578   0.027  14.218  0.7081 -0.2398  1.1564
  905MPD2     C13252   1.633   0.034  13.485  0.0293  0.1739 -0.6170
  905MPD2    C113253   1.679   0.128  13.566  0.5812  0.1925 -0.2904
  905MPD2    C213254   1.815   0.144  13.592  0.2453 -0.2797  0.1242
  905MPD2    C313255   1.894   0.044  13.546  0.6113 -0.1649  1.0001
  905MPD2    C413256   1.852   4.662  13.467 -0.1461 -0.2749 -0.4651
  905MPD2    C513257   1.725   4.669  13.435 -0.3311  0.4364  0.4504
  905MPD2     H13258   1.851   0.231  13.645  1.2350  0.1819 -1.3010
  905MPD2    H113259   1.923   4.584  13.441  0.7922 -0.0378  1.3731
  905MPD2    H213260   1.530   0.029  13.452  0.0607  3.0147 -1.2033
  905MPD2    H313261   1.679   4.590  13.378 -0.9558 -0.0320  1.6020
  905MPD2     N13262   2.031   0.043  13.574  0.3933  0.2454  0.1373
  905MPD2    H513263   2.074   4.676  13.561  0.8220  0.4149  0.3595
  905MPD2    N113264   1.577   0.206  13.622 -0.1092  0.3951 -0.5805
  905MPD2    H713265   1.481   0.174  13.617 -0.5417  1.6552 -0.2445
  906MPD2     C13266   3.901   0.596  11.423  0.2435 -0.7605 -0.4110
  906MPD2    C113267   3.887   0.508  11.318 -0.1003  1.0829 -0.1960
  906MPD2    C213268   3.789   0.405  11.332 -0.0726  0.0447 -0.5471
  906MPD2    C313269   3.727   0.381  11.452 -0.5780  0.0172  0.7163
  906MPD2    C413270   3.748   0.465  11.555  1.0088 -0.1001 -0.6264
  906MPD2    C513271   3.832   0.572  11.536  0.1402  0.1150  0.8262
  906MPD2     H13272   3.778   0.336  11.249  0.6036 -3.4242  2.2222
  906MPD2    H113273   3.710   0.452  11.656 -0.2991 -0.4534 -1.1637
  906MPD2    H213274   3.970   0.679  11.430 -0.7600  0.0228  0.2126
  906MPD2    H313275   3.854   0.627  11.627  0.6317 -0.6941  1.1909
  906MPD2     N13276   3.652   0.264  11.475  0.3709  0.2671  0.0263
  906MPD2    H513277   3.623   0.237  11.568 -0.5184  0.6333 -0.1372
  906MPD2    N113278   3.951   0.514  11.192 -0.2672 -0.4563  0.4348
  906MPD2    H713279   3.915   0.443  11.128  1.8034 -1.2351  0.1570
  907MPD2     C13280   2.501   4.426  15.939 -0.4464  0.6188 -0.0601
  907MPD2    C113281   2.541   4.294  15.964 -0.4367  0.0443 -0.1963
  907MPD2    C213282   2.620   4.268  16.075 -0.4184 -0.9178 -0.7199
  907MPD2    C313283   2.636   4.368  16.170  0.1792 -0.0898 -0.1448
  907MPD2    C413284   2.586   4.488  16.152 -0.0929  0.3708 -0.3201
  907MPD2    C513285   2.515   4.519  16.038 -0.1765 -0.1927  0.3757
  907MPD2     H13286   2.661   4.168  16.088  1.3447  0.0185  0.7890
  907MPD2    H113287   2.597   4.571  16.221  2.0109 -1.0850  1.0551
  907MPD2    H213288   2.448   4.469  15.855  0.2715 -0.1150 -0.8819
  907MPD2    H313289   2.492   4.621  16.011 -0.5926 -0.9528 -2.0929
  907MPD2     N13290   2.715   4.343  16.282  0.4499  0.0794  0.7074
  907MPD2    H513291   2.751   4.248  16.282  0.4458  0.0883  2.6910
  907MPD2    N113292   2.531   4.193  15.859 -0.2788 -0.2855 -0.4788
  907MPD2    H713293   2.604   4.123  15.859 -1.7676 -1.8066 -1.7638
  908MPD2     C13294   0.356   0.489   9.464 -0.0501  0.0213 -0.3238
  908MPD2    C113295   0.416   0.407   9.556  0.2271  0.0451 -0.0506
  908MPD2    C213296   0.494   0.460   9.661 -0.4150  0.8022 -0.0508
  908MPD2    C313297   0.510   0.598   9.680  0.6864  0.6046  0.3941
  908MPD2    C413298   0.437   0.682   9.590  0.0988  0.1853  0.7800
  908MPD2    C513299   0.360   0.630   9.484 -0.5419  0.7979 -0.1144
  908MPD2     H13300   0.544   0.390   9.727 -0.6721 -1.1267 -1.9060
  908MPD2    H113301   0.430   0.790   9.599  0.1513  0.2093  0.5236
  908MPD2    H213302   0.305   0.460   9.372 -0.2501 -0.6016 -0.0133
  908MPD2    H313303   0.299   0.700   9.428 -1.0441 -0.5328 -1.2236
  908MPD2     N13304   0.586   0.639   9.792  0.0501 -0.6200  0.1124
  908MPD2    H513305   0.628   0.577   9.861 -0.3432  2.2676  2.9894
  908MPD2    N113306   0.426   0.263   9.560 -0.0027 -0.1600  0.2065
  908MPD2    H713307   0.476   0.217   9.636 -2.4400  0.7603  2.3902
  909MPD2     C13308   1.395   2.897  11.791 -0.5815 -0.0407 -0.6223
  909MPD2    C113309   1.452   3.016  11.754 -0.2173  0.0381  0.2138
  909MPD2    C213310   1.405   3.119  11.834 -0.2438  0.2902  0.0426
  909MPD2    C313311   1.319   3.105  11.943 -0.4572 -0.2694  0.3039
  909MPD2    C413312   1.266   2.986  11.976 -0.0542  0.0370 -0.2561
  909MPD2    C513313   1.305   2.879  11.893  0.5821 -0.2091 -0.3166
  909MPD2     H13314   1.444   3.217  11.809 -2.4371  0.7921 -1.3824
  909MPD2    H113315   1.194   2.970  12.055  0.5689  0.2678  0.3540
  909MPD2    H213316   1.420   2.813  11.728  1.6572 -0.2261  0.5405
  909MPD2    H313317   1.269   2.779  11.911  1.6265 -0.6791 -0.8339
  909MPD2     N13318   1.288   3.219  12.015  0.4765 -0.0192 -1.0228
  909MPD2    H513319   1.316   3.310  11.980  0.9394  1.4289  3.0686
  909MPD2    N113320   1.533   3.032  11.645 -0.2351  0.4279 -0.1300
  909MPD2    H713321   1.568   3.127  11.642  1.3701 -0.1191  0.8136
  910MPD2     C13322   2.015   0.176  16.277  0.4673  0.3774 -0.1722
  910MPD2    C113323   2.073   0.073  16.206  0.7840 -0.2557 -0.2527
  910MPD2    C213324   2.025   0.044  16.078 -0.1755  0.2447 -0.0640
  910MPD2    C313325   1.909   0.100  16.037  0.7582  0.3909  1.3197
  910MPD2    C413326   1.847   0.188  16.127  0.2408  0.5218  0.7199
  910MPD2    C513327   1.903   0.232  16.235  0.0926  0.9155  0.9291
  910MPD2     H13328   2.076   4.685  16.030  1.5035 -0.2042  2.5076
  910MPD2    H113329   1.753   0.234  16.098  0.3552  0.9524  1.0316
  910MPD2    H213330   2.048   0.211  16.374  0.3558  0.5213 -0.1872
  910MPD2    H313331   1.854   0.301  16.303  1.4421 -0.3963  3.2239
  910MPD2     N13332   1.851   0.076  15.913 -0.4950  0.4905  0.9026
  910MPD2    H513333   1.759   0.118  15.901 -0.3514  1.1419  2.0994
  910MPD2    N113334   2.172   4.704  16.259  0.2022  0.0357  0.2633
  910MPD2    H713335   2.186   4.622  16.201  1.8627  0.0835  0.6121
  911MPD2     C13336   0.368   0.884  16.613  0.4239 -0.2840 -0.2642
  911MPD2    C113337   0.291   0.790  16.546  0.0858  0.5981  1.0817
  911MPD2    C213338   0.183   0.828  16.480  0.0191 -0.1130 -0.8234
  911MPD2    C313339   0.148   0.958  16.455  0.2623 -0.1888 -1.1274
  911MPD2    C413340   0.232   1.051  16.514  0.4269 -0.0167 -0.2810
  911MPD2    C513341   0.332   1.013  16.602  0.6079  0.2104 -0.1467
  911MPD2     H13342   0.112   0.750  16.455 -0.8463  0.6679 -0.7910
  911MPD2    H113343   0.204   1.156  16.518  0.1493 -0.1196  0.4796
  911MPD2    H213344   0.441   0.847  16.683  1.5278  0.6129 -0.9375
  911MPD2    H313345   0.385   1.089  16.658 -0.4765  0.3618  0.6576
  911MPD2     N13346   0.035   1.006  16.378 -0.6347  0.5349  0.1410
  911MPD2    H513347   0.033   1.107  16.380  0.3440  0.5689 -0.4110
  911MPD2    N113348   0.323   0.657  16.581 -0.9473  0.2908 -0.1239
  911MPD2    H713349   0.397   0.642  16.649 -0.7324  0.9978 -0.2122
  912MPD2     C13350   4.442   0.651  15.682 -0.4190 -0.1738  0.2559
  912MPD2    C113351   4.424   0.653  15.820 -0.1971  0.2703  0.3668
  912MPD2    C213352   4.425   0.525  15.877  0.2749  0.6208  0.7066
  912MPD2    C313353   4.448   0.413  15.810 -0.2276  0.2061 -0.2843
  912MPD2    C413354   4.468   0.407  15.673  0.2466  0.8607 -0.4621
  912MPD2    C513355   4.454   0.533  15.612 -1.0485  0.0199  0.3863
  912MPD2     H13356   4.411   0.520  15.984 -0.0010 -0.4590  0.6212
  912MPD2    H113357   4.482   0.315  15.618 -0.5306 -1.4803  3.2787
  912MPD2    H213358   4.439   0.742  15.622 -1.4074  0.4603  1.2535
  912MPD2    H313359   4.456   0.545  15.504 -1.2532 -1.8984  0.1699
  912MPD2     N13360   4.459   0.300  15.896 -0.1407  0.4289 -0.0485
  912MPD2    H513361   4.437   0.318  15.994  3.2542  3.4713  0.1580
  912MPD2    N113362   4.406   0.779  15.884  0.4287  0.3304 -0.2918
  912MPD2    H713363   4.407   0.852  15.814  0.5888  1.2961  0.7316
  913MPD2     C13364   0.723   1.830  10.640 -0.3371 -0.3169 -0.5077
  913MPD2    C113365   0.782   1.948  10.678  0.5575 -1.1757  0.3190
  913MPD2    C213366   0.721   2.070  10.637 -0.2562  0.0859  0.8003
  913MPD2    C313367   0.619   2.071  10.539 -0.1112 -0.0463 -0.6781
  913MPD2    C413368   0.575   1.948  10.500  0.6699  0.5346 -0.1574
  913MPD2    C513369   0.614   1.826  10.554 -0.1522 -0.3853  0.1779
  913MPD2     H13370   0.747   2.168  10.675  3.3758 -0.6252  0.1427
  913MPD2    H113371   0.494   1.940  10.429  1.8981  2.9077 -1.8092
  913MPD2    H213372   0.772   1.739  10.671  1.8789  1.8020  2.2673
  913MPD2    H313373   0.570   1.733  10.521 -0.0846 -1.2286  2.4831
  913MPD2     N13374   0.549   2.189  10.485 -1.0617 -0.4469  0.4062
  913MPD2    H513375   0.466   2.176  10.429 -1.4000 -1.0914  1.0590
  913MPD2    N113376   0.902   1.949  10.762 -0.6671 -0.4711  0.0010
  913MPD2    H713377   0.924   1.854  10.792  1.3618 -0.3849 -1.1887
  914MPD2     C13378   3.467   1.792  12.527 -0.3365 -0.0602  0.2660
  914MPD2    C113379   3.467   1.884  12.624  0.0397 -0.0728 -0.7080
  914MPD2    C213380   3.515   1.849  12.749  0.8802  0.6011  0.4361
  914MPD2    C313381   3.573   1.723  12.767  0.4447  0.7238 -0.3591
  914MPD2    C413382   3.577   1.631  12.667 -1.2128 -0.4801 -0.4990
  914MPD2    C513383   3.516   1.667  12.548 -0.8377 -0.3176 -0.5524
  914MPD2     H13384   3.511   1.916  12.835 -1.3195  0.4042  0.4869
  914MPD2    H113385   3.619   1.531  12.675  0.1709  0.0172 -1.5440
  914MPD2    H213386   3.417   1.799  12.431 -2.0722 -1.1264  1.0912
  914MPD2    H313387   3.501   1.589  12.475  0.2041  0.2085 -1.3379
  914MPD2     N13388   3.628   1.703  12.892 -0.0289  0.2608 -0.2963
  914MPD2    H513389   3.614   1.778  12.958 -2.3762 -0.7134  0.3120
  914MPD2    N113390   3.381   1.994  12.599  0.5459  0.0521 -0.4595
  914MPD2    H713391   3.346   2.003  12.504  0.1650 -1.8563 -0.5159
  915MPD2     C13392   1.368   2.039  15.368  0.0779 -0.1076 -0.4710
  915MPD2    C113393   1.237   2.071  15.357  0.2604  1.1870 -1.6872
  915MPD2    C213394   1.161   2.104  15.467 -0.6858  0.1217 -0.0389
  915MPD2    C313395   1.231   2.111  15.591 -0.0378  0.0027 -0.6287
  915MPD2    C413396   1.364   2.074  15.594 -0.7663  0.3925 -0.5164
  915MPD2    C513397   1.429   2.036  15.485  0.1937  0.0949 -0.1722
  915MPD2     H13398   1.062   2.145  15.454 -1.3045 -1.6696 -1.0161
  915MPD2    H113399   1.426   2.074  15.684  0.2239  0.1035 -1.1983
  915MPD2    H213400   1.420   2.019  15.275 -0.1126  0.6245 -0.7418
  915MPD2    H313401   1.536   2.016  15.483 -0.0838 -1.2890 -1.3121
  915MPD2     N13402   1.159   2.150  15.711  0.4266 -0.4299 -0.0550
  915MPD2    H513403   1.079   2.205  15.682  0.8756  0.3801  0.2561
  915MPD2    N113404   1.184   2.069  15.227 -0.3128  0.1351  0.5615
  915MPD2    H713405   1.246   2.062  15.147 -1.7504  0.6567 -0.6059
  916MPD2     C13406   4.117   0.277  15.773 -0.2030 -0.2627 -0.5256
  916MPD2    C113407   4.101   0.186  15.862 -0.0248 -0.1234  0.5870
  916MPD2    C213408   4.126   0.054  15.835 -0.1738  0.4390  0.4337
  916MPD2    C313409   4.186   0.016  15.712 -0.4946  0.2853  0.5596
  916MPD2    C413410   4.191   0.113  15.613 -1.2008  0.3415  0.3793
  916MPD2    C513411   4.157   0.241  15.653 -0.0976 -0.3113  0.4003
  916MPD2     H13412   4.105   4.704  15.911  3.2004 -0.7576  0.2202
  916MPD2    H113413   4.243   0.103  15.519 -0.7711 -0.1994  0.6690
  916MPD2    H213414   4.095   0.383  15.785 -0.4473 -0.2855 -0.7692
  916MPD2    H313415   4.147   0.321  15.581  1.6966  0.0802  0.5732
  916MPD2     N13416   4.210   4.602  15.690 -0.2565  0.5648 -0.1783
  916MPD2    H513417   4.190   4.535  15.763 -0.4194 -1.2157 -1.8696
  916MPD2    N113418   4.063   0.232  15.996 -0.1691 -0.8367  0.1458
  916MPD2    H713419   4.070   0.333  16.008 -0.2103 -1.0321  1.7005
  917MPD2     C13420   4.662   2.815  11.626  0.4639 -0.5008  0.5069
  917MPD2    C113421   4.583   2.929  11.633  0.1590 -0.0098  0.8781
  917MPD2    C213422   4.617   3.059  11.591  0.1139  0.0273  0.5042
  917MPD2    C313423   0.016   3.066  11.528 -0.1609 -0.1075  0.3961
  917MPD2    C413424   0.096   2.956  11.514  0.3375 -0.1955  0.5728
  917MPD2    C513425   0.062   2.832  11.569 -0.5948  0.0047  0.6938
  917MPD2     H13426   4.550   3.143  11.606  0.7150  0.6493 -0.2633
  917MPD2    H113427   0.188   2.968  11.458 -1.4481  0.4840 -2.2117
  917MPD2    H213428   4.646   2.718  11.672 -1.5231 -0.6570 -0.4839
  917MPD2    H313429   0.126   2.745  11.556  0.3371  0.6299  1.1042
  917MPD2     N13430   0.067   3.182  11.468  0.1974 -0.3322 -1.2715
  917MPD2    H513431   0.168   3.179  11.453  0.2409 -1.7265 -0.6614
  917MPD2    N113432   4.463   2.916  11.699  0.5879 -0.8335  0.0029
  917MPD2    H713433   4.404   2.996  11.721 -0.4346 -1.6293  0.1756
  918MPD2     C13434   4.518   2.852  12.565 -0.4130  0.4168  0.7917
  918MPD2    C113435   4.598   2.857  12.452  0.5068  0.7186  0.3382
  918MPD2    C213436   4.533   2.883  12.328  0.6348 -0.3056 -0.2855
  918MPD2    C313437   4.397   2.875  12.307 -0.0384 -0.0200 -0.0692
  918MPD2    C413438   4.316   2.863  12.417 -0.2382  0.8873  0.3690
  918MPD2    C513439   4.382   2.854  12.539  0.0951  0.0504  0.1129
  918MPD2     H13440   4.599   2.874  12.243 -1.6381 -0.5584 -2.0282
  918MPD2    H113441   4.209   2.868  12.426 -0.1439 -1.5188  2.5942
  918MPD2    H213442   4.554   2.841  12.666 -1.0391 -1.7436  0.7656
  918MPD2    H313443   4.317   2.867  12.625 -0.6652  0.6174 -0.5495
  918MPD2     N13444   4.343   2.877  12.180  0.7997  0.2528 -0.2309
  918MPD2    H513445   4.406   2.904  12.105  1.2627 -0.4539 -0.0951
  918MPD2    N113446   0.013   2.854  12.459  0.5744 -0.2297 -0.0741
  918MPD2    H713447   0.066   2.878  12.376  2.1944 -2.5171  0.2839
  919MPD2     C13448   0.696   1.799  11.861 -0.8474 -0.5163  0.5095
  919MPD2    C113449   0.681   1.680  11.782  1.2227 -0.2354  0.2977
  919MPD2    C213450   0.688   1.697  11.643 -0.1403  0.2935 -0.0321
  919MPD2    C313451   0.697   1.821  11.581  0.0402  0.4221 -0.4681
  919MPD2    C413452   0.697   1.932  11.665  0.3842 -0.0556  1.1006
  919MPD2    C513453   0.707   1.921  11.801 -0.5063 -0.1346 -0.3724
  919MPD2     H13454   0.685   1.606  11.584 -0.2646 -0.5519  1.2878
  919MPD2    H113455   0.701   2.032  11.624 -0.3960 -0.1820  0.7267
  919MPD2    H213456   0.697   1.799  11.969  0.5909 -3.1128  0.4926
  919MPD2    H313457   0.710   2.013  11.858 -0.3998 -0.3317 -0.0559
  919MPD2     N13458   0.710   1.840  11.439 -0.1093  0.7234  0.1382
  919MPD2    H513459   0.699   1.935  11.405  0.2351  1.4613  2.0492
  919MPD2    N113460   0.676   1.549  11.838 -0.3160  0.8665  0.0124
  919MPD2    H713461   0.678   1.472  11.772 -1.2585  0.7742  0.0972
  920MPD2     C13462   0.372   2.461  10.755  0.0925  0.5127  0.3877
  920MPD2    C113463   0.293   2.352  10.758 -0.0781  0.0360  0.8067
  920MPD2    C213464   0.327   2.239  10.820 -0.0083 -0.6579  0.6757
  920MPD2    C313465   0.452   2.223  10.874  0.2868 -0.1936 -0.5371
  920MPD2    C413466   0.531   2.337  10.875 -0.1759 -0.2007 -0.2511
  920MPD2    C513467   0.489   2.457  10.821 -0.0460 -0.5778 -0.4500
  920MPD2     H13468   0.255   2.157  10.818 -0.6106 -0.0824 -0.9531
  920MPD2    H113469   0.632   2.333  10.916 -0.9214 -0.1279  1.5921
  920MPD2    H213470   0.346   2.553  10.704 -1.0284  0.6713  1.2223
  920MPD2    H313471   0.548   2.547  10.825  0.6032 -0.9643 -1.2323
  920MPD2     N13472   0.490   2.097  10.929  0.3297 -0.0568  0.1681
  920MPD2    H513473   0.418   2.026  10.922  1.2338 -1.0996  1.4445
  920MPD2    N113474   0.162   2.353  10.697 -0.2676  0.1085  0.3316
  920MPD2    H713475   0.103   2.273  10.714  0.4559 -0.8377 -1.6734
  921MPD2     C13476   0.890   0.560  17.074 -1.0839  0.0491 -0.9277
  921MPD2    C113477   0.913   0.481  16.963 -0.0018  0.1899  1.0088
  921MPD2    C213478   0.807   0.408  16.914  0.0177  0.5187 -0.7944
  921MPD2    C313479   0.686   0.415  16.967  0.5639  0.0628 -0.1266
  921MPD2    C413480   0.663   0.490  17.080  0.7290 -0.2315  0.4581
  921MPD2    C513481   0.767   0.556  17.132  0.2275  0.5462  0.3376
  921MPD2     H13482   0.820   0.340  16.831 -2.2361 -2.0203  0.9455
  921MPD2    H113483   0.560   0.509  17.108  0.2335 -0.7375 -0.9888
  921MPD2    H213484   0.967   0.625  17.116 -1.2787 -0.8944  0.8812
  921MPD2    H313485   0.749   0.614  17.222  3.0286  3.3633 -0.9271
  921MPD2     N13486   0.573   0.359  16.900 -0.0619 -0.3646  0.2841
  921MPD2    H513487   0.477   0.365  16.932  0.3134  1.4761  1.0077
  921MPD2    N113488   1.037   0.472  16.900 -0.0814  0.0422 -0.6500
  921MPD2    H713489   1.049   0.409  16.822  1.5584 -0.7999  0.2884
  922MPD2     C13490   1.747   3.184  17.531 -0.6815  0.1012 -0.5023
  922MPD2    C113491   1.641   3.242  17.469  0.3895 -0.2721 -0.1540
  922MPD2    C213492   1.534   3.157  17.434  0.7711  0.2257  0.5882
  922MPD2    C313493   1.541   3.021  17.446  0.6454  0.3437 -1.0885
  922MPD2    C413494   1.653   2.976  17.513 -0.0985  0.0187 -0.0826
  922MPD2    C513495   1.759   3.054  17.549  0.3753 -0.5274  0.0868
  922MPD2     H13496   1.450   3.186  17.372 -0.5475 -1.0725  1.7935
  922MPD2    H113497   1.667   2.871  17.533 -4.0000 -0.2515  1.1904
  922MPD2    H213498   1.834   3.240  17.563 -1.0538 -0.1283  0.8926
  922MPD2    H313499   1.843   3.001  17.592  0.1472 -0.5592  0.4907
  922MPD2     N13500   1.428   2.951  17.407 -0.0076 -0.2451 -0.1203
  922MPD2    H513501   1.353   2.999  17.359  0.6704  1.2530  0.3344
  922MPD2    N113502   1.632   3.385  17.450 -0.7345 -0.4339 -0.5783
  922MPD2    H713503   1.719   3.428  17.477 -1.0770 -0.1497  0.0812
  923MPD2     C13504   3.824   4.456   9.668 -0.1150  0.9600  0.0006
  923MPD2    C113505   3.827   4.585   9.710  0.1566 -0.2786  0.3276
  923MPD2    C213506   3.874   4.614   9.837 -0.2388 -0.6174  0.2247
  923MPD2    C313507   3.913   4.515   9.928 -0.2138 -0.2848 -0.1506
  923MPD2    C413508   3.904   4.383   9.879  0.6697 -0.0832 -0.3207
  923MPD2    C513509   3.870   4.359   9.747 -0.0479 -0.7828  0.1216
  923MPD2     H13510   3.882   4.715   9.878 -1.0877 -0.4197 -0.1104
  923MPD2    H113511   3.920   4.301   9.949  0.7644  1.8156  1.8885
  923MPD2    H213512   3.790   4.424   9.570  1.9750  1.7195 -0.9712
  923MPD2    H313513   3.870   4.260   9.703 -0.2537 -2.0946  3.0668
  923MPD2     N13514   3.965   4.543  10.060 -0.4597  0.0483  0.0480
  923MPD2    H513515   3.954   4.464  10.122  0.2183 -0.9101 -1.0613
  923MPD2    N113516   3.790   4.688   9.620  0.8311 -0.5587 -0.2997
  923MPD2    H713517   3.753   4.651   9.533  3.1888 -2.0002 -0.6979
  924MPD2     C13518   3.152   3.674  16.242 -0.5159  0.0292  0.3942
  924MPD2    C113519   3.084   3.681  16.363  0.6196 -0.3603 -0.0334
  924MPD2    C213520   3.059   3.800  16.424  0.7233 -0.4520 -0.4631
  924MPD2    C313521   3.112   3.913  16.371 -0.5214  0.2805 -0.0104
  924MPD2    C413522   3.185   3.912  16.255 -0.1686 -0.2851  0.1897
  924MPD2    C513523   3.204   3.788  16.188  0.1654  0.0482 -0.3496
  924MPD2     H13524   2.984   3.808  16.501  1.8566  1.4830  0.4285
  924MPD2    H113525   3.235   3.995  16.207 -2.3153  0.8730 -0.0371
  924MPD2    H213526   3.170   3.585  16.183 -2.4725 -0.1252  0.0211
  924MPD2    H313527   3.258   3.778  16.095  1.3440  2.6711  0.0627
  924MPD2     N13528   3.090   4.040  16.426 -0.5511 -0.5061 -0.2291
  924MPD2    H513529   3.117   4.118  16.368  0.0769 -0.7915 -0.3223
  924MPD2    N113530   3.024   3.561  16.403 -0.0719  0.0677  0.0701
  924MPD2    H713531   3.025   3.491  16.330 -1.1929  0.8277 -0.6893
  925MPD2     C13532   1.731   1.676  15.276  0.4867 -0.9818  0.0131
  925MPD2    C113533   1.642   1.610  15.197 -0.7298 -0.1930  0.1340
  925MPD2    C213534   1.516   1.577  15.249  0.2773  0.3305 -0.1584
  925MPD2    C313535   1.477   1.627  15.370 -0.1153  0.2448 -0.5531
  925MPD2    C413536   1.563   1.696  15.447  0.2518 -0.2539 -0.3049
  925MPD2    C513537   1.686   1.721  15.399  0.2232 -0.5272 -0.6294
  925MPD2     H13538   1.453   1.513  15.189 -1.9825  1.5879  0.8765
  925MPD2    H113539   1.550   1.722  15.552  1.0346  0.7962 -0.4676
  925MPD2    H213540   1.828   1.708  15.238 -0.0372 -0.4628 -0.8773
  925MPD2    H313541   1.753   1.772  15.466  0.0614  0.3650 -1.1483
  925MPD2     N13542   1.356   1.597  15.436 -0.3154 -0.0263 -0.1379
  925MPD2    H513543   1.350   1.616  15.535  1.6242  1.0048 -0.2146
  925MPD2    N113544   1.664   1.563  15.066  0.9419 -0.6543 -0.1091
  925MPD2    H713545   1.591   1.503  15.029  0.0697  0.4577 -0.1860
  926MPD2     C13546   0.689   4.290  13.549  0.0710 -0.6086  0.5031
  926MPD2    C113547   0.600   4.395  13.538 -0.3358  0.3842  0.1639
  926MPD2    C213548   0.616   4.488  13.432  0.0321  0.0766  1.3006
  926MPD2    C313549   0.733   4.474  13.350 -1.0346  0.3518  0.4527
  926MPD2    C413550   0.827   4.378  13.374 -0.0718  0.5898 -0.8817
  926MPD2    C513551   0.801   4.289  13.474 -0.4001 -0.6011 -0.0042
  926MPD2     H13552   0.546   4.571  13.428 -1.2033 -1.1024 -1.1477
  926MPD2    H113553   0.910   4.362  13.306 -0.0397  0.7384 -0.8777
  926MPD2    H213554   0.671   4.218  13.628  1.9780 -2.4076 -0.6836
  926MPD2    H313555   0.863   4.200  13.475  0.7572  0.2199  1.1053
  926MPD2     N13556   0.755   4.554  13.232 -0.3768  0.4659  0.1763
  926MPD2    H513557   0.842   4.551  13.179 -1.5477 -0.6616 -1.6782
  926MPD2    N113558   0.493   4.414  13.627  0.6448  1.0422  0.0790
  926MPD2    H713559   0.431   4.483  13.586 -2.8724 -0.2106  3.3371
  927MPD2     C13560   0.365   2.285   0.365 -0.3780  0.1334 -0.5519
  927MPD2    C113561   0.322   2.413   0.333 -0.6193 -0.3326 -0.0293
  927MPD2    C213562   0.363   2.473   0.207 -0.1102 -0.3099 -0.3166
  927MPD2    C313563   0.434   2.396   0.115  0.0296 -0.1024  0.0281
  927MPD2    C413564   0.462   2.258   0.154 -0.4015  0.5571  0.0717
  927MPD2    C513565   0.437   2.209   0.274  0.4363 -0.5992  0.0116
  927MPD2     H13566   0.325   2.570   0.177  1.4528 -0.2451 -2.0765
  927MPD2    H113567   0.506   2.185   0.087  0.7473 -1.1667  2.7102
  927MPD2    H213568   0.335   2.234   0.456 -0.3838  3.8419  1.5261
  927MPD2    H313569   0.452   2.105   0.300  0.7427 -0.7066 -0.5999
  927MPD2     N13570   0.475   2.446  17.686 -0.2005  0.1903 -0.3205
  927MPD2    H513571   0.436   2.536  17.661 -2.4086 -1.1133 -1.6163
  927MPD2    N113572   0.237   2.470   0.429  0.2589 -0.2107  0.3409
  927MPD2    H713573   0.206   2.412   0.506  0.7948 -0.7266  0.1657
  928MPD2     C13574   4.070   0.322   1.079  0.7684 -0.1992 -0.2658
  928MPD2    C113575   3.946   0.370   1.064  0.4250  0.0362 -0.0934
  928MPD2    C213576   3.913   0.443   0.957 -0.2054 -0.3755  0.0559
  928MPD2    C313577   4.008   0.453   0.855 -0.1712  0.7623 -0.0641
  928MPD2    C413578   4.135   0.393   0.857 -0.7728 -0.5280 -0.4135
  928MPD2    C513579   4.158   0.323   0.974 -0.1822  0.0139  0.3236
  928MPD2     H13580   3.814   0.488   0.958 -0.4293 -0.8720 -0.3370
  928MPD2    H113581   4.210   0.401   0.780  0.6031 -2.4357  0.7220
  928MPD2    H213582   4.093   0.274   1.174 -0.6972  0.7770  0.5809
  928MPD2    H313583   4.254   0.276   0.996 -0.1857 -0.9029 -1.6929
  928MPD2     N13584   3.970   0.535   0.738  0.0404 -0.0753  0.3091
  928MPD2    H513585   4.038   0.530   0.664  0.0800  0.7782  0.2895
  928MPD2    N113586   3.857   0.358   1.176  0.5127 -0.0520  0.0310
  928MPD2    H713587   3.908   0.339   1.261 -2.0398 -2.8515  0.9539
  929MPD2     C13588   3.195   0.187   9.890  0.2774  0.9095  0.4742
  929MPD2    C113589   3.151   0.094   9.979  0.2442 -0.8756  0.1638
  929MPD2    C213590   3.070   4.711   9.949 -0.2519 -0.1298  0.4375
  929MPD2    C313591   3.052   4.688   9.811  0.5958 -0.0816 -0.5062
  929MPD2    C413592   3.105   0.052   9.717  0.0037 -0.5652 -0.3617
  929MPD2    C513593   3.181   0.162   9.755  0.5501 -0.0081 -0.3226
  929MPD2     H13594   3.047   4.638  10.026 -0.3052  0.9181  1.4145
  929MPD2    H113595   3.087   0.034   9.612 -1.4136  0.9433 -0.3689
  929MPD2    H213596   3.249   0.272   9.930 -0.7269  1.3183  0.9507
  929MPD2    H313597   3.225   0.224   9.678  1.5463  1.3564  1.3347
  929MPD2     N13598   2.986   4.575   9.768  0.0082 -0.2234 -0.6457
  929MPD2    H513599   2.968   4.568   9.669 -0.3798  0.1562 -0.5982
  929MPD2    N113600   3.178   0.127  10.114  0.1628 -0.3673  0.0361
  929MPD2    H713601   3.241   0.207  10.117 -0.8529  0.3857  1.0947
  930MPD2     C13602   0.492   2.103  13.731 -0.1902 -0.2046  0.0801
  930MPD2    C113603   0.505   2.231  13.673  0.5369 -0.1982 -0.2724
  930MPD2    C213604   0.579   2.237  13.553  0.3193  0.0532 -0.2533
  930MPD2    C313605   0.648   2.131  13.509 -0.2635  0.2734  0.5372
  930MPD2    C413606   0.641   2.012  13.578 -0.3100 -0.0021  0.6662
  930MPD2    C513607   0.559   1.989  13.681 -0.1590 -0.1434  0.1969
  930MPD2     H13608   0.572   2.336  13.508 -2.2481  0.4267  0.9183
  930MPD2    H113609   0.706   1.931  13.548 -1.5186 -0.7208  0.0001
  930MPD2    H213610   0.428   2.088  13.818 -0.8787  1.8331 -0.0801
  930MPD2    H313611   0.542   1.898  13.738 -0.7711  0.3256  0.7602
  930MPD2     N13612   0.730   2.136  13.392 -0.5541  0.0309  0.2872
  930MPD2    H513613   0.781   2.051  13.371 -1.6234 -0.8156  1.1490
  930MPD2    N113614   0.443   2.353  13.723 -0.5380 -0.3015  0.3256
  930MPD2    H713615   0.465   2.438  13.672  0.3205 -1.1528 -0.7302
  931MPD2     C13616   0.082   2.852   1.187 -0.3389  0.2402 -0.4935
  931MPD2    C113617   0.086   2.737   1.112  0.0852  0.6355 -0.0114
  931MPD2    C213618   0.076   2.611   1.173  0.6538 -0.4060  0.1404
  931MPD2    C313619   0.074   2.608   1.307  0.5197  0.5479  0.1207
  931MPD2    C413620   0.092   2.722   1.377  0.3229 -0.5366 -0.8435
  931MPD2    C513621   0.091   2.847   1.316  0.1886  0.3073 -0.0016
  931MPD2     H13622   0.053   2.516   1.127 -0.8791  0.6983 -1.4060
  931MPD2    H113623   0.083   2.710   1.485  3.6806  1.5664 -0.3409
  931MPD2    H213624   0.071   2.945   1.132  0.9082  0.5318 -0.2542
  931MPD2    H313625   0.086   2.936   1.377 -2.2524 -0.7821  1.4095
  931MPD2     N13626   0.029   2.497   1.384  0.1492 -0.1365 -0.0680
  931MPD2    H513627   4.723   2.519   1.479  1.0311  0.0495  0.1711
  931MPD2    N113628   0.100   2.749   0.971  0.8301 -0.1702  0.5658
  931MPD2    H713629   0.107   2.844   0.934  0.6713 -0.0750  0.7872
  932MPD2     C13630   2.230   1.090  11.024  0.9403 -0.5297  0.1934
  932MPD2    C113631   2.360   1.041  11.000  0.6065  0.4400 -0.0165
  932MPD2    C213632   2.382   0.911  11.048  0.4502  0.4310 -0.0437
  932MPD2    C313633   2.302   0.843  11.131  0.1958  0.3704  0.3607
  932MPD2    C413634   2.184   0.895  11.167 -0.7460  0.1377  0.5676
  932MPD2    C513635   2.145   1.020  11.107  0.2210  0.0996  0.5688
  932MPD2     H13636   2.470   0.859  11.010 -0.3388 -0.3682 -0.7824
  932MPD2    H113637   2.115   0.843  11.232 -1.6546  2.5977  1.5787
  932MPD2    H213638   2.198   1.188  10.990  2.7326  1.2269  3.6248
  932MPD2    H313639   2.053   1.069  11.136  0.2092  1.3965 -1.6612
  932MPD2     N13640   2.337   0.728  11.200  0.3490  0.2583 -1.2783
  932MPD2    H513641   2.272   0.699  11.271  2.1652  0.2884  0.3830
  932MPD2    N113642   2.464   1.114  10.940  0.6600 -0.1180  0.0721
  932MPD2    H713643   2.553   1.066  10.929  0.6284  0.4633 -2.5128
  933MPD2     C13644   3.161   0.089   1.735 -0.2458 -0.4150  0.4514
  933MPD2    C113645   3.186   0.184   1.638 -0.7092  0.4359 -0.2690
  933MPD2    C213646   3.077   0.239   1.569 -0.7584 -0.0982 -0.2929
  933MPD2    C313647   2.948   0.207   1.603  0.4160 -0.9940  0.4100
  933MPD2    C413648   2.930   0.114   1.708 -0.1672 -0.3161 -0.1771
  933MPD2    C513649   3.034   0.058   1.772 -0.7850 -0.0745 -0.8002
  933MPD2     H13650   3.101   0.304   1.485  1.4224 -0.8635 -0.2598
  933MPD2    H113651   2.830   0.095   1.744 -0.4262  1.3701 -0.0137
  933MPD2    H213652   3.251   0.042   1.776  0.2890 -0.3551 -0.6568
  933MPD2    H313653   3.018   4.708   1.849 -0.5407 -0.1101 -0.7857
  933MPD2     N13654   2.837   0.257   1.521 -0.3567  0.2209 -0.3061
  933MPD2    H513655   2.863   0.312   1.440 -1.9243  2.4555  0.7083
  933MPD2    N113656   3.327   0.194   1.597 -0.6248 -0.6865 -0.2660
  933MPD2    H713657   3.387   0.124   1.638  2.4597  1.8498 -0.4625
  934MPD2     C13658   3.031   3.470   1.974  0.3607 -0.2804 -0.2227
  934MPD2    C113659   3.141   3.395   1.933  0.5207  0.5100  0.2277
  934MPD2    C213660   3.143   3.329   1.813  0.3396 -0.0644  0.1088
  934MPD2    C313661   3.034   3.323   1.725  1.1643 -0.5796 -0.3257
  934MPD2    C413662   2.929   3.406   1.771 -0.8339 -0.4269 -0.0057
  934MPD2    C513663   2.925   3.467   1.889 -0.5976  0.0651 -0.3268
  934MPD2     H13664   3.227   3.268   1.780 -0.4027 -1.6202  1.0749
  934MPD2    H113665   2.844   3.424   1.706 -0.4730 -2.9882 -1.1746
  934MPD2    H213666   3.024   3.532   2.063  0.7200 -1.5647  0.6888
  934MPD2    H313667   2.841   3.531   1.913 -0.5837 -0.0224 -0.0445
  934MPD2     N13668   3.024   3.245   1.609 -0.3881 -0.0032 -0.1278
  934MPD2    H513669   2.934   3.247   1.562 -0.8813 -1.2288  0.7480
  934MPD2    N113670   3.252   3.373   2.011 -0.2521  0.1867 -0.9551
  934MPD2    H713671   3.323   3.314   1.968 -0.3048 -0.3523 -0.2958
  935MPD2     C13672   3.649   2.479   1.319 -0.5021 -0.7897  0.4461
  935MPD2    C113673   3.542   2.477   1.235 -0.0478  0.4528  0.0248
  935MPD2    C213674   3.438   2.568   1.260 -0.2378  0.4939  0.3223
  935MPD2    C313675   3.440   2.653   1.373  0.7682  0.5844 -0.1711
  935MPD2    C413676   3.556   2.657   1.451 -0.2190  0.8915  0.4652
  935MPD2    C513677   3.659   2.571   1.423  0.0237 -0.2531  0.2439
  935MPD2     H13678   3.351   2.556   1.196  0.7884  0.2382 -1.0318
  935MPD2    H113679   3.555   2.704   1.548  0.8533  1.4547  0.2078
  935MPD2    H213680   3.740   2.425   1.299 -0.8864 -2.1593  2.3820
  935MPD2    H313681   3.749   2.572   1.483 -0.5689  0.0398  1.1264
  935MPD2     N13682   3.325   2.739   1.405  0.4449 -0.5320 -0.0126
  935MPD2    H513683   3.329   2.798   1.487 -0.9062 -2.0805  1.1696
  935MPD2    N113684   3.536   2.393   1.123  0.0019  0.1120  0.0969
  935MPD2    H713685   3.445   2.399   1.078  0.7520  2.1916 -1.1757
  936MPD2     C13686   2.465   0.474  12.822  0.2939 -0.0731  0.6682
  936MPD2    C113687   2.560   0.391  12.867 -0.1061  0.6035 -0.6962
  936MPD2    C213688   2.691   0.430  12.865 -0.5963 -1.2722  0.8194
  936MPD2    C313689   2.726   0.556  12.819  0.2040  0.5201 -0.2337
  936MPD2    C413690   2.622   0.649  12.782  1.2197 -0.1090 -0.5916
  936MPD2    C513691   2.497   0.595  12.780 -0.0452 -0.3495 -0.2565
  936MPD2     H13692   2.765   0.360  12.904 -1.0286 -2.0665  0.1957
  936MPD2    H113693   2.640   0.750  12.747 -0.0843 -0.0960 -1.2160
  936MPD2    H213694   2.360   0.448  12.811  0.1871  0.2855  0.8440
  936MPD2    H313695   2.418   0.652  12.733 -0.6935 -0.4736  0.6907
  936MPD2     N13696   2.865   0.584  12.823 -0.1212 -0.0461 -0.1499
  936MPD2    H513697   2.925   0.514  12.866 -0.2048 -0.9204 -1.4474
  936MPD2    N113698   2.536   0.255  12.904 -0.2081  0.0518  0.0444
  936MPD2    H713699   2.612   0.205  12.949 -0.0135  0.9117  0.6653
  937MPD2     C13700   0.854   0.940  11.528  0.2531  0.1650  0.5940
  937MPD2    C113701   0.850   1.079  11.549 -0.1133 -0.0548 -0.1096
  937MPD2    C213702   0.899   1.160  11.447 -0.6606 -0.2807 -0.0838
  937MPD2    C313703   0.959   1.106  11.333 -0.4990 -0.0261  0.2213
  937MPD2    C413704   0.965   0.973  11.319  0.4553 -0.1925 -0.6533
  937MPD2    C513705   0.919   0.890  11.418 -0.4297 -0.1947 -0.3309
  937MPD2     H13706   0.880   1.267  11.446 -2.2731 -0.5520  0.8339
  937MPD2    H113707   1.003   0.934  11.225 -2.0832  1.8641 -2.5269
  937MPD2    H213708   0.818   0.864  11.596 -0.4344 -0.3570 -0.3426
  937MPD2    H313709   0.921   0.783  11.401  0.0462 -0.0410 -1.2414
  937MPD2     N13710   1.014   1.193  11.238  0.1740 -0.1426 -0.2204
  937MPD2    H513711   1.029   1.291  11.261  2.3864 -0.2078 -1.3289
  937MPD2    N113712   0.794   1.134  11.666  0.4720 -0.0034 -0.4922
  937MPD2    H713713   0.771   1.233  11.661 -3.5524 -0.9834 -2.2402
  938MPD2     C13714   2.336   2.611   0.600  1.0387 -0.7196 -0.9777
  938MPD2    C113715   2.408   2.650   0.714 -0.2243  0.0440 -0.0950
  938MPD2    C213716   2.491   2.558   0.773 -0.0065 -0.3006  0.3707
  938MPD2    C313717   2.494   2.428   0.722 -0.1610 -0.4507 -0.9598
  938MPD2    C413718   2.421   2.392   0.615 -0.2418 -0.5560  0.5250
  938MPD2    C513719   2.350   2.487   0.546  0.6363 -0.0651 -0.9876
  938MPD2     H13720   2.548   2.595   0.858  2.1773  0.0340 -1.2415
  938MPD2    H113721   2.424   2.286   0.592 -2.9555 -0.7748  1.1614
  938MPD2    H213722   2.266   2.683   0.557  0.2260 -0.0678  1.4245
  938MPD2    H313723   2.285   2.464   0.462  0.0382 -0.9732 -0.2833
  938MPD2     N13724   2.554   2.318   0.786 -0.4671 -0.1895  0.2537
  938MPD2    H513725   2.555   2.226   0.743  3.3627  1.1970 -2.6242
  938MPD2    N113726   2.407   2.780   0.772 -0.3653  1.0527  0.6133
  938MPD2    H713727   2.473   2.795   0.847  0.1628 -1.7454  0.7305
  939MPD2     C13728   4.100   3.466   1.348  0.2640 -0.1223  0.0231
  939MPD2    C113729   4.036   3.561   1.273 -0.3462  0.7091 -0.2742
  939MPD2    C213730   4.089   3.591   1.153  0.0988 -0.3314  0.6579
  939MPD2    C313731   4.209   3.540   1.104  0.0958  0.7143 -1.5285
  939MPD2    C413732   4.276   3.443   1.188  0.8111  0.4106 -0.5558
  939MPD2    C513733   4.222   3.419   1.311  0.2679 -0.2681 -0.5272
  939MPD2     H13734   4.055   3.671   1.088  0.2812  0.5129  1.6103
  939MPD2    H113735   4.377   3.415   1.162  0.8551  0.3150 -0.2791
  939MPD2    H213736   4.070   3.439   1.448 -1.0666 -0.1620 -0.3877
  939MPD2    H313737   4.279   3.356   1.379  0.0259 -1.0140 -1.0156
  939MPD2     N13738   4.263   3.587   0.983  0.0675  0.7720 -0.6893
  939MPD2    H513739   4.205   3.651   0.931 -2.1638  0.4719  1.4477
  939MPD2    N113740   3.910   3.605   1.322 -0.2595  0.2029  0.2644
  939MPD2    H713741   3.882   3.590   1.418 -0.7490  0.1325  0.1092
  940MPD2     C13742   3.133   4.311  13.320  0.2288  0.4520  0.2001
  940MPD2    C113743   3.182   4.199  13.380  0.2357 -0.2620  0.2514
  940MPD2    C213744   3.287   4.139  13.324 -0.5516 -0.1208  0.0687
  940MPD2    C313745   3.338   4.174  13.196 -0.2293 -0.5370  0.1264
  940MPD2    C413746   3.280   4.283  13.136 -0.5446  0.1649 -0.2754
  940MPD2    C513747   3.189   4.358  13.200 -0.0488 -0.6604 -0.1062
  940MPD2     H13748   3.327   4.045  13.360 -0.2728  0.3229  0.9255
  940MPD2    H113749   3.312   4.305  13.035  0.1846  1.5923  0.2588
  940MPD2    H213750   3.052   4.376  13.351  0.2062  1.0629 -1.1031
  940MPD2    H313751   3.149   4.448  13.155  0.4771 -0.2861  0.1653
  940MPD2     N13752   3.438   4.111  13.126 -0.6920  0.2361  0.8123
  940MPD2    H513753   3.455   4.144  13.032 -0.3721  1.7159  1.3879
  940MPD2    N113754   3.133   4.153  13.509 -0.6253  0.0685 -0.0509
  940MPD2    H713755   3.181   4.069  13.539  1.5164  1.8134  1.4288
  941MPD2     C13756   2.680   3.166   9.760  0.0455  0.0868  0.2592
  941MPD2    C113757   2.777   3.075   9.806 -0.0959 -0.3896  0.3610
  941MPD2    C213758   2.736   2.961   9.868  0.0449  0.2263  1.0543
  941MPD2    C313759   2.604   2.932   9.884 -0.5336 -0.6089 -1.2061
  941MPD2    C413760   2.508   3.025   9.859  0.1990 -0.1410  0.0538
  941MPD2    C513761   2.549   3.142   9.792  0.3278 -0.3707  0.2403
  941MPD2     H13762   2.816   2.898   9.905  0.7827 -0.9504 -2.5867
  941MPD2    H113763   2.404   3.002   9.877 -0.2867  0.7530 -1.5446
  941MPD2    H213764   2.702   3.257   9.706 -0.1897  0.6500  1.1178
  941MPD2    H313765   2.487   3.227   9.766 -0.3579 -0.7985  0.4813
  941MPD2     N13766   2.558   2.814   9.944  0.1936 -0.3028  0.1064
  941MPD2    H513767   2.458   2.809   9.960  0.0517  0.1829 -0.6313
  941MPD2    N113768   2.918   3.106   9.795 -0.4259 -0.2620  0.3316
  941MPD2    H713769   2.982   3.052   9.853  1.0001  1.2737  0.1820
  942MPD2     C13770   2.633   0.913   8.651  0.5034 -0.0418  0.5564
  942MPD2    C113771   2.563   0.861   8.754 -0.2383 -0.0333 -0.5924
  942MPD2    C213772   2.574   0.725   8.776 -0.2077 -0.4094  0.7193
  942MPD2    C313773   2.670   0.649   8.713 -0.6060  0.3162 -0.4176
  942MPD2    C413774   2.735   0.703   8.605 -0.5855  0.6055 -0.2105
  942MPD2    C513775   2.717   0.838   8.576  0.1860  0.1484 -0.5109
  942MPD2     H13776   2.511   0.680   8.853  0.4703 -1.6396  0.5618
  942MPD2    H113777   2.799   0.644   8.540 -0.5976 -0.1268  0.4387
  942MPD2    H213778   2.622   1.017   8.620  1.0353  0.9027  3.4696
  942MPD2    H313779   2.776   0.880   8.496  1.3224  1.2513  0.9149
  942MPD2     N13780   2.686   0.512   8.746 -0.6418 -0.8336  1.1306
  942MPD2    H513781   2.769   0.469   8.707 -1.8373 -5.6471  3.9033
  942MPD2    N113782   2.462   0.933   8.831  0.2459 -0.4960  0.5919
  942MPD2    H713783   2.410   0.890   8.907  2.0460  0.4336  2.3511
  943MPD2     C13784   1.229   3.853   9.734 -0.0085 -0.1130 -0.2232
  943MPD2    C113785   1.213   3.754   9.830 -0.1407 -0.1539 -0.1554
  943MPD2    C213786   1.276   3.772   9.948 -0.5106  0.2709 -0.1175
  943MPD2    C313787   1.351   3.885   9.975  0.4578  1.1156  0.1606
  943MPD2    C413788   1.380   3.976   9.875 -0.6337 -0.2565  0.3972
  943MPD2    C513789   1.314   3.964   9.753  0.7351  0.3174 -0.1990
  943MPD2     H13790   1.277   3.701  10.030  0.3144 -0.2981 -0.6157
  943MPD2    H113791   1.442   4.064   9.887  2.3313 -2.2868 -0.3284
  943MPD2    H213792   1.175   3.835   9.642 -0.3304 -0.6195  0.0616
  943MPD2    H313793   1.329   4.040   9.676 -1.1975  2.1989  1.2912
  943MPD2     N13794   1.416   3.906  10.098  0.1538 -0.0715  0.5190
  943MPD2    H513795   1.463   3.995  10.109  0.4982 -0.3432  1.2495
  943MPD2    N113796   1.129   3.645   9.800  0.6383 -0.2016  0.2262
  943MPD2    H713797   1.104   3.637   9.702 -0.1358  0.8334  0.3398
  944MPD2     C13798   1.143   2.603  11.153  0.6971 -0.0513  0.1455
  944MPD2    C113799   1.190   2.728  11.132  0.3081 -0.8675 -0.1854
  944MPD2    C213800   1.197   2.826  11.228 -1.0480  0.1888 -0.1285
  944MPD2    C313801   1.162   2.789  11.360  0.0210  0.1775 -0.7673
  944MPD2    C413802   1.110   2.656  11.377  0.5739  0.4142 -0.0487
  944MPD2    C513803   1.106   2.567  11.273  0.4886 -0.4026 -0.1557
  944MPD2     H13804   1.229   2.926  11.201 -1.0057  0.0539 -0.5763
  944MPD2    H113805   1.071   2.621  11.472  0.3621  1.0559  0.1045
  944MPD2    H213806   1.116   2.532  11.076  2.0585  0.5058 -0.8600
  944MPD2    H313807   1.060   2.470  11.289  1.8708 -0.9308  0.6488
  944MPD2     N13808   1.148   2.891  11.461 -0.1646  0.3102  0.4767
  944MPD2    H513809   1.167   2.988  11.436 -0.1308  0.2125  0.1215
  944MPD2    N113810   1.230   2.747  10.995 -1.3030  0.4559  0.1497
  944MPD2    H713811   1.209   2.673  10.929  0.8629  2.9401 -3.3296
    1TCq1    O113812   2.812   3.471  14.863 -0.0047  0.2102  0.0688
    1TCq1    C113813   2.893   3.413  14.951 -0.7654 -1.1176 -0.6856
    1TCq1    O213814   2.869   3.328  15.034 -0.2125 -0.0144  0.2574
    1TCq1    C213815   3.027   3.466  14.936 -0.0117  0.2996  0.2291
    1TCq1    C313816   3.131   3.371  14.927 -0.0109 -0.8539  0.1116
    1TCq1    C413817   3.247   3.413  14.870  0.0585 -0.1337 -0.2957
    1TCq1    C513818   3.270   3.546  14.828  0.0859  0.7306  0.4024
    1TCq1    C613819   3.166   3.633  14.845 -0.3985 -0.2613  0.0816
    1TCq1    C713820   3.043   3.600  14.898 -0.4895  0.0260 -0.3855
    1TCq1    C813821   3.165   3.744  14.756  0.2059 -0.2208  0.7598
    1TCq1    O413822   3.104   3.840  14.793  0.2574 -0.2722  0.1189
    1TCq1    C913823   3.358   3.314  14.866  0.6218  0.2167 -0.1973
    1TCq1    O513824   3.346   3.204  14.926  0.2792  0.2324  0.1291
    1TCq1    O613825   3.462   3.366  14.815  0.0556 -0.2754  0.0780
    1TCq1    H113826   2.855   3.533  14.801 -1.2960 -0.5285 -1.5458
    1TCq1    H213827   3.115   3.268  14.959 -3.3974 -0.0533  0.9808
    1TCq1    H313828   3.369   3.571  14.792 -0.0922 -0.5669 -0.9968
    1TCq1    H413829   2.962   3.673  14.894  0.6446  1.3211  0.3916
    2MPD2     C13830   3.361   4.028  14.374 -0.5088 -0.2953 -0.7111
    2MPD2    C113831   3.414   3.904  14.365  0.2348  0.4088  0.5940
    2MPD2    C213832   3.381   3.805  14.459 -0.1435  0.0110  0.3676
    2MPD2    C313833   3.278   3.830  14.548 -0.7431  0.0709  0.3456
    2MPD2    C413834   3.226   3.950  14.557  0.5287  0.1986 -0.1274
    2MPD2    C513835   3.266   4.042  14.466  0.3840  0.0912 -0.6044
    2MPD2     H13836   3.428   3.707  14.455  1.4399  0.8502 -1.3675
    2MPD2    H113837   3.149   3.983  14.625  0.2264  0.5549 -0.6379
    2MPD2    H213838   3.376   4.108  14.304 -0.1615 -1.7842 -2.3392
    2MPD2    H313839   3.210   4.135  14.473  3.3870  1.8345  0.0430
    2MPD2     N13840   3.256   3.733  14.649  0.3919 -0.0130 -0.0133
    2MPD2    H513841   3.309   3.647  14.635  0.5258  0.1773 -0.6790
    2MPD2    N113842   3.503   3.886  14.254 -0.2643 -0.1837  0.4076
    2MPD2    H713843   3.556   3.970  14.231 -0.3439 -0.0050  0.8842
    3TMC2    C113844   3.645   3.747  14.102 -0.9469  0.3193  0.1204
    3TMC2    C213845   3.642   3.631  14.026 -0.2942 -0.7802  0.7266
    3TMC2    C313846   3.750   3.595  13.960  0.3094 -0.0256  0.3327
    3TMC2    C413847   3.752   3.832  14.110 -0.3746  0.0800  0.3250
    3TMC2    C513848   3.862   3.785  14.041 -0.1532 -0.4772 -0.0076
    3TMC2    C613849   3.863   3.672  13.961 -0.3870 -0.7657  0.3600
    3TMC2     C13850   3.527   3.761  14.189 -0.8522 -0.7809 -0.3665
    3TMC2     O13851   3.455   3.661  14.208  0.0674  0.2582 -0.3293
    3TMC2     H13852   3.548   3.577  14.021 -1.4730  1.5014 -1.5159
    3TMC2    H113853   3.755   3.914  14.181 -0.5056  0.8533 -0.5545
    3TMC2    H213854   3.945   3.648  13.894 -0.0952  0.3287  0.3265
    3TMC2    C713855   3.965   3.880  14.005  0.0825  0.0424  0.3333
    3TMC2    C813856   3.755   3.505  13.847  0.0437  0.2396  0.1671
    3TMC2    O113857   4.075   3.837  13.973 -0.3914 -0.1084 -0.3905
    3TMC2    O213858   3.848   3.446  13.792  0.3675  0.2733  0.0687
    3TMC2    O513859   3.647   3.548  13.787 -0.3838  0.3698 -0.2629
    3TMC2    H513860   3.583   3.607  13.833  0.7886  1.3334  0.1302
    4MPD2     C13861   2.976   0.104  13.925 -0.2161 -0.1361 -0.0390
    4MPD2    C113862   3.039   0.162  13.821  0.8721 -0.3268 -0.0744
    4MPD2    C213863   3.172   0.138  13.799  0.1707  0.5296 -0.8976
    4MPD2    C313864   3.244   0.064  13.887  0.3456 -0.0600 -0.1239
    4MPD2    C413865   3.177   0.012  13.994  0.1853  0.1064  0.1177
    4MPD2    C513866   3.040   0.026  14.008 -0.0486  0.1130  0.0131
    4MPD2     H13867   3.218   0.174  13.707  2.7264  0.2981  0.2991
    4MPD2    H113868   3.220   4.664  14.064  0.5391 -0.4905 -0.7211
    4MPD2    H213869   2.870   0.117  13.941  0.2253  1.7519  1.2740
    4MPD2    H313870   2.982   4.692  14.080  0.9335 -0.3824  0.4119
    4MPD2     N13871   3.382   0.061  13.880  0.8841  0.0627 -0.8582
    4MPD2    H513872   3.418   0.116  13.803  0.3202  1.0459 -0.4153
    4MPD2    N113873   2.953   0.221  13.720  0.7764  0.4747 -0.2149
    4MPD2    H713874   2.854   0.202  13.734  0.4746  0.5945 -2.1981
    5TCq2    C113875   3.472   4.706  13.950 -0.4737  0.5503 -0.6526
    5TCq2    O213876   3.456   4.625  14.039 -0.0213 -0.3065 -0.1738
    5TCq2    C213877   3.607   0.015  13.906  0.5173 -0.6641 -0.0029
    5TCq2    C313878   3.627   0.142  13.852 -0.0081 -0.5932  0.1497
    5TCq2    C413879   3.758   0.179  13.830 -0.5207 -0.2141 -0.0845
    5TCq2    C513880   3.864   0.090  13.847 -0.0693 -0.7382  0.3728
    5TCq2    C613881   3.828   4.688  13.885  0.8157  0.0758  0.0479
    5TCq2    C713882   3.699   4.647  13.921 -0.3497  0.0911  0.6199
    5TCq2    C813883   3.940   4.605  13.910  0.0129 -1.0091 -0.9649
    5TCq2    O413884   4.052   4.650  13.896  0.5691 -0.0627 -0.6051
    5TCq2    C913885   3.789   0.320  13.819  0.4572  0.7676  0.3567
    5TCq2    O513886   3.908   0.350  13.790 -0.1320 -0.5119 -0.0397
    5TCq2    O613887   3.698   0.399  13.781 -0.1559  0.1109  0.4828
    5TCq2    H213888   3.547   0.215  13.847 -0.5910 -1.3292 -1.2914
    5TCq2    H313889   3.967   0.118  13.827  0.2556 -1.2786  1.2567
    5TCq2    H413890   3.681   4.554  13.974 -3.0395  0.1017 -0.2743
    6MPD1     C13891   2.436   1.876  13.543  0.1233  0.4460 -0.2467
    6MPD1    C113892   2.507   1.864  13.427  0.0070  0.8201  0.1005
    6MPD1    C213893   2.513   1.749  13.353  0.2680 -0.1302 -0.2188
    6MPD1    C313894   2.419   1.648  13.383  0.4954 -0.3470  0.1918
    6MPD1    C413895   2.326   1.678  13.483 -0.1493  0.0292 -0.1889
    6MPD1    C513896   2.337   1.788  13.566 -0.3862 -0.4689  0.2010
    6MPD1     H13897   2.574   1.749  13.263  0.6393  0.9448  0.0305
    6MPD1    H113898   2.232   1.627  13.496 -1.3296  2.1877 -0.3053
    6MPD1    H213899   2.447   1.957  13.614  1.7542  0.5341 -0.5920
    6MPD1    H313900   2.264   1.805  13.645 -0.7334 -1.8866  0.1919
    6MPD1     N13901   2.402   1.532  13.299  0.3833  0.5122 -0.3048
    6MPD1    H513902   2.330   1.464  13.319  1.5673 -0.3699  0.9895
    6MPD1    N113903   2.609   1.965  13.413 -0.1383 -0.4743 -0.2314
    6MPD1    H613904   2.647   1.983  13.321  1.1753  1.8997  0.7838
    6MPD1    H713905   2.574   2.051  13.454  0.0814 -0.4136 -0.1692
    7MPD2     C13906   2.285   0.866  13.502 -0.2020  0.0266  0.1430
    7MPD2    C113907   2.377   0.849  13.401  1.1049 -0.0950  0.0149
    7MPD2    C213908   2.452   0.735  13.394 -0.2504 -0.7038 -0.7152
    7MPD2    C313909   2.439   0.636  13.487  0.4997  0.5525 -0.0239
    7MPD2    C413910   2.358   0.663  13.597 -0.8619 -0.3528  0.0558
    7MPD2    C513911   2.281   0.768  13.599 -0.2072  0.4965 -0.0526
    7MPD2     H13912   2.523   0.706  13.317  1.3763  3.2464 -0.7214
    7MPD2    H113913   2.359   0.586  13.673  1.2979 -0.1506  0.2266
    7MPD2    H213914   2.220   0.953  13.506  1.3670  1.2036 -0.0259
    7MPD2    H313915   2.223   0.788  13.687 -2.2122 -3.4421 -0.4522
    7MPD2     N13916   2.526   0.535  13.467  0.1976 -0.9008  0.0749
    7MPD2    H513917   2.587   0.549  13.387 -1.6566 -2.0665 -1.5182
    7MPD2    N113918   2.390   0.946  13.294  0.7723 -0.0164  0.1227
    7MPD2    H713919   2.461   0.926  13.224 -0.2541 -0.1388 -0.8846
    8TMC3    C113920   2.659   0.350  13.495  0.6112 -0.2243 -0.3568
    8TMC3    C213921   2.755   0.323  13.586 -0.1507 -0.6936  0.6815
    8TMC3    C313922   2.882   0.345  13.539  0.1235  0.2587 -0.0667
    8TMC3    C413923   2.684   0.374  13.363  0.1832  0.3968 -0.8552
    8TMC3    C513924   2.813   0.395  13.319  1.1279 -0.3355  0.1368
    8TMC3    C613925   2.912   0.379  13.408  0.0741 -0.1927  0.1041
    8TMC3     C13926   2.546   0.424  13.547 -0.4553 -0.1941  0.2678
    8TMC3     O13927   2.513   0.411  13.661 -0.0500 -0.7239 -0.5185
    8TMC3     H13928   2.726   0.322  13.690 -2.3939  0.0053  0.0847
    8TMC3    H113929   2.601   0.379  13.294  0.1633 -1.3859 -0.9710
    8TMC3    H213930   3.016   0.390  13.380  0.0180  1.4474  0.5591
    8TMC3    C713931   2.806   0.522  13.254  0.3786  0.4621 -0.8173
    8TMC3    C813932   2.991   0.304  13.618  0.0601  0.6224  0.7245
    8TMC3    O113933   2.692   0.573  13.257 -0.0902 -0.5668  0.3501
    8TMC3    O213934   3.102   0.340  13.585 -0.0707  0.2068 -0.2468
    9TMC3    C113935   2.464   1.367  13.134  0.1859  0.1891 -0.5893
    9TMC3    C213936   2.569   1.317  13.062 -0.1124 -0.1615 -0.5814
    9TMC3    C313937   2.575   1.183  13.049  0.1275 -0.0099 -0.1043
    9TMC3    C413938   2.371   1.280  13.198  0.7211  0.2214 -0.3696
    9TMC3    C513939   2.378   1.144  13.174  0.0019  0.1477  0.4674
    9TMC3    C613940   2.476   1.099  13.093  0.3255 -0.3372  0.0814
    9TMC3     C13941   2.481   1.502  13.187 -0.6815  0.0893 -0.5676
    9TMC3     O13942   2.569   1.565  13.134 -0.0792  0.3335  0.0270
    9TMC3     H13943   2.650   1.374  13.018 -0.7899  1.5054  0.3332
    9TMC3    H113944   2.282   1.316  13.249 -0.6546 -1.0448 -1.8869
    9TMC3    H213945   2.479   0.994  13.068  1.2327 -0.0969 -0.7876
    9TMC3    C713946   2.327   1.068  13.284 -0.3871  0.2749 -0.1490
    9TMC3    C813947   2.714   1.131  13.039 -0.3513 -0.2459 -0.9591
    9TMC3    O113948   2.242   1.125  13.358  0.0172 -0.3854 -0.4541
    9TMC3    O213949   2.799   1.220  13.025 -0.3853  0.1032 -0.1785
   10MPD2     C13950   3.055   0.751  13.114 -0.6399 -0.8205  0.1171
   10MPD2    C113951   2.926   0.704  13.140 -0.4515  1.3901  0.1622
   10MPD2    C213952   2.821   0.794  13.123 -0.4714  0.4636  0.2315
   10MPD2    C313953   2.846   0.925  13.081  0.3106 -0.6817  0.2613
   10MPD2    C413954   2.971   0.971  13.053 -0.9169  0.1603 -1.0036
   10MPD2    C513955   3.075   0.880  13.071 -0.4977  0.6105  0.2784
   10MPD2     H13956   2.715   0.775  13.136 -0.9726  2.1428 -1.2986
   10MPD2    H113957   2.988   1.070  13.014 -1.3378  0.8270  0.5170
   10MPD2    H213958   3.139   0.683  13.125  2.4808  3.0608  0.1040
   10MPD2    H313959   3.179   0.909  13.059 -0.2049 -0.2542  0.7634
   10MPD2     N13960   2.727   1.000  13.070 -0.3739 -0.5023 -0.2591
   10MPD2    H513961   2.642   0.948  13.091  0.3109 -0.5232  2.3875
   10MPD2    N113962   2.921   0.574  13.196  0.2869  0.5563 -0.2912
   10MPD2    H713963   3.004   0.515  13.200 -0.8605 -1.0230  0.1039
   11MPD2     C13964   4.130   4.118  13.989 -0.1537  0.4679 -0.0427
   11MPD2    C113965   3.992   4.124  13.990 -0.4399 -0.1113 -0.8258
   11MPD2    C213966   3.931   4.241  13.978  0.2498 -0.0891 -0.1893
   11MPD2    C313967   3.990   4.363  13.955 -0.7297  0.0784  0.5863
   11MPD2    C413968   4.127   4.361  13.961  0.4474  0.3016 -0.6117
   11MPD2    C513969   4.196   4.244  13.981  0.1297  0.3199  0.5884
   11MPD2     H13970   3.822   4.239  13.970  0.4556  2.3502 -3.4339
   11MPD2    H113971   4.177   4.456  13.944  3.1438 -1.1226 -0.6315
   11MPD2    H213972   4.194   4.032  14.006  1.0248  1.3207 -0.1684
   11MPD2    H313973   4.304   4.249  13.980  0.1126  0.8742  1.4614
   11MPD2     N13974   3.905   4.473  13.933 -0.2022  0.2017 -0.2045
   11MPD2    H513975   3.805   4.455  13.933 -0.6556  2.6983 -0.8034
   11MPD2    N113976   3.911   4.007  14.014 -0.3174 -0.6769  0.2999
   11MPD2    H713977   3.815   4.032  14.036  0.6971  3.5364 -0.0412
    1MPD1     C13978   2.079   1.222  16.879 -1.0228 -0.4567 -0.7329
    1MPD1    C113979   1.945   1.229  16.904  0.4114 -0.8599  0.4176
    1MPD1    C213980   1.894   1.187  17.026 -0.7915 -0.0746 -0.1906
    1MPD1    C313981   1.979   1.138  17.126 -0.4227  0.2174  0.9238
    1MPD1    C413982   2.118   1.129  17.102 -0.0888  0.1292  0.1132
    1MPD1    C513983   2.162   1.166  16.979 -0.1601  0.4168  0.0479
    1MPD1     H13984   1.785   1.186  17.031 -0.7121 -1.0103  1.5430
    1MPD1    H113985   2.179   1.086  17.181 -0.6109 -2.1085 -0.6940
    1MPD1    H213986   2.118   1.261  16.785  1.0817 -1.1475 -0.1493
    1MPD1    H313987   2.269   1.152  16.964 -0.6288 -2.6423 -0.4746
    1MPD1     N13988   1.922   1.089  17.248 -0.2988 -0.0802 -0.1985
    1MPD1    H513989   1.992   1.073  17.320 -3.4639 -1.6152  2.5024
    1MPD1    N113990   1.854   1.261  16.801  0.6533  0.3050 -0.3041
    1MPD1    H613991   1.777   1.317  16.838 -0.7189  0.5030 -3.4318
    1MPD1    H713992   1.889   1.316  16.723 -1.8630  1.4406 -0.6540
    2MPD1     C13993   1.188   1.506   0.048  0.3392 -0.2446  0.1999
    2MPD1    C113994   1.160   1.422  17.644  0.0347 -0.4267  0.1113
    2MPD1    C213995   1.244   1.322  17.604 -0.0326  0.1461 -0.3003
    2MPD1    C313996   1.369   1.311  17.667 -0.3331  0.0950  0.7792
    2MPD1    C413997   1.402   1.400   0.061  0.6517 -0.6314 -0.4934
    2MPD1    C513998   1.318   1.493   0.105  0.3045 -0.4655 -0.2794
    2MPD1     H13999   1.214   1.255  17.525  2.5602 -0.0362 -1.1227
    2MPD1    H114000   1.488   1.393   0.126  0.5765 -1.6377 -0.5063
    2MPD1    H214001   1.115   1.575   0.087  1.3443  0.8357  0.1686
    2MPD1    H314002   1.358   1.556   0.183 -2.6028  2.7220 -1.3594
    2MPD1     N14003   1.455   1.206  17.622  0.3992 -0.2224  0.6170
    2MPD1    H514004   1.419   1.145  17.549 -0.7532 -0.8987  1.7550
    2MPD1    N114005   1.029   1.422  17.595 -0.4366 -0.1339 -0.3244
    2MPD1    H614006   1.026   1.379  17.503 -1.8914  0.1038 -0.3997
    2MPD1    H714007   1.003   1.520  17.590 -1.6397 -0.5767 -2.8772
    3TMC3    C114008   1.643   1.064  17.612 -0.3896 -0.3546 -0.0203
    3TMC3    C214009   1.749   1.015  17.692 -0.9853 -0.0636  0.3463
    3TMC3    C314010   1.870   0.986  17.630  0.4481 -0.2021 -0.9604
    3TMC3    C414011   1.653   1.060  17.475  0.4110  0.7094 -0.5157
    3TMC3    C514012   1.773   1.033  17.426 -0.9738 -0.5047  0.4035
    3TMC3    C614013   1.886   0.990  17.496 -0.2345 -0.2383  0.3104
    3TMC3     C14014   1.575   1.170  17.682  0.7319  0.0073 -0.3575
    3TMC3     O14015   1.635   1.217   0.082  0.2812 -0.1774 -0.1711
    3TMC3     H14016   1.730   1.015   0.100  2.8397 -2.4151  1.0497
    3TMC3    H114017   1.579   1.101  17.407 -0.8312  0.6046  0.7693
    3TMC3    H214018   1.977   0.956  17.450 -0.7035 -0.5310 -0.3953
    3TMC3    C714019   1.791   1.069  17.287 -0.4652  0.2098  0.2064
    3TMC3    C814020   1.990   0.942   0.010  0.4799  0.2253 -0.4300
    3TMC3    O114021   1.692   1.102  17.224 -0.3104 -0.0235 -0.0950
    3TMC3    O214022   2.073   0.866  17.658  0.0190 -0.0061 -0.0641
    4MPD1     C14023   2.255   0.903   0.439  0.4724  0.4811  0.4495
    4MPD1    C114024   2.199   1.026   0.443 -0.1652 -0.0335 -0.1973
    4MPD1    C214025   2.140   1.070   0.322 -0.5046  0.0920  0.4561
    4MPD1    C314026   2.101   0.971   0.226  0.6933 -0.9246 -0.2367
    4MPD1    C414027   2.135   0.842   0.245  0.0675 -0.5754 -0.6320
    4MPD1    C514028   2.214   0.811   0.351 -0.0765  0.1428  0.4191
    4MPD1     H14029   2.114   1.174   0.307 -1.5992 -0.0823  1.1671
    4MPD1    H114030   2.100   0.772   0.170  1.0751 -1.2206 -0.4963
    4MPD1    H214031   2.319   0.859   0.515  0.3949 -0.4083  0.0100
    4MPD1    H314032   2.247   0.710   0.374 -1.0425 -0.1813  0.3940
    4MPD1     N14033   2.016   1.017   0.123  0.1955  0.0590  0.3332
    4MPD1    H514034   1.975   1.109   0.129 -1.1317 -0.5629  0.8640
    4MPD1    N114035   2.243   1.115   0.545  0.0946  0.3483 -0.1202
    4MPD1    H614036   2.256   1.074   0.637 -0.8443 -1.5712 -0.8326
    4MPD1    H714037   2.173   1.188   0.557 -0.9250 -0.2808 -2.1400
    1TCq1    O114038   2.898   0.299  11.567  0.1900  0.2000 -0.0562
    1TCq1    C114039   2.930   0.429  11.597 -0.2468 -0.2438  0.2677
    1TCq1    O214040   2.992   0.470  11.693 -0.6497 -0.4168  0.1421
    1TCq1    C214041   2.877   0.524  11.506  0.7536 -0.1295 -0.4896
    1TCq1    C314042   2.892   0.503  11.374  0.0233 -0.1674 -0.8483
    1TCq1    C414043   2.874   0.601  11.291  0.1095  0.6789  0.3199
    1TCq1    C514044   2.817   0.715  11.342  0.3761  0.4133 -0.0688
    1TCq1    C614045   2.799   0.737  11.474  0.4136 -0.1836 -0.2940
    1TCq1    C714046   2.841   0.641  11.564  0.8087 -0.1079 -0.6966
    1TCq1    C814047   2.694   0.810  11.539 -0.0560  0.3653 -0.2609
    1TCq1    O414048   2.668   0.797  11.659 -0.2078  0.5017  0.1337
    1TCq1    C914049   2.870   0.579  11.142 -0.0271  0.3728 -0.1375
    1TCq1    O514050   2.915   0.469  11.104  0.4067  0.2051 -0.3461
    1TCq1    O614051   2.867   0.687  11.083  0.0097  0.1475  0.2606
    1TCq1    H114052   2.829   0.286  11.498 -0.9923 -0.0359  1.1613
    1TCq1    H214053   2.937   0.413  11.334  0.2322  1.3150 -4.0001
    1TCq1    H314054   2.784   0.792  11.273 -0.4930  0.6950  0.6645
    1TCq1    H414055   2.828   0.649  11.671 -2.0649  0.3044 -1.0794
    2MPD1     C14056   2.308   1.125  11.453 -0.3934  0.5735 -0.0487
    2MPD1    C114057   2.401   1.148  11.356  0.4962  0.1796 -0.2041
    2MPD1    C214058   2.524   1.075  11.359  0.3220  0.2461  0.2017
    2MPD1    C314059   2.534   0.968  11.446  0.7861  0.1880 -0.0385
    2MPD1    C414060   2.431   0.941  11.531  0.2376  0.3127  0.1900
    2MPD1    C514061   2.318   1.020  11.538 -0.8221  0.2871 -0.0810
    2MPD1     H14062   2.598   1.092  11.282 -1.5570  3.4423 -0.9206
    2MPD1    H114063   2.430   0.857  11.600  2.8460 -0.9499 -1.3071
    2MPD1    H214064   2.220   1.183  11.476 -0.5010  0.3920 -0.0070
    2MPD1    H314065   2.255   1.007  11.626  0.4337  1.5293  1.0098
    2MPD1     N14066   2.646   0.895  11.445  0.1083  0.0001  0.1240
    2MPD1    H514067   2.712   0.905  11.368 -0.1877 -0.3204 -0.1784
    2MPD1    N114068   2.394   1.264  11.273 -0.8929  0.7909  0.3749
    2MPD1    H614069   2.298   1.292  11.253 -0.6753 -0.0764 -1.8451
    2MPD1    H714070   2.436   1.249  11.182 -1.0910 -0.3173  0.4657
    1TCq1    O114071   0.270   2.250   1.546 -0.2329 -0.1208  0.1831
    1TCq1    C114072   0.389   2.289   1.487  0.5698 -0.2289  0.2668
    1TCq1    O214073   0.437   2.400   1.498  0.3870  0.3733 -0.0796
    1TCq1    C214074   0.410   2.198   1.373  0.3164 -1.1495 -0.1708
    1TCq1    C314075   0.319   2.102   1.340  0.0278 -0.1389 -0.3744
    1TCq1    C414076   0.317   2.045   1.213  0.0376 -0.4348 -0.0016
    1TCq1    C514077   0.418   2.078   1.124 -0.4586 -0.2274 -0.4352
    1TCq1    C614078   0.499   2.185   1.152  0.5814  0.1393 -0.3675
    1TCq1    C714079   0.501   2.244   1.276 -0.1339 -0.2569 -0.5287
    1TCq1    C814080   0.586   2.239   1.045  1.1884 -0.7130  0.6045
    1TCq1    O414081   0.653   2.339   1.066  0.1675  0.2629  0.1999
    1TCq1    C914082   0.245   1.924   1.196 -0.0593 -0.4660 -0.0242
    1TCq1    O514083   0.174   1.881   1.287  0.1959  0.9042  0.4410
    1TCq1    O614084   0.276   1.851   1.096 -0.1714  0.0661  0.0004
    1TCq1    H114085   0.240   2.157   1.532 -0.5058  0.0149 -0.1231
    1TCq1    H214086   0.254   2.060   1.416 -0.8177  0.6274 -0.6724
    1TCq1    H314087   0.434   2.016   1.037 -1.3568 -0.2835 -0.5576
    1TCq1    H414088   0.568   2.322   1.311 -0.3479  0.2416 -1.2360
    2MPD1     C14089   0.795   2.223   0.580 -0.3133 -0.1575 -0.2553
    2MPD1    C114090   0.690   2.135   0.584 -0.1071  0.2553 -0.4045
    2MPD1    C214091   0.624   2.109   0.703  0.3721 -0.7355  0.0363
    2MPD1    C314092   0.653   2.193   0.815  0.0026 -0.1980 -0.1046
    2MPD1    C414093   0.752   2.294   0.811  0.1126 -0.2067 -0.6235
    2MPD1    C514094   0.812   2.305   0.690  0.1908  0.4148 -0.5881
    2MPD1     H14095   0.548   2.032   0.710 -1.5862  1.2850  1.0486
    2MPD1    H114096   0.781   2.369   0.884 -4.3280 -0.2208  1.1633
    2MPD1    H214097   0.849   2.251   0.490 -0.3571  0.7527  0.0011
    2MPD1    H314098   0.885   2.385   0.682  1.3462 -0.6422 -0.6667
    2MPD1     N14099   0.572   2.171   0.928  0.9111  0.1498 -0.2477
    2MPD1    H514100   0.493   2.108   0.918 -2.5604  4.3744  0.0367
    2MPD1    N114101   0.677   2.042   0.485  0.2862 -0.1300 -0.2605
    2MPD1    H614102   0.577   2.027   0.470  0.0865 -0.8539  1.9155
    2MPD1    H714103   0.719   2.073   0.397 -0.1707  0.9809 -0.0806
    1MPD1     C14104   4.248   1.235  11.681 -0.1520 -0.5217 -0.6849
    1MPD1    C114105   4.299   1.330  11.601  0.1857 -0.2992  0.5552
    1MPD1    C214106   4.416   1.392  11.621  1.0169  0.7204  0.6893
    1MPD1    C314107   4.483   1.374  11.739  0.0348 -0.6992  0.2095
    1MPD1    C414108   4.430   1.291  11.833 -0.3101 -0.0691  0.2344
    1MPD1    C514109   4.317   1.215  11.796  0.2985 -0.3602 -0.2719
    1MPD1     H14110   4.445   1.466  11.547  1.7051 -0.1651  0.0653
    1MPD1    H114111   4.483   1.268  11.924  1.1607 -0.0614 -0.6279
    1MPD1    H214112   4.160   1.175  11.664  0.9167 -2.9801  2.5351
    1MPD1    H314113   4.291   1.136  11.865 -3.0034 -1.6803 -2.9981
    1MPD1     N14114   4.607   1.438  11.758  0.1834 -0.4218 -0.5387
    1MPD1    H514115   4.623   1.499  11.678 -3.2527  1.8444  0.4893
    1MPD1    N114116   4.230   1.350  11.481 -0.2525 -0.7565  0.0472
    1MPD1    H614117   4.253   1.444  11.449 -0.6087 -1.0268 -1.0033
    1MPD1    H714118   4.129   1.362  11.490 -0.2925 -1.3871  0.4740
    2MPD1     C14119   4.153   1.885  11.269 -0.0254 -0.2239  0.1217
    2MPD1    C114120   4.196   1.836  11.146 -0.2013  0.5615 -0.3025
    2MPD1    C214121   4.188   1.700  11.123  0.0783 -0.2952  0.4777
    2MPD1    C314122   4.122   1.615  11.213  0.7429 -0.0607 -0.0080
    2MPD1    C414123   4.057   1.672  11.315 -0.0904  0.2963 -0.4087
    2MPD1    C514124   4.077   1.802  11.346  0.3101 -0.1622  0.2055
    2MPD1     H14125   4.223   1.664  11.027 -0.4225  1.2222 -0.2678
    2MPD1    H114126   3.995   1.621  11.388 -0.2911  1.4330  0.2130
    2MPD1    H214127   4.168   1.988  11.296  2.7331 -1.1618  2.1366
    2MPD1    H314128   4.025   1.832  11.436 -1.3768 -1.6443 -0.2650
    2MPD1     N14129   4.105   1.481  11.203  0.6114  0.7001  0.0627
    2MPD1    H514130   4.051   1.433  11.275  1.0377 -0.6612 -0.5204
    2MPD1    N114131   4.280   1.911  11.063  0.5598  0.6413 -0.6992
    2MPD1    H614132   4.261   1.894  10.964  1.6171  1.3189 -1.0187
    2MPD1    H714133   4.253   2.008  11.080  1.4996  0.4449  1.8998
    3MPD1     C14134   3.902   0.877  11.851  0.3314  0.4980 -0.2591
    3MPD1    C114135   4.037   0.859  11.817 -0.5797 -0.1691 -0.0822
    3MPD1    C214136   4.076   0.884  11.692  0.8240  0.6967 -0.3272
    3MPD1    C314137   3.990   0.937  11.600 -0.4944  0.0858  0.3419
    3MPD1    C414138   3.858   0.948  11.628 -0.4201 -0.5382 -0.3087
    3MPD1    C514139   3.819   0.916  11.753  0.2109  0.2962  0.5392
    3MPD1     H14140   4.181   0.872  11.667  1.8013  1.2217  3.6538
    3MPD1    H114141   3.785   0.986  11.557 -0.5318  0.4986  0.3430
    3MPD1    H214142   3.863   0.852  11.949 -5.1838 -0.2895 -2.7024
    3MPD1    H314143   3.714   0.913  11.779  0.0219 -1.6054 -0.5089
    3MPD1     N14144   4.043   0.973  11.472 -0.2674  0.0198 -0.0355
    3MPD1    H514145   4.142   0.956  11.460 -0.3706 -0.7429  0.1869
    3MPD1    N114146   4.126   0.798  11.913 -0.0259 -0.9890  0.8512
    3MPD1    H614147   4.098   0.834  12.004  0.3869 -0.8285  0.9145
    3MPD1    H714148   4.217   0.839  11.896 -1.9679  1.5619 -3.2609
    4MPD2     C14149   0.188   1.671  11.305  0.8183  0.4011 -0.2130
    4MPD2    C114150   0.259   1.592  11.390  0.5628  0.3389 -0.6451
    4MPD2    C214151   0.320   1.479  11.339  0.3277  0.3496 -0.0951
    4MPD2    C314152   0.326   1.454  11.208  0.8037  0.3133  0.2629
    4MPD2    C414153   0.258   1.536  11.123 -0.5086 -0.1206 -0.0172
    4MPD2    C514154   0.186   1.647  11.167  0.6820  0.0312  0.3472
    4MPD2     H14155   0.375   1.419  11.411  1.0784 -0.2336 -1.1522
    4MPD2    H114156   0.252   1.507  11.019  0.3781  1.2650 -0.4549
    4MPD2    H214157   0.138   1.761  11.340 -1.4978 -0.9701  0.0474
    4MPD2    H314158   0.125   1.707  11.101 -0.8321 -0.4576  1.3225
    4MPD2     N14159   0.382   1.337  11.148 -0.1717 -0.0346 -0.3508
    4MPD2    H514160   0.352   1.314  11.054 -1.6351  1.0456 -0.1503
    4MPD2    N114161   0.264   1.609  11.526 -0.0494 -0.1614 -0.8161
    4MPD2    H714162   0.332   1.544  11.564  0.2037  2.0328  2.4269
    5TMC3    C114163   0.207   1.657  11.737  0.1376  0.1036 -0.7583
    5TMC3    C214164   0.093   1.606  11.783  0.4747  0.1499 -0.1667
    5TMC3    C314165   0.096   1.497  11.864  0.5877 -0.1220 -0.7213
    5TMC3    C414166   0.324   1.584  11.762 -0.4081 -0.0887  0.3455
    5TMC3    C514167   0.322   1.473  11.840  0.4518 -0.4521  0.2038
    5TMC3    C614168   0.208   1.437  11.907 -0.1625 -0.6623 -0.2584
    5TMC3     C14169   0.202   1.704  11.604  0.4347 -0.4356 -0.0255
    5TMC3     O14170   0.123   1.791  11.579 -0.3939  0.1924 -0.9320
    5TMC3     H14171   0.002   1.656  11.752  1.7290  1.6827 -1.4567
    5TMC3    H114172   0.420   1.610  11.720  0.0788 -0.9348  0.9396
    5TMC3    H214173   0.193   1.354  11.974  2.4710 -0.5716  0.4166
    5TMC3    C714174   0.380   1.357  11.768 -0.5628  0.2258 -0.6927
    5TMC3    C814175   4.703   1.408  11.858  0.1101  0.0251  0.0821
    5TMC3    O114176   0.442   1.390  11.667 -0.0885  0.4577 -0.6625
    5TMC3    O214177   4.717   1.304  11.927 -0.0143 -0.1261 -0.5426
    6TMC3    C114178   4.128   1.263  11.122  0.1485 -0.4494 -0.9833
    6TMC3    C214179   4.049   1.221  11.226 -0.2522  0.2236  0.0082
    6TMC3    C314180   4.068   1.092  11.272  0.3182  0.5426  0.0320
    6TMC3    C414181   4.226   1.184  11.080  0.2992 -0.9634  0.7170
    6TMC3    C514182   4.245   1.059  11.127 -0.5294 -0.2657  0.0112
    6TMC3    C614183   4.159   1.008  11.226  0.0629 -0.1092 -0.5964
    6TMC3     C14184   4.152   1.399  11.103  0.1761 -0.5402 -0.5427
    6TMC3     O14185   4.209   1.437  11.001  0.1839  0.1288 -1.0772
    6TMC3     H14186   3.978   1.293  11.267 -3.0361 -2.0738 -0.7814
    6TMC3    H114187   4.292   1.225  11.003 -1.0821 -0.0022  0.0436
    6TMC3    H214188   4.175   0.915  11.279 -1.4376  0.1145  0.2236
    6TMC3    C714189   4.374   0.999  11.108  0.4602 -0.3644  0.4636
    6TMC3    C814190   3.985   1.063  11.388 -0.7640 -0.5043 -0.6638
    6TMC3    O114191   4.432   1.048  11.017 -0.0364 -0.0654 -0.1060
    6TMC3    O214192   3.884   1.133  11.408  0.6516  0.4628  0.3704
    7MPD2     C14193   0.361   0.867  11.609  0.7471 -0.0235  0.4346
    7MPD2    C114194   0.443   0.965  11.566  0.0388  0.1636 -0.5931
    7MPD2    C214195   0.436   1.086  11.635  0.2455  0.1904 -0.7759
    7MPD2    C314196   0.342   1.113  11.733  0.1889  0.2109  0.1247
    7MPD2    C414197   0.260   1.010  11.766 -0.2850  0.4126 -0.0339
    7MPD2    C514198   0.271   0.883  11.710 -0.4092  0.6202  0.0578
    7MPD2     H14199   0.494   1.172  11.604 -0.0422  0.3335 -0.9120
    7MPD2    H114200   0.189   1.028  11.845 -0.4680  1.6374 -0.4816
    7MPD2    H214201   0.348   0.769  11.564  1.0649  0.4196 -0.6142
    7MPD2    H314202   0.199   0.805  11.732  0.7276 -0.5534 -0.4712
    7MPD2     N14203   0.323   1.233  11.801  0.2780 -0.1248 -0.5413
    7MPD2    H514204   0.252   1.242  11.873 -0.9344  1.6083 -1.9273
    7MPD2    N114205   0.515   0.960  11.439  0.5224 -0.1571  0.0454
    7MPD2    H714206   0.541   1.053  11.409  1.7771  0.1401  2.0697
    8TMC3    C114207   0.504   0.898  11.223  0.1243 -0.4667  0.0284
    8TMC3    C214208   0.391   0.848  11.170  0.3317  0.2783  0.2305
    8TMC3    C314209   0.318   0.938  11.094  0.5876 -0.4763  0.0226
    8TMC3    C414210   0.552   1.028  11.198  0.7960 -0.1484 -0.1410
    8TMC3    C514211   0.465   1.115  11.145  0.3672  0.2368  0.5503
    8TMC3    C614212   0.357   1.067  11.082 -0.1098 -0.6933  0.0960
    8TMC3     C14213   0.523   0.852  11.356 -0.5910 -0.3185  0.0101
    8TMC3     O14214   0.507   0.731  11.371 -0.2471  0.2198 -0.1383
    8TMC3     H14215   0.368   0.743  11.187 -1.0962  0.1923 -2.2914
    8TMC3    H114216   0.643   1.071  11.237  0.3906 -1.2795  2.0330
    8TMC3    H214217   0.298   1.137  11.025  1.1551  1.0228  0.9130
    8TMC3    C714218   0.455   1.239  11.214  0.3443 -0.6074 -0.2520
    8TMC3    C814219   0.172   0.912  11.083 -0.2401  1.0811 -0.0001
    8TMC3    O114220   0.501   1.239  11.327 -0.1193 -0.4123 -0.5954
    8TMC3    O214221   0.107   1.007  11.031 -0.1280 -0.3324 -0.0559
    9MPD2     C14222   4.706   0.626  11.183 -0.0205 -0.4808  0.0818
    9MPD2    C114223   0.001   0.749  11.134  0.0444 -0.1781  0.7412
    9MPD2    C214224   4.616   0.833  11.113 -0.0741  0.3997  0.6088
    9MPD2    C314225   4.502   0.799  11.179  0.1193  0.2841 -0.1503
    9MPD2    C414226   4.487   0.677  11.239  0.4331  0.3036  0.4381
    9MPD2    C514227   4.589   0.588  11.234  0.2658 -0.1461 -0.0770
    9MPD2     H14228   4.617   0.930  11.065 -0.7883 -0.2368 -0.6877
    9MPD2    H114229   4.393   0.648  11.285  1.2411 -0.5906  1.5215
    9MPD2    H214230   0.066   0.558  11.186  0.4907  0.1208 -0.5863
    9MPD2    H314231   4.578   0.490  11.279  2.6639 -0.0188  0.7810
    9MPD2     N14232   4.391   0.888  11.177 -0.5854 -1.7849 -0.1926
    9MPD2    H514233   4.318   0.859  11.242 -0.4453 -0.8391  0.3881
    9MPD2    N114234   0.135   0.786  11.107  0.3273 -0.3565  0.0536
    9MPD2    H714235   0.209   0.717  11.118 -0.5119 -1.2095  0.3294
    1MPD1     C14236   4.400   0.269  16.685 -0.3965  0.3770  0.3751
    1MPD1    C114237   4.436   0.154  16.755  0.3122 -0.4736  1.1328
    1MPD1    C214238   4.348   0.050  16.771 -0.0718 -0.3490 -0.0466
    1MPD1    C314239   4.215   0.068  16.719  0.2284 -0.2740  0.3663
    1MPD1    C414240   4.188   0.187  16.653 -0.2002  0.1027  0.2405
    1MPD1    C514241   4.274   0.292  16.648 -0.0799  0.2046  0.0324
    1MPD1     H14242   4.375   4.683  16.823 -1.2975 -0.7467 -0.1073
    1MPD1    H114243   4.087   0.214  16.622  0.9948  2.2526 -1.7741
    1MPD1    H214244   4.476   0.344  16.667  0.1418 -0.4917 -0.9780
    1MPD1    H314245   4.234   0.382  16.603  0.2872  0.8366  0.9832
    1MPD1     N14246   4.112   4.698  16.738  0.3103 -0.0260 -0.1765
    1MPD1    H514247   4.022   4.720  16.696  0.1278 -0.1210  0.1647
    1MPD1    N114248   4.570   0.148  16.800  0.9804  0.1762  0.0445
    1MPD1    H614249   4.611   0.231  16.843  1.5252  0.3057 -0.7254
    1MPD1    H714250   4.584   0.075  16.870 -2.2430 -0.3814  0.1012
    2MPD1     C14251   3.666   4.410  16.080 -0.0827  0.7688  0.2215
    2MPD1    C114252   3.726   4.520  16.126  0.4380  0.1640  0.4210
    2MPD1    C214253   3.767   4.518  16.256  0.0382 -0.6379 -0.5026
    2MPD1    C314254   3.757   4.417  16.346 -0.0766 -0.6036  0.3706
    2MPD1    C414255   3.707   4.300  16.290 -0.4740  0.1957 -0.5933
    2MPD1    C514256   3.669   4.300  16.154  0.4152 -0.5679 -0.8172
    2MPD1     H14257   3.802   4.611  16.299 -0.5462 -0.2389 -0.8998
    2MPD1    H114258   3.679   4.209  16.342  0.5905  1.0333  1.4095
    2MPD1    H214259   3.621   4.400  15.982  3.6114 -0.8514 -1.2933
    2MPD1    H314260   3.602   4.220  16.123  1.1867 -0.3394 -3.0803
    2MPD1     N14261   3.798   4.433  16.484  0.2692  0.6642  0.0556
    2MPD1    H514262   3.830   4.519  16.527  3.3854  0.1753 -1.3192
    2MPD1    N114263   3.723   4.640  16.054 -0.5122  0.1692 -0.0516
    2MPD1    H614264   3.801   4.699  16.083 -0.6914 -0.1540  1.0757
    2MPD1    H714265   3.739   4.630  15.954  0.2167  1.0591 -0.0324
    3TCq2    C114266   3.800   4.332  16.571 -0.3831 -0.2170 -0.1585
    3TCq2    O214267   3.756   4.216  16.557 -0.1367 -0.6757  0.5033
    3TCq2    C214268   3.874   4.366  16.698 -0.0627 -0.4069  0.5515
    3TCq2    C314269   3.848   4.288  16.802 -0.3744  0.1009 -0.8287
    3TCq2    C414270   3.893   4.323  16.926  0.3683  0.1833 -0.2566
    3TCq2    C514271   3.973   4.434  16.940  0.0220 -0.1032  0.0379
    3TCq2    C614272   4.010   4.507  16.830  0.1135 -0.4102 -0.3166
    3TCq2    C714273   3.954   4.476  16.708  0.2846  0.5603  0.2648
    3TCq2    C814274   4.116   4.606  16.839 -0.5915 -0.3305  0.2104
    3TCq2    O414275   4.191   4.600  16.933  0.3773  0.2423  0.1629
    3TCq2    C914276   3.848   4.257  17.041 -0.2372 -0.1195  0.3274
    3TCq2    O514277   3.840   4.316  17.152 -0.6343  0.6841 -0.5417
    3TCq2    O614278   3.812   4.136  17.022  0.0841  0.3984  0.1562
    3TCq2    H214279   3.781   4.203  16.795 -1.8857  1.1565  0.7503
    3TCq2    H314280   4.016   4.446  17.039 -1.4884 -0.1066  0.6923
    3TCq2    H414281   3.993   4.506  16.611  0.0805  0.2647  0.0918
    1TCq1    O114282   2.140   2.940  12.647  0.0205  0.1272  0.1959
    1TCq1    C114283   2.054   3.041  12.624 -0.0630 -0.4848  0.0348
    1TCq1    O214284   1.942   3.030  12.580 -0.4035 -0.4847  0.2713
    1TCq1    C214285   2.104   3.161  12.681  0.5986 -0.3751  0.1292
    1TCq1    C314286   2.019   3.205  12.775 -0.2587 -0.5498 -0.1114
    1TCq1    C414287   2.037   3.333  12.830  0.0442  0.4848  0.0093
    1TCq1    C514288   2.152   3.403  12.794  0.4874 -0.7690 -0.7629
    1TCq1    C614289   2.241   3.342  12.709 -0.0649  0.2020  0.6454
    1TCq1    C714290   2.219   3.224  12.648 -0.8458  0.1596 -0.3589
    1TCq1    C814291   2.375   3.395  12.699  0.2311  0.2696  0.0069
    1TCq1    O414292   2.444   3.378  12.600  0.1809 -0.0765  0.1559
    1TCq1    C914293   1.928   3.383  12.906  0.1122  0.3519 -0.3314
    1TCq1    O514294   1.942   3.495  12.966  0.1253  0.1765  0.4290
    1TCq1    O614295   1.825   3.313  12.915 -0.0536 -0.6153 -0.2582
    1TCq1    H114296   2.225   2.970  12.685  1.1248 -1.7787 -0.7802
    1TCq1    H214297   1.933   3.142  12.797 -0.6160  0.0220  0.1349
    1TCq1    H314298   2.153   3.503  12.836  0.6477 -0.8507 -0.5735
    1TCq1    H414299   2.300   3.172  12.598 -0.0354  0.5665  0.5407
    2MPD2     C14300   2.588   3.608  12.707 -0.2789  0.8248 -0.8983
    2MPD2    C114301   2.514   3.563  12.816  0.1679 -0.3758 -0.2973
    2MPD2    C214302   2.546   3.634  12.936 -0.4873 -0.1370 -0.6706
    2MPD2    C314303   2.641   3.733  12.945  0.9468 -0.2317 -0.0563
    2MPD2    C414304   2.713   3.760  12.840  0.1020  0.0522 -0.1515
    2MPD2    C514305   2.691   3.699  12.720 -0.1423 -0.5589 -0.2374
    2MPD2     H14306   2.494   3.606  13.026  0.7456  1.0068  0.3997
    2MPD2    H114307   2.794   3.832  12.849  0.5140 -0.6745  1.8555
    2MPD2    H214308   2.587   3.561  12.609  0.1503  0.2232 -0.6130
    2MPD2    H314309   2.754   3.717  12.634  0.3344  0.5610  0.3509
    2MPD2     N14310   2.654   3.791  13.069  0.8130 -0.4185 -0.1898
    2MPD2    H514311   2.600   3.749  13.144  0.1741 -1.1344 -1.0454
    2MPD2    N114312   2.404   3.472  12.808 -0.3072 -0.1038 -0.0895
    2MPD2    H714313   2.346   3.474  12.891  1.0168  0.4838  0.8238
    3TCq1    O114314   2.569   4.122  13.616 -0.2421 -0.5907  0.8969
    3TCq1    C114315   2.620   4.144  13.490  0.0233 -0.1214  0.4270
    3TCq1    O214316   2.601   4.244  13.419 -0.2077 -0.0083  0.4630
    3TCq1    C214317   2.700   4.032  13.437 -0.2804  0.8508  0.0829
    3TCq1    C314318   2.746   3.924  13.516  0.7190 -0.2903 -0.3313
    3TCq1    C414319   2.792   3.821  13.448 -0.1908  0.4895 -0.3374
    3TCq1    C514320   2.797   3.810  13.311 -0.0638  0.1133 -0.8510
    3TCq1    C614321   2.740   3.911  13.238  0.3094  0.1654 -0.3807
    3TCq1    C714322   2.707   4.027  13.299 -0.8231  0.0065  0.1362
    3TCq1    C814323   2.732   3.897  13.097  0.8440  0.1621 -0.2166
    3TCq1    O414324   2.776   3.985  13.029  0.1303 -0.2136  0.1513
    3TCq1    C914325   2.856   3.715  13.522 -0.5137 -0.3032 -0.3824
    3TCq1    O514326   2.930   3.626  13.467 -0.1091 -0.4048 -0.6213
    3TCq1    O614327   2.858   3.737  13.647  0.0404 -0.8348  0.2553
    3TCq1    H114328   2.576   4.034  13.657  1.0348 -0.4994  0.8933
    3TCq1    H214329   2.736   3.917  13.624 -0.8827  0.6832 -0.4172
    3TCq1    H314330   2.835   3.721  13.262  2.1211 -0.2235  1.4587
    3TCq1    H414331   2.669   4.112  13.242  3.6504  2.0124  0.1660
    1MPD2     C14332   1.168   4.525  14.896 -0.1591  0.0221 -1.0136
    1MPD2    C114333   1.079   4.489  14.800 -0.0840  0.0635  0.2300
    1MPD2    C214334   1.043   4.358  14.785  0.6867  0.6024  0.2785
    1MPD2    C314335   1.095   4.256  14.866  0.0958  0.2967  0.2115
    1MPD2    C414336   1.190   4.292  14.965  0.6562 -0.0763 -0.3682
    1MPD2    C514337   1.231   4.423  14.971 -0.1907 -0.1157 -0.2614
    1MPD2     H14338   0.972   4.321  14.712  1.4122  1.6833 -0.9558
    1MPD2    H114339   1.240   4.219  15.028  2.1729  1.1598 -0.1630
    1MPD2    H214340   1.204   4.626  14.913 -2.8216  0.7361  0.3501
    1MPD2    H314341   1.305   4.452  15.044  2.3655 -1.5591 -2.2584
    1MPD2     N14342   1.043   4.126  14.862 -0.2634 -0.0457 -0.0594
    1MPD2    H514343   0.954   4.109  14.817 -0.5552 -1.2082  0.9448
    1MPD2    N114344   1.014   4.598  14.729  0.0832  0.4390 -0.1477
    1MPD2    H714345   1.037   4.696  14.741  1.0368  0.2412 -0.3454
    2TMC3    C114346   0.859   4.707  14.592  0.0988  0.4008 -0.1827
    2TMC3    C214347   0.745   4.672  14.527 -1.0364 -0.4766 -0.5197
    2TMC3    C314348   0.735   4.673  14.393  0.5478  0.4192  0.2460
    2TMC3    C414349   0.962   0.033  14.516 -0.9124 -1.1399  0.2675
    2TMC3    C514350   0.946   0.052  14.389  0.2860  0.6247  0.4260
    2TMC3    C614351   0.837   0.006  14.319 -0.2470 -0.0001 -0.2919
    2TMC3     C14352   0.890   4.590  14.683 -0.0533  0.7840 -0.0502
    2TMC3     O14353   0.805   4.498  14.686 -0.0055 -0.9096  0.3033
    2TMC3     H14354   0.660   4.636  14.583 -0.6165  0.8094  0.9297
    2TMC3    H114355   1.046   0.082  14.565 -1.1440 -1.0298  0.5548
    2TMC3    H214356   0.840   0.000  14.211  3.9916 -1.5168 -0.0807
    2TMC3    C714357   1.035   0.145  14.318  0.1414 -0.3357 -0.0333
    2TMC3    C814358   0.684   4.554  14.338  0.1596  0.6820  0.1240
    2TMC3    O114359   1.035   0.124  14.198  0.2983 -0.2977  0.5086
    2TMC3    O214360   0.649   4.549  14.222 -0.0625  0.4470  0.2791
    3TCq1    O114361   1.685   1.104  14.631 -0.2261  0.3883 -0.2479
    3TCq1    C114362   1.793   1.012  14.644  0.3411  0.5242 -0.0968
    3TCq1    O214363   1.889   1.030  14.718  0.2282 -0.4162  0.2233
    3TCq1    C214364   1.726   0.883  14.636 -0.5151 -0.0951 -0.8218
    3TCq1    C314365   1.752   0.796  14.742  0.0781  0.3861 -0.5287
    3TCq1    C414366   1.687   0.676  14.727  0.2957 -0.3092 -1.1808
    3TCq1    C514367   1.590   0.648  14.636 -0.0956 -0.6890 -0.0387
    3TCq1    C614368   1.568   0.742  14.542  0.7103  0.1301  0.0714
    3TCq1    C714369   1.636   0.862  14.533  0.9488 -0.3049  0.0772
    3TCq1    C814370   1.480   0.713  14.434 -0.3447 -0.4939  0.0485
    3TCq1    O414371   1.489   0.781  14.331  0.4788  0.0623 -0.4504
    3TCq1    C914372   1.729   0.571  14.815  0.4156  0.1731 -0.8349
    3TCq1    O514373   1.675   0.456  14.794 -0.2749  0.8365  0.2129
    3TCq1    O614374   1.832   0.590  14.883  0.2110  0.2566 -0.1144
    3TCq1    H114375   1.605   1.063  14.591  0.1575 -1.1316  0.5385
    3TCq1    H214376   1.838   0.805  14.808  3.4411 -0.5566 -4.7855
    3TCq1    H314377   1.543   0.550  14.641  1.2163 -1.4469 -2.2436
    3TCq1    H414378   1.625   0.934  14.453  1.9328 -1.1052 -0.7767
    4MPD2     C14379   1.286   0.586  14.243 -0.6746 -0.4343  0.1917
    4MPD2    C114380   1.310   0.542  14.370 -0.2855 -0.1350  0.0588
    4MPD2    C214381   1.239   0.434  14.412 -1.0779 -0.8247  0.3453
    4MPD2    C314382   1.171   0.353  14.330  0.2163 -0.6909  0.4079
    4MPD2    C414383   1.152   0.391  14.199  0.4733  0.1007 -0.5538
    4MPD2    C514384   1.206   0.509  14.158 -0.1186  0.3857 -0.4145
    4MPD2     H14385   1.258   0.395  14.512  0.3383  2.7064  1.4420
    4MPD2    H114386   1.095   0.330  14.129 -0.1717  0.8741 -0.6968
    4MPD2    H214387   1.319   0.679  14.196 -0.5939 -0.5766 -0.0322
    4MPD2    H314388   1.183   0.531  14.054  0.1280  0.0486 -0.5407
    4MPD2     N14389   1.102   0.239  14.389 -0.0240  0.1261 -0.3293
    4MPD2    H514390   1.085   0.241  14.489  2.5927 -3.2394  0.1896
    4MPD2    N114391   1.400   0.606  14.458 -0.1413  0.0908  0.0742
    4MPD2    H714392   1.411   0.575  14.554  1.8483 -2.1399 -0.8728
    5TMC2    C114393   0.869   3.885  14.711  0.2631  0.0607 -0.2548
    5TMC2    C214394   0.953   3.811  14.633  0.5805  0.3453 -0.4855
    5TMC2    C314395   1.068   3.762  14.691  0.5436  0.8675  0.6689
    5TMC2    C414396   0.910   3.922  14.839  0.3179  0.7962 -0.2111
    5TMC2    C514397   1.035   3.891  14.877 -0.2365 -0.0014 -0.5705
    5TMC2    C614398   1.114   3.800  14.816 -0.3876  0.2290  0.8969
    5TMC2     C14399   0.808   3.999  14.645  0.1780 -0.2123 -0.0597
    5TMC2     O14400   0.809   4.099  14.718  0.3185  0.4383 -0.0842
    5TMC2     H14401   0.936   3.777  14.532  2.6790  0.3073 -0.8335
    5TMC2    H114402   0.841   3.982  14.898  0.6779 -1.4567  2.4614
    5TMC2    H214403   1.209   3.767  14.858 -0.3579  1.0335  1.4642
    5TMC2    C714404   1.106   4.007  14.914  0.4505 -0.0548  0.2621
    5TMC2    C814405   1.160   3.679  14.615 -0.0410 -0.4652 -0.3529
    5TMC2    O114406   1.222   3.996  14.944  0.1935 -0.0100 -0.5860
    5TMC2    O214407   1.280   3.692  14.615  0.2854  0.2685  0.2118
    5TMC2    O514408   1.098   3.613  14.512 -0.4063 -0.5112 -0.6954
    5TMC2    H514409   1.002   3.596  14.524 -0.1569 -0.4091  1.3956
    6MPD2     C14410   0.580   4.290  14.279  0.6012  0.0835  0.5291
    6MPD2    C114411   0.651   4.319  14.392  0.7327  0.4588 -0.1339
    6MPD2    C214412   0.718   4.219  14.466  0.0095 -0.0139 -0.0273
    6MPD2    C314413   0.705   4.087  14.435 -0.4061  0.0094  0.0509
    6MPD2    C414414   0.638   4.053  14.323  0.0203 -0.6916  0.5774
    6MPD2    C514415   0.583   4.157  14.250  0.5003 -0.0767 -0.5400
    6MPD2     H14416   0.778   4.244  14.553  0.5922 -0.8222 -0.1971
    6MPD2    H114417   0.611   3.952  14.295  0.2053 -0.5591 -0.0832
    6MPD2    H214418   0.524   4.362  14.220 -0.7836 -0.3557  1.3179
    6MPD2    H314419   0.534   4.131  14.157 -1.5454 -1.2321  0.8566
    6MPD2     N14420   0.760   3.984  14.519 -0.2714  0.6517 -1.0353
    6MPD2    H514421   0.749   3.895  14.472  0.7159 -0.2998  0.5374
    6MPD2    N114422   0.690   4.451  14.425 -0.0594  0.2518  0.6468
    6MPD2    H714423   0.732   4.459  14.517  0.2217  2.7673  0.2942
  945NH3     N114424   2.174   2.605  11.540  0.1406 -0.1663 -0.3637
  945NH3     H214425   2.083   2.598  11.584  0.2472 -0.2209 -0.1476
  945NH3     H314426   2.174   2.521  11.483  1.9476 -0.2409 -0.2681
  945NH3     H414427   2.163   2.679  11.472  0.3805  1.2649  1.1413
  946SOD     NA14428   0.266   2.887  15.256 -0.5400  0.1593  0.2320
  947SOD     NA14429   2.866   0.504  15.043  0.1615 -0.2257  0.1406
  948SOD     NA14430   1.359   0.349  15.648  0.1154 -0.0465  0.6222
  949SOD     NA14431   3.950   3.333  10.736  0.0754  0.3829  0.3938
  950SOD     NA14432   4.409   0.731  13.448  0.2572  0.4578 -0.0790
  951SOD     NA14433   1.851   2.936  10.525 -0.2060 -0.4738  0.2677
  952SOD     NA14434   1.165   2.763  12.938  0.2744  0.4477  0.6192
  953SOD     NA14435   3.127   3.293  10.977  0.6318 -0.2541 -0.4256
  954SOD     NA14436   2.740   3.904  12.004  0.2149  0.4358  0.2813
  955SOD     NA14437   3.818   3.569   0.959 -0.3771  0.4032 -0.2818
  956SOD     NA14438   3.531   3.838   6.846 -0.6623 -0.1659  0.1406
  957SOD     NA14439   4.176   1.993   0.453 -0.8088 -0.3337 -0.4124
  958SOD     NA14440   0.661   4.097   8.352  0.5119 -0.4831 -0.7127
  959SOD     NA14441   3.529   3.375  14.601  0.1631  0.1548 -0.6392
  960SOD     NA14442   2.804   0.311  11.008 -0.1591 -0.2408  0.0711
  961SOD     NA14443   2.070   1.278  12.365 -0.2960 -0.1919  0.0820
  962SOD     NA14444   1.787   4.302  10.930  0.3055 -0.3145  0.1871
  963SOD     NA14445   3.212   3.696  11.476  0.2797  0.1488 -0.3501
  964SOD     NA14446   0.214   4.708   2.487 -0.1866 -0.0535 -0.1566
  965SOD     NA14447   1.433   3.547   7.490 -0.9341 -0.0823  0.2997
  966SOD     NA14448   4.708   0.083  15.668 -0.1565  0.1049 -0.0171
  967SOD     NA14449   3.561   0.274  11.024  0.0222  0.1806 -0.5440
  968SOD     NA14450   2.338   3.398  14.934  0.3020 -0.0695  0.1371
  969SOD     NA14451   3.018   3.509  11.705 -0.0158  0.0461  0.2178
  970SOD     NA14452   2.809   2.531  11.808 -0.1463  0.1448  0.0458
  971SOD     NA14453   4.575   4.378  15.136 -0.3404  0.6309 -0.3376
  972SOD     NA14454   2.661   0.965  10.440 -0.0887  0.6079  0.4488
  973SOD     NA14455   2.468   0.781  17.560 -0.0271 -0.1125  0.4768
  974SOD     NA14456   3.059   2.115  13.094  0.0399  0.1190  0.2374
  975SOD     NA14457   2.820   4.360   1.834 -0.2804  0.5876  0.7393
  976SOD     NA14458   3.678   3.524  12.400  0.2885  0.1800  0.2045
  977SOD     NA14459   3.200   3.522   0.160  0.1032 -0.4222  0.2417
  978SOD     NA14460   2.770   3.338  17.220  0.1048 -0.4194 -0.3069
  979SOD     NA14461   1.617   3.245  12.844 -0.5312 -0.0732 -0.3799
  980SOD     NA14462   3.384   3.121  15.129 -0.3508 -0.1259 -0.1534
  981SOD     NA14463   0.481   2.878   9.392 -0.7703 -0.2211 -0.2678
  982SOD     NA14464   1.068   1.815   9.435  0.4264  0.1233 -0.2319
  983SOD     NA14465   1.026   0.836   8.507 -0.0564  0.0037  0.5984
  984SOD     NA14466   3.104   3.083  10.725  0.0824 -0.2699  0.1028
  985SOD     NA14467   1.359   3.497   2.823 -0.3727 -0.3692 -0.3138
  986SOD     NA14468   2.865   3.227   2.386 -0.4882  0.3431  0.0664
  987SOD     NA14469   1.497   2.608   9.445  0.0035  0.3916 -0.5174
  988SOD     NA14470   4.012   3.896  13.558 -0.1429 -0.8537 -0.3219
  989SOD     NA14471   3.340   0.622   5.632 -0.3315 -0.4135  0.4014
  990SOD     NA14472   0.638   3.311  11.366  0.1197 -0.1657  0.2072
  991SOD     NA14473   3.784   4.193  15.580  0.2543  0.1126  0.6691
  992SOD     NA14474   1.764   0.299  14.926  0.2285  0.1320 -0.2850
  993SOD     NA14475   0.177   4.157   0.147  0.1194  0.0640  0.0708
  994SOD     NA14476   3.543   0.402  13.622 -0.0952 -0.3557 -0.2141
  995SOD     NA14477   0.349   4.571  13.225  0.5214  0.3824 -0.5144
  996SOD     NA14478   1.875   0.593   3.470 -0.0194  0.3861 -0.5174
  997SOD     NA14479   1.936   0.102   3.421  0.2940  0.3669  0.3551
  998SOD     NA14480   2.758   2.155  10.961 -0.0579  0.3536  0.1800
  999SOD     NA14481   3.214   4.179   1.702 -0.0156 -0.0371 -0.1211
 1000SOD     NA14482   1.589   4.496   1.992 -0.0177 -0.8408  0.0996
 1001SOD     NA14483   1.377   1.057   6.692  0.2582  0.0343 -0.5237
 1002SOD     NA14484   2.711   3.756  13.799 -0.3046  0.2090 -0.0016
 1003SOD     NA14485   3.044   2.177  11.366  0.4034  0.1257 -0.2986
 1004SOD     NA14486   3.254   1.798  13.865 -0.0518 -0.7499  0.2022
 1005SOD     NA14487   3.686   4.454  17.226 -0.2278  0.1490 -0.0901
 1006SOD     NA14488   1.598   4.392  10.664  0.2205  0.1570  0.1735
 1007SOD     NA14489   0.115   1.800   1.475  0.0011  0.1932 -0.2785
 1008SOD     NA14490   1.456   4.003  14.953 -0.5890  0.2809  0.2613
 1009SOD     NA14491   2.808   1.972  17.198 -0.2360  0.5771 -0.0970
 1010SOD     NA14492   1.862   0.768  11.679  0.3028  0.5053 -0.1496
 1011SOD     NA14493   1.787   1.940   1.645  0.3922  0.1236 -0.2156
 1012SOL     OW14494   1.374   1.598   1.847  0.2917 -0.2285  0.5737
 1012SOL    HW114495   1.310   1.582   1.778 -0.3738 -3.0679  1.8448
 1012SOL    HW214496   1.441   1.654   1.808  1.6377 -0.3834  2.6443
 1013SOL     OW14497   1.528   0.337   9.210  0.2513 -0.1682  0.4394
 1013SOL    HW114498   1.476   0.257   9.213 -0.2430  0.1611  0.7377
 1013SOL    HW214499   1.477   0.405   9.253  0.9326  0.8114 -0.3134
 1014SOL     OW14500   0.178   0.812   9.220 -0.5339  0.4430  0.6639
 1014SOL    HW114501   0.143   0.899   9.240 -0.0793  1.0817 -1.2611
 1014SOL    HW214502   0.117   0.756   9.269  0.0527 -2.3362 -1.7938
 1015SOL     OW14503   3.828   0.911  12.414  0.0929 -0.3638 -0.2724
 1015SOL    HW114504   3.871   0.997  12.407 -0.7575  0.0306 -0.6647
 1015SOL    HW214505   3.898   0.851  12.440 -1.1656 -1.9563 -0.5832
 1016SOL     OW14506   0.980   4.583  12.357  0.5409 -0.1532  0.2871
 1016SOL    HW114507   0.978   4.519  12.286  1.0360 -0.6571  0.7255
 1016SOL    HW214508   1.039   4.540  12.419 -0.7459 -1.5507  0.5224
 1017SOL     OW14509   2.606   2.088  10.814 -0.0329  0.4574 -0.2868
 1017SOL    HW114510   2.519   2.125  10.831 -0.3569 -0.4530  0.0436
 1017SOL    HW214511   2.616   2.080  10.719 -0.1075 -3.5304  0.0147
 1018SOL     OW14512   1.198   4.334  13.208  0.1451 -0.7527  0.3249
 1018SOL    HW114513   1.195   4.253  13.259 -2.9610 -2.2365 -2.1701
 1018SOL    HW214514   1.269   4.377  13.255  2.0797 -1.7690 -1.6587
 1019SOL     OW14515   0.836   0.110   2.166  0.6959  0.2706  0.1494
 1019SOL    HW114516   0.930   0.109   2.186  0.4239  1.1235  1.5002
 1019SOL    HW214517   0.847   0.127   2.073 -0.6902  0.4456  0.0217
 1020SOL     OW14518   2.180   1.255   6.630  0.3895 -0.1554  0.2309
 1020SOL    HW114519   2.096   1.239   6.587  0.8705 -1.8520 -0.0727
 1020SOL    HW214520   2.172   1.342   6.670 -0.2927 -0.5234  0.9051
 1021SOL     OW14521   2.172   0.707   6.307  0.1641 -0.4384  0.1262
 1021SOL    HW114522   2.167   0.792   6.352  2.5772  1.3269 -3.0007
 1021SOL    HW214523   2.152   0.652   6.383  0.7447  0.8969  1.2575
 1022SOL     OW14524   2.207   3.560   5.608 -0.6167  0.2934  0.1044
 1022SOL    HW114525   2.262   3.625   5.650  0.9434 -1.9385  1.4623
 1022SOL    HW214526   2.186   3.613   5.531  1.2747 -2.0418 -2.0145
 1023SOL     OW14527   0.941   2.710   7.877  0.5738 -0.2902  0.2086
 1023SOL    HW114528   0.984   2.795   7.886 -0.7715  0.3545  0.5481
 1023SOL    HW214529   1.015   2.650   7.892  1.3787  1.1624  1.9700
 1024SOL     OW14530   4.196   3.462  13.610  0.5350 -0.0428 -0.9233
 1024SOL    HW114531   4.288   3.462  13.583  0.9987  0.0241  0.6418
 1024SOL    HW214532   4.201   3.430  13.700  0.5954  0.9673 -0.5650
 1025SOL     OW14533   2.883   3.236   7.187 -0.2369 -0.0071 -0.4227
 1025SOL    HW114534   2.864   3.277   7.271  3.2036  0.7921 -0.0335
 1025SOL    HW214535   2.851   3.301   7.124 -1.1237 -0.1260 -0.1025
 1026SOL     OW14536   4.028   3.475  16.377 -0.1395 -0.0527  0.2515
 1026SOL    HW114537   4.009   3.521  16.460 -1.4057  0.0039 -0.0652
 1026SOL    HW214538   3.977   3.525  16.313 -3.0898 -0.6819  2.1167
 1027SOL     OW14539   2.072   0.357   6.258 -0.2910 -0.0672  0.4852
 1027SOL    HW114540   1.991   0.408   6.255 -0.2270 -0.0410 -0.6325
 1027SOL    HW214541   2.136   0.406   6.208  0.0105 -0.1640  0.7768
 1028SOL     OW14542   2.858   4.284   5.120  0.2502 -0.2023 -0.1206
 1028SOL    HW114543   2.858   4.190   5.101  2.2560 -0.3623  0.6718
 1028SOL    HW214544   2.767   4.311   5.111 -0.1494 -1.2979  0.6616
 1029SOL     OW14545   2.544   1.446   5.134  0.2017 -0.4686 -0.0467
 1029SOL    HW114546   2.536   1.350   5.136 -0.7350 -0.3635  0.8439
 1029SOL    HW214547   2.455   1.462   5.103  0.8891 -0.1419 -1.8468
 1030SOL     OW14548   2.467   4.599   0.261 -0.1979  0.1369 -0.2199
 1030SOL    HW114549   2.373   4.580   0.261 -0.1101 -0.3020 -0.3195
 1030SOL    HW214550   2.472   4.684   0.305  1.3319  1.0388 -2.1127
 1031SOL     OW14551   1.011   3.574   6.389  0.3479 -0.7549  0.1686
 1031SOL    HW114552   0.939   3.572   6.452  0.7988  1.0206  0.7574
 1031SOL    HW214553   1.065   3.644   6.426  0.7303 -1.8491  1.6811
 1032SOL     OW14554   1.584   3.403  12.014  0.3064 -0.3126  0.0988
 1032SOL    HW114555   1.672   3.438  12.002 -0.1489  0.5665 -0.7038
 1032SOL    HW214556   1.574   3.347  11.937  0.3364 -0.4519  0.1959
 1033SOL     OW14557   1.820   2.315   0.956  0.7627  0.1230 -0.5947
 1033SOL    HW114558   1.833   2.383   0.891 -1.8887  1.1408 -0.0906
 1033SOL    HW214559   1.824   2.365   1.038  1.2719  1.9434 -1.7522
 1034SOL     OW14560   1.395   2.835   3.532 -0.1554 -0.6609  0.2491
 1034SOL    HW114561   1.410   2.742   3.551  1.7972 -0.1070  1.4415
 1034SOL    HW214562   1.418   2.868   3.619 -0.2346  1.8257 -0.6922
 1035SOL     OW14563   3.633   4.166  14.170 -0.2761 -0.5013  0.0811
 1035SOL    HW114564   3.671   4.241  14.124 -0.7443 -1.3951 -1.7448
 1035SOL    HW214565   3.629   4.203  14.259  2.6655 -1.1729  0.4992
 1036SOL     OW14566   0.615   3.942   0.063  0.4618  0.4339 -0.0274
 1036SOL    HW114567   0.684   3.984   0.012  0.7109  0.3456  0.2328
 1036SOL    HW214568   0.657   3.937   0.149  0.1865  1.3760  0.1599
 1037SOL     OW14569   3.767   4.724  12.174 -0.4048 -0.4428  0.0199
 1037SOL    HW114570   3.807   0.083  12.201 -1.1796 -0.1315  0.2062
 1037SOL    HW214571   3.673   0.017  12.176 -0.1369  1.1477 -1.3313
 1038SOL     OW14572   0.138   0.793   4.896  0.0071  0.0946  0.4920
 1038SOL    HW114573   0.085   0.797   4.976  0.5671 -1.4816  0.9416
 1038SOL    HW214574   0.216   0.742   4.918 -2.0455 -2.3174  2.2008
 1039SOL     OW14575   4.250   0.794   8.232 -0.4017  0.0892  0.2318
 1039SOL    HW114576   4.228   0.776   8.324  2.3301 -1.2269  0.6286
 1039SOL    HW214577   4.164   0.824   8.203 -0.4490 -2.0617 -1.8397
 1040SOL     OW14578   3.288   3.649   5.665  0.5292  0.0464 -0.2364
 1040SOL    HW114579   3.376   3.659   5.629 -0.1015  1.5869 -1.3708
 1040SOL    HW214580   3.250   3.609   5.586  0.9688 -0.1407 -0.3537
 1041SOL     OW14581   3.891   1.548   3.849  0.1474  0.3152 -0.1628
 1041SOL    HW114582   3.962   1.524   3.907  1.2904  1.5612 -1.0582
 1041SOL    HW214583   3.903   1.492   3.771 -1.4623 -0.8625  0.4254
 1042SOL     OW14584   0.314   2.445  13.311  0.4239 -0.0984  0.2638
 1042SOL    HW114585   0.359   2.468  13.392 -2.1441 -1.9076  2.2142
 1042SOL    HW214586   0.340   2.526  13.267  0.7683  0.4835  1.5547
 1043SOL     OW14587   2.483   2.994   2.565  0.0915  0.2462 -0.2477
 1043SOL    HW114588   2.507   2.902   2.558 -0.5717 -0.0497  1.3751
 1043SOL    HW214589   2.392   2.992   2.536 -0.5700  1.1061  1.7394
 1044SOL     OW14590   2.278   0.563  15.750 -0.8180  0.1432 -0.3619
 1044SOL    HW114591   2.266   0.477  15.788 -0.7709 -0.0164 -0.7054
 1044SOL    HW214592   2.191   0.577  15.713  0.0637  0.3863 -2.3713
 1045SOL     OW14593   3.973   1.776   0.110 -0.4076 -0.8862 -0.7027
 1045SOL    HW114594   4.000   1.711   0.045  1.3727 -1.3920  0.5571
 1045SOL    HW214595   3.943   1.839   0.044 -0.3367 -0.1047  0.0173
 1046SOL     OW14596   3.205   1.392   4.152 -0.3662  0.2945  0.1976
 1046SOL    HW114597   3.198   1.487   4.158 -2.3217  0.1798 -0.2223
 1046SOL    HW214598   3.291   1.379   4.112  0.7832  0.9962  2.4893
 1047SOL     OW14599   1.304   2.723   8.533  0.0057  0.4493  0.0710
 1047SOL    HW114600   1.234   2.749   8.472 -0.6958 -0.2978  0.5541
 1047SOL    HW214601   1.309   2.785   8.605 -1.8079  0.6473  0.0317
 1048SOL     OW14602   1.905   2.276   8.255  0.2081  0.6590 -0.1864
 1048SOL    HW114603   1.844   2.350   8.260 -1.9356 -1.1837  0.5848
 1048SOL    HW214604   1.848   2.210   8.217  0.5125 -0.9568  2.1652
 1049SOL     OW14605   3.046   3.749  17.312  0.5609 -0.4716 -0.5071
 1049SOL    HW114606   3.066   3.772  17.221  0.0825  2.5634  0.1716
 1049SOL    HW214607   3.101   3.812  17.358  1.5667  0.0756 -2.4569
 1050SOL     OW14608   3.770   0.442   5.893 -0.2170 -0.7621 -0.1685
 1050SOL    HW114609   3.723   0.484   5.966 -3.3752  0.4243 -2.8932
 1050SOL    HW214610   3.825   0.511   5.857  0.2419 -1.6388 -1.1186
 1051SOL     OW14611   0.745   4.712  12.455 -0.0188 -0.0801  0.3399
 1051SOL    HW114612   0.800   4.649  12.408 -0.1275  2.4423 -3.1657
 1051SOL    HW214613   0.756   0.058  12.392  1.2554  0.6087  1.3198
 1052SOL     OW14614   3.516   1.677  15.379 -0.2744 -0.2077 -0.6686
 1052SOL    HW114615   3.596   1.685  15.327  1.0975  0.0497  1.4574
 1052SOL    HW214616   3.463   1.662  15.301 -2.1868  1.5911  0.2546
 1053SOL     OW14617   3.898   0.512   7.600 -0.5827 -0.0136 -0.0564
 1053SOL    HW114618   3.839   0.571   7.554 -0.2276 -0.1147 -0.6541
 1053SOL    HW214619   3.979   0.560   7.583  1.9976 -3.2140  3.1990
 1054SOL     OW14620   4.553   0.346   6.874 -0.0725  0.2566  0.4678
 1054SOL    HW114621   4.566   0.372   6.783 -0.3322  2.7038  1.1292
 1054SOL    HW214622   4.639   0.372   6.907 -0.7894  2.1793  0.7887
 1055SOL     OW14623   1.089   0.436   7.875  0.2169  0.2907 -0.0967
 1055SOL    HW114624   1.006   0.478   7.897 -0.0200 -0.2587  0.0455
 1055SOL    HW214625   1.070   0.344   7.889 -2.8755  0.8721 -0.4454
 1056SOL     OW14626   2.500   0.222  14.245 -0.1624  0.1549  0.3767
 1056SOL    HW114627   2.591   0.250  14.254  0.3197 -0.8112 -1.6760
 1056SOL    HW214628   2.474   0.292  14.185  0.0641  0.2308  0.3651
 1057SOL     OW14629   0.435   3.119   3.724 -0.0813  0.3792  0.6161
 1057SOL    HW114630   0.515   3.136   3.774 -0.5775  4.2856  0.0424
 1057SOL    HW214631   0.459   3.161   3.642  0.7268 -0.7809  0.2566
 1058SOL     OW14632   1.352   0.193  10.744 -0.2682 -0.2387 -0.0479
 1058SOL    HW114633   1.346   0.192  10.648 -0.0007  0.6143 -0.0698
 1058SOL    HW214634   1.415   0.260  10.769 -0.7125  0.4322 -0.7534
 1059SOL     OW14635   0.192   4.016   5.988 -0.0196  0.2142  0.1753
 1059SOL    HW114636   0.275   4.006   5.942  2.5669  0.6724  4.7050
 1059SOL    HW214637   0.219   3.959   6.060  2.1234  1.0919  0.0867
 1060SOL     OW14638   3.932   0.823   6.567  0.1987 -0.3660  0.1662
 1060SOL    HW114639   3.909   0.913   6.590  1.7412 -0.1262  0.7756
 1060SOL    HW214640   3.878   0.784   6.635  1.5199 -1.2015  0.7412
 1061SOL     OW14641   0.451   4.221  15.280 -0.0388  0.2041  0.4562
 1061SOL    HW114642   0.401   4.205  15.360 -0.9619 -0.7041 -0.3033
 1061SOL    HW214643   0.494   4.305  15.297 -0.4872  0.4958  0.1792
 1062SOL     OW14644   1.584   3.397   7.611 -0.4235  0.0558 -0.1435
 1062SOL    HW114645   1.572   3.306   7.639 -0.2400 -0.2233 -0.9540
 1062SOL    HW214646   1.652   3.384   7.545  0.3467  1.3687  0.4039
 1063SOL     OW14647   4.631   1.878   2.240  0.5872 -0.3581 -0.5415
 1063SOL    HW114648   4.564   1.946   2.237  2.2700  1.2515 -1.7436
 1063SOL    HW214649   4.591   1.804   2.193 -1.6497  0.8287 -0.4951
 1064SOL     OW14650   0.465   0.575  10.767  0.2670  0.0823 -0.0023
 1064SOL    HW114651   0.474   0.621  10.684  0.7130 -1.4483 -0.8130
 1064SOL    HW214652   0.512   0.638  10.823 -0.0013  0.9448 -0.7561
 1065SOL     OW14653   4.274   4.005   6.743  0.2061  0.2629  0.4593
 1065SOL    HW114654   4.315   4.026   6.827  0.6086  0.2577  0.2621
 1065SOL    HW214655   4.298   4.082   6.692  2.2911  0.3552  1.5975
 1066SOL     OW14656   1.860   1.244   2.466 -0.3868 -0.0241  0.4922
 1066SOL    HW114657   1.803   1.277   2.397  1.5808  1.9255 -0.2290
 1066SOL    HW214658   1.799   1.212   2.532 -0.0343 -0.3160  0.6740
 1067SOL     OW14659   4.511   0.013  17.695  0.1856  0.2267 -0.0203
 1067SOL    HW114660   4.435   4.697   0.038 -0.9300  0.1788 -2.1580
 1067SOL    HW214661   4.510   0.093   0.049  0.7712 -0.4197  0.9822
 1068SOL     OW14662   4.337   2.557   3.032 -0.4202  0.2882  0.1851
 1068SOL    HW114663   4.271   2.627   3.033 -1.3896 -0.6364  1.8606
 1068SOL    HW214664   4.338   2.537   2.938  3.3670 -1.6926  0.6581
 1069SOL     OW14665   3.198   3.628  14.237  0.0164  0.7244 -0.3499
 1069SOL    HW114666   3.292   3.631  14.218  0.4309 -0.7974  1.4160
 1069SOL    HW214667   3.157   3.682  14.170 -0.2553  1.2755  0.2585
 1070SOL     OW14668   3.796   1.221   3.486  0.0231  0.1171  0.4359
 1070SOL    HW114669   3.727   1.195   3.547  1.3380  3.1599  3.1938
 1070SOL    HW214670   3.850   1.268   3.549  0.5972  1.1505 -0.8276
 1071SOL     OW14671   2.811   2.283   1.567 -0.4362 -0.7042 -0.0872
 1071SOL    HW114672   2.817   2.236   1.484 -0.8159 -0.1771 -0.4086
 1071SOL    HW214673   2.820   2.376   1.547 -2.6477 -0.4719 -0.0084
 1072SOL     OW14674   0.741   2.916  14.446 -0.8043  0.1778 -0.2085
 1072SOL    HW114675   0.770   2.914  14.355  1.1523  2.1959  0.3742
 1072SOL    HW214676   0.713   2.825  14.452 -1.0453  0.1904 -1.2137
 1073SOL     OW14677   0.358   4.682  15.920  0.0406 -0.1623  0.2048
 1073SOL    HW114678   0.305   4.687  15.999  1.7696 -3.0880  1.5442
 1073SOL    HW214679   0.416   0.034  15.925 -1.7084  1.2283 -0.4157
 1074SOL     OW14680   0.315   2.225   6.549 -0.3903 -0.2940  0.1837
 1074SOL    HW114681   0.380   2.236   6.619 -3.6498  0.0087  3.1610
 1074SOL    HW214682   0.312   2.131   6.533  1.3070 -0.1487 -0.9559
 1075SOL     OW14683   3.912   0.358   7.859 -0.3916 -0.0260 -0.2138
 1075SOL    HW114684   3.949   0.426   7.802  0.1363  0.4061  0.6394
 1075SOL    HW214685   3.824   0.350   7.823 -0.6907 -0.6239  0.6591
 1076SOL     OW14686   0.895   2.140   8.511 -0.5637 -0.1202  0.0823
 1076SOL    HW114687   0.890   2.105   8.600 -0.7061  0.7635  0.4254
 1076SOL    HW214688   0.835   2.211   8.535 -2.0249 -1.2596 -0.2374
 1077SOL     OW14689   4.134   1.991  15.246  0.5027  0.9150 -0.3810
 1077SOL    HW114690   4.206   2.048  15.270 -1.8471  3.2155  1.2585
 1077SOL    HW214691   4.183   1.918  15.210  1.8222  0.8960  1.4404
 1078SOL     OW14692   2.176   1.786   6.158  0.2387 -0.4566 -0.0523
 1078SOL    HW114693   2.124   1.753   6.084 -0.2420  0.7084 -0.2267
 1078SOL    HW214694   2.117   1.800   6.232  1.3081 -0.9493  0.8924
 1079SOL     OW14695   4.038   3.227   3.905  0.1063 -0.1727 -0.0281
 1079SOL    HW114696   3.956   3.241   3.857 -0.3751 -0.7527  0.6198
 1079SOL    HW214697   4.089   3.301   3.874 -1.9153  1.4914  0.6207
 1080SOL     OW14698   0.314   1.511   0.444  0.9924  0.2415 -0.2692
 1080SOL    HW114699   0.325   1.565   0.523  0.6507  0.1238 -0.1403
 1080SOL    HW214700   0.234   1.464   0.470  0.5181  0.2430 -1.7459
 1081SOL     OW14701   1.175   4.037   6.631  0.3340  0.5942  0.5617
 1081SOL    HW114702   1.128   4.061   6.551  1.1703  0.8171  0.1369
 1081SOL    HW214703   1.205   3.948   6.612 -0.9501  0.0501  1.0587
 1082SOL     OW14704   1.353   1.647   3.349  0.5152 -0.1053  0.8761
 1082SOL    HW114705   1.360   1.608   3.262 -0.2404  0.4698  0.5606
 1082SOL    HW214706   1.309   1.728   3.324 -0.5947 -1.1966 -0.7019
 1083SOL     OW14707   0.245   2.276   7.968 -0.6350 -0.3234  0.3417
 1083SOL    HW114708   0.290   2.292   8.051 -0.7950 -0.0739  0.3799
 1083SOL    HW214709   0.176   2.342   7.971 -1.1071 -0.7987 -0.1639
 1084SOL     OW14710   0.691   4.184  15.618 -0.1270  0.2848  0.2179
 1084SOL    HW114711   0.608   4.232  15.612  1.2031  2.7742  1.4363
 1084SOL    HW214712   0.741   4.244  15.562 -1.3595  0.2817 -0.8851
 1085SOL     OW14713   3.528   2.727   6.122  0.4907 -0.2563 -0.5550
 1085SOL    HW114714   3.514   2.819   6.144 -2.4447 -1.0111  0.6497
 1085SOL    HW214715   3.601   2.713   6.181 -0.7362 -0.4190  0.9172
 1086SOL     OW14716   1.633   4.575   4.366  0.0213  0.3001  0.4256
 1086SOL    HW114717   1.590   4.502   4.411 -1.7481  1.4630  0.6181
 1086SOL    HW214718   1.725   4.559   4.385  0.7682  0.9585 -2.6530
 1087SOL     OW14719   3.994   4.366   3.679 -0.1522  0.7434  0.5519
 1087SOL    HW114720   3.932   4.309   3.724 -0.9410  1.2751  0.1466
 1087SOL    HW214721   4.047   4.395   3.753  0.0824 -0.8312  1.0026
 1088SOL     OW14722   3.586   3.600  14.637  0.7237 -0.2999  0.1485
 1088SOL    HW114723   3.559   3.669  14.698  1.5353 -0.4504  0.6838
 1088SOL    HW214724   3.651   3.656  14.594  0.3352  0.5180  0.6159
 1089SOL     OW14725   2.704   4.535   3.715  0.0912  0.5703 -0.0654
 1089SOL    HW114726   2.693   4.443   3.741  0.8773  0.7519  0.8845
 1089SOL    HW214727   2.739   4.563   3.799  1.6243 -0.0630 -0.4896
 1090SOL     OW14728   3.821   3.917  16.880 -0.3842 -0.3832  0.2014
 1090SOL    HW114729   3.819   3.981  16.951 -0.9630 -0.5776  0.3541
 1090SOL    HW214730   3.806   3.834  16.925  1.2993 -0.3818  0.7689
 1091SOL     OW14731   0.941   2.580   7.243  0.1587 -0.6313  0.2078
 1091SOL    HW114732   0.900   2.654   7.198 -0.7248 -0.7162  0.8821
 1091SOL    HW214733   0.973   2.616   7.325 -1.4611 -0.1950  0.6533
 1092SOL     OW14734   2.348   4.669   3.350  0.6222 -0.1944  0.4874
 1092SOL    HW114735   2.322   4.638   3.263 -1.7665  1.0518  0.7687
 1092SOL    HW214736   2.352   0.038   3.330 -0.8064 -0.1698  0.3335
 1093SOL     OW14737   1.351   4.104   5.329  0.1983  0.2410 -0.0951
 1093SOL    HW114738   1.402   4.024   5.317 -2.7301 -1.0205 -4.3855
 1093SOL    HW214739   1.405   4.136   5.401 -0.6339 -2.4316  1.7092
 1094SOL     OW14740   1.131   1.227   2.857 -0.1705  0.0604 -0.1211
 1094SOL    HW114741   1.038   1.238   2.876  0.4968  0.8806  2.6409
 1094SOL    HW214742   1.132   1.257   2.766 -0.1145 -0.9938 -0.4633
 1095SOL     OW14743   3.405   0.058  11.978 -0.1106 -0.0643 -0.4164
 1095SOL    HW114744   3.446   0.067  12.064  0.8199 -1.4011 -0.7356
 1095SOL    HW214745   3.312   0.070  11.998  0.2408 -0.9096  1.6958
 1096SOL     OW14746   2.545   3.628  10.862  0.5592 -0.5392 -0.3766
 1096SOL    HW114747   2.599   3.627  10.783 -0.0583 -2.1536 -0.7747
 1096SOL    HW214748   2.530   3.539  10.892  0.2325  0.0171  1.1187
 1097SOL     OW14749   0.049   1.521   3.491  0.2522 -0.7069  0.0277
 1097SOL    HW114750   4.681   1.522   3.517  0.9594 -0.0301  2.5698
 1097SOL    HW214751   0.041   1.591   3.426  0.6209  1.0110  1.8350
 1098SOL     OW14752   2.789   3.297   2.602 -0.6456  0.0941  0.2004
 1098SOL    HW114753   2.805   3.373   2.657 -1.0687 -0.8058  1.5572
 1098SOL    HW214754   2.759   3.247   2.678 -1.1556  0.0477 -0.0327
 1099SOL     OW14755   3.760   3.293   5.483  0.3668 -0.5326  0.5229
 1099SOL    HW114756   3.846   3.281   5.525  0.3627  0.4290  0.8198
 1099SOL    HW214757   3.744   3.387   5.492 -1.4229 -0.9030  1.0585
 1100SOL     OW14758   1.763   0.435   5.384  0.4236 -0.0108 -0.7530
 1100SOL    HW114759   1.798   0.440   5.473 -0.1246  1.3080 -0.6027
 1100SOL    HW214760   1.804   0.517   5.354 -1.6932  1.2658 -0.1972
 1101SOL     OW14761   0.453   0.860   9.120 -0.1002  0.1516 -0.1368
 1101SOL    HW114762   0.442   0.954   9.107  1.6285  0.3177 -0.3092
 1101SOL    HW214763   0.364   0.833   9.146  1.3327 -2.9805  1.5218
 1102SOL     OW14764   2.248   1.721   6.562  0.1777 -0.0595  0.3832
 1102SOL    HW114765   2.203   1.793   6.517  1.1450  1.0114  1.1423
 1102SOL    HW214766   2.258   1.665   6.485  0.4011 -0.2537  0.5547
 1103SOL     OW14767   4.224   4.431   5.783  0.4898  0.0796  0.3937
 1103SOL    HW114768   4.276   4.511   5.797 -2.7054  1.8798  2.0856
 1103SOL    HW214769   4.181   4.423   5.868 -0.5005 -1.1946 -0.2384
 1104SOL     OW14770   2.171   2.328   7.234  0.7260  0.4860 -0.2982
 1104SOL    HW114771   2.230   2.391   7.274  1.4764  0.4805 -1.3820
 1104SOL    HW214772   2.138   2.273   7.306 -1.4020  0.9751 -0.8925
 1105SOL     OW14773   2.614   0.477  10.537  0.7042 -0.2793 -0.2235
 1105SOL    HW114774   2.535   0.523  10.510  2.7566  1.3971 -3.3085
 1105SOL    HW214775   2.587   0.385  10.532  1.3386 -0.5202  0.7418
 1106SOL     OW14776   2.641   0.350   7.798 -0.1208  0.5666 -0.1271
 1106SOL    HW114777   2.601   0.393   7.873 -0.3089  1.4795 -0.7503
 1106SOL    HW214778   2.601   0.379   7.716  1.7728  0.6904 -1.0277
 1107SOL     OW14779   3.988   1.913   6.192 -0.2475  0.2255 -0.0341
 1107SOL    HW114780   3.927   1.936   6.261  0.5795 -1.5830  1.3030
 1107SOL    HW214781   3.922   1.899   6.124 -0.0437  0.9280 -0.3737
 1108SOL     OW14782   2.946   4.007  15.659 -0.2156 -0.1517 -0.6383
 1108SOL    HW114783   3.022   4.061  15.681 -1.0337  0.5663  0.4072
 1108SOL    HW214784   2.885   4.055  15.602 -0.1831  1.5719  0.7662
 1109SOL     OW14785   2.622   1.859   6.902 -0.1923 -0.5275  0.2192
 1109SOL    HW114786   2.558   1.845   6.832  0.1461  1.9956 -0.5973
 1109SOL    HW214787   2.573   1.844   6.983  0.6887  2.1609  1.2359
 1110SOL     OW14788   1.739   0.238   9.439  0.0702  0.0147 -0.5462
 1110SOL    HW114789   1.699   0.235   9.352  2.1617 -2.9733 -1.3997
 1110SOL    HW214790   1.662   0.248   9.494 -0.3621  0.6780 -1.2570
 1111SOL     OW14791   1.318   3.365   9.327  0.0130  0.1503  0.2091
 1111SOL    HW114792   1.393   3.343   9.382  0.1058 -0.1591 -0.0366
 1111SOL    HW214793   1.241   3.384   9.380  0.1964  1.1556  0.1108
 1112SOL     OW14794   1.414   0.692   5.204 -0.6288  0.0024  0.6009
 1112SOL    HW114795   1.396   0.773   5.251  0.2300 -1.3094  3.2536
 1112SOL    HW214796   1.329   0.649   5.198 -0.3775 -0.4517  0.2189
 1113SOL     OW14797   2.662   4.442   0.154 -0.1157  0.1584  0.2622
 1113SOL    HW114798   2.646   4.405   0.241  1.1471 -2.3869 -0.5926
 1113SOL    HW214799   2.611   4.523   0.161  1.6814  1.4723 -2.0184
 1114SOL     OW14800   2.377   2.406   8.339  0.2293 -0.1491  0.0710
 1114SOL    HW114801   2.299   2.350   8.332 -0.4871  0.9592 -0.7383
 1114SOL    HW214802   2.327   2.485   8.318 -0.8362 -1.0716 -0.8444
 1115SOL     OW14803   3.319   0.438  14.576 -0.0868  0.6511 -0.5263
 1115SOL    HW114804   3.245   0.386  14.608  0.0094 -0.0311 -1.4394
 1115SOL    HW214805   3.378   0.469  14.645  0.3967  1.2921 -1.2278
 1116SOL     OW14806   0.322   3.185  12.824  0.2599  0.3596  0.5601
 1116SOL    HW114807   0.395   3.173  12.885  0.0684  0.3821  0.7933
 1116SOL    HW214808   0.273   3.262  12.854  0.1874  0.9733 -1.1095
 1117SOL     OW14809   3.363   3.775  12.313 -0.3532 -0.1806  0.0855
 1117SOL    HW114810   3.292   3.723  12.277  1.3999 -0.2528 -3.3237
 1117SOL    HW214811   3.382   3.714  12.384 -3.3347  0.1980  1.2176
 1118SOL     OW14812   2.020   3.734   9.144 -0.5673  0.0742  0.3503
 1118SOL    HW114813   2.038   3.818   9.186  3.7258 -1.1218  0.8979
 1118SOL    HW214814   2.065   3.674   9.204  1.4787  2.1562  0.8631
 1119SOL     OW14815   1.587   2.527   1.929  0.3475 -0.4407  0.1564
 1119SOL    HW114816   1.544   2.603   1.967  0.0358 -0.4957 -0.0908
 1119SOL    HW214817   1.660   2.518   1.990 -0.1644 -1.0390  0.6882
 1120SOL     OW14818   0.122   3.353   3.095 -0.5501  0.0327 -0.2801
 1120SOL    HW114819   0.130   3.449   3.102  1.5457 -0.3185  2.2166
 1120SOL    HW214820   0.166   3.336   3.012 -2.1825 -2.0464 -0.7294
 1121SOL     OW14821   4.090   2.996   9.960  0.0869  0.4707 -0.1384
 1121SOL    HW114822   4.158   2.943  10.001  1.9656  0.5942 -3.1142
 1121SOL    HW214823   4.130   3.083   9.963 -0.2173  0.5745  1.1472
 1122SOL     OW14824   0.037   4.062   3.189  0.1955 -0.0173  0.2587
 1122SOL    HW114825   0.069   4.009   3.117 -1.2785 -2.9324  1.7553
 1122SOL    HW214826   4.706   3.995   3.229  1.6570 -0.2207  1.9326
 1123SOL     OW14827   1.998   1.098   7.503  0.1786  0.3533 -0.1213
 1123SOL    HW114828   1.981   1.107   7.597 -0.9423 -0.2440 -0.2697
 1123SOL    HW214829   2.085   1.056   7.508 -1.0013 -1.8879  1.8207
 1124SOL     OW14830   2.884   0.940   8.068 -0.2078  0.0218  0.0990
 1124SOL    HW114831   2.930   1.017   8.034  2.3719 -1.6813 -0.2842
 1124SOL    HW214832   2.792   0.967   8.074 -1.1951 -2.9236 -1.7207
 1125SOL     OW14833   4.156   3.453  17.678 -0.3653  0.6853  0.1442
 1125SOL    HW114834   4.124   3.373   0.023  1.5340 -0.5794 -0.7558
 1125SOL    HW214835   4.079   3.496  17.643 -1.2209 -1.4319 -0.5860
 1126SOL     OW14836   3.882   0.806   7.729  0.4647 -0.1928 -0.6781
 1126SOL    HW114837   3.924   0.863   7.664  1.8370  0.4922  0.8021
 1126SOL    HW214838   3.952   0.743   7.749 -1.5917 -2.6478 -1.3155
 1127SOL     OW14839   2.056   0.409   2.829 -0.2371  0.8366  0.5192
 1127SOL    HW114840   1.963   0.416   2.848 -0.4991  2.3108 -1.1825
 1127SOL    HW214841   2.077   0.317   2.845 -0.4049  0.7156  0.0634
 1128SOL     OW14842   4.707   0.554  17.376  0.1779  0.3127  0.2860
 1128SOL    HW114843   4.694   0.479  17.434 -0.4659 -1.4634 -2.1614
 1128SOL    HW214844   0.075   0.576  17.393  0.5940  1.4444 -3.3098
 1129SOL     OW14845   3.113   2.900   8.739  0.0112  0.6147  0.2571
 1129SOL    HW114846   3.063   2.823   8.764 -1.0818  1.9116  2.0511
 1129SOL    HW214847   3.040   2.955   8.711 -1.2658 -1.4776 -0.4816
 1130SOL     OW14848   3.480   4.592   5.981 -0.3250  0.8665 -0.5115
 1130SOL    HW114849   3.479   4.503   5.946  0.4549  0.2667  1.0193
 1130SOL    HW214850   3.509   4.640   5.903  1.4454  0.5574 -0.0317
 1131SOL     OW14851   2.259   0.213   1.885 -0.8262 -0.3157  0.2797
 1131SOL    HW114852   2.261   0.157   1.963  0.0669 -0.0681  0.4433
 1131SOL    HW214853   2.314   0.286   1.914  2.0076 -1.4629 -2.1660
 1132SOL     OW14854   0.755   0.575   8.215  0.4349 -0.1663  0.3969
 1132SOL    HW114855   0.781   0.483   8.219 -0.5425 -0.4626 -0.0275
 1132SOL    HW214856   0.660   0.569   8.213  0.4452 -0.7006  1.3699
 1133SOL     OW14857   2.518   3.566   7.242  0.6258 -0.5654  0.0097
 1133SOL    HW114858   2.486   3.494   7.188 -2.3114  0.7421 -0.0178
 1133SOL    HW214859   2.603   3.533   7.271  0.6638 -0.4290  0.0567
 1134SOL     OW14860   3.784   4.403   1.435 -0.0220  0.0112  0.2272
 1134SOL    HW114861   3.823   4.459   1.369  0.2696 -1.2415 -0.6699
 1134SOL    HW214862   3.706   4.372   1.389  0.3147 -0.1180 -0.2586
 1135SOL     OW14863   1.095   2.153  14.006  0.0173  0.1714 -0.1301
 1135SOL    HW114864   1.070   2.091  14.074  0.8628  0.8618  0.8115
 1135SOL    HW214865   1.005   2.177  13.985 -0.7274 -1.0830  1.7001
 1136SOL     OW14866   3.406   2.525   6.727 -0.2806 -0.2741  0.3220
 1136SOL    HW114867   3.366   2.605   6.761 -0.8017 -1.4316  2.3885
 1136SOL    HW214868   3.442   2.561   6.646 -3.0291  0.5882 -0.4997
 1137SOL     OW14869   0.786   4.013   6.345  0.6728  1.1035  0.7255
 1137SOL    HW114870   0.740   4.095   6.364 -1.2707  0.2995 -0.4341
 1137SOL    HW214871   0.824   4.002   6.433 -0.0927 -3.5372  0.4940
 1138SOL     OW14872   3.414   1.844   4.221  0.0866 -0.1029 -0.2541
 1138SOL    HW114873   3.396   1.844   4.316  2.5774 -1.3292  0.2023
 1138SOL    HW214874   3.509   1.843   4.217  0.0714 -0.2886 -0.5200
 1139SOL     OW14875   4.050   3.570  12.287 -0.4855 -0.4656 -0.9098
 1139SOL    HW114876   4.016   3.657  12.268  3.0847  0.9442 -0.7783
 1139SOL    HW214877   3.969   3.520  12.299 -0.6787  0.1217  0.2796
 1140SOL     OW14878   0.793   0.073   5.495  0.3781  0.5551 -0.0776
 1140SOL    HW114879   0.845   0.139   5.449 -0.5964  2.1850  1.1598
 1140SOL    HW214880   0.701   0.098   5.485 -0.5818 -4.2156 -3.2716
 1141SOL     OW14881   3.005   3.919  10.393 -0.1373 -0.5931 -0.1164
 1141SOL    HW114882   2.992   3.965  10.310  1.0701 -0.4711 -0.2456
 1141SOL    HW214883   3.088   3.877  10.369  0.2693 -1.6308  3.0916
 1142SOL     OW14884   2.417   1.497   3.121 -0.4061  0.1580  0.0048
 1142SOL    HW114885   2.431   1.406   3.093 -0.1552 -0.2698  1.5320
 1142SOL    HW214886   2.341   1.524   3.069 -0.7521  0.8017  0.8581
 1143SOL     OW14887   2.991   3.795   8.914 -0.2299 -0.1449 -0.1358
 1143SOL    HW114888   3.003   3.813   8.821 -0.6071 -1.8298 -0.5087
 1143SOL    HW214889   3.078   3.784   8.953  0.0979 -1.0419 -1.0990
 1144SOL     OW14890   4.495   4.253   7.404 -0.0811  0.3805 -0.0945
 1144SOL    HW114891   4.436   4.232   7.477 -0.4959 -0.0549 -0.5533
 1144SOL    HW214892   4.504   4.168   7.361 -1.0842  0.4756 -0.4778
 1145SOL     OW14893   4.643   2.963   5.158  0.0625  0.5071 -0.1796
 1145SOL    HW114894   4.616   2.994   5.072 -0.4893  0.7880  0.0941
 1145SOL    HW214895   4.636   2.869   5.142  0.8864  0.2661  0.8453
 1146SOL     OW14896   1.347   2.467   6.677 -0.1501  0.7658  0.4493
 1146SOL    HW114897   1.368   2.496   6.588  0.7839  3.2956  1.5197
 1146SOL    HW214898   1.281   2.530   6.705 -0.9185  0.2551 -0.1901
 1147SOL     OW14899   0.684   4.463   6.818 -0.4328 -0.2528  0.8512
 1147SOL    HW114900   0.704   4.411   6.741  0.6543  1.3844  0.0470
 1147SOL    HW214901   0.597   4.495   6.795  0.0379  0.1831 -0.2858
 1148SOL     OW14902   0.495   3.162  16.451 -0.3164  0.1736  1.1856
 1148SOL    HW114903   0.477   3.251  16.421 -0.7984  0.2775  1.7944
 1148SOL    HW214904   0.588   3.178  16.464  0.1405 -1.4013 -0.1524
 1149SOL     OW14905   3.564   1.694   3.037 -0.3386 -0.3795 -0.0578
 1149SOL    HW114906   3.615   1.620   3.071  0.3830  0.4012  0.5795
 1149SOL    HW214907   3.522   1.658   2.960 -3.4402 -0.3341  1.6230
 1150SOL     OW14908   1.953   4.476  16.009 -0.0014 -0.7683 -0.7296
 1150SOL    HW114909   2.003   4.396  16.020  1.4361 -0.0553 -2.0889
 1150SOL    HW214910   1.985   4.519  15.929  0.7642 -0.7109 -0.3837
 1151SOL     OW14911   1.683   1.114  14.173 -0.0600 -0.3955  0.0292
 1151SOL    HW114912   1.667   1.034  14.123  0.6765 -0.6045  0.1308
 1151SOL    HW214913   1.596   1.141  14.203 -0.0213  0.9905 -1.1152
 1152SOL     OW14914   4.056   1.097   6.315 -0.4205  0.0915 -0.1579
 1152SOL    HW114915   4.025   1.137   6.396 -0.0201  0.2445 -0.0772
 1152SOL    HW214916   4.126   1.161   6.298  0.2299 -0.6008 -0.1224
 1153SOL     OW14917   2.450   2.819   7.579 -0.3393  0.2602 -0.0242
 1153SOL    HW114918   2.382   2.873   7.621 -1.4937 -1.1613 -0.0626
 1153SOL    HW214919   2.514   2.818   7.650 -0.2597  1.2068 -0.0768
 1154SOL     OW14920   2.179   2.493   1.722  0.3945  0.3564 -0.1315
 1154SOL    HW114921   2.118   2.491   1.649  0.2710 -0.0804 -0.0164
 1154SOL    HW214922   2.129   2.480   1.803  0.3144 -2.0736 -0.5655
 1155SOL     OW14923   1.425   4.094  15.163  0.4154 -0.0775 -0.1092
 1155SOL    HW114924   1.393   4.038  15.234 -1.1245  2.4817  1.2267
 1155SOL    HW214925   1.498   4.132  15.211  1.6554 -0.4728 -1.6954
 1156SOL     OW14926   4.509   3.388   1.857 -0.0218 -0.3279  0.2067
 1156SOL    HW114927   4.590   3.398   1.806 -0.3110 -1.2962 -0.4566
 1156SOL    HW214928   4.522   3.458   1.920 -0.9618 -1.6611  1.8726
 1157SOL     OW14929   0.659   2.631   4.307  0.4084 -0.4748 -0.1219
 1157SOL    HW114930   0.698   2.544   4.295 -1.3030 -1.0321 -1.5107
 1157SOL    HW214931   0.738   2.681   4.328  0.3470 -0.8092  0.8974
 1158SOL     OW14932   2.135   1.605  12.710  0.1966  0.5359  0.2233
 1158SOL    HW114933   2.212   1.576  12.759  2.2079  2.6715 -1.6194
 1158SOL    HW214934   2.083   1.643  12.780 -0.4424 -2.6611  1.4795
 1159SOL     OW14935   2.696   0.363  10.827 -0.0032  0.0199  0.1467
 1159SOL    HW114936   2.652   0.439  10.790 -1.1145 -1.0180 -0.6455
 1159SOL    HW214937   2.742   0.327  10.751 -0.9016 -0.2673 -0.2562
 1160SOL     OW14938   3.044   3.804   0.425  0.9191 -0.7529  0.0354
 1160SOL    HW114939   3.124   3.759   0.448 -0.4043 -2.2306  1.7502
 1160SOL    HW214940   3.023   3.748   0.350  0.4728  0.3662 -0.6786
 1161SOL     OW14941   4.217   3.506   8.730 -0.0164 -0.5013  0.0787
 1161SOL    HW114942   4.177   3.576   8.679  0.8803 -2.5788 -3.4810
 1161SOL    HW214943   4.264   3.562   8.792  1.2376  0.5941 -1.8930
 1162SOL     OW14944   4.493   1.296  14.884 -0.3284  0.3913  0.3208
 1162SOL    HW114945   4.447   1.332  14.960 -1.9855 -2.4492  0.7040
 1162SOL    HW214946   4.508   1.377  14.836  0.6538  0.3518  0.5538
 1163SOL     OW14947   1.704   2.222   7.707 -0.1109 -0.1393 -0.2623
 1163SOL    HW114948   1.761   2.238   7.782  0.7891 -1.6625 -0.6134
 1163SOL    HW214949   1.626   2.269   7.735  1.2947  1.0736  1.6722
 1164SOL     OW14950   3.050   0.365   5.190  0.6695 -0.6372 -0.0453
 1164SOL    HW114951   3.066   0.458   5.172 -0.3059 -0.4719 -0.0520
 1164SOL    HW214952   3.106   0.327   5.123  0.1691  0.9958 -1.3999
 1165SOL     OW14953   0.562   0.144  15.900 -0.1755 -0.7762  0.3765
 1165SOL    HW114954   0.578   0.219  15.842 -1.4116 -1.6810 -1.1158
 1165SOL    HW214955   0.553   0.196  15.980  0.4136  1.2681 -0.8830
 1166SOL     OW14956   1.629   0.736  10.832 -0.0466  0.6854 -0.9310
 1166SOL    HW114957   1.717   0.704  10.852 -1.0386 -1.2451  0.3276
 1166SOL    HW214958   1.597   0.668  10.773  0.5347 -1.8421  1.6555
 1167SOL     OW14959   0.443   0.938   6.502 -0.1096  0.5023  0.0307
 1167SOL    HW114960   0.431   1.029   6.477 -0.8705  0.7824  1.4165
 1167SOL    HW214961   0.373   0.918   6.565 -0.5808 -0.1686 -0.6982
 1168SOL     OW14962   3.150   4.181  17.147  0.0193 -0.3184  0.6358
 1168SOL    HW114963   3.202   4.101  17.145 -1.7060 -1.4439  0.5498
 1168SOL    HW214964   3.192   4.224  17.073  1.2520  0.5156  1.8283
 1169SOL     OW14965   1.062   0.621   3.160  0.4042 -0.0845 -0.2718
 1169SOL    HW114966   1.080   0.681   3.088 -0.3500  1.5249  0.8575
 1169SOL    HW214967   1.000   0.670   3.215  0.9208  1.1996 -0.8509
 1170SOL     OW14968   3.797   3.901   4.700  0.3451  0.2277 -0.0011
 1170SOL    HW114969   3.729   3.965   4.677  1.9261  1.0577 -2.2705
 1170SOL    HW214970   3.737   3.833   4.732  0.6823 -0.7186 -1.4073
 1171SOL     OW14971   0.016   1.930   5.460 -0.6895  0.1409  0.1241
 1171SOL    HW114972   0.059   1.854   5.421  0.8756  0.0495  2.0363
 1171SOL    HW214973   0.081   1.953   5.526  0.2879 -2.4748  0.0723
 1172SOL     OW14974   0.160   0.111   3.785 -0.7303 -0.2320  0.8120
 1172SOL    HW114975   0.178   0.135   3.694 -0.7189  2.5533  1.5674
 1172SOL    HW214976   0.208   0.030   3.804 -1.5638 -0.9360 -0.1038
 1173SOL     OW14977   2.268   0.559   3.775  0.4348 -0.1705 -0.4719
 1173SOL    HW114978   2.332   0.535   3.841 -0.2112 -1.9350 -0.4791
 1173SOL    HW214979   2.246   0.650   3.796  0.3902  0.5679 -3.7823
 1174SOL     OW14980   1.265   0.620  17.276  0.2210 -0.3556 -0.1287
 1174SOL    HW114981   1.180   0.663  17.290 -0.4213 -0.7724 -2.7374
 1174SOL    HW214982   1.249   0.596  17.185 -2.0196  2.6513 -0.5563
 1175SOL     OW14983   1.116   0.572   8.320  0.2013  0.3565  0.4734
 1175SOL    HW114984   1.093   0.647   8.266 -0.8215  2.1960  3.4752
 1175SOL    HW214985   1.072   0.500   8.275  1.4036 -0.9227  1.3405
 1176SOL     OW14986   0.944   0.709   1.380  0.8281  0.0056 -0.0019
 1176SOL    HW114987   0.932   0.804   1.371  0.5859 -0.1027 -0.7991
 1176SOL    HW214988   0.874   0.683   1.320  0.2229 -4.1628  2.5496
 1177SOL     OW14989   1.100   3.596  12.680 -0.6564  0.0363 -0.1672
 1177SOL    HW114990   1.094   3.686  12.712  0.9415 -1.7100  4.9332
 1177SOL    HW214991   1.043   3.556  12.746  2.2056  0.5954  2.6049
 1178SOL     OW14992   3.122   0.224   2.784 -0.4098  0.0567 -0.0917
 1178SOL    HW114993   3.109   0.292   2.850 -0.5864 -1.8241  1.8079
 1178SOL    HW214994   3.127   0.142   2.833  0.7569 -1.8470 -3.3499
 1179SOL     OW14995   3.874   4.579   4.547  0.6361 -0.0911 -0.1398
 1179SOL    HW114996   3.936   4.547   4.482 -0.2232 -0.4794 -0.7646
 1179SOL    HW214997   3.839   4.655   4.501 -1.2274 -2.4506 -2.6059
 1180SOL     OW14998   1.627   3.863  14.318 -0.2848  0.8806  0.1659
 1180SOL    HW114999   1.706   3.819  14.351 -0.9445 -1.3385 -1.2416
 1180SOL    HW215000   1.563   3.831  14.382 -0.7684 -0.5321 -1.0417
 1181SOL     OW15001   1.773   3.435   5.876  0.0203  0.0905 -0.1168
 1181SOL    HW115002   1.849   3.472   5.831  1.2361 -2.2307  0.0670
 1181SOL    HW215003   1.802   3.433   5.967 -1.6010 -1.1112  0.3758
 1182SOL     OW15004   1.039   3.427   6.943  0.3115 -0.1531 -0.0090
 1182SOL    HW115005   1.108   3.361   6.947 -0.9093 -1.5571 -2.3154
 1182SOL    HW215006   1.046   3.479   7.023 -0.3224 -1.3333  0.8111
 1183SOL     OW15007   2.183   0.911   8.155 -0.5746 -0.1986 -0.0025
 1183SOL    HW115008   2.264   0.954   8.181 -0.6610 -0.9521  1.5231
 1183SOL    HW215009   2.117   0.934   8.221 -2.5606  1.4557 -2.5347
 1184SOL     OW15010   3.535   3.688   3.299 -0.2200  0.2611  0.3223
 1184SOL    HW115011   3.621   3.706   3.262 -1.1518  0.8787 -1.5416
 1184SOL    HW215012   3.519   3.595   3.286 -0.4819  0.4229 -0.5178
 1185SOL     OW15013   4.324   4.357   4.818 -0.5667  0.4618  0.3466
 1185SOL    HW115014   4.362   4.269   4.824 -1.4992  0.1684  2.1198
 1185SOL    HW215015   4.341   4.389   4.907 -0.3295  2.8227 -0.5454
 1186SOL     OW15016   4.454   3.172   8.562 -0.0678  0.1075 -0.1232
 1186SOL    HW115017   4.379   3.158   8.504 -0.1007 -0.7797  0.1423
 1186SOL    HW215018   4.444   3.267   8.577  0.9749  0.4224 -1.4201
 1187SOL     OW15019   3.085   0.320   4.089  0.0340 -0.1260  0.2540
 1187SOL    HW115020   3.168   0.365   4.078  0.2462 -0.6002 -0.0582
 1187SOL    HW215021   3.030   0.373   4.147 -1.1094 -0.1769 -0.7804
 1188SOL     OW15022   0.236   3.362   7.028  0.3145  0.8032 -0.4117
 1188SOL    HW115023   0.292   3.332   7.100  0.9608 -0.1359 -1.3074
 1188SOL    HW215024   0.279   3.447   7.014  0.2352  0.8321 -0.4811
 1189SOL     OW15025   0.873   3.171   4.245 -0.0018  0.3507 -0.3260
 1189SOL    HW115026   0.947   3.130   4.289 -1.1015 -1.0896  0.1839
 1189SOL    HW215027   0.880   3.257   4.287 -0.3066 -1.2354  3.0212
 1190SOL     OW15028   1.695   0.842  10.307  0.2523 -0.0880 -0.2040
 1190SOL    HW115029   1.668   0.795  10.386 -1.3312 -0.7344 -1.1140
 1190SOL    HW215030   1.788   0.843  10.331  0.2647  0.9118 -0.2956
 1191SOL     OW15031   4.353   2.640  16.935  0.3948  0.0169  0.0904
 1191SOL    HW115032   4.375   2.552  16.968  1.9166  0.0840 -0.7423
 1191SOL    HW215033   4.425   2.670  16.880 -0.0746  2.5889  0.9008
 1192SOL     OW15034   2.030   3.581   6.536 -0.0542  0.8344  0.1069
 1192SOL    HW115035   1.950   3.536   6.509  1.0036 -0.7013 -0.4749
 1192SOL    HW215036   1.997   3.652   6.590  0.6234  0.8470  0.5030
 1193SOL     OW15037   4.649   2.938   3.587  0.4858  0.2953  0.0954
 1193SOL    HW115038   4.602   3.016   3.556 -2.0629 -0.3520  2.2379
 1193SOL    HW215039   0.017   2.953   3.566  0.4736 -0.4113 -0.4576
 1194SOL     OW15040   4.643   2.120   7.870 -0.0154 -0.1372 -0.2537
 1194SOL    HW115041   4.579   2.049   7.862  1.0440 -0.8759 -2.1456
 1194SOL    HW215042   4.603   2.200   7.836  2.9636  1.1243 -0.7650
 1195SOL     OW15043   2.455   1.877   7.481 -0.6445 -0.2749  0.0383
 1195SOL    HW115044   2.439   1.939   7.552  2.1448  0.8516 -0.3106
 1195SOL    HW215045   2.550   1.884   7.465 -0.8206 -0.1140 -0.9657
 1196SOL     OW15046   0.597   0.323   1.089 -0.2123  0.1066 -0.5284
 1196SOL    HW115047   0.553   0.398   1.051 -2.0503  0.9958  3.3324
 1196SOL    HW215048   0.692   0.332   1.075 -0.7146  1.4722 -2.9240
 1197SOL     OW15049   4.652   3.204   6.443 -0.4321  0.2272  0.5828
 1197SOL    HW115050   4.661   3.288   6.486 -1.9865  1.5012 -1.5403
 1197SOL    HW215051   4.612   3.228   6.359  1.0571 -0.7120 -0.4097
 1198SOL     OW15052   1.306   4.653   9.788  0.6091  0.1814 -0.6126
 1198SOL    HW115053   1.343   4.566   9.805  0.4613  0.1563 -0.4228
 1198SOL    HW215054   1.383   4.709   9.788  0.4638  0.3850  2.8875
 1199SOL     OW15055   4.182   1.190   7.698 -0.2621  0.4230 -0.1672
 1199SOL    HW115056   4.253   1.184   7.761 -0.9696  1.4218  0.7271
 1199SOL    HW215057   4.135   1.267   7.728 -1.8726 -1.2351  1.5672
 1200SOL     OW15058   3.463   4.431   6.262  0.7265 -0.0144  0.2533
 1200SOL    HW115059   3.371   4.453   6.247  1.0814  0.8940 -0.5509
 1200SOL    HW215060   3.468   4.349   6.212 -0.1416 -0.0406  0.2125
 1201SOL     OW15061   2.165   2.376  10.405 -0.0182  0.0625  0.1706
 1201SOL    HW115062   2.097   2.310  10.416 -0.4360  0.4854  0.1048
 1201SOL    HW215063   2.172   2.427  10.486 -0.5167  2.6820 -1.4175
 1202SOL     OW15064   1.213   0.996   3.094  0.1652  0.6186 -0.6389
 1202SOL    HW115065   1.160   0.969   3.169  0.1278 -0.8778 -1.2136
 1202SOL    HW215066   1.226   0.912   3.051  1.0888 -0.9265  2.6355
 1203SOL     OW15067   2.427   2.581  11.856  0.3912 -0.3378  0.0801
 1203SOL    HW115068   2.481   2.658  11.834  0.0801 -0.0641  0.2787
 1203SOL    HW215069   2.448   2.515  11.789 -0.3801 -1.5443  1.0492
 1204SOL     OW15070   3.650   0.217   3.657  0.6094  0.1501 -0.2447
 1204SOL    HW115071   3.719   0.230   3.593  1.0326 -3.1771 -0.5065
 1204SOL    HW215072   3.595   0.154   3.610  2.3270 -0.6269 -1.2294
 1205SOL     OW15073   2.823   0.726  15.075  0.0705  0.6386  0.6156
 1205SOL    HW115074   2.740   0.740  15.121  0.7101  0.9143  1.6751
 1205SOL    HW215075   2.885   0.765  15.136  0.5728  0.6354  0.1067
 1206SOL     OW15076   1.345   3.061  10.537  0.7235 -0.4632  0.1186
 1206SOL    HW115077   1.296   3.137  10.507 -0.5625 -1.4579 -0.2493
 1206SOL    HW215078   1.406   3.099  10.601  0.4139 -0.1701  0.2416
 1207SOL     OW15079   0.427   0.579  15.749 -0.1589 -0.0932  0.7965
 1207SOL    HW115080   0.396   0.563  15.660  0.5511 -0.2192  0.5708
 1207SOL    HW215081   0.473   0.661  15.735 -0.3066 -0.5019 -2.0555
 1208SOL     OW15082   1.555   1.016  16.344 -0.0258 -0.9151 -0.0497
 1208SOL    HW115083   1.598   1.019  16.259  0.4385  1.6021  0.2902
 1208SOL    HW215084   1.497   0.941  16.335 -1.5579  0.0259  1.8622
 1209SOL     OW15085   0.789   1.454   8.995 -0.0502  0.2560 -0.3616
 1209SOL    HW115086   0.825   1.531   8.952  0.3197 -0.8199 -1.9875
 1209SOL    HW215087   0.731   1.430   8.923  0.6000 -2.0148 -0.1291
 1210SOL     OW15088   2.387   1.932   4.745  0.4626 -0.3520  0.2650
 1210SOL    HW115089   2.337   1.985   4.683 -2.9085 -1.5479  1.9134
 1210SOL    HW215090   2.319   1.887   4.796  0.2954 -2.5924 -1.9052
 1211SOL     OW15091   0.896   4.271   3.660  0.4941 -0.3133 -0.6385
 1211SOL    HW115092   0.873   4.257   3.569  1.6287  4.3378 -1.6302
 1211SOL    HW215093   0.897   4.367   3.665  1.1724 -0.3410 -0.0217
 1212SOL     OW15094   0.635   2.142   1.777  0.0235 -0.5368  0.2022
 1212SOL    HW115095   0.716   2.095   1.755  0.4973  1.0262 -1.3883
 1212SOL    HW215096   0.574   2.088   1.726 -1.2507  1.7307 -0.6486
 1213SOL     OW15097   1.614   2.093   7.068 -0.2764  0.0543  1.0681
 1213SOL    HW115098   1.545   2.123   7.126  0.0179 -0.5490  1.7369
 1213SOL    HW215099   1.596   2.000   7.053  5.8868 -0.8564 -0.5251
 1214SOL     OW15100   2.922   1.424   1.048 -0.0039  0.8418  0.5119
 1214SOL    HW115101   2.914   1.444   0.955 -2.5540  0.7330  0.7047
 1214SOL    HW215102   2.834   1.391   1.069 -0.1856  0.8501 -0.2407
 1215SOL     OW15103   1.149   2.075   6.964 -0.5154  0.0137 -0.0191
 1215SOL    HW115104   1.132   2.153   7.018  1.6075  0.3049  0.2378
 1215SOL    HW215105   1.244   2.070   6.974 -0.3696 -0.1496 -1.4217
 1216SOL     OW15106   2.019   0.806   0.629  0.2833 -0.4496 -0.4257
 1216SOL    HW115107   2.052   0.873   0.570  3.0903 -2.2327 -0.9044
 1216SOL    HW215108   1.953   0.855   0.678  0.8796  0.6429 -0.7172
 1217SOL     OW15109   0.703   0.374   9.906  0.2651 -0.0484 -0.1036
 1217SOL    HW115110   0.718   0.300   9.847 -0.7551  0.6586 -1.2712
 1217SOL    HW215111   0.785   0.393   9.951  1.5718  0.2357 -2.5804
 1218SOL     OW15112   4.683   4.064  10.410 -0.0530  0.5997 -0.3556
 1218SOL    HW115113   4.610   4.010  10.440  0.3667 -0.1924 -0.7338
 1218SOL    HW215114   0.029   4.002  10.388 -1.9664 -0.1132 -4.3894
 1219SOL     OW15115   0.132   1.231   1.625  0.1520  0.4336  0.2173
 1219SOL    HW115116   0.199   1.263   1.685  0.1600  1.3467 -0.2756
 1219SOL    HW215117   0.181   1.157   1.589  0.1727 -0.3940  1.9888
 1220SOL     OW15118   0.629   2.128   4.990  0.0455 -0.3129 -0.0041
 1220SOL    HW115119   0.665   2.158   5.073 -1.7102  1.1070  0.2581
 1220SOL    HW215120   0.585   2.046   5.014  1.1230 -1.3449 -1.5538
 1221SOL     OW15121   4.201   3.055   7.910  0.0547 -0.3009 -0.5240
 1221SOL    HW115122   4.170   2.965   7.925 -0.2118  0.0156  0.7368
 1221SOL    HW215123   4.118   3.093   7.939 -0.2087 -1.8856  0.7951
 1222SOL     OW15124   0.370   0.856   1.808 -0.0664  0.0737  0.0738
 1222SOL    HW115125   0.409   0.777   1.770  1.9101  1.0663  0.0256
 1222SOL    HW215126   0.345   0.922   1.744  0.9233 -0.0706 -0.4694
 1223SOL     OW15127   0.334   0.452   5.212  0.1764 -0.0548  0.5018
 1223SOL    HW115128   0.370   0.498   5.288  0.0544 -0.2143  0.6540
 1223SOL    HW215129   0.249   0.495   5.203 -1.0507 -2.6058 -0.0108
 1224SOL     OW15130   2.812   2.303  17.669  0.2536  0.5784  0.0080
 1224SOL    HW115131   2.791   2.378   0.027  0.5357  0.2678  0.5288
 1224SOL    HW215132   2.898   2.277   0.004  0.5202 -0.5016 -1.5207
 1225SOL     OW15133   2.520   0.675   4.881 -0.1782  0.0782  0.1382
 1225SOL    HW115134   2.513   0.747   4.817  3.8851  1.1783  0.9440
 1225SOL    HW215135   2.504   0.595   4.831 -2.0835 -0.0615  0.9579
 1226SOL     OW15136   0.261   2.654  17.605  0.6694  0.2178 -0.3122
 1226SOL    HW115137   0.167   2.649  17.587  0.6975  0.7746 -0.6097
 1226SOL    HW215138   0.272   2.697  17.690 -1.4167  0.6651 -0.2735
 1227SOL     OW15139   4.529   1.730  17.362 -0.2513 -0.1302  0.1580
 1227SOL    HW115140   4.550   1.750  17.271 -1.1389  2.5992  0.5545
 1227SOL    HW215141   4.436   1.751  17.354 -1.0861 -3.3477  1.1895
 1228SOL     OW15142   1.771   4.305   5.583  0.7532 -0.3333 -0.6406
 1228SOL    HW115143   1.857   4.333   5.614  0.4713 -0.0779 -0.0981
 1228SOL    HW215144   1.789   4.223   5.538  0.5484 -0.2351 -0.9012
 1229SOL     OW15145   1.046   0.106   3.916 -0.1186 -0.2317  0.6620
 1229SOL    HW115146   1.116   0.168   3.938  1.1462 -1.1776 -0.7095
 1229SOL    HW215147   1.010   0.101   4.005 -1.0354  1.7077  0.3985
 1230SOL     OW15148   1.946   4.041   2.494  0.3897  0.1722 -0.4435
 1230SOL    HW115149   1.985   4.126   2.513 -0.7653  0.6241 -0.1016
 1230SOL    HW215150   1.923   4.074   2.407 -0.9356  0.4576  0.0223
 1231SOL     OW15151   4.706   2.958   9.472  0.7898 -0.7131  0.2945
 1231SOL    HW115152   0.007   2.868   9.494  1.2970 -0.9355 -1.2171
 1231SOL    HW215153   0.066   3.000   9.453  0.5094  0.0349  0.7034
 1232SOL     OW15154   1.837   1.956   7.832  0.2317 -0.1567 -0.4728
 1232SOL    HW115155   1.784   1.895   7.781 -2.3064  2.2768 -0.7706
 1232SOL    HW215156   1.904   1.979   7.767 -0.2251 -0.9299 -1.2126
 1233SOL     OW15157   1.034   2.457   4.066 -0.4742  0.0075  0.3590
 1233SOL    HW115158   0.962   2.520   4.061 -1.7700 -1.2342  3.2335
 1233SOL    HW215159   1.067   2.481   3.980  0.0241  0.8583  0.7916
 1234SOL     OW15160   0.302   3.461   2.368 -0.4950  0.9509  0.1387
 1234SOL    HW115161   0.240   3.388   2.361  0.5706 -0.0854  1.6687
 1234SOL    HW215162   0.244   3.536   2.353 -0.5647  1.1643  1.4588
 1235SOL     OW15163   2.080   0.675   6.850  0.2067 -0.5821 -0.9917
 1235SOL    HW115164   1.996   0.687   6.806  1.1260 -0.0922 -2.6070
 1235SOL    HW215165   2.057   0.640   6.936  3.8672 -1.2575 -0.2714
 1236SOL     OW15166   3.177   1.024   1.611 -0.0640 -0.2264  0.0534
 1236SOL    HW115167   3.234   1.097   1.587 -0.7704 -0.2455 -1.6400
 1236SOL    HW215168   3.115   1.028   1.539  0.8095 -2.1508 -0.7991
 1237SOL     OW15169   1.278   1.028  12.252  0.1474  0.7037 -0.0121
 1237SOL    HW115170   1.221   0.956  12.281  2.2580 -0.5181  1.1372
 1237SOL    HW215171   1.237   1.092  12.309 -0.3785 -0.0209  0.4268
 1238SOL     OW15172   4.260   1.122   0.936  0.0022  0.0322 -0.6759
 1238SOL    HW115173   4.311   1.082   1.007 -1.0767 -1.9181 -0.9934
 1238SOL    HW215174   4.292   1.212   0.940 -0.9276  0.4062 -1.8135
 1239SOL     OW15175   0.657   1.402  15.565  0.0451 -0.1183  0.2917
 1239SOL    HW115176   0.610   1.399  15.648 -0.0826 -0.0727  0.2206
 1239SOL    HW215177   0.704   1.484  15.575  0.4322  0.2855 -4.8231
 1240SOL     OW15178   0.996   4.046   7.338  0.4110 -0.0078  0.2946
 1240SOL    HW115179   1.048   4.100   7.279  1.0108 -0.1345  0.7103
 1240SOL    HW215180   1.080   4.029   7.380 -0.0306 -0.0369  1.1510
 1241SOL     OW15181   0.028   2.246  13.207  0.9088 -0.5307  0.1034
 1241SOL    HW115182   0.002   2.293  13.128 -0.7288  0.5380  1.2891
 1241SOL    HW215183   0.076   2.313  13.257  2.5037 -1.8413  0.3331
 1242SOL     OW15184   1.098   2.796   4.071  0.2089  0.0204 -0.3762
 1242SOL    HW115185   1.091   2.814   3.977  0.8362  1.4914 -0.1411
 1242SOL    HW215186   1.010   2.759   4.085 -0.3202  2.1019  1.8596
 1243SOL     OW15187   4.127   1.704   6.274  0.1540  0.2830  0.0394
 1243SOL    HW115188   4.222   1.708   6.283  0.1844  1.4292 -0.8061
 1243SOL    HW215189   4.103   1.792   6.244 -0.2307 -0.3444 -1.5144
 1244SOL     OW15190   2.493   3.134   7.337 -0.1347 -0.3517  0.2867
 1244SOL    HW115191   2.420   3.091   7.292  0.3393  1.1716 -1.9342
 1244SOL    HW215192   2.555   3.086   7.283  1.4132  1.9216  0.0656
 1245SOL     OW15193   0.258   2.056  14.024  0.1347 -0.3267 -0.1848
 1245SOL    HW115194   0.203   2.122  14.065 -0.5445 -0.6955 -0.4991
 1245SOL    HW215195   0.318   2.118  13.983  0.2981 -0.7094 -0.5296
 1246SOL     OW15196   4.016   3.774   5.410 -0.0115  0.4027  0.0380
 1246SOL    HW115197   4.075   3.727   5.351  0.0203 -0.1031  0.4834
 1246SOL    HW215198   3.950   3.809   5.350  2.5931  1.2795 -2.3380
 1247SOL     OW15199   3.405   2.833   3.396 -0.7876  0.3585  0.2911
 1247SOL    HW115200   3.447   2.828   3.310  0.5907 -0.6784  1.0280
 1247SOL    HW215201   3.367   2.919   3.380 -1.2494 -0.2424 -1.8546
 1248SOL     OW15202   2.132   2.184   2.031  0.0760 -0.1955 -0.0441
 1248SOL    HW115203   2.155   2.102   1.987  1.8215 -0.1057  0.7005
 1248SOL    HW215204   2.174   2.175   2.117 -3.6953 -0.3949  1.7914
 1249SOL     OW15205   2.766   3.156   6.380  0.3381  0.0927 -0.6096
 1249SOL    HW115206   2.840   3.164   6.320  1.8365 -1.7265  1.0406
 1249SOL    HW215207   2.731   3.068   6.364 -0.2277 -0.4105  3.5433
 1250SOL     OW15208   3.027   3.758  10.965  0.1301  0.0260  0.1611
 1250SOL    HW115209   2.993   3.822  11.027 -1.6183 -0.4229 -0.3285
 1250SOL    HW215210   3.087   3.806  10.909 -0.4916  0.7684  0.1287
 1251SOL     OW15211   1.777   2.938  16.743 -0.0695 -0.3726 -0.0124
 1251SOL    HW115212   1.701   2.930  16.685  0.3446  0.1408 -0.6197
 1251SOL    HW215213   1.740   2.891  16.817 -1.4831 -3.2941 -2.5498
 1252SOL     OW15214   4.535   3.822   6.542  0.4005 -0.1257 -0.0104
 1252SOL    HW115215   4.508   3.905   6.504 -0.2285  0.4765  1.7882
 1252SOL    HW215216   4.455   3.770   6.534  0.0891  0.2920  0.3994
 1253SOL     OW15217   1.370   0.926  17.181 -0.0780 -0.3556 -0.4493
 1253SOL    HW115218   1.423   0.958  17.107  0.2296  0.2790  0.0461
 1253SOL    HW215219   1.290   0.910  17.132 -0.0898 -1.1022 -0.1788
 1254SOL     OW15220   1.072   0.745   4.945 -0.5528 -0.0349  0.3755
 1254SOL    HW115221   1.027   0.824   4.917  1.6009  0.3492 -2.0153
 1254SOL    HW215222   1.160   0.760   4.909 -0.6828  3.0788  1.3425
 1255SOL     OW15223   2.601   2.735   3.267  0.2955 -0.3837  0.0641
 1255SOL    HW115224   2.616   2.829   3.253  0.2325 -0.4093 -0.1736
 1255SOL    HW215225   2.652   2.700   3.194 -1.6275 -0.7406 -1.0958
 1256SOL     OW15226   0.566   4.485  15.331  0.8040 -0.4201 -0.4870
 1256SOL    HW115227   0.595   4.573  15.355 -0.5240  0.4783 -2.1739
 1256SOL    HW215228   0.583   4.485  15.237 -0.1689  0.0276 -0.6591
 1257SOL     OW15229   2.259   3.687   6.254 -0.0199 -0.4828  0.1142
 1257SOL    HW115230   2.178   3.735   6.274  0.3331  0.2890 -0.3369
 1257SOL    HW215231   2.226   3.602   6.224 -3.4526 -0.3112  3.3970
 1258SOL     OW15232   0.597   3.531   1.231  0.2298 -0.2124  0.0202
 1258SOL    HW115233   0.681   3.507   1.270  0.4315  0.7553  0.1732
 1258SOL    HW215234   0.545   3.451   1.233 -1.1909  0.7108 -0.0047
 1259SOL     OW15235   0.056   2.975   6.520 -0.4615  0.6073 -0.8943
 1259SOL    HW115236   0.033   2.985   6.612  1.9786 -0.9828 -0.1164
 1259SOL    HW215237   4.724   3.042   6.482  0.7000  1.5460 -0.9580
 1260SOL     OW15238   0.142   3.925   0.506  0.0930  0.2080 -0.0598
 1260SOL    HW115239   0.129   3.830   0.500 -0.6170  0.5151 -3.5837
 1260SOL    HW215240   0.217   3.942   0.563 -0.9692  0.3384  1.2701
 1261SOL     OW15241   0.366   2.206   4.201  0.3676  0.1813 -0.3336
 1261SOL    HW115242   0.413   2.137   4.248 -1.4855 -0.2865  0.8214
 1261SOL    HW215243   0.392   2.292   4.235 -0.9615  0.7081 -0.6518
 1262SOL     OW15244   2.347   1.702  12.882  0.1142  0.2402  0.5344
 1262SOL    HW115245   2.415   1.651  12.838  0.1638  0.4325  0.3838
 1262SOL    HW215246   2.378   1.704  12.972 -3.7136  1.8919  1.7990
 1263SOL     OW15247   1.803   2.567   2.109  0.5083  0.0268  0.0886
 1263SOL    HW115248   1.888   2.545   2.147  1.4843  1.8328 -1.0471
 1263SOL    HW215249   1.795   2.658   2.135  1.2610  0.0224  0.3662
 1264SOL     OW15250   0.253   2.803   9.084  0.5059  0.2148  0.2589
 1264SOL    HW115251   0.164   2.824   9.112  0.5214 -0.1858  0.6055
 1264SOL    HW215252   0.258   2.708   9.075 -0.9593  0.1707 -0.0197
 1265SOL     OW15253   1.962   0.644   7.278 -0.5236 -0.1816 -0.5869
 1265SOL    HW115254   1.898   0.715   7.289  1.6655  1.7619 -0.5745
 1265SOL    HW215255   1.934   0.587   7.349  0.0670 -2.9922 -2.5951
 1266SOL     OW15256   3.846   0.913  14.975 -0.2307 -0.2181 -0.1151
 1266SOL    HW115257   3.808   0.994  14.942  0.5047 -0.8618 -2.5948
 1266SOL    HW215258   3.819   0.847  14.911  0.8760  0.4278 -1.2438
 1267SOL     OW15259   2.856   2.112   3.558 -0.1195 -0.1879 -0.3419
 1267SOL    HW115260   2.864   2.041   3.621  0.0969 -0.9650 -1.2395
 1267SOL    HW215261   2.947   2.121   3.531 -0.6846  1.7096 -1.6271
 1268SOL     OW15262   1.322   1.307   9.833 -0.3166 -0.1119 -0.4094
 1268SOL    HW115263   1.333   1.212   9.841 -0.7093 -0.2097 -1.1169
 1268SOL    HW215264   1.389   1.349   9.888 -0.2675  0.7891 -1.1597
 1269SOL     OW15265   4.724   0.197  13.155 -0.6896 -0.0441  0.1628
 1269SOL    HW115266   0.004   0.165  13.065 -0.0313  2.0826 -0.5668
 1269SOL    HW215267   4.633   0.223  13.169 -1.1086 -2.3743  1.7627
 1270SOL     OW15268   0.285   4.236   5.162  0.4848  0.5362  0.1960
 1270SOL    HW115269   0.320   4.216   5.075 -0.0762 -1.3027  0.3878
 1270SOL    HW215270   0.192   4.217   5.149  0.3053  2.3935 -1.2023
 1271SOL     OW15271   3.227   3.993  12.446 -0.1722 -0.1754 -0.5839
 1271SOL    HW115272   3.171   3.948  12.509  1.9189 -1.3402  0.4638
 1271SOL    HW215273   3.291   3.930  12.412 -0.5850 -1.3862  0.8665
 1272SOL     OW15274   3.275   1.521   0.009 -0.5091  0.6661  0.8253
 1272SOL    HW115275   3.293   1.606   0.049  2.6215  0.8354 -0.8605
 1272SOL    HW215276   3.255   1.530  17.614 -0.3706 -3.8419  0.3688
 1273SOL     OW15277   0.502   4.372  15.560  0.2764 -0.0669  0.0256
 1273SOL    HW115278   0.440   4.431  15.603  0.8701  1.4409 -1.2387
 1273SOL    HW215279   0.516   4.407  15.472  0.9412  2.7572  1.2558
 1274SOL     OW15280   0.499   4.344   3.848  0.2298  0.3888  0.4420
 1274SOL    HW115281   0.593   4.350   3.866  0.6820 -1.1055 -1.4557
 1274SOL    HW215282   0.480   4.434   3.876 -1.2429 -0.1678  1.2282
 1275SOL     OW15283   1.590   3.394   3.400 -0.2068  0.0632  0.0277
 1275SOL    HW115284   1.521   3.329   3.418  0.3539 -0.2040  1.1818
 1275SOL    HW215285   1.589   3.400   3.305  0.1613  0.8408  0.0727
 1276SOL     OW15286   0.646   2.157   8.899  0.4779 -0.6987 -0.2939
 1276SOL    HW115287   0.589   2.175   8.974  1.9526  0.2695  0.5896
 1276SOL    HW215288   0.575   2.121   8.846  0.2346 -0.0498 -0.4147
 1277SOL     OW15289   0.597   1.833   2.641  0.3133 -0.0312 -0.2768
 1277SOL    HW115290   0.651   1.756   2.658 -2.2249 -2.0099 -1.1232
 1277SOL    HW215291   0.624   1.847   2.550  0.3450 -0.3092 -0.3105
 1278SOL     OW15292   2.473   2.482   2.705 -0.1505 -0.1012  0.4296
 1278SOL    HW115293   2.400   2.544   2.711 -0.1869  0.1041 -2.2137
 1278SOL    HW215294   2.438   2.424   2.772 -1.2838 -1.4044 -1.2810
 1279SOL     OW15295   1.444   1.498  10.756 -0.1257  0.3139 -0.2978
 1279SOL    HW115296   1.517   1.557  10.774  1.9169 -2.1070 -0.6708
 1279SOL    HW215297   1.383   1.558  10.713  0.0023  1.5274  1.2204
 1280SOL     OW15298   1.146   3.550   2.788  0.0807 -0.1006 -0.1991
 1280SOL    HW115299   1.055   3.559   2.818  0.4724  2.5321  0.1866
 1280SOL    HW215300   1.167   3.633   2.746 -2.2449  0.3145 -0.5576
 1281SOL     OW15301   4.379   0.420   4.036 -0.3683 -0.0213  0.0361
 1281SOL    HW115302   4.293   0.379   4.045 -1.3110  1.9000 -0.3303
 1281SOL    HW215303   4.356   0.508   4.008  0.4274 -0.2837 -1.4711
 1282SOL     OW15304   2.740   1.033   4.427  0.1135 -0.0201 -0.1596
 1282SOL    HW115305   2.689   0.958   4.459 -1.8310  0.4525 -2.1044
 1282SOL    HW215306   2.672   1.098   4.410 -0.5846 -1.1705 -1.7256
 1283SOL     OW15307   1.311   3.419   6.788  0.3796 -0.2207 -0.1948
 1283SOL    HW115308   1.394   3.369   6.791  0.1109 -0.6843 -0.4384
 1283SOL    HW215309   1.286   3.401   6.698 -2.4178 -0.0141  0.5446
 1284SOL     OW15310   0.882   0.160   2.641 -0.0144  0.1664  0.7957
 1284SOL    HW115311   0.955   0.220   2.625  0.8143 -0.5271  2.0008
 1284SOL    HW215312   0.918   0.078   2.606 -1.1340 -0.7126  1.7065
 1285SOL     OW15313   1.626   1.201  12.937 -0.6372  0.4085  0.2349
 1285SOL    HW115314   1.607   1.292  12.960  1.7482  1.0459 -0.3964
 1285SOL    HW215315   1.682   1.219  12.862 -1.5329 -1.4517 -0.8893
 1286SOL     OW15316   3.430   1.967   5.441 -0.2557 -0.2709  0.2247
 1286SOL    HW115317   3.375   1.899   5.479  0.1106 -1.7807 -1.9267
 1286SOL    HW215318   3.500   1.907   5.417 -0.4571 -0.6521  0.6021
 1287SOL     OW15319   1.514   4.291   8.184 -0.2800 -0.0976  0.2235
 1287SOL    HW115320   1.427   4.328   8.204  0.9673  2.4965  0.8220
 1287SOL    HW215321   1.569   4.327   8.254 -0.0139 -0.9250  0.4344
 1288SOL     OW15322   2.904   2.719   7.039 -0.1099 -0.1549 -0.2344
 1288SOL    HW115323   2.865   2.746   7.123  3.8191  1.7073  0.9759
 1288SOL    HW215324   2.884   2.796   6.987 -0.6273 -0.3829 -0.3712
 1289SOL     OW15325   4.699   2.528   7.748  0.2320 -1.0575  0.1603
 1289SOL    HW115326   0.061   2.553   7.715 -0.6391  0.9596 -0.5366
 1289SOL    HW215327   4.645   2.602   7.720  1.6684 -1.6156 -4.0243
 1290SOL     OW15328   0.283   3.388   6.495  0.4628 -0.4125 -0.0211
 1290SOL    HW115329   0.273   3.341   6.577  0.5286 -1.6286 -0.7010
 1290SOL    HW215330   0.193   3.420   6.490  0.7768  0.2072 -2.0486
 1291SOL     OW15331   3.672   2.604  17.302 -0.3529  0.1145 -0.2392
 1291SOL    HW115332   3.669   2.552  17.222 -1.7057  1.2489 -0.9252
 1291SOL    HW215333   3.764   2.597  17.328 -0.4486 -2.4136 -0.5855
 1292SOL     OW15334   3.206   3.651   7.408  0.1764  0.1304  0.0179
 1292SOL    HW115335   3.174   3.599   7.482  1.7930  1.6038  1.7402
 1292SOL    HW215336   3.182   3.741   7.431  3.6404  1.2691 -0.8284
 1293SOL     OW15337   3.540   0.763   6.294 -0.0304  0.3803 -0.0220
 1293SOL    HW115338   3.575   0.804   6.373  1.5494  0.4062 -0.7272
 1293SOL    HW215339   3.456   0.734   6.329  1.1332 -2.1349  0.6084
 1294SOL     OW15340   4.100   4.272   6.976  0.2413  0.5220 -0.1411
 1294SOL    HW115341   4.067   4.196   7.024  2.0459 -0.8815 -1.0924
 1294SOL    HW215342   4.195   4.264   6.982 -0.1496 -2.8749  1.4467
 1295SOL     OW15343   2.466   3.413   3.610 -0.2548 -0.1627  0.0504
 1295SOL    HW115344   2.518   3.465   3.550 -1.0517 -0.2356 -0.7063
 1295SOL    HW215345   2.379   3.454   3.607  0.3918  1.2586  1.3534
 1296SOL     OW15346   1.251   2.897   5.198 -0.0006  0.2032 -0.4317
 1296SOL    HW115347   1.253   2.991   5.220  2.5602 -0.1957  1.1841
 1296SOL    HW215348   1.163   2.892   5.161 -0.1069  1.7666 -0.3983
 1297SOL     OW15349   3.031   2.545   8.378  0.4127  0.3834  0.4496
 1297SOL    HW115350   3.125   2.533   8.395  0.4773  1.8395  1.1951
 1297SOL    HW215351   2.984   2.480   8.430 -1.8306  0.1984 -1.8428
 1298SOL     OW15352   1.246   0.276   3.946 -0.2386 -0.1850  0.4417
 1298SOL    HW115353   1.247   0.310   4.035  2.0078  0.7749  0.0613
 1298SOL    HW215354   1.302   0.345   3.910 -0.5921 -0.4428 -0.6098
 1299SOL     OW15355   3.980   0.553   4.976  0.0329  0.0817 -0.8553
 1299SOL    HW115356   4.071   0.581   4.982  0.2300 -0.6305 -0.5688
 1299SOL    HW215357   3.950   0.623   4.917  0.5888  1.4064  0.4175
 1300SOL     OW15358   4.304   1.620  12.648  0.3902 -0.3881  0.2854
 1300SOL    HW115359   4.304   1.693  12.586 -2.2212  0.2777  1.0853
 1300SOL    HW215360   4.241   1.555  12.616 -0.4904  1.3279 -1.4024
 1301SOL     OW15361   0.791   4.526   5.470  0.1301 -0.4029  0.1805
 1301SOL    HW115362   0.733   4.487   5.535  0.4550 -0.3447  0.5059
 1301SOL    HW215363   0.784   4.621   5.484  2.3766 -0.3450  0.9054
 1302SOL     OW15364   0.430   0.296   5.650 -0.2328 -0.0292 -0.4685
 1302SOL    HW115365   0.382   0.262   5.725 -0.9561  0.2475 -0.8090
 1302SOL    HW215366   0.384   0.254   5.577 -2.7057 -1.7452  2.1063
 1303SOL     OW15367   4.609   0.645   8.253  0.6509 -0.0335 -0.0244
 1303SOL    HW115368   4.592   0.623   8.161 -0.5772  2.3372 -0.3486
 1303SOL    HW215369   4.532   0.618   8.303  0.8080 -0.7211 -0.1430
 1304SOL     OW15370   1.471   1.123   4.270  0.3761 -0.8043 -0.1240
 1304SOL    HW115371   1.440   1.040   4.307  1.8614 -0.2484  2.3588
 1304SOL    HW215372   1.566   1.112   4.277  0.4777 -0.6174 -1.2114
 1305SOL     OW15373   2.281   4.187   9.831  0.3737  0.4410 -0.1009
 1305SOL    HW115374   2.274   4.123   9.760 -1.8199  1.9259 -1.2147
 1305SOL    HW215375   2.265   4.264   9.776  0.7529  0.3832 -0.2923
 1306SOL     OW15376   0.932   0.217   1.136 -0.5827  0.3756 -0.1358
 1306SOL    HW115377   0.976   0.141   1.097 -1.1047  0.2407 -0.4712
 1306SOL    HW215378   0.974   0.288   1.087  2.2300 -0.5506  0.9209
 1307SOL     OW15379   1.593   2.857   4.091 -0.2126 -0.1832 -0.3663
 1307SOL    HW115380   1.600   2.767   4.122  1.5640 -0.3586 -1.3440
 1307SOL    HW215381   1.656   2.899   4.149  1.2471  0.3124 -2.3276
 1308SOL     OW15382   0.971   1.553  12.069 -0.3394 -0.9565 -0.1581
 1308SOL    HW115383   1.015   1.521  11.990 -0.7537 -2.3204  0.1702
 1308SOL    HW215384   0.974   1.645  12.042  0.9974 -1.2011 -0.8252
 1309SOL     OW15385   4.569   4.306   6.930  0.6013 -0.0159  0.1063
 1309SOL    HW115386   4.622   4.342   7.002  0.2233 -0.2873  0.5247
 1309SOL    HW215387   4.487   4.355   6.927  1.2287  1.0484  0.3399
 1310SOL     OW15388   4.686   3.514   5.856 -0.8112  0.3919  0.0405
 1310SOL    HW115389   4.700   3.455   5.930  1.4813  0.9848  0.0931
 1310SOL    HW215390   0.011   3.594   5.876  1.6751 -1.1797  0.2611
 1311SOL     OW15391   3.780   1.170   7.041  0.2589 -0.6364 -0.0557
 1311SOL    HW115392   3.798   1.202   7.129  1.4326 -0.8551 -0.2046
 1311SOL    HW215393   3.805   1.078   7.053 -1.2161 -1.1522 -0.9774
 1312SOL     OW15394   3.381   0.797  10.089 -0.4127  0.2440 -0.3656
 1312SOL    HW115395   3.426   0.798  10.004 -1.5353 -0.2253 -0.9590
 1312SOL    HW215396   3.289   0.780  10.071 -0.3448 -0.5194 -0.0086
 1313SOL     OW15397   2.498   0.233  10.464 -0.3193  0.1545 -0.0574
 1313SOL    HW115398   2.415   0.281  10.467 -1.0795 -1.1303 -0.4120
 1313SOL    HW215399   2.488   0.195  10.551 -0.5350  1.0125  0.2974
 1314SOL     OW15400   0.952   0.145   6.906 -0.3037  0.1513 -0.0761
 1314SOL    HW115401   0.868   0.170   6.868 -0.2779 -1.0973 -0.9533
 1314SOL    HW215402   0.933   0.054   6.928 -1.3010 -0.1614 -2.2503
 1315SOL     OW15403   2.406   0.867  10.074  0.5663  0.1081 -0.0673
 1315SOL    HW115404   2.469   0.795  10.081  0.0199 -0.7219 -3.7466
 1315SOL    HW215405   2.427   0.902   9.988 -2.0905  0.8692 -0.4099
 1316SOL     OW15406   4.621   2.002   0.057 -0.0269 -0.4564  0.3185
 1316SOL    HW115407   4.613   1.922   0.005 -2.6915  1.2702 -1.9764
 1316SOL    HW215408   4.698   1.984   0.110 -0.3961 -1.2578  0.5895
 1317SOL     OW15409   1.179   4.299   5.248 -0.3174  0.3715 -0.6371
 1317SOL    HW115410   1.114   4.292   5.317 -0.9434 -0.6061 -1.3203
 1317SOL    HW215411   1.234   4.223   5.268  0.4415  0.7075 -1.4347
 1318SOL     OW15412   0.655   4.268   4.182 -0.3436  0.1543  0.3600
 1318SOL    HW115413   0.656   4.363   4.198  3.6682 -0.3730  3.2936
 1318SOL    HW215414   0.734   4.260   4.128 -1.1648  1.9971 -1.1032
 1319SOL     OW15415   1.913   3.988  12.213  0.4132 -0.1665 -0.2276
 1319SOL    HW115416   1.864   3.936  12.276  0.4951 -0.2163 -0.2051
 1319SOL    HW215417   1.981   4.022  12.271  0.3769  2.0270 -1.4705
 1320SOL     OW15418   1.672   1.935   8.823  0.4054 -0.1839 -0.2258
 1320SOL    HW115419   1.579   1.912   8.822  0.2296  0.5182  0.3132
 1320SOL    HW215420   1.694   1.908   8.912 -0.6639  2.7742  0.9074
 1321SOL     OW15421   1.061   0.916  10.277  0.1523  0.1591  0.0701
 1321SOL    HW115422   1.093   0.827  10.286 -1.4183 -0.2462  1.6652
 1321SOL    HW215423   1.098   0.943  10.193 -0.0042 -2.2487 -0.7569
 1322SOL     OW15424   4.158   2.749   5.655 -0.1473  0.2765  0.7009
 1322SOL    HW115425   4.068   2.761   5.685 -0.4879  2.9351 -1.4260
 1322SOL    HW215426   4.144   2.734   5.562 -2.8294 -0.0546  1.1661
 1323SOL     OW15427   1.284   0.396   1.305 -0.2909 -0.0092  0.5305
 1323SOL    HW115428   1.332   0.419   1.225  0.6149 -0.6949  0.8823
 1323SOL    HW215429   1.195   0.396   1.269 -0.6709 -1.8163  1.5147
 1324SOL     OW15430   0.473   1.464  15.988 -0.7785  0.4192 -0.0657
 1324SOL    HW115431   0.403   1.529  15.982 -1.1046  0.0599 -0.1695
 1324SOL    HW215432   0.550   1.513  16.020 -2.0089  3.9938 -2.5389
 1325SOL     OW15433   4.123   0.203  10.815  0.0569  0.1569  0.1632
 1325SOL    HW115434   4.162   0.207  10.728  2.2272 -0.2368  1.1112
 1325SOL    HW215435   4.039   0.160  10.802  0.9213 -1.4507 -0.0250
 1326SOL     OW15436   4.194   0.379   2.930 -0.5931  0.2132 -0.2863
 1326SOL    HW115437   4.198   0.347   2.839 -1.2747  0.2706 -0.3380
 1326SOL    HW215438   4.134   0.453   2.926 -1.8373 -0.8821 -2.2820
 1327SOL     OW15439   1.808   0.900   7.846 -0.0829 -0.0426 -0.2374
 1327SOL    HW115440   1.875   0.838   7.817 -0.0535  0.4585 -1.2098
 1327SOL    HW215441   1.762   0.914   7.764  0.1684 -0.8215 -0.5155
 1328SOL     OW15442   1.729   4.252   5.166  0.4475 -0.2757  0.1012
 1328SOL    HW115443   1.683   4.335   5.171 -1.0992 -1.1852  0.9077
 1328SOL    HW215444   1.811   4.285   5.204  0.6859  0.1612 -0.7875
 1329SOL     OW15445   1.994   2.273   9.987  0.7169  0.1160  0.2999
 1329SOL    HW115446   1.959   2.352   9.947  1.8486  0.6068  0.2877
 1329SOL    HW215447   2.085   2.277   9.960  0.9945  0.0916  1.2236
 1330SOL     OW15448   3.586   1.455   3.620 -0.0045 -0.1146 -0.3427
 1330SOL    HW115449   3.617   1.517   3.554 -2.0293  1.0773 -0.1392
 1330SOL    HW215450   3.573   1.516   3.692  0.3471 -0.9759  0.4561
 1331SOL     OW15451   2.387   1.034   8.282  0.6456  0.2444 -0.2909
 1331SOL    HW115452   2.345   1.110   8.321  1.0707  1.3722 -2.0659
 1331SOL    HW215453   2.359   0.968   8.346 -0.4667 -0.7974 -1.8701
 1332SOL     OW15454   1.602   1.002   2.165  0.6797  0.0469 -0.1570
 1332SOL    HW115455   1.617   0.909   2.149 -0.7242 -0.6335  2.4804
 1332SOL    HW215456   1.670   1.027   2.102 -1.1823 -1.1122 -2.6298
 1333SOL     OW15457   4.492   1.932   5.791  0.2672 -0.0670  0.3411
 1333SOL    HW115458   4.484   1.904   5.700  1.4093 -2.3779  0.9473
 1333SOL    HW215459   4.432   2.007   5.795  2.1735  1.5646 -1.3403
 1334SOL     OW15460   2.164   0.551   2.050 -0.3046 -0.2313 -0.0696
 1334SOL    HW115461   2.165   0.474   1.993  0.5818 -0.3192  0.0728
 1334SOL    HW215462   2.151   0.624   1.988  1.3670  1.3847  1.5045
 1335SOL     OW15463   2.457   3.397   2.392 -0.3139 -0.2367  0.0553
 1335SOL    HW115464   2.429   3.488   2.381 -0.0349 -0.2036 -0.3979
 1335SOL    HW215465   2.518   3.392   2.319 -2.0863  2.6471 -1.5894
 1336SOL     OW15466   0.126   2.259   0.640 -0.4807 -0.1699  0.3559
 1336SOL    HW115467   0.044   2.235   0.598 -1.1696  0.7005  1.2023
 1336SOL    HW215468   0.098   2.266   0.731 -0.3802  3.0189  0.1592
 1337SOL     OW15469   4.492   2.300  13.547 -0.4688  0.4686  0.2218
 1337SOL    HW115470   4.572   2.273  13.591 -1.1551  0.3169  1.3746
 1337SOL    HW215471   4.502   2.239  13.474  2.4620  1.6504 -0.3558
 1338SOL     OW15472   3.572   1.434   6.529 -0.2452  0.1013 -0.4894
 1338SOL    HW115473   3.661   1.432   6.495  0.3802  0.5695  1.1364
 1338SOL    HW215474   3.531   1.425   6.443 -2.1060  2.1686  0.1797
 1339SOL     OW15475   3.943   4.116   0.529 -0.2532  0.2720 -0.4885
 1339SOL    HW115476   3.902   4.192   0.486 -1.5525  0.6029  1.3613
 1339SOL    HW215477   3.931   4.139   0.621  0.0669  0.2670 -0.4476
 1340SOL     OW15478   1.708   0.261   4.186  0.4341 -0.0646  0.1659
 1340SOL    HW115479   1.649   0.209   4.239  1.2909 -0.4527  0.7474
 1340SOL    HW215480   1.756   0.312   4.252  0.6265 -0.9639  0.7073
 1341SOL     OW15481   3.517   0.860   6.564 -0.2718 -0.0494  0.5361
 1341SOL    HW115482   3.544   0.929   6.624 -0.7402 -0.8472  1.6742
 1341SOL    HW215483   3.483   0.796   6.627 -0.4588 -2.6572 -2.1837
 1342SOL     OW15484   3.106   1.896   0.383 -0.1893  0.8842  0.2166
 1342SOL    HW115485   3.102   1.810   0.426  2.2545  0.9993  0.6847
 1342SOL    HW215486   3.200   1.907   0.394 -0.7921  1.8500  4.5172
 1343SOL     OW15487   2.508   3.861  13.727 -0.1783 -0.1230  0.2793
 1343SOL    HW115488   2.439   3.904  13.777  0.0025  0.2857  0.1804
 1343SOL    HW215489   2.454   3.829  13.655  2.0524 -0.9071 -1.0450
 1344SOL     OW15490   3.879   4.400   8.335 -0.3256  0.7782  0.3075
 1344SOL    HW115491   3.944   4.470   8.331 -0.2110  0.5860 -1.6837
 1344SOL    HW215492   3.924   4.342   8.396  0.8321  0.4713 -0.8337
 1345SOL     OW15493   0.627   4.444   8.755 -0.4859  0.2634 -0.2749
 1345SOL    HW115494   0.639   4.460   8.848  2.8929 -2.2773 -0.2709
 1345SOL    HW215495   0.532   4.438   8.752 -0.3117 -1.5973 -2.5125
 1346SOL     OW15496   4.706   0.031  12.931 -0.2230  0.5109 -0.2866
 1346SOL    HW115497   0.024   4.673  12.906 -0.0821  0.4822  0.0505
 1346SOL    HW215498   4.625   4.717  12.965 -0.5567 -0.2851 -1.9772
 1347SOL     OW15499   1.588   1.582   3.979 -0.4976  0.7334 -0.1102
 1347SOL    HW115500   1.505   1.544   3.952 -1.5784  3.0562 -0.0710
 1347SOL    HW215501   1.566   1.586   4.072  2.6699  0.2886  0.6694
 1348SOL     OW15502   4.418   4.028  14.572 -0.6045 -0.5333  0.2154
 1348SOL    HW115503   4.413   4.005  14.665 -0.4847  0.5418  0.4790
 1348SOL    HW215504   4.346   4.089  14.561  1.1027  1.5159  0.5391
 1349SOL     OW15505   0.879   4.557  15.182  0.1458 -0.6720  0.6371
 1349SOL    HW115506   0.893   4.462  15.184  1.7174 -0.4358  0.3137
 1349SOL    HW215507   0.934   4.599  15.247  0.3191 -0.1095  0.1254
 1350SOL     OW15508   0.735   0.495   8.901  0.0742  0.0740 -0.2771
 1350SOL    HW115509   0.825   0.483   8.933 -0.6695  1.6387  2.4044
 1350SOL    HW215510   0.714   0.582   8.935  0.7125 -0.8027  2.3704
 1351SOL     OW15511   1.914   2.609  10.472  0.2221 -0.4378 -0.2450
 1351SOL    HW115512   1.828   2.649  10.479  1.0901  0.5802  4.6575
 1351SOL    HW215513   1.962   2.670  10.529  1.2084 -0.7027 -0.7893
 1352SOL     OW15514   2.356   3.301   7.674  0.3770 -0.0143 -0.2848
 1352SOL    HW115515   2.284   3.360   7.650  0.2838  0.6636  1.7280
 1352SOL    HW215516   2.390   3.341   7.753  1.4419  0.4289 -0.9686
 1353SOL     OW15517   1.513   0.394   7.374  0.4582 -0.5483 -0.2059
 1353SOL    HW115518   1.456   0.320   7.393  1.1718 -0.8055  0.9071
 1353SOL    HW215519   1.508   0.394   7.278 -0.4702  0.9346 -0.1654
 1354SOL     OW15520   1.603   4.288   6.776 -0.1990 -0.2778  0.2613
 1354SOL    HW115521   1.649   4.356   6.825  1.0511 -0.4397 -0.6744
 1354SOL    HW215522   1.517   4.297   6.816 -0.1481 -1.5948  0.6510
 1355SOL     OW15523   1.829   0.933   4.439 -0.4423  0.1505  0.1197
 1355SOL    HW115524   1.756   0.900   4.387  0.0486  0.8906 -1.0304
 1355SOL    HW215525   1.827   0.883   4.521 -1.9979 -1.5564 -0.9603
 1356SOL     OW15526   1.322   1.093   8.815  0.0512 -0.4037 -0.0808
 1356SOL    HW115527   1.285   1.174   8.850  0.9166 -0.6700  1.4237
 1356SOL    HW215528   1.241   1.060   8.774  0.0617  0.5218 -0.8300
 1357SOL     OW15529   0.981   0.454  15.021 -0.0701 -0.0759 -0.5021
 1357SOL    HW115530   0.946   0.388  15.081  0.3517  1.1855  1.1003
 1357SOL    HW215531   1.065   0.414  14.997  0.1989  0.0722  0.2140
 1358SOL     OW15532   1.862   0.245   1.715 -0.0991 -0.3501 -0.0536
 1358SOL    HW115533   1.810   0.198   1.650 -1.6344  0.5454  0.5297
 1358SOL    HW215534   1.802   0.239   1.789  0.6918 -0.8198  0.5521
 1359SOL     OW15535   0.547   2.022   6.328 -0.2556 -0.4525 -0.2930
 1359SOL    HW115536   0.604   1.985   6.395  1.7163 -0.3327 -1.8913
 1359SOL    HW215537   0.569   2.115   6.335 -0.7871 -0.2562 -1.2331
 1360SOL     OW15538   1.109   3.584   8.694 -0.7339  0.2177 -0.1591
 1360SOL    HW115539   1.192   3.591   8.741 -0.1109 -0.7955 -1.1148
 1360SOL    HW215540   1.101   3.664   8.641  1.3830  1.0009  0.7144
 1361SOL     OW15541   0.887   0.064  11.821 -0.4575 -0.1753 -0.2068
 1361SOL    HW115542   0.806   0.109  11.798  1.4594  3.2232 -0.2590
 1361SOL    HW215543   0.949   0.137  11.814 -0.1613 -0.2401  1.5524
 1362SOL     OW15544   4.675   3.103   5.964 -0.7842  0.0441  0.0710
 1362SOL    HW115545   4.664   3.025   6.019 -1.2575 -0.8388 -1.2783
 1362SOL    HW215546   4.585   3.123   5.938 -0.7002  1.0300  0.5195
 1363SOL     OW15547   1.371   2.327   4.531 -0.0289  0.3907 -0.4962
 1363SOL    HW115548   1.308   2.322   4.459 -0.4057  1.1166 -0.2154
 1363SOL    HW215549   1.437   2.389   4.501  0.1090 -0.8585 -2.8099
 1364SOL     OW15550   1.835   2.990   4.193 -0.0449 -0.5403 -0.1932
 1364SOL    HW115551   1.884   2.957   4.117 -0.5311 -1.6756 -0.0060
 1364SOL    HW215552   1.840   3.079   4.157  1.7956  0.2374  1.9992
 1365SOL     OW15553   0.280   1.876   4.615 -0.0946 -0.0536  0.7913
 1365SOL    HW115554   0.331   1.927   4.678  1.8551 -1.1380  0.0905
 1365SOL    HW215555   0.290   1.927   4.534  3.1999 -0.5965  0.8955
 1366SOL     OW15556   4.159   4.380   2.918  0.3062  0.0781 -0.0445
 1366SOL    HW115557   4.135   4.354   2.829  2.1089  0.9475 -0.8076
 1366SOL    HW215558   4.106   4.460   2.920  0.1511 -0.0261 -0.0106
 1367SOL     OW15559   2.634   4.468   1.225 -0.1743 -0.2246 -0.3982
 1367SOL    HW115560   2.696   4.526   1.271 -1.4049 -1.1445  2.4628
 1367SOL    HW215561   2.665   4.391   1.272 -0.3118  0.5254  0.9444
 1368SOL     OW15562   4.626   3.791   7.368 -0.1879  0.5749  0.1044
 1368SOL    HW115563   4.635   3.769   7.275 -1.6379 -0.5239  0.2284
 1368SOL    HW215564   4.572   3.718   7.397  1.0687  0.4063  2.0056
 1369SOL     OW15565   1.470   3.008   9.936 -0.6099  0.1443  0.1631
 1369SOL    HW115566   1.415   2.970   9.867 -1.5691  0.0386  0.9796
 1369SOL    HW215567   1.404   3.074   9.958 -0.5366 -0.5814  2.5337
 1370SOL     OW15568   3.052   1.873   5.580  0.1994 -0.4812 -0.0949
 1370SOL    HW115569   3.139   1.837   5.562 -0.2811 -0.8795 -1.5642
 1370SOL    HW215570   3.018   1.856   5.492  0.0526  0.4882 -0.2273
 1371SOL     OW15571   1.039   2.382   5.701 -0.1691 -0.1545  0.5191
 1371SOL    HW115572   1.078   2.450   5.646  0.8111  0.4315  1.9318
 1371SOL    HW215573   0.947   2.407   5.702 -0.4951 -1.3507  1.0782
 1372SOL     OW15574   1.514   3.997  16.594  0.4279  0.1017  0.3552
 1372SOL    HW115575   1.459   4.074  16.585 -0.6532 -0.8450 -1.2711
 1372SOL    HW215576   1.563   4.006  16.512  0.1112 -2.1442 -0.0784
 1373SOL     OW15577   3.216   0.100  15.781  0.2427  0.2501 -0.1216
 1373SOL    HW115578   3.162   0.134  15.709 -0.9935  0.0903  0.7250
 1373SOL    HW215579   3.304   0.105  15.744  0.8721 -0.2296  1.3133
 1374SOL     OW15580   2.587   3.115   5.154 -0.3010 -0.1037  0.3723
 1374SOL    HW115581   2.505   3.085   5.115 -0.1290  0.1917 -0.2185
 1374SOL    HW215582   2.570   3.089   5.245 -0.1584 -0.1163  0.3951
 1375SOL     OW15583   0.406   0.757   2.234 -0.2116  0.2014  0.3927
 1375SOL    HW115584   0.319   0.797   2.241  0.1590  0.8264  1.4447
 1375SOL    HW215585   0.399   0.684   2.296  3.2624  0.0813  0.6114
 1376SOL     OW15586   0.760   1.411   6.979  0.0514  0.1453 -0.1865
 1376SOL    HW115587   0.707   1.464   7.039 -0.4157 -0.5987  0.0625
 1376SOL    HW215588   0.847   1.451   6.981  0.1606 -0.1465  1.2199
 1377SOL     OW15589   0.206   2.388   3.156 -0.0953  0.5371 -0.0708
 1377SOL    HW115590   0.249   2.322   3.102 -1.2701  0.7131 -1.1965
 1377SOL    HW215591   0.124   2.392   3.107  0.3723 -2.1950 -1.0656
 1378SOL     OW15592   1.454   4.213   7.857 -0.3537  0.0357  0.2991
 1378SOL    HW115593   1.360   4.213   7.874 -0.9617  2.1462 -3.0082
 1378SOL    HW215594   1.487   4.206   7.947  1.8211  0.1433 -0.4926
 1379SOL     OW15595   3.311   3.394  14.522  0.2739  0.0208 -0.1734
 1379SOL    HW115596   3.223   3.429  14.511  0.7495  1.3453  0.2719
 1379SOL    HW215597   3.292   3.300  14.529  0.2159  0.1678  1.4176
 1380SOL     OW15598   3.604   4.220  15.733  0.1844  0.5436  0.1604
 1380SOL    HW115599   3.594   4.289  15.799 -0.8915  0.2342  0.3189
 1380SOL    HW215600   3.524   4.169  15.745 -1.8493  3.5966 -0.3131
 1381SOL     OW15601   1.229   0.062  11.197  0.9485  0.1338  0.3876
 1381SOL    HW115602   1.180   0.024  11.124  0.7006  4.0091 -1.4614
 1381SOL    HW215603   1.154   0.058  11.256 -0.5013  1.8243 -1.3309
 1382SOL     OW15604   2.989   0.026  15.247 -0.7002 -0.4291  0.1439
 1382SOL    HW115605   3.016   4.706  15.328 -0.2143  0.7605  0.6349
 1382SOL    HW215606   3.002   4.669  15.198 -0.7562 -0.4107  0.0991
 1383SOL     OW15607   1.255   0.137  14.730  0.2436  0.7681  0.2962
 1383SOL    HW115608   1.332   0.082  14.712 -0.2298  0.2531 -0.1686
 1383SOL    HW215609   1.296   0.220  14.753  3.1135 -0.8896  1.1919
 1384SOL     OW15610   3.025   4.710   4.616  0.2048 -0.0892  0.0297
 1384SOL    HW115611   3.008   4.616   4.627  1.4564 -0.0026  2.6804
 1384SOL    HW215612   3.029   4.722   4.711  2.5406  1.5170 -0.2818
 1385SOL     OW15613   2.973   2.128   4.445  0.3556 -0.1907 -0.0232
 1385SOL    HW115614   2.999   2.093   4.360 -2.8454 -2.1297 -0.1934
 1385SOL    HW215615   3.050   2.106   4.498 -2.1655 -1.7202  2.9996
 1386SOL     OW15616   2.456   0.184   3.825  0.0590  0.0937  0.0401
 1386SOL    HW115617   2.506   0.119   3.874  3.8412  1.9929 -1.3255
 1386SOL    HW215618   2.505   0.178   3.742  0.1422  1.3238  0.0064
 1387SOL     OW15619   3.372   1.497   7.748  0.7735 -0.6027 -0.1129
 1387SOL    HW115620   3.339   1.415   7.711  1.3469 -0.1374 -1.6507
 1387SOL    HW215621   3.354   1.547   7.669 -0.3910 -0.3194  0.3316
 1388SOL     OW15622   2.789   4.054  15.896 -0.6686 -0.1098 -0.5070
 1388SOL    HW115623   2.843   4.008  15.832  0.9780  0.8123  0.2416
 1388SOL    HW215624   2.820   4.010  15.975 -2.8742 -1.5519 -0.4408
 1389SOL     OW15625   0.131   0.301   8.349 -0.1306  0.1161  0.2873
 1389SOL    HW115626   0.168   0.309   8.261 -0.3786 -0.8999  0.0898
 1389SOL    HW215627   0.066   0.231   8.345 -1.4517  1.4829 -2.0905
 1390SOL     OW15628   0.199   1.227  10.539 -0.0946  0.1313  0.1625
 1390SOL    HW115629   0.192   1.255  10.448 -0.8197 -1.5853 -0.3110
 1390SOL    HW215630   0.160   1.299  10.589  0.3660 -0.4627  1.3725
 1391SOL     OW15631   1.734   2.882  13.865  0.0691 -0.2262  0.0082
 1391SOL    HW115632   1.745   2.796  13.906  0.2847 -0.0364  0.3476
 1391SOL    HW215633   1.657   2.858  13.814 -0.0460  0.3532 -0.0918
 1392SOL     OW15634   3.921   4.116   1.319 -0.8768  0.4443  0.2242
 1392SOL    HW115635   3.856   4.088   1.255  0.8790 -1.4754 -0.6894
 1392SOL    HW215636   3.939   4.050   1.386 -2.1097 -1.0143 -0.8854
 1393SOL     OW15637   2.441   3.824   3.319  0.1947 -0.2297 -0.1831
 1393SOL    HW115638   2.458   3.851   3.229 -0.9391  1.1637  0.0180
 1393SOL    HW215639   2.378   3.892   3.342 -1.3097 -0.9584 -2.0823
 1394SOL     OW15640   3.517   3.430  10.743 -0.3908 -0.0521 -0.3583
 1394SOL    HW115641   3.461   3.507  10.749 -1.2891 -0.6434 -1.1836
 1394SOL    HW215642   3.490   3.384  10.823 -0.5046 -0.5357 -0.6752
 1395SOL     OW15643   0.797   0.617  12.865 -0.2216 -1.1515  0.2337
 1395SOL    HW115644   0.756   0.692  12.908  3.2307 -0.1871  1.7875
 1395SOL    HW215645   0.794   0.555  12.937 -1.0744 -1.7694 -0.3387
 1396SOL     OW15646   2.217   4.657   3.731  0.0330  0.7168 -0.5723
 1396SOL    HW115647   2.216   4.597   3.806 -0.7294  0.6961 -0.6003
 1396SOL    HW215648   2.303   4.653   3.689 -0.4375  2.7236 -1.7202
 1397SOL     OW15649   2.683   0.637  17.170 -0.0119  0.2241 -0.4275
 1397SOL    HW115650   2.687   0.602  17.081  2.2655 -1.0041  0.1706
 1397SOL    HW215651   2.773   0.658  17.192  0.3437 -0.3538 -1.3598
 1398SOL     OW15652   0.126   1.323   0.456 -0.7518  0.5337 -0.1562
 1398SOL    HW115653   0.136   1.285   0.368  1.5450 -0.5117  0.5628
 1398SOL    HW215654   0.031   1.318   0.464 -1.0436  4.2887 -1.3064
 1399SOL     OW15655   4.137   4.088  15.435 -0.0155 -0.0741 -0.2890
 1399SOL    HW115656   4.063   4.149  15.439 -0.9175 -1.2738  1.1636
 1399SOL    HW215657   4.207   4.152  15.422 -1.3908  1.6192  0.6483
 1400SOL     OW15658   2.819   0.614   1.561 -0.1877 -0.2122  0.5953
 1400SOL    HW115659   2.840   0.700   1.524 -1.9091 -1.0074 -2.2426
 1400SOL    HW215660   2.875   0.564   1.502  1.0767  0.2033  1.4444
 1401SOL     OW15661   4.052   1.568   2.572  0.2323 -0.1869 -0.5443
 1401SOL    HW115662   3.988   1.567   2.501  0.0531 -0.2572 -0.3836
 1401SOL    HW215663   4.030   1.644   2.626 -2.0512 -1.4961  0.3777
 1402SOL     OW15664   0.535   4.089   4.840 -0.4381  0.3402 -0.2684
 1402SOL    HW115665   0.568   4.018   4.785 -0.3298  0.8529 -0.8661
 1402SOL    HW215666   0.611   4.113   4.893  0.5788 -1.9144 -0.6766
 1403SOL     OW15667   4.027   2.933  12.621 -0.1482 -0.7470 -0.0059
 1403SOL    HW115668   3.996   3.001  12.681 -0.5733 -1.7834  0.9579
 1403SOL    HW215669   4.036   2.968  12.533 -0.4836 -1.3323 -0.2768
 1404SOL     OW15670   1.830   1.796  11.089  0.1890 -0.1464 -0.1524
 1404SOL    HW115671   1.792   1.879  11.119 -0.9109 -0.5349 -0.4646
 1404SOL    HW215672   1.898   1.828  11.030  1.5560  0.2319  1.6336
 1405SOL     OW15673   0.008   4.043   8.529 -0.1725  0.4483 -0.0250
 1405SOL    HW115674   0.097   4.069   8.553  0.0859  0.1456 -0.6507
 1405SOL    HW215675   4.696   4.127   8.501 -0.3537  0.5906  0.6322
 1406SOL     OW15676   3.099   2.980   3.757 -0.4256 -0.4914 -0.4998
 1406SOL    HW115677   3.071   2.889   3.752  1.4422 -0.7987 -5.0617
 1406SOL    HW215678   3.191   2.969   3.782 -0.6001 -0.0550  0.3288
 1407SOL     OW15679   2.761   3.632   9.105 -0.1504 -0.3924 -0.1032
 1407SOL    HW115680   2.850   3.601   9.092  0.4679  1.4264 -0.1904
 1407SOL    HW215681   2.744   3.680   9.024  0.7071 -1.3063 -0.8226
 1408SOL     OW15682   2.444   1.610   4.586 -0.1049  0.1702  0.2257
 1408SOL    HW115683   2.515   1.546   4.577 -1.2282 -1.0592  0.1056
 1408SOL    HW215684   2.489   1.682   4.631 -1.1975  1.2052 -0.3367
 1409SOL     OW15685   1.332   2.036  13.329  0.1220 -0.1240  0.1009
 1409SOL    HW115686   1.242   2.003  13.333 -0.0047  0.1514 -0.7197
 1409SOL    HW215687   1.364   2.005  13.245 -1.5804  0.1647 -0.6522
 1410SOL     OW15688   4.303   3.718   2.520 -0.2627  0.0712 -0.4658
 1410SOL    HW115689   4.311   3.624   2.534 -0.3761  0.2245  0.6490
 1410SOL    HW215690   4.392   3.745   2.542 -0.9754  0.7094  1.5974
 1411SOL     OW15691   2.654   3.378   3.150  0.6123 -0.0059  0.4217
 1411SOL    HW115692   2.593   3.422   3.210 -1.2584 -0.6497 -0.9886
 1411SOL    HW215693   2.637   3.424   3.068  0.4123  1.7325  1.4327
 1412SOL     OW15694   3.615   3.602   4.369  0.2121 -0.1802 -1.2869
 1412SOL    HW115695   3.615   3.689   4.408 -0.2165  0.0176 -1.7345
 1412SOL    HW215696   3.553   3.560   4.428  0.2429  0.2346 -0.9618
 1413SOL     OW15697   1.248   4.054   7.422  0.1256  0.0698  0.5743
 1413SOL    HW115698   1.263   3.979   7.480  2.3622 -1.0033 -1.3793
 1413SOL    HW215699   1.294   4.128   7.459 -1.3297  1.0130  0.5047
 1414SOL     OW15700   2.804   4.038   0.744  0.6089 -0.1313  0.0640
 1414SOL    HW115701   2.769   3.997   0.665 -1.0625  0.1705  0.6558
 1414SOL    HW215702   2.897   4.046   0.724  0.1801  0.5229 -1.7128
 1415SOL     OW15703   3.191   4.247  16.269 -0.2232 -0.0398 -0.3963
 1415SOL    HW115704   3.189   4.343  16.265 -0.6064 -0.0445 -0.4040
 1415SOL    HW215705   3.233   4.235  16.184 -0.5596  0.6523 -0.6689
 1416SOL     OW15706   2.532   0.497   6.229 -0.2820  0.3695 -0.7752
 1416SOL    HW115707   2.550   0.427   6.166  0.6496 -1.2534  1.3227
 1416SOL    HW215708   2.591   0.478   6.301  2.7444 -0.3660 -3.4397
 1417SOL     OW15709   0.699   2.092   6.887  0.4844 -0.2375  0.2513
 1417SOL    HW115710   0.776   2.070   6.835  1.2881 -0.6319  1.6061
 1417SOL    HW215711   0.723   2.084   6.979 -3.1677  3.0199  1.4994
 1418SOL     OW15712   0.567   0.787  10.920 -0.3078 -0.4775 -0.1788
 1418SOL    HW115713   0.610   0.872  10.906  0.6964 -1.0233 -0.4159
 1418SOL    HW215714   0.623   0.746  10.987 -0.9553 -0.8349  0.1403
 1419SOL     OW15715   1.822   4.649  10.991 -0.2055 -0.1963  0.0898
 1419SOL    HW115716   1.745   4.706  10.981 -0.7540 -1.1975 -1.3689
 1419SOL    HW215717   1.769   4.574  11.019 -1.1754  0.4406 -0.0353
 1420SOL     OW15718   0.851   0.201  17.602 -0.4269  0.2219 -0.3521
 1420SOL    HW115719   0.922   0.156  17.649 -0.8291  1.4958  1.5133
 1420SOL    HW215720   0.772   0.156  17.633  0.3650 -0.0834  1.2484
 1421SOL     OW15721   2.837   2.339   9.403 -0.0959  0.0109 -0.0484
 1421SOL    HW115722   2.794   2.423   9.389 -0.9611 -0.1241  1.7097
 1421SOL    HW215723   2.926   2.362   9.428 -0.0246  0.8366 -1.0528
 1422SOL     OW15724   2.082   0.531   3.555 -0.0159 -0.1598 -0.5042
 1422SOL    HW115725   2.099   0.567   3.642  2.1143 -0.8023 -0.6771
 1422SOL    HW215726   2.161   0.548   3.504 -0.0740  1.7312  0.0088
 1423SOL     OW15727   2.712   2.671   4.307 -0.0605  0.6305 -0.4758
 1423SOL    HW115728   2.678   2.707   4.389 -2.2604 -0.3305 -0.9601
 1423SOL    HW215729   2.802   2.698   4.325  0.3963  0.3947 -2.4829
 1424SOL     OW15730   4.562   3.860   8.689  0.7700 -0.1699  0.5746
 1424SOL    HW115731   4.561   3.907   8.772 -1.4802 -0.1198  0.5079
 1424SOL    HW215732   4.622   3.918   8.641  0.3085 -0.4576 -0.3465
 1425SOL     OW15733   3.862   4.233   1.637  0.2038  0.2630  0.7635
 1425SOL    HW115734   3.863   4.137   1.633  1.3277  0.3045  0.1229
 1425SOL    HW215735   3.819   4.258   1.555 -2.1065 -0.5741  1.7272
 1426SOL     OW15736   1.720   0.876   4.047 -0.2497 -0.4558 -0.3131
 1426SOL    HW115737   1.705   0.854   4.138  1.4238  0.2658  0.1378
 1426SOL    HW215738   1.749   0.967   4.057 -0.6558 -0.4131  0.4549
 1427SOL     OW15739   2.436   1.193   4.201  0.4995 -0.0164 -0.6275
 1427SOL    HW115740   2.367   1.128   4.189 -0.6356  0.4026  3.6883
 1427SOL    HW215741   2.393   1.257   4.258  1.8735  1.6784 -1.4501
 1428SOL     OW15742   0.096   2.029  11.380 -0.5110  0.6011  0.2204
 1428SOL    HW115743   0.057   2.112  11.404 -3.0565 -0.9485  1.4413
 1428SOL    HW215744   0.023   1.967  11.385 -0.8105  0.8681 -0.8582
 1429SOL     OW15745   2.327   3.681   5.232 -0.0334 -0.6297  0.1422
 1429SOL    HW115746   2.400   3.732   5.266  0.0135 -0.3107 -0.4345
 1429SOL    HW215747   2.260   3.688   5.300 -0.4531  0.8393 -0.4208
 1430SOL     OW15748   2.051   1.443   9.405 -0.5309 -0.0782  0.1261
 1430SOL    HW115749   2.012   1.526   9.377 -1.3010 -0.9431 -1.3829
 1430SOL    HW215750   2.140   1.438   9.371  0.1017 -1.8326  1.9955
 1431SOL     OW15751   4.664   2.329   3.049  0.2030  0.5697 -0.0219
 1431SOL    HW115752   4.640   2.265   3.116  1.9948 -0.5463 -0.4482
 1431SOL    HW215753   4.599   2.308   2.981  1.3491  0.3049 -1.0270
 1432SOL     OW15754   1.730   1.514   7.229  0.3883  0.2517 -0.1109
 1432SOL    HW115755   1.746   1.472   7.313 -1.0588  1.8468  0.9475
 1432SOL    HW215756   1.821   1.527   7.199  0.1647  3.1556  0.4495
 1433SOL     OW15757   2.186   2.742  10.007 -0.0839  0.1868 -0.0121
 1433SOL    HW115758   2.187   2.657   9.963 -2.9343 -0.1554  0.5894
 1433SOL    HW215759   2.092   2.756  10.023 -0.8386 -3.5113 -1.2248
 1434SOL     OW15760   1.572   2.899  15.695 -0.4186 -0.1807 -0.3481
 1434SOL    HW115761   1.637   2.892  15.625 -2.6527 -0.2121 -2.4209
 1434SOL    HW215762   1.499   2.867  15.643 -1.2105 -0.4403  0.9071
 1435SOL     OW15763   2.251   3.814  10.906  0.5774  0.7572  0.1554
 1435SOL    HW115764   2.329   3.822  10.961  0.4776 -2.6268  0.7776
 1435SOL    HW215765   2.285   3.826  10.817  0.3496  0.6776  0.0565
 1436SOL     OW15766   3.076   4.043  12.887 -0.6158 -0.5244 -0.1646
 1436SOL    HW115767   3.162   4.073  12.859 -1.5986  1.5357 -1.0070
 1436SOL    HW215768   3.013   4.093  12.835 -3.2668 -1.8670  1.7633
 1437SOL     OW15769   4.711   3.086   2.561 -0.3360 -0.0536  0.0549
 1437SOL    HW115770   4.691   3.176   2.588 -1.1000  0.7756 -3.1965
 1437SOL    HW215771   4.621   3.067   2.535 -0.3872 -0.9453  0.9031
 1438SOL     OW15772   1.215   4.675   9.268 -0.5032 -0.1322  0.1654
 1438SOL    HW115773   1.195   0.043   9.283 -0.0322  0.0829 -0.5687
 1438SOL    HW215774   1.202   4.631   9.352 -1.0875  0.0700  0.1816
 1439SOL     OW15775   0.006   3.695   5.242 -0.0475  0.1237  0.0560
 1439SOL    HW115776   0.047   3.609   5.242 -0.8156 -0.2466 -0.2973
 1439SOL    HW215777   4.674   3.690   5.165 -0.3330 -2.8254  0.4499
 1440SOL     OW15778   4.003   3.390   0.379 -0.2213  0.6881 -0.3090
 1440SOL    HW115779   3.971   3.448   0.309 -0.2110 -0.4282 -1.2484
 1440SOL    HW215780   4.096   3.413   0.383 -0.4813  1.9305 -1.3360
 1441SOL     OW15781   1.672   3.959  14.969 -0.0048 -0.3432  0.0419
 1441SOL    HW115782   1.705   3.870  14.982  0.4212  0.1647  2.3910
 1441SOL    HW215783   1.741   4.018  14.999  1.8454 -2.7795  0.6321
 1442SOL     OW15784   1.245   1.445   3.105  0.3655 -0.1546  0.3115
 1442SOL    HW115785   1.320   1.489   3.064  0.1249 -0.3163 -0.2948
 1442SOL    HW215786   1.272   1.354   3.106  0.4484 -0.1387 -0.6821
 1443SOL     OW15787   3.307   4.001   2.470 -0.5057 -0.4252 -0.4293
 1443SOL    HW115788   3.211   3.997   2.475 -0.4207 -0.0095  1.4246
 1443SOL    HW215789   3.326   3.973   2.381 -1.3271  0.7151 -0.9728
 1444SOL     OW15790   1.612   4.618  10.517 -0.3800 -0.1072  0.0331
 1444SOL    HW115791   1.591   4.562  10.442  1.4492  2.0233 -2.0836
 1444SOL    HW215792   1.524   4.656  10.523  0.3906  1.5345  0.9304
 1445SOL     OW15793   0.647   2.191   7.410  0.2753 -0.3654 -0.6442
 1445SOL    HW115794   0.628   2.264   7.468 -0.7058 -1.0061 -0.1538
 1445SOL    HW215795   0.585   2.125   7.440  0.3620  0.5469  1.5023
 1446SOL     OW15796   3.132   2.327  13.476  0.3713  0.2877  0.0969
 1446SOL    HW115797   3.078   2.399  13.443 -0.7401 -1.7491 -2.4240
 1446SOL    HW215798   3.123   2.250  13.420 -0.7716 -1.1505  2.2669
 1447SOL     OW15799   2.004   0.885   5.143  0.3169 -0.1655 -0.2956
 1447SOL    HW115800   1.983   0.799   5.180 -2.9248  0.6600 -0.1737
 1447SOL    HW215801   2.027   0.855   5.056  0.5981  0.8601 -0.5796
 1448SOL     OW15802   0.850   2.353  11.112 -0.0564 -0.1399  0.7945
 1448SOL    HW115803   0.790   2.281  11.098  0.8644 -0.6630 -0.4919
 1448SOL    HW215804   0.848   2.399  11.028 -0.7680  2.1293  2.0467
 1449SOL     OW15805   2.238   2.265   9.480  0.5020  0.3312  0.0242
 1449SOL    HW115806   2.153   2.257   9.525  0.7743  0.3009  0.5364
 1449SOL    HW215807   2.284   2.186   9.508  0.5866  0.1322 -0.6770
 1450SOL     OW15808   3.701   0.554   2.100  0.4424  0.7568 -0.1345
 1450SOL    HW115809   3.763   0.505   2.154  2.6657  1.8103 -1.6813
 1450SOL    HW215810   3.676   0.493   2.030 -1.3662 -1.0325  2.0793
 1451SOL     OW15811   4.015   2.602   1.217  0.5363  0.2303  1.0527
 1451SOL    HW115812   3.970   2.687   1.221  0.8140  0.4173  0.2777
 1451SOL    HW215813   4.051   2.595   1.305 -0.2179 -0.3614  1.3098
 1452SOL     OW15814   3.576   0.428   8.145  0.1185 -0.3629 -0.3943
 1452SOL    HW115815   3.583   0.515   8.105 -1.0575 -0.5894 -1.0724
 1452SOL    HW215816   3.662   0.418   8.186 -0.4966  0.6707  1.1580
 1453SOL     OW15817   2.867   2.741   3.733  0.1223 -0.4377  0.1691
 1453SOL    HW115818   2.842   2.790   3.655 -0.1474 -1.6394 -0.4904
 1453SOL    HW215819   2.789   2.688   3.751 -0.9849  1.8437  2.0933
 1454SOL     OW15820   4.451   1.294   9.403  0.1575 -0.6403 -0.2057
 1454SOL    HW115821   4.432   1.308   9.310  0.2720 -0.6176 -0.2254
 1454SOL    HW215822   4.512   1.365   9.422 -0.7665  0.2888 -0.7426
 1455SOL     OW15823   3.460   0.411   2.902  0.1148 -0.2834  0.2060
 1455SOL    HW115824   3.412   0.494   2.900  2.2658  1.0142  1.8058
 1455SOL    HW215825   3.471   0.396   2.996  1.3757 -1.8151 -0.1842
 1456SOL     OW15826   1.327   4.159   3.794 -0.0927 -0.8594 -0.1150
 1456SOL    HW115827   1.239   4.152   3.757 -1.1061 -0.2231  2.1803
 1456SOL    HW215828   1.326   4.241   3.844  2.7203 -1.5933  1.1239
 1457SOL     OW15829   2.505   0.037   5.295  0.3015 -0.0054  0.2329
 1457SOL    HW115830   2.578   0.084   5.255 -1.1395  2.0765  0.0408
 1457SOL    HW215831   2.533   0.062   5.383 -0.1064  2.9308 -0.4543
 1458SOL     OW15832   4.325   2.284   8.447 -0.2017  0.4268  0.7018
 1458SOL    HW115833   4.303   2.310   8.536 -1.8573  1.5889 -0.0466
 1458SOL    HW215834   4.396   2.220   8.452 -0.9524 -0.6877 -2.7167
 1459SOL     OW15835   1.984   2.284   2.855 -0.0685  0.5977 -0.1588
 1459SOL    HW115836   1.905   2.302   2.906 -0.5151  0.4192 -0.7790
 1459SOL    HW215837   1.954   2.285   2.764  0.4299  0.6119 -0.3200
 1460SOL     OW15838   4.677   1.803  15.228 -0.1936 -0.2711 -0.0903
 1460SOL    HW115839   4.624   1.743  15.177  0.2173  0.6481 -1.5807
 1460SOL    HW215840   0.014   1.839  15.163  1.5142 -3.0084 -0.0048
 1461SOL     OW15841   3.643   3.103  15.600 -0.6450  0.5477  0.1341
 1461SOL    HW115842   3.711   3.141  15.656  0.1754  1.1513 -1.2759
 1461SOL    HW215843   3.686   3.023  15.571  0.6088  1.1881  0.2190
 1462SOL     OW15844   3.264   0.720   2.022  0.4079  0.3010 -0.7521
 1462SOL    HW115845   3.193   0.700   1.961 -1.2133  0.4685  1.0537
 1462SOL    HW215846   3.343   0.674   1.996  0.5631 -0.2737  0.7097
 1463SOL     OW15847   3.414   3.504  15.976 -0.5373  0.5123 -0.7696
 1463SOL    HW115848   3.491   3.465  15.935 -0.4027 -0.5033  0.4337
 1463SOL    HW215849   3.469   3.552  16.037  0.5463  0.1443 -1.4618
 1464SOL     OW15850   4.529   0.810   7.822  0.4324 -0.4145 -0.2712
 1464SOL    HW115851   4.617   0.797   7.856  1.1198 -0.9146 -2.1845
 1464SOL    HW215852   4.548   0.785   7.731 -1.9071  0.8763 -1.1175
 1465SOL     OW15853   1.398   4.298  14.197  0.0257 -0.0885  0.3707
 1465SOL    HW115854   1.455   4.233  14.238  2.0726  2.0397  0.9165
 1465SOL    HW215855   1.380   4.350  14.276 -0.4330  1.5185 -0.7964
 1466SOL     OW15856   3.052   1.763   6.237  0.6475  0.7037 -0.7631
 1466SOL    HW115857   3.006   1.689   6.277  1.5598  1.0885  1.0203
 1466SOL    HW215858   3.027   1.829   6.303 -0.2851 -0.9383  0.5147
 1467SOL     OW15859   0.479   0.725   3.726  0.1893  0.4559 -0.3497
 1467SOL    HW115860   0.416   0.790   3.695  0.8960  0.6890 -1.2910
 1467SOL    HW215861   0.542   0.785   3.764  1.1415 -0.5322 -0.3667
 1468SOL     OW15862   2.941   2.194   5.252 -0.3740  0.0121 -0.7135
 1468SOL    HW115863   3.011   2.135   5.277 -0.4156 -0.6140 -2.1011
 1468SOL    HW215864   2.890   2.141   5.191 -0.3420 -0.7883 -0.0417
 1469SOL     OW15865   2.179   1.523   1.545  0.5551 -0.3551 -0.0297
 1469SOL    HW115866   2.271   1.535   1.571 -0.6073 -1.2429  4.5724
 1469SOL    HW215867   2.155   1.469   1.620  1.4647 -0.2708  0.3334
 1470SOL     OW15868   0.474   3.887   4.076 -0.0080  0.2982 -0.1735
 1470SOL    HW115869   0.500   3.795   4.066  0.3757  0.3565  0.2667
 1470SOL    HW215870   0.518   3.912   3.996 -1.8474  1.5616 -0.7975
 1471SOL     OW15871   3.517   4.163   3.363  0.0545 -0.1536 -0.4453
 1471SOL    HW115872   3.480   4.104   3.428  1.0126  0.1823  0.4046
 1471SOL    HW215873   3.438   4.211   3.339  0.0990  1.8426  3.3872
 1472SOL     OW15874   1.243   2.686   6.018  0.1971 -0.0836  0.4854
 1472SOL    HW115875   1.249   2.663   5.926  1.4543  0.1936  0.4971
 1472SOL    HW215876   1.172   2.626   6.039  0.5700 -1.1545 -1.3195
 1473SOL     OW15877   3.224   0.457   2.164  0.0971  0.0441 -0.3098
 1473SOL    HW115878   3.250   0.549   2.162 -1.8708  0.6300  1.2237
 1473SOL    HW215879   3.298   0.407   2.130  1.8628  3.1326 -0.9931
 1474SOL     OW15880   1.607   2.707   0.004 -0.2993  0.4412  0.3186
 1474SOL    HW115881   1.582   2.615  17.693  2.1079 -0.2168  0.2625
 1474SOL    HW215882   1.563   2.732  17.621 -1.8650 -0.8691  0.7621
 1475SOL     OW15883   3.627   0.798   0.118 -0.2684  0.5490 -0.1414
 1475SOL    HW115884   3.556   0.823   0.178  0.3667 -0.4679  1.0456
 1475SOL    HW215885   3.678   0.878   0.105 -0.4928  0.6217 -0.5803
 1476SOL     OW15886   1.516   0.726  17.314  0.2305 -0.5355 -0.2485
 1476SOL    HW115887   1.458   0.654  17.290 -1.5203  1.0065 -0.5743
 1476SOL    HW215888   1.466   0.791  17.265  1.3954 -0.8466 -1.8754
 1477SOL     OW15889   2.732   0.172   3.162 -0.1209 -0.8410  0.1916
 1477SOL    HW115890   2.669   0.122   3.213  0.2317 -2.1732 -0.7040
 1477SOL    HW215891   2.725   0.257   3.206 -3.8647 -0.3153 -1.3548
 1478SOL     OW15892   0.377   2.793   8.071  0.6016 -0.3930  0.0721
 1478SOL    HW115893   0.443   2.826   8.132  0.7759 -0.9950  0.2132
 1478SOL    HW215894   0.343   2.716   8.116 -0.0248 -0.2232 -0.1197
 1479SOL     OW15895   2.863   3.344   0.360  0.4785  0.4719  0.4312
 1479SOL    HW115896   2.937   3.286   0.343 -0.3071 -0.0654 -1.1521
 1479SOL    HW215897   2.803   3.295   0.416  0.7752 -0.2252  0.1430
 1480SOL     OW15898   1.645   1.799   6.153 -0.0345 -0.0561  0.1788
 1480SOL    HW115899   1.691   1.853   6.089 -1.4270 -0.0768 -0.8622
 1480SOL    HW215900   1.687   1.827   6.234  1.1325 -1.7520  0.1574
 1481SOL     OW15901   1.992   0.021  14.790  0.2517  0.2897  0.2179
 1481SOL    HW115902   1.900   0.048  14.789 -0.3003 -1.5737  0.2374
 1481SOL    HW215903   2.026   0.088  14.849  1.3070 -0.5512  0.5616
 1482SOL     OW15904   2.880   0.200   7.789  0.1710  0.0606  0.3467
 1482SOL    HW115905   2.798   0.235   7.823  0.6857  3.9368 -2.2875
 1482SOL    HW215906   2.931   0.197   7.870  3.0713  0.9101 -1.4274
 1483SOL     OW15907   1.245   4.414   1.662 -0.4923 -0.3261  0.0650
 1483SOL    HW115908   1.275   4.504   1.674  0.9686 -0.7054 -0.7043
 1483SOL    HW215909   1.198   4.421   1.579  0.2197  1.2061 -0.1943
 1484SOL     OW15910   1.726   2.423   2.729  0.3500 -0.2577  0.0941
 1484SOL    HW115911   1.688   2.466   2.652 -0.9805 -0.7484  0.4839
 1484SOL    HW215912   1.740   2.497   2.787  0.0547 -0.5752  0.5719
 1485SOL     OW15913   0.013   2.717   8.684  0.2820 -0.0605  0.4755
 1485SOL    HW115914   4.659   2.762   8.718 -1.2984 -0.3920 -2.7209
 1485SOL    HW215915   0.090   2.768   8.710  1.5926 -0.8839 -1.8340
 1486SOL     OW15916   3.220   2.330  13.142 -1.1900  0.0976 -0.1304
 1486SOL    HW115917   3.255   2.333  13.231 -0.5134 -1.0015 -0.3443
 1486SOL    HW215918   3.171   2.412  13.138 -2.7830 -0.8571 -0.2284
 1487SOL     OW15919   3.327   1.738   3.559 -0.0623  0.0616 -0.2369
 1487SOL    HW115920   3.239   1.774   3.569 -0.0048 -0.1216  0.9253
 1487SOL    HW215921   3.372   1.805   3.507 -1.3873  0.1853 -1.2446
 1488SOL     OW15922   0.228   1.567   5.616  0.1491  0.1610  0.1093
 1488SOL    HW115923   0.193   1.649   5.651  0.2293  0.5305 -0.6898
 1488SOL    HW215924   0.143   1.533   5.587  0.2138 -0.5345  0.7313
 1489SOL     OW15925   1.798   0.159   0.594  0.3600 -0.7731 -0.1060
 1489SOL    HW115926   1.780   0.118   0.509 -0.6284 -0.4902 -0.0371
 1489SOL    HW215927   1.709   0.180   0.623  0.4736 -0.1784 -0.1827
 1490SOL     OW15928   0.411   0.000   1.448  0.2103 -0.1310 -0.0694
 1490SOL    HW115929   0.472   4.706   1.520 -0.3605 -0.1173  0.4192
 1490SOL    HW215930   0.445   0.082   1.412  2.1883 -0.5606  0.8030
 1491SOL     OW15931   1.624   3.972   2.380 -0.1242 -0.0571  0.0024
 1491SOL    HW115932   1.648   4.063   2.397 -1.2707  0.2128  0.1716
 1491SOL    HW215933   1.549   3.977   2.320 -0.0436  0.4299 -0.0586
 1492SOL     OW15934   1.339   2.586   2.585  0.5805 -0.7595 -0.0756
 1492SOL    HW115935   1.319   2.674   2.617  1.9115 -0.6307  0.4145
 1492SOL    HW215936   1.258   2.534   2.585 -1.6112  2.6674  0.9223
 1493SOL     OW15937   0.001   3.110   7.679  0.4328  0.1217  0.4411
 1493SOL    HW115938   0.056   3.065   7.615  1.3200 -1.5737  2.3719
 1493SOL    HW215939   4.637   3.100   7.644  1.3569 -2.4696 -1.1898
 1494SOL     OW15940   2.570   2.313   6.167  0.0572 -0.0803 -0.2166
 1494SOL    HW115941   2.657   2.272   6.173  0.3801  0.5125 -0.8881
 1494SOL    HW215942   2.596   2.395   6.125  0.7747 -0.0540  0.2722
 1495SOL     OW15943   2.349   0.220   2.500 -0.7452 -0.0030  0.1645
 1495SOL    HW115944   2.440   0.250   2.503 -1.3905  1.5912  4.1090
 1495SOL    HW215945   2.317   0.241   2.413 -3.0452  1.4366  1.3658
 1496SOL     OW15946   1.292   4.630  17.491  0.3338 -0.0371 -0.6480
 1496SOL    HW115947   1.346   4.680  17.552  1.2204 -2.1750  0.3227
 1496SOL    HW215948   1.326   4.661  17.407  2.0390  0.3084  0.1880
 1497SOL     OW15949   0.879   2.973   3.597 -0.0451  0.2943 -0.3474
 1497SOL    HW115950   0.809   2.986   3.533 -0.2838  1.9610  0.2521
 1497SOL    HW215951   0.948   2.936   3.542  0.6140  0.8269  0.1164
 1498SOL     OW15952   3.460   0.750  14.810  0.6201  0.7197  0.4792
 1498SOL    HW115953   3.528   0.809  14.779 -0.4128  1.7705  0.2284
 1498SOL    HW215954   3.472   0.676  14.750  1.3622  0.4674  0.9431
 1499SOL     OW15955   4.670   0.152   6.456 -0.1626  0.1470 -0.1743
 1499SOL    HW115956   4.632   0.091   6.519 -1.5545  1.3130  0.0986
 1499SOL    HW215957   0.000   0.098   6.398 -0.0301  2.9678 -2.6644
 1500SOL     OW15958   4.182   3.231   7.323  0.3544  0.0951  0.0778
 1500SOL    HW115959   4.090   3.212   7.342  0.7399  0.1821  2.0274
 1500SOL    HW215960   4.197   3.313   7.372 -2.7620  0.4735  0.4065
 1501SOL     OW15961   1.718   2.245   9.695 -0.0825  0.0462 -0.0540
 1501SOL    HW115962   1.650   2.254   9.629 -0.2930  0.1108  0.1734
 1501SOL    HW215963   1.803   2.249   9.651  0.3679 -3.1151  0.5306
 1502SOL     OW15964   0.600   0.494   1.946 -0.9948  0.1609  0.0470
 1502SOL    HW115965   0.586   0.438   1.869 -1.8142  0.4541 -0.0193
 1502SOL    HW215966   0.567   0.580   1.920  3.2992  1.6484 -0.4527
 1503SOL     OW15967   4.689   2.688   2.686 -0.2743  0.0091 -0.0300
 1503SOL    HW115968   0.004   2.646   2.762 -3.8318 -2.0767  0.6337
 1503SOL    HW215969   4.650   2.764   2.729 -1.5941 -0.8438  0.2647
 1504SOL     OW15970   3.620   2.386   2.490  0.7037 -0.2674 -0.1366
 1504SOL    HW115971   3.600   2.299   2.453  2.6888 -1.6964  2.1280
 1504SOL    HW215972   3.588   2.384   2.580 -0.1086 -3.1698 -0.4848
 1505SOL     OW15973   0.329   2.722  15.616  0.2097 -0.0051  0.1704
 1505SOL    HW115974   0.334   2.642  15.564  2.5024  0.1706  0.1171
 1505SOL    HW215975   0.334   2.679  15.702  1.4488 -0.2850 -0.0469
 1506SOL     OW15976   3.628   2.392   5.310  0.3497  0.4643 -0.2068
 1506SOL    HW115977   3.699   2.345   5.268 -0.2388  0.2560 -0.9498
 1506SOL    HW215978   3.686   2.424   5.380 -0.1873 -1.3975  1.0817
 1507SOL     OW15979   0.088   2.691   4.314 -0.0226 -0.0358 -0.5580
 1507SOL    HW115980   0.044   2.626   4.369 -1.5550  0.3933 -1.2650
 1507SOL    HW215981   0.178   2.692   4.345  0.0749 -0.2687 -0.8331
 1508SOL     OW15982   3.395   4.069  15.845 -0.2327  0.1836  0.2662
 1508SOL    HW115983   3.431   3.986  15.876  0.2214  0.2653 -0.0423
 1508SOL    HW215984   3.337   4.041  15.775 -1.4861  1.2716  0.8802
 1509SOL     OW15985   4.054   3.022   2.766  0.2217 -0.0218  0.1906
 1509SOL    HW115986   4.012   2.943   2.802 -0.5625  0.0793 -0.5131
 1509SOL    HW215987   3.983   3.062   2.717  1.4275  0.6063 -1.0488
 1510SOL     OW15988   1.084   3.693   7.333 -0.2381  0.2009 -0.3172
 1510SOL    HW115989   1.090   3.763   7.399 -0.3173  0.2221 -0.3333
 1510SOL    HW215990   1.145   3.718   7.264 -0.7939  1.6401 -0.2788
 1511SOL     OW15991   2.217   0.172   8.083 -0.3023  0.0243 -0.2092
 1511SOL    HW115992   2.238   0.172   8.176  0.9170  0.1867 -0.4867
 1511SOL    HW215993   2.248   0.085   8.060  1.9078  0.6548  0.4308
 1512SOL     OW15994   1.905   2.684  17.002 -0.7732  0.0373 -0.0253
 1512SOL    HW115995   1.842   2.755  17.016 -2.4140 -1.5621  0.8450
 1512SOL    HW215996   1.851   2.616  16.961  1.3289  1.2646 -4.7800
 1513SOL     OW15997   3.523   4.178  16.683 -0.1758  0.5891  0.1845
 1513SOL    HW115998   3.506   4.084  16.669 -1.0807  0.8774 -0.6278
 1513SOL    HW215999   3.595   4.189  16.621  0.9606 -0.2959  1.3382
 1514SOL     OW16000   1.642   0.284  15.879 -0.0151  0.6144  0.3463
 1514SOL    HW116001   1.576   0.256  15.815 -0.2216  2.2148 -0.1359
 1514SOL    HW216002   1.590   0.307  15.956 -0.7582  0.7918 -0.2183
 1515SOL     OW16003   0.198   4.462   8.497  0.1349  0.8502 -0.7085
 1515SOL    HW116004   0.142   4.504   8.562 -0.6303  1.0563 -1.4941
 1515SOL    HW216005   0.176   4.528   8.431 -0.3796  0.8506 -0.5368
 1516SOL     OW16006   0.493   0.186   6.078  0.9581  0.1173 -0.1198
 1516SOL    HW116007   0.407   0.159   6.046  0.6022  1.9571 -0.7378
 1516SOL    HW216008   0.536   0.102   6.094  2.0275  0.4765 -1.0905
 1517SOL     OW16009   4.601   1.559   5.280  0.0302 -0.0963 -0.6061
 1517SOL    HW116010   4.601   1.529   5.189 -0.5369 -1.4944 -0.1423
 1517SOL    HW216011   4.569   1.649   5.273 -0.1727 -0.1284 -0.0828
 1518SOL     OW16012   0.847   3.715   4.732 -0.5446  0.0933  0.1459
 1518SOL    HW116013   0.897   3.790   4.698 -0.2557 -0.5171 -0.7481
 1518SOL    HW216014   0.758   3.737   4.705 -0.6691 -1.4969 -0.7431
 1519SOL     OW16015   3.822   4.199   7.305  0.1453 -0.2128  0.3299
 1519SOL    HW116016   3.871   4.281   7.304  0.3263 -0.3105  1.2001
 1519SOL    HW216017   3.893   4.141   7.276 -0.7045 -0.9917 -0.2034
 1520SOL     OW16018   3.790   1.771   7.851 -0.0556  0.2859 -0.0516
 1520SOL    HW116019   3.697   1.750   7.854  0.1981 -0.5912  1.5045
 1520SOL    HW216020   3.812   1.700   7.790  1.1232  0.0227  0.6744
 1521SOL     OW16021   3.831   0.053   7.580  0.1782 -0.3533  0.5462
 1521SOL    HW116022   3.824   0.145   7.605 -0.7686 -0.5427  0.9993
 1521SOL    HW216023   3.738   0.039   7.559  0.4784 -0.0229 -1.0033
 1522SOL     OW16024   1.422   0.979   4.022 -0.4185 -0.2850  0.1396
 1522SOL    HW116025   1.420   1.032   4.102  1.3410 -1.4988  0.9742
 1522SOL    HW216026   1.426   1.043   3.950 -1.2803 -0.0897  0.2655
 1523SOL     OW16027   0.261   4.650   5.060  0.5044 -0.0397 -0.2965
 1523SOL    HW116028   0.191   4.604   5.013  0.8348  1.8387 -2.6253
 1523SOL    HW216029   0.329   4.590   5.028  0.6296  0.2919 -0.6541
 1524SOL     OW16030   0.206   1.236   6.402 -0.4480  0.3310  0.2774
 1524SOL    HW116031   0.197   1.323   6.440  0.0846 -0.5261  2.3344
 1524SOL    HW216032   0.296   1.217   6.430 -1.1083 -1.6979  1.0492
 1525SOL     OW16033   2.129   3.261   4.129 -0.0289  0.3782 -0.2653
 1525SOL    HW116034   2.163   3.276   4.041 -2.8772 -1.3650 -1.6546
 1525SOL    HW216035   2.205   3.211   4.161 -1.0697 -1.4290 -0.6445
 1526SOL     OW16036   3.979   2.661   6.933 -0.1513  0.5452  0.1023
 1526SOL    HW116037   3.950   2.613   6.856  0.2125 -0.2141  0.4425
 1526SOL    HW216038   3.974   2.597   7.005  0.2766 -0.2248 -0.5592
 1527SOL     OW16039   1.179   3.789   9.253 -0.3512 -0.1553  0.3110
 1527SOL    HW116040   1.084   3.783   9.253 -0.2886 -1.0993  2.3427
 1527SOL    HW216041   1.194   3.808   9.160  0.8718 -1.4299  0.2367
 1528SOL     OW16042   1.885   2.284   5.171 -0.5960 -0.2052 -0.0064
 1528SOL    HW116043   1.901   2.357   5.111  1.0385  0.2508  0.9881
 1528SOL    HW216044   1.843   2.328   5.245  1.0701 -0.0975  0.8792
 1529SOL     OW16045   1.922   1.501  13.458  0.0004 -0.2016 -0.8096
 1529SOL    HW116046   1.918   1.463  13.546  0.5690 -1.1486 -1.1974
 1529SOL    HW216047   1.883   1.434  13.403 -0.3453  0.7531 -1.7325
 1530SOL     OW16048   3.927   1.214   5.754 -0.2311 -0.1086  0.1623
 1530SOL    HW116049   3.921   1.299   5.799 -2.3575 -0.4116  0.4253
 1530SOL    HW216050   3.837   1.184   5.762 -0.6209  0.4426 -2.1855
 1531SOL     OW16051   3.389   0.705  12.199 -0.2307  0.0460 -0.3974
 1531SOL    HW116052   3.365   0.664  12.282  0.1507  0.5784 -0.0235
 1531SOL    HW216053   3.436   0.785  12.223 -2.0739  0.4091  2.0329
 1532SOL     OW16054   1.634   4.020   5.783 -0.3362  0.0625  0.1238
 1532SOL    HW116055   1.613   4.025   5.876 -0.2908  0.0454  0.1348
 1532SOL    HW216056   1.546   4.023   5.746 -0.8193  0.4674  1.3095
 1533SOL     OW16057   4.248   0.613   9.764 -0.3430  0.0548  0.2152
 1533SOL    HW116058   4.209   0.557   9.831  1.6826  0.7498  1.9529
 1533SOL    HW216059   4.338   0.601   9.794 -0.1359  0.0695 -0.3959
 1534SOL     OW16060   3.595   2.813  15.293 -0.1505 -0.2641  0.0516
 1534SOL    HW116061   3.533   2.884  15.310  0.9154  0.8030 -0.5939
 1534SOL    HW216062   3.537   2.737  15.293 -0.6821  0.1286  2.3292
 1535SOL     OW16063   4.424   3.552  14.363  0.0082  0.8327 -0.7028
 1535SOL    HW116064   4.500   3.497  14.383 -1.5246 -0.5239  1.3613
 1535SOL    HW216065   4.400   3.599  14.442  2.6702  1.9419 -0.5565
 1536SOL     OW16066   1.469   3.666   5.149 -0.2229  0.6409 -0.1312
 1536SOL    HW116067   1.484   3.635   5.059 -0.8681  1.3241 -0.4692
 1536SOL    HW216068   1.379   3.697   5.145 -0.1950  0.6614 -0.6797
 1537SOL     OW16069   1.416   2.430   6.158  0.3816 -0.3366  0.4159
 1537SOL    HW116070   1.385   2.456   6.071  1.5285  1.0381  0.4207
 1537SOL    HW216071   1.493   2.381   6.131  1.1400 -0.4912  2.9274
 1538SOL     OW16072   2.849   3.399   4.072  0.4961  0.4156  0.5282
 1538SOL    HW116073   2.883   3.312   4.093 -0.0702 -0.0957 -0.7384
 1538SOL    HW216074   2.776   3.387   4.012 -0.7843  2.3681  1.7016
 1539SOL     OW16075   3.656   2.776   3.995 -0.5736  0.2122  0.3940
 1539SOL    HW116076   3.602   2.707   4.033 -0.8090 -0.5296 -1.3118
 1539SOL    HW216077   3.635   2.854   4.047 -1.3630  0.3576 -0.1407
 1540SOL     OW16078   2.343   3.278  12.209  0.0587  0.3282  0.7132
 1540SOL    HW116079   2.405   3.325  12.264 -0.9541  2.0227  0.4133
 1540SOL    HW216080   2.320   3.201  12.261 -0.4916 -0.1934 -0.2931
 1541SOL     OW16081   0.375   0.161   6.704 -0.7585  0.2236  0.1149
 1541SOL    HW116082   0.280   0.160   6.715 -1.0659 -1.7114 -2.6998
 1541SOL    HW216083   0.376   0.203   6.618 -1.1123 -0.5276 -0.2506
 1542SOL     OW16084   3.288   0.778   0.027  0.1161  0.7032  0.3991
 1542SOL    HW116085   3.208   0.807  17.682  0.0498 -0.4646 -0.2647
 1542SOL    HW216086   3.276   0.806   0.118 -2.4670 -0.7421  0.5002
 1543SOL     OW16087   3.912   4.040  14.415 -0.2868 -0.2755 -0.0506
 1543SOL    HW116088   3.921   4.122  14.367 -1.6473 -0.1945 -0.1679
 1543SOL    HW216089   3.997   3.997  14.423 -1.3280 -2.0916  1.3336
 1544SOL     OW16090   4.436   4.611   7.811 -0.4386  0.8145 -0.4414
 1544SOL    HW116091   4.467   4.521   7.811 -3.1026 -0.0960 -1.3298
 1544SOL    HW216092   4.473   4.634   7.896 -2.6707  3.7436 -0.2732
 1545SOL     OW16093   0.714   2.889   2.400 -0.3501  0.3654 -0.4636
 1545SOL    HW116094   0.697   2.880   2.494  0.6845  3.9125  0.0706
 1545SOL    HW216095   0.692   2.798   2.382  0.2727  0.7473 -3.0504
 1546SOL     OW16096   3.032   1.517   5.905  0.0409  0.5764 -0.2377
 1546SOL    HW116097   3.090   1.499   5.831 -0.6119 -2.9471  0.0831
 1546SOL    HW216098   2.988   1.601   5.892  0.3749  0.6797 -0.6956
 1547SOL     OW16099   0.773   1.904   6.451 -0.7481  0.4187  0.6658
 1547SOL    HW116100   0.787   1.829   6.394 -3.3031  0.1396  0.4006
 1547SOL    HW216101   0.778   1.866   6.539 -0.5030  1.1310  0.9608
 1548SOL     OW16102   0.238   3.298   8.455  0.4296  0.3106 -0.4876
 1548SOL    HW116103   0.314   3.345   8.489 -0.0949  2.1572 -1.8462
 1548SOL    HW216104   0.183   3.288   8.532 -2.3888 -1.3221 -2.7201
 1549SOL     OW16105   3.398   2.775   7.063  0.1122  0.6560  0.1213
 1549SOL    HW116106   3.313   2.819   7.062 -1.2598 -1.9965 -1.5873
 1549SOL    HW216107   3.420   2.783   7.156 -0.8188  1.3527  0.2817
 1550SOL     OW16108   2.974   1.398   2.307  0.8443  0.1749  0.0178
 1550SOL    HW116109   3.019   1.466   2.258  1.8014  0.0241  0.6716
 1550SOL    HW216110   3.002   1.417   2.397  0.0341  0.3841  0.2173
 1551SOL     OW16111   3.028   2.402   5.454  0.1500 -0.0787 -0.6363
 1551SOL    HW116112   3.106   2.372   5.407  1.5712 -1.7074  2.7400
 1551SOL    HW216113   2.953   2.369   5.405 -1.0754 -0.3771  1.4425
 1552SOL     OW16114   4.013   2.728  13.435 -0.6980 -0.2771 -0.3689
 1552SOL    HW116115   4.041   2.816  13.411 -0.4422 -0.0163  0.9073
 1552SOL    HW216116   3.951   2.748  13.505 -2.6936 -1.3562 -1.8346
 1553SOL     OW16117   0.210   3.877   4.082 -0.5632 -0.1915 -0.6277
 1553SOL    HW116118   0.305   3.874   4.086 -0.6887 -1.2267  2.1002
 1553SOL    HW216119   0.186   3.812   4.016  0.4537  1.2785 -2.4313
 1554SOL     OW16120   3.754   4.047  17.300  0.7176 -0.5702 -0.1080
 1554SOL    HW116121   3.821   3.979  17.298  0.3907 -0.9283  1.0543
 1554SOL    HW216122   3.777   4.109  17.231  1.6413 -1.6871 -0.7854
 1555SOL     OW16123   0.127   1.853   2.001 -0.5344 -0.5449  0.0475
 1555SOL    HW116124   0.092   1.856   2.090 -1.4183  0.8493 -0.3424
 1555SOL    HW216125   0.087   1.774   1.965  1.4170 -1.3841 -0.2814
 1556SOL     OW16126   1.002   3.433   9.317  0.0515  0.3450 -0.1114
 1556SOL    HW116127   1.019   3.372   9.389 -0.8987  0.2801  0.0653
 1556SOL    HW216128   0.912   3.460   9.337  0.5269  0.6652  1.6152
 1557SOL     OW16129   3.993   2.986  13.352 -0.2574 -0.1394 -0.4278
 1557SOL    HW116130   4.032   3.006  13.437  1.4192 -2.0526 -0.7620
 1557SOL    HW216131   3.918   3.045  13.359 -1.4931 -1.8494  0.7419
 1558SOL     OW16132   3.048   2.521   1.062 -0.1388 -0.1169 -0.1794
 1558SOL    HW116133   3.068   2.590   1.125 -0.5998  0.6183 -0.8280
 1558SOL    HW216134   3.034   2.574   0.983 -2.1424 -0.4554 -0.0670
 1559SOL     OW16135   0.837   1.712   6.278  0.0717  0.3642  0.1133
 1559SOL    HW116136   0.919   1.759   6.267  0.5253 -0.2307  0.9757
 1559SOL    HW216137   0.871   1.623   6.270 -1.3050 -0.4325  3.0003
 1560SOL     OW16138   3.649   2.548   9.745  0.1146  0.4215 -0.3306
 1560SOL    HW116139   3.675   2.635   9.715  1.2301 -0.4627 -1.9524
 1560SOL    HW216140   3.597   2.533   9.666  1.0466 -1.8080 -0.5469
 1561SOL     OW16141   2.814   0.359   6.879 -0.3044  0.0779 -0.5814
 1561SOL    HW116142   2.883   0.358   6.813 -0.2814  2.3221 -0.6013
 1561SOL    HW216143   2.786   0.451   6.876 -4.2944 -1.1438 -0.6638
 1562SOL     OW16144   2.769   1.797  10.866  0.9415  0.2452 -0.2775
 1562SOL    HW116145   2.839   1.825  10.807  2.5161 -1.3164  0.8501
 1562SOL    HW216146   2.783   1.856  10.940  0.6005  0.9551 -0.7732
 1563SOL     OW16147   0.939   3.872  13.344  0.3601 -0.3237 -0.2812
 1563SOL    HW116148   0.991   3.904  13.270 -1.7724  1.1122 -1.1591
 1563SOL    HW216149   0.980   3.926  13.411  1.3497 -1.9590  0.4104
 1564SOL     OW16150   4.392   3.248   5.688 -0.1104  0.0720  0.3765
 1564SOL    HW116151   4.465   3.185   5.685 -0.4318 -0.2843 -0.0326
 1564SOL    HW216152   4.381   3.276   5.597  1.5055  1.7031  0.6798
 1565SOL     OW16153   3.862   4.237   0.798  0.5229 -0.8622 -0.6017
 1565SOL    HW116154   3.827   4.325   0.802  0.8869 -0.7761  0.7407
 1565SOL    HW216155   3.955   4.249   0.818  0.8505 -1.1808 -1.9399
 1566SOL     OW16156   4.073   4.220   4.665 -0.0652  0.4264  0.3557
 1566SOL    HW116157   4.053   4.286   4.731 -0.4200 -0.4735  1.1530
 1566SOL    HW216158   4.068   4.140   4.717 -2.3260  1.3862  1.5668
 1567SOL     OW16159   4.669   4.220  13.804  0.0674 -0.0562 -0.2877
 1567SOL    HW116160   4.619   4.200  13.883 -0.4472 -2.2228 -1.1706
 1567SOL    HW216161   4.667   4.315  13.806  0.5828 -0.1075  2.1892
 1568SOL     OW16162   1.953   4.361   8.235  0.0443 -0.0701  0.4012
 1568SOL    HW116163   1.975   4.414   8.158  0.7194 -0.4149  0.3605
 1568SOL    HW216164   1.868   4.390   8.269 -0.1845 -0.6355  0.3134
 1569SOL     OW16165   2.732   0.163  14.863  0.4387 -0.0066 -0.3419
 1569SOL    HW116166   2.706   0.175  14.772  0.7290  1.8008 -0.1820
 1569SOL    HW216167   2.705   0.072  14.877  0.9510 -0.3006 -1.2645
 1570SOL     OW16168   2.400   0.624   7.001 -0.3669  0.3291 -0.2476
 1570SOL    HW116169   2.343   0.606   7.075  0.7871  1.3797  0.8911
 1570SOL    HW216170   2.348   0.584   6.931  0.1514 -0.4467 -0.1813
 1571SOL     OW16171   1.214   4.152  13.387 -0.0082 -0.1374  0.2384
 1571SOL    HW116172   1.305   4.122  13.385  0.9673  2.7283  1.5456
 1571SOL    HW216173   1.190   4.131  13.476 -1.9626 -1.9440 -0.7304
 1572SOL     OW16174   3.381   4.421  14.831  0.3509 -0.4720  0.3369
 1572SOL    HW116175   3.294   4.404  14.868  1.0955 -3.4228  0.7046
 1572SOL    HW216176   3.378   4.512  14.803 -0.0128 -0.9993 -1.2967
 1573SOL     OW16177   0.061   3.332   3.999  0.2800 -0.1623  0.3417
 1573SOL    HW116178   4.692   3.337   3.981 -0.1858 -2.5446  2.0524
 1573SOL    HW216179   0.083   3.250   3.954  1.1652 -0.2508  0.9235
 1574SOL     OW16180   1.206   2.896   5.561 -0.1914  0.3496 -0.0791
 1574SOL    HW116181   1.160   2.921   5.641 -0.0279  2.4329 -0.6452
 1574SOL    HW216182   1.163   2.942   5.489 -0.0681  1.8761  0.8212
 1575SOL     OW16183   3.337   3.666   2.400 -0.0756  0.3754 -0.6486
 1575SOL    HW116184   3.424   3.626   2.405  0.0505  0.9241  1.5711
 1575SOL    HW216185   3.290   3.597   2.354  0.3488 -0.9603  0.9272
 1576SOL     OW16186   2.591   3.737   0.595  0.0495  0.1800  0.2553
 1576SOL    HW116187   2.656   3.669   0.613 -3.0499 -2.0335  2.8706
 1576SOL    HW216188   2.641   3.806   0.551 -0.7594 -0.1581 -1.2057
 1577SOL     OW16189   3.058   1.873   6.782 -0.1504 -0.3655 -0.2874
 1577SOL    HW116190   2.995   1.939   6.808  0.5625  0.7821 -1.4458
 1577SOL    HW216191   3.139   1.884   6.832 -1.3896  1.2028  1.3731
 1578SOL     OW16192   3.197   1.656   2.088  0.1271 -0.1041  0.0913
 1578SOL    HW116193   3.212   1.594   2.016 -0.8062 -0.5767  0.3095
 1578SOL    HW216194   3.285   1.682   2.115  0.2306  0.0843 -0.4246
 1579SOL     OW16195   0.754   3.427  11.749 -0.1951 -0.2198  0.0864
 1579SOL    HW116196   0.662   3.407  11.762 -0.7857  0.7347 -2.6073
 1579SOL    HW216197   0.758   3.520  11.772  1.3922 -0.2281 -0.1155
 1580SOL     OW16198   1.641   0.238  10.073 -0.5512 -0.3034  0.2168
 1580SOL    HW116199   1.711   0.286  10.028  0.3807 -1.9268 -0.0578
 1580SOL    HW216200   1.643   0.271  10.163  1.7799  1.1977 -0.3651
 1581SOL     OW16201   3.398   2.778   5.719 -0.2066  0.1072 -0.6506
 1581SOL    HW116202   3.470   2.722   5.690 -1.3034 -1.6136 -0.0791
 1581SOL    HW216203   3.378   2.829   5.640 -0.3688  0.3360 -0.4587
 1582SOL     OW16204   1.051   2.349   4.893 -0.5433 -0.4155 -0.3098
 1582SOL    HW116205   1.134   2.397   4.900  0.1616 -1.5105 -1.1706
 1582SOL    HW216206   1.040   2.320   4.984 -0.5885 -1.8031 -0.7660
 1583SOL     OW16207   2.768   2.525  10.373  0.4168  0.1024  0.0846
 1583SOL    HW116208   2.834   2.506  10.440 -1.7656 -1.2440  1.8880
 1583SOL    HW216209   2.745   2.617  10.384 -2.2043 -0.7585  1.8249
 1584SOL     OW16210   4.053   3.962   1.535 -0.9207 -0.2292  0.3647
 1584SOL    HW116211   3.960   3.969   1.558 -0.1368 -1.0859  3.8143
 1584SOL    HW216212   4.099   4.008   1.605  0.1233 -0.9216  0.1335
 1585SOL     OW16213   3.328   1.851   8.097  1.0156  0.6805  0.3822
 1585SOL    HW116214   3.353   1.805   8.017 -0.8181  0.7095 -0.2014
 1585SOL    HW216215   3.232   1.849   8.098  1.0090  1.5555  0.7650
 1586SOL     OW16216   1.583   3.571   4.007 -0.8972  0.1760 -0.5242
 1586SOL    HW116217   1.551   3.660   4.023 -2.1726 -0.7882  2.2663
 1586SOL    HW216218   1.617   3.550   4.094 -1.2646  1.1570 -0.1462
 1587SOL     OW16219   1.374   1.462   3.850 -0.2808  0.2438  0.0086
 1587SOL    HW116220   1.304   1.397   3.859 -0.4508  0.8885  3.3572
 1587SOL    HW216221   1.391   1.473   3.756 -0.1321  0.4397  0.0605
 1588SOL     OW16222   0.271   2.452   6.436 -0.1068 -0.1335 -0.0397
 1588SOL    HW116223   0.327   2.432   6.511 -0.9285  0.7720  0.8244
 1588SOL    HW216224   0.234   2.364   6.426 -1.4835  0.4598 -0.0721
 1589SOL     OW16225   0.024   3.086   3.888 -0.3551  0.3102 -0.0881
 1589SOL    HW116226   4.673   3.029   3.872 -0.5650  0.9237 -1.3328
 1589SOL    HW216227   0.089   3.043   3.833  0.0439 -0.7206  1.1888
 1590SOL     OW16228   2.847   4.280  10.238 -0.0403  0.4964  0.0464
 1590SOL    HW116229   2.785   4.351  10.223  1.3948  2.5204  3.6514
 1590SOL    HW216230   2.807   4.239  10.314 -1.2700 -1.9246 -1.9034
 1591SOL     OW16231   4.279   2.146  15.714 -0.2007 -0.6177  0.2871
 1591SOL    HW116232   4.205   2.101  15.672 -0.0325 -0.2669 -0.3829
 1591SOL    HW216233   4.349   2.097  15.670 -3.4646 -3.7876 -1.3657
 1592SOL     OW16234   1.397   1.169   7.350  0.0686  0.1821  0.2469
 1592SOL    HW116235   1.471   1.171   7.410  1.2682 -1.3427 -1.1913
 1592SOL    HW216236   1.366   1.083   7.380 -2.1589  0.6874 -0.5362
 1593SOL     OW16237   0.223   2.307   9.163 -0.5383  0.2644 -0.3265
 1593SOL    HW116238   0.165   2.231   9.174 -0.2978  0.3973  2.0466
 1593SOL    HW216239   0.293   2.282   9.224  0.0441  3.6772  0.4227
 1594SOL     OW16240   1.074   2.921   3.782 -0.1597 -0.4492 -0.2198
 1594SOL    HW116241   1.002   2.929   3.720 -0.5902 -1.5206  0.1477
 1594SOL    HW216242   1.066   2.993   3.845  2.6077  1.5018 -2.1310
 1595SOL     OW16243   3.809   2.772   7.518  0.1129  0.2212  0.1958
 1595SOL    HW116244   3.884   2.754   7.462 -0.1783 -0.4930  0.0384
 1595SOL    HW216245   3.766   2.687   7.521 -0.1634  0.4209  1.6939
 1596SOL     OW16246   3.143   0.094  12.083 -0.4525  0.0833 -0.3501
 1596SOL    HW116247   3.123   0.173  12.034 -0.6418  0.0664 -0.3022
 1596SOL    HW216248   3.081   0.027  12.052 -0.2537  0.6991 -2.0270
 1597SOL     OW16249   3.281   3.896   4.082 -0.2682 -0.0666 -0.6153
 1597SOL    HW116250   3.281   3.883   4.177 -2.5665 -1.6463 -0.8245
 1597SOL    HW216251   3.256   3.809   4.052 -0.0327  0.4031 -2.1297
 1598SOL     OW16252   2.668   1.852   2.607 -0.5569  0.3906  0.0364
 1598SOL    HW116253   2.706   1.821   2.525  0.2906  0.0784  0.5375
 1598SOL    HW216254   2.645   1.772   2.654 -0.1599 -1.5453 -3.0944
 1599SOL     OW16255   4.039   2.478   9.042  0.3339  0.1482 -0.8871
 1599SOL    HW116256   4.099   2.497   9.114  0.7645 -0.5022 -1.0683
 1599SOL    HW216257   4.036   2.555   8.985  1.6715 -1.5318 -3.2545
 1600SOL     OW16258   3.494   0.924  11.680  0.0273 -0.0144  0.0291
 1600SOL    HW116259   3.402   0.948  11.667  0.5875  2.2480  0.2696
 1600SOL    HW216260   3.525   0.925  11.590 -0.2029 -2.5377 -0.0844
 1601SOL     OW16261   3.657   0.863  14.669 -0.5004  0.2441  0.3557
 1601SOL    HW116262   3.728   0.803  14.644 -0.0192  0.2192  1.7986
 1601SOL    HW216263   3.703   0.941  14.698  2.5621 -2.0547  1.7024
 1602SOL     OW16264   1.242   3.258   7.654  0.0435  0.0101  0.0462
 1602SOL    HW116265   1.174   3.220   7.709  1.4007  1.8453  2.9904
 1602SOL    HW216266   1.328   3.234   7.691 -0.8136  2.0893  3.3567
 1603SOL     OW16267   4.011   0.397   6.357 -0.2879 -0.4708 -0.3759
 1603SOL    HW116268   3.946   0.354   6.413 -0.4762 -0.7987 -0.8553
 1603SOL    HW216269   4.004   0.485   6.394  1.5359 -0.1255 -0.8239
 1604SOL     OW16270   3.243   2.575  12.955  0.2417 -0.2599  0.2126
 1604SOL    HW116271   3.294   2.655  12.943 -1.5683  0.8213 -0.4203
 1604SOL    HW216272   3.169   2.603  13.010  1.2539  0.6053  1.1508
 1605SOL     OW16273   2.961   1.749   2.731  0.1708 -0.0845  0.1619
 1605SOL    HW116274   2.988   1.731   2.641 -3.9171 -3.0971 -0.5010
 1605SOL    HW216275   2.903   1.823   2.713  1.8736  1.8545  2.7628
 1606SOL     OW16276   0.722   1.123   2.435 -1.1469  0.5732 -0.4470
 1606SOL    HW116277   0.656   1.130   2.504  0.3830  0.4105  1.0387
 1606SOL    HW216278   0.705   1.033   2.406 -0.3921  0.3037 -0.0506
 1607SOL     OW16279   1.828   4.068   9.074  0.0627  0.4453 -0.3196
 1607SOL    HW116280   1.785   4.019   9.004  0.1940 -0.0414 -0.0671
 1607SOL    HW216281   1.902   4.115   9.038 -0.9855  1.2848 -1.3558
 1608SOL     OW16282   0.417   1.963  16.446 -0.1596  0.0872  0.0891
 1608SOL    HW116283   0.431   1.994  16.357  3.1767 -0.5608  0.3941
 1608SOL    HW216284   0.477   2.023  16.490 -0.9799  0.6954  0.3944
 1609SOL     OW16285   4.130   2.028   8.589  0.8840  0.3028  0.2581
 1609SOL    HW116286   4.058   1.965   8.593  0.6683  0.4649 -1.3366
 1609SOL    HW216287   4.194   1.985   8.533 -1.0193 -1.6734 -0.3912
 1610SOL     OW16288   1.981   0.932   8.767 -0.0446  0.1631 -0.8738
 1610SOL    HW116289   1.966   1.004   8.829 -1.0267  1.6537 -2.8613
 1610SOL    HW216290   2.032   0.975   8.698 -0.5760  0.8409 -0.8478
 1611SOL     OW16291   1.332   2.839   6.469 -0.6381 -0.4049 -0.5778
 1611SOL    HW116292   1.349   2.745   6.471 -1.0703 -0.4428  1.0209
 1611SOL    HW216293   1.273   2.835   6.394  1.6948 -0.8665 -2.3989
 1612SOL     OW16294   4.559   2.983   4.916 -0.2243  0.5471 -0.7895
 1612SOL    HW116295   4.465   2.964   4.918  0.1031 -0.7676  1.8215
 1612SOL    HW216296   4.585   2.944   4.833 -0.8523  0.7385 -1.0758
 1613SOL     OW16297   3.192   3.618   6.276 -0.8055  0.1025 -0.2303
 1613SOL    HW116298   3.276   3.663   6.265  0.1316 -1.6865 -0.2961
 1613SOL    HW216299   3.194   3.562   6.199 -0.0298  0.7274 -0.6691
 1614SOL     OW16300   0.742   3.781   7.825  0.3534 -0.2831  0.1094
 1614SOL    HW116301   0.764   3.688   7.816 -0.0776 -0.3167 -0.6060
 1614SOL    HW216302   0.674   3.789   7.758 -0.3850  2.2312  1.1414
 1615SOL     OW16303   3.792   0.505   3.399 -0.5335 -0.2010  0.6373
 1615SOL    HW116304   3.870   0.476   3.447  1.2838 -0.3153 -2.4208
 1615SOL    HW216305   3.825   0.532   3.314  1.9784 -1.6736  1.1526
 1616SOL     OW16306   1.835   3.535   5.066  0.1351  0.5824 -0.2553
 1616SOL    HW116307   1.799   3.450   5.041  0.7565  0.2916 -0.1691
 1616SOL    HW216308   1.821   3.548   5.160 -0.5314  4.6474 -0.9282
 1617SOL     OW16309   4.195   1.883   7.088  0.4973  0.0801  0.2352
 1617SOL    HW116310   4.244   1.894   7.006 -0.0725 -0.8487 -0.2273
 1617SOL    HW216311   4.163   1.973   7.090  0.1171 -0.0639  0.4385
 1618SOL     OW16312   0.730   4.320   2.825 -0.0365 -0.0168  0.2119
 1618SOL    HW116313   0.810   4.280   2.791  0.9599  1.7120  0.5605
 1618SOL    HW216314   0.664   4.268   2.778  0.3136  0.8158 -1.1811
 1619SOL     OW16315   3.557   1.566   7.413  0.3280  0.6443  0.3629
 1619SOL    HW116316   3.551   1.567   7.317 -2.2520  0.1938  0.5052
 1619SOL    HW216317   3.465   1.581   7.435 -0.1419  0.0321 -1.1402
 1620SOL     OW16318   2.197   1.712   7.411 -0.3849  0.6371 -1.0587
 1620SOL    HW116319   2.262   1.751   7.470  0.7715 -0.2968 -1.7162
 1620SOL    HW216320   2.207   1.765   7.331 -0.9746  0.4445 -1.2590
 1621SOL     OW16321   1.592   1.107   7.867  0.3998  0.6217 -0.4362
 1621SOL    HW116322   1.511   1.056   7.868  0.6141  0.1915 -2.9819
 1621SOL    HW216323   1.657   1.037   7.875  0.8420  0.7988 -2.3499
 1622SOL     OW16324   4.721   1.444   7.033  0.3393  0.2916  0.4494
 1622SOL    HW116325   4.712   1.349   7.026  1.7803  0.3863 -2.6234
 1622SOL    HW216326   0.068   1.460   6.970 -0.4843 -1.8778 -1.0289
 1623SOL     OW16327   1.614   3.626  15.207  0.2892 -0.5591  0.3128
 1623SOL    HW116328   1.678   3.671  15.262 -0.7353  0.3367  0.7652
 1623SOL    HW216329   1.673   3.571  15.156  0.2621 -1.4280  1.2102
 1624SOL     OW16330   1.041   3.796   6.970  0.2043  0.3397 -0.3530
 1624SOL    HW116331   0.987   3.851   6.913 -1.4737 -1.1677 -0.2418
 1624SOL    HW216332   1.014   3.708   6.941  0.8367  0.6331 -1.8426
 1625SOL     OW16333   3.930   0.257   2.945  0.3367 -0.1527  0.2202
 1625SOL    HW116334   3.883   0.338   2.926 -2.0603 -1.4361  0.6948
 1625SOL    HW216335   3.945   0.289   3.034  1.0578  0.8295 -0.2508
 1626SOL     OW16336   0.468   0.746   7.834 -0.6321  0.1292  0.0932
 1626SOL    HW116337   0.408   0.674   7.856  0.1347 -0.6598 -0.4143
 1626SOL    HW216338   0.417   0.818   7.870  0.2519 -0.1610  1.9033
 1627SOL     OW16339   2.839   3.623   2.303 -0.1116 -0.9560  0.4388
 1627SOL    HW116340   2.890   3.672   2.238 -0.5145  0.4691  1.1878
 1627SOL    HW216341   2.839   3.691   2.371 -3.1361 -2.4135  1.8987
 1628SOL     OW16342   4.108   4.500   9.101 -0.9221  0.5509 -0.0604
 1628SOL    HW116343   4.046   4.428   9.086 -0.7854  0.1797  1.1087
 1628SOL    HW216344   4.076   4.535   9.184  1.1331  0.9282  0.5489
 1629SOL     OW16345   0.400   2.409   7.283  0.3180  0.3963  0.0473
 1629SOL    HW116346   0.316   2.453   7.294  2.5131  4.7767 -0.5901
 1629SOL    HW216347   0.379   2.325   7.242  0.1234  1.1762 -1.4650
 1630SOL     OW16348   2.243   3.429   8.698 -0.0910 -0.3162  0.0270
 1630SOL    HW116349   2.330   3.430   8.658 -0.8621 -0.0425 -1.6802
 1630SOL    HW216350   2.259   3.396   8.786 -1.9889 -0.5262  0.3001
 1631SOL     OW16351   1.074   0.089  12.475 -0.1685  0.1559  0.0476
 1631SOL    HW116352   1.036   0.091  12.563 -0.6618  1.4880 -0.1929
 1631SOL    HW216353   1.042   0.004  12.447 -2.4221  1.1016 -0.2335
 1632SOL     OW16354   3.878   0.052   6.809  0.1833 -0.1632 -0.2275
 1632SOL    HW116355   3.838   4.690   6.795 -4.6242  1.8657  0.9658
 1632SOL    HW216356   3.816   0.087   6.873  1.7308  1.9827  0.1034
 1633SOL     OW16357   0.401   0.722   8.855  0.8499 -0.1074  0.3373
 1633SOL    HW116358   0.339   0.717   8.927 -1.8766 -1.8501 -2.1308
 1633SOL    HW216359   0.479   0.746   8.906  0.4650  0.9882  0.3951
 1634SOL     OW16360   0.629   4.573  17.536  0.1135 -0.4772  0.4391
 1634SOL    HW116361   0.548   4.589  17.487  0.9489  2.0781 -0.0698
 1634SOL    HW216362   0.650   4.649  17.590  0.2008 -1.2007  1.4287
 1635SOL     OW16363   4.586   2.960   8.686  0.2722 -0.2679 -0.5833
 1635SOL    HW116364   4.547   2.893   8.629  2.2434 -1.5116 -0.4607
 1635SOL    HW216365   4.577   3.037   8.630 -0.1284  0.2477  0.1933
 1636SOL     OW16366   4.156   0.632   2.818 -0.1532  0.0260  0.2283
 1636SOL    HW116367   4.139   0.726   2.823 -2.9524 -0.5327  1.4869
 1636SOL    HW216368   4.104   0.609   2.741 -0.4213 -2.1562  1.0461
 1637SOL     OW16369   4.276   0.373   4.452  0.2193 -0.4844 -0.8961
 1637SOL    HW116370   4.272   0.336   4.540 -2.4686  1.5589 -0.1296
 1637SOL    HW216371   4.249   0.299   4.398 -1.5682 -0.9267  0.6110
 1638SOL     OW16372   1.824   1.575   6.805 -0.0881  0.7073  0.2987
 1638SOL    HW116373   1.785   1.606   6.723 -2.6756  1.6137  1.8749
 1638SOL    HW216374   1.834   1.657   6.854  1.9833  0.0891  0.8810
 1639SOL     OW16375   4.361   3.291  17.516 -0.1597 -0.1977  0.7871
 1639SOL    HW116376   4.303   3.343  17.571  1.6400  1.8213  0.7787
 1639SOL    HW216377   4.311   3.316  17.438  3.5149  3.2985 -0.4407
 1640SOL     OW16378   2.079   0.174   5.844  0.8306  0.0751 -0.3442
 1640SOL    HW116379   2.031   0.124   5.910 -0.8264 -0.3736 -1.8819
 1640SOL    HW216380   2.006   0.225   5.810  1.4049  0.6738 -0.6875
 1641SOL     OW16381   4.573   4.227  14.774  0.9808 -0.4182 -0.3441
 1641SOL    HW116382   4.567   4.305  14.829 -2.0689 -0.0101 -1.2816
 1641SOL    HW216383   4.486   4.191  14.789  0.5947 -0.4197 -2.7529
 1642SOL     OW16384   4.497   2.454   6.581 -0.0430  0.3361 -0.0555
 1642SOL    HW116385   4.409   2.454   6.543  0.4746  1.4103 -1.2261
 1642SOL    HW216386   4.515   2.547   6.586  1.6696  0.0408 -0.8172
 1643SOL     OW16387   2.759   1.210   0.597 -0.3327  0.0568 -0.5275
 1643SOL    HW116388   2.701   1.166   0.535 -0.4837  0.7105 -0.8526
 1643SOL    HW216389   2.694   1.217   0.667  1.3820  0.2522  1.0659
 1644SOL     OW16390   1.679   1.972  10.550  0.8634  0.1316 -0.5755
 1644SOL    HW116391   1.665   1.896  10.607 -0.0590 -0.6250 -1.8071
 1644SOL    HW216392   1.600   2.023  10.568  1.1260 -0.1339  1.3385
 1645SOL     OW16393   1.413   3.592   5.395 -0.0545 -0.1008 -0.1414
 1645SOL    HW116394   1.431   3.605   5.302  2.8221 -0.6063  0.3679
 1645SOL    HW216395   1.503   3.595   5.428  0.4093  1.2389 -1.5354
 1646SOL     OW16396   2.540   3.564   3.308  0.3572  0.5845  0.0447
 1646SOL    HW116397   2.498   3.649   3.294  0.4924  0.5817 -0.3907
 1646SOL    HW216398   2.466   3.518   3.348  0.8459  0.3539  0.6721
 1647SOL     OW16399   1.437   3.431  10.115 -0.6282  0.0257  0.6459
 1647SOL    HW116400   1.411   3.508  10.166  1.7595 -0.6999  2.9455
 1647SOL    HW216401   1.440   3.474  10.029  0.2431 -1.6227 -0.1564
 1648SOL     OW16402   1.969   1.404  13.983 -0.0352  0.2528 -0.3206
 1648SOL    HW116403   1.960   1.467  14.055 -0.7943 -0.1828 -0.0324
 1648SOL    HW216404   2.029   1.339  14.018  0.4896  0.2411 -1.2663
 1649SOL     OW16405   0.901   4.663  16.500  0.1998 -0.3085  0.0394
 1649SOL    HW116406   0.993   4.678  16.524  0.3606 -0.0391 -0.7572
 1649SOL    HW216407   0.868   0.028  16.493 -0.9212 -0.6843  0.5545
 1650SOL     OW16408   1.667   2.748   9.080 -0.0755  0.3369 -0.0208
 1650SOL    HW116409   1.735   2.714   9.022 -0.4615  1.8007 -1.3419
 1650SOL    HW216410   1.620   2.804   9.018 -0.2468  0.6878  0.4312
 1651SOL     OW16411   0.777   4.562   8.512 -0.5690 -0.7438  0.5289
 1651SOL    HW116412   0.713   4.496   8.535 -1.0460  0.0072  1.3241
 1651SOL    HW216413   0.721   4.639   8.507 -0.7803 -0.9868 -0.8801
 1652SOL     OW16414   2.948   3.842   4.533  0.5951 -0.4817 -0.1566
 1652SOL    HW116415   2.885   3.797   4.476 -0.6581  0.2602  0.6547
 1652SOL    HW216416   2.916   3.932   4.538 -1.6455 -1.4030  2.0637
 1653SOL     OW16417   4.303   2.583   0.651  0.0281 -0.1035 -0.0400
 1653SOL    HW116418   4.246   2.625   0.587 -0.4692 -0.7754 -0.0306
 1653SOL    HW216419   4.244   2.560   0.723 -0.3634  0.9129 -0.0317
 1654SOL     OW16420   1.127   4.522  16.708  0.2887  0.1439  0.5124
 1654SOL    HW116421   1.033   4.541  16.711  0.3639  0.7409 -1.3755
 1654SOL    HW216422   1.156   4.598  16.658  0.7700 -0.1864  0.2946
 1655SOL     OW16423   0.035   2.591  13.158 -0.4427 -0.4309 -0.5383
 1655SOL    HW116424   0.116   2.611  13.112 -0.3490 -0.6551 -0.4718
 1655SOL    HW216425   4.697   2.588  13.085 -1.4419  0.9693  0.2542
 1656SOL     OW16426   0.858   2.117   9.115  0.1151 -0.2827  0.4266
 1656SOL    HW116427   0.863   2.213   9.112 -0.8686 -0.2015  1.3991
 1656SOL    HW216428   0.778   2.111   9.062  0.0004 -0.5064  0.6287
 1657SOL     OW16429   1.914   2.170   4.170 -0.6684  0.1262 -0.0106
 1657SOL    HW116430   1.822   2.146   4.174 -0.6204  0.3887  2.3802
 1657SOL    HW216431   1.910   2.217   4.086  0.4438  0.4209  0.0936
 1658SOL     OW16432   4.267   3.444  14.149  0.1247 -0.1925  0.8131
 1658SOL    HW116433   4.266   3.530  14.105  0.5653 -1.2475 -1.2757
 1658SOL    HW216434   4.317   3.468  14.227  3.2724 -0.8641 -1.0059
 1659SOL     OW16435   4.076   1.032   4.773  0.0116 -0.1380 -0.2208
 1659SOL    HW116436   4.073   1.007   4.681  1.4156 -2.2856  0.3255
 1659SOL    HW216437   3.986   1.005   4.792  0.3575 -0.3777  1.0521
 1660SOL     OW16438   3.727   2.992  13.845 -0.4002  0.3803 -0.3132
 1660SOL    HW116439   3.760   3.053  13.910  2.3789 -2.0504  0.5496
 1660SOL    HW216440   3.682   2.932  13.905  1.8538 -0.1257  0.8759
 1661SOL     OW16441   1.826   1.479  15.585 -0.2439  0.1800 -0.9059
 1661SOL    HW116442   1.741   1.436  15.573 -1.4616  2.5669 -0.7681
 1661SOL    HW216443   1.883   1.431  15.525 -0.4179 -2.8755  1.3833
 1662SOL     OW16444   0.343   1.254  15.683  0.2939 -0.2072  0.5874
 1662SOL    HW116445   0.430   1.264  15.722  1.1220  0.8927 -1.5145
 1662SOL    HW216446   0.296   1.226  15.761  1.1849  0.1329  1.2437
 1663SOL     OW16447   1.396   0.892   7.540  0.5268 -0.0214  0.3605
 1663SOL    HW116448   1.393   0.817   7.600 -0.1828 -0.1418  0.1772
 1663SOL    HW216449   1.375   0.845   7.459  0.9308  1.2867 -0.4925
 1664SOL     OW16450   4.676   3.684  16.578 -0.2769  0.6180  0.2493
 1664SOL    HW116451   0.003   3.602  16.582  1.0030  1.4128  0.2994
 1664SOL    HW216452   4.636   3.695  16.492  1.9629  2.3926 -0.5599
 1665SOL     OW16453   2.885   1.249   8.783  0.0232  0.7119 -0.0578
 1665SOL    HW116454   2.842   1.207   8.858  1.5465  0.3665  0.6396
 1665SOL    HW216455   2.901   1.339   8.812 -2.6476  1.0989  0.1582
 1666SOL     OW16456   0.835   4.606  12.043  0.4038  0.1427  0.1833
 1666SOL    HW116457   0.909   4.563  12.084 -0.6565 -2.5133 -0.7269
 1666SOL    HW216458   0.869   4.664  11.974 -1.1867  1.4512  0.4831
 1667SOL     OW16459   2.703   4.564   6.999  0.1337  0.1202 -0.3092
 1667SOL    HW116460   2.677   4.543   6.909 -0.7948 -1.3390  0.3148
 1667SOL    HW216461   2.778   4.508   7.020  0.0910  0.8040  1.6873
 1668SOL     OW16462   4.704   3.566   8.891 -0.6263 -0.4942  0.7066
 1668SOL    HW116463   0.023   3.556   8.806  0.2502  1.8926  0.8922
 1668SOL    HW216464   4.612   3.568   8.862 -0.5110 -0.8983  0.3140
 1669SOL     OW16465   4.525   1.211  13.337  0.4588  0.8196 -0.1719
 1669SOL    HW116466   4.469   1.251  13.270  2.0144  1.8957 -0.8456
 1669SOL    HW216467   4.484   1.242  13.418 -1.3836  1.1130 -1.2125
 1670SOL     OW16468   4.558   1.581   1.031 -0.6621  0.6165  0.4470
 1670SOL    HW116469   4.600   1.646   1.088  1.4839  1.2672 -1.9144
 1670SOL    HW216470   4.631   1.518   1.036  0.3449  1.8817  1.7100
 1671SOL     OW16471   3.609   0.660   7.998  0.4569 -0.2658  0.4726
 1671SOL    HW116472   3.695   0.686   8.031  0.6831 -0.8892  0.3894
 1671SOL    HW216473   3.625   0.647   7.904  1.7951 -0.6242  0.7450
 1672SOL     OW16474   1.566   0.833   6.407  0.1893  0.2990  0.2550
 1672SOL    HW116475   1.486   0.858   6.360  0.7656 -0.6962 -1.2554
 1672SOL    HW216476   1.528   0.798   6.487  1.9919 -0.8813  0.6064
 1673SOL     OW16477   2.963   2.565  16.936 -0.3819  0.0579 -0.1069
 1673SOL    HW116478   2.968   2.557  17.031  1.6060  3.1763  0.0479
 1673SOL    HW216479   2.935   2.479  16.906 -0.6397  1.1701 -3.0746
 1674SOL     OW16480   1.497   3.926   0.101 -0.8811  0.4725 -0.7041
 1674SOL    HW116481   1.582   3.885   0.112 -1.5840 -0.6465  0.5821
 1674SOL    HW216482   1.454   3.893   0.179 -1.2820 -0.0254 -1.1328
 1675SOL     OW16483   1.204   2.369  11.911  0.0205 -0.1284  0.0166
 1675SOL    HW116484   1.270   2.306  11.882 -0.4250 -1.1212  1.1299
 1675SOL    HW216485   1.206   2.446  11.855 -0.5548  0.8623  1.3536
 1676SOL     OW16486   0.006   2.515  16.164 -0.4029 -0.2789 -0.2702
 1676SOL    HW116487   0.011   2.607  16.190 -0.3067 -0.0832 -0.9652
 1676SOL    HW216488   4.638   2.513  16.137 -0.7270 -0.8885  0.9051
 1677SOL     OW16489   0.083   0.281  17.558 -0.0714 -0.3778  0.0502
 1677SOL    HW116490   0.089   0.191  17.591  0.2017  0.3388  1.9568
 1677SOL    HW216491   0.162   0.314  17.602 -1.0179 -0.1653  1.6023
 1678SOL     OW16492   3.821   0.720  14.003  0.2555 -0.4147  0.2811
 1678SOL    HW116493   3.874   0.727  14.082 -0.0624 -1.6974  0.6210
 1678SOL    HW216494   3.884   0.717  13.931  0.5438  1.3007  0.4714
 1679SOL     OW16495   0.272   0.539  11.517  0.4159 -0.3277  0.5033
 1679SOL    HW116496   0.256   0.447  11.499 -0.1753 -0.4007  1.4084
 1679SOL    HW216497   0.197   0.589  11.485  1.0399 -0.8513 -1.8245
 1680SOL     OW16498   0.224   1.048   8.459  1.0612 -0.4630  0.6722
 1680SOL    HW116499   0.149   0.994   8.431  0.3436  0.1504  1.3966
 1680SOL    HW216500   0.229   1.111   8.387 -2.1620 -0.6113  0.2851
 1681SOL     OW16501   4.453   1.302  10.383  0.9541 -0.5919  0.7441
 1681SOL    HW116502   4.411   1.285  10.299  2.3314  0.2702 -0.1298
 1681SOL    HW216503   4.547   1.314  10.372  0.6551  0.5807 -0.4787
 1682SOL     OW16504   4.158   1.530   5.660 -0.0747 -0.4833 -0.0064
 1682SOL    HW116505   4.178   1.570   5.745 -2.5584  1.1967 -0.2123
 1682SOL    HW216506   4.065   1.554   5.650  0.0102 -0.8178 -1.6736
 1683SOL     OW16507   1.304   4.087   7.062  0.1959  0.1854 -0.5186
 1683SOL    HW116508   1.212   4.109   7.077 -0.0149 -0.3018 -1.0996
 1683SOL    HW216509   1.301   3.992   7.070 -3.2744  0.3880  0.4870
 1684SOL     OW16510   2.808   2.445   7.788  0.1362  0.0050 -0.1460
 1684SOL    HW116511   2.718   2.478   7.790  0.7716  1.6019  1.3819
 1684SOL    HW216512   2.786   2.354   7.811 -3.5178  0.7128 -0.9357
 1685SOL     OW16513   2.012   3.064  14.710 -0.3474 -0.1274 -0.0685
 1685SOL    HW116514   1.951   3.012  14.658 -0.8294  0.6001 -0.2352
 1685SOL    HW216515   2.097   3.043  14.672 -0.1798 -0.7174  0.6333
 1686SOL     OW16516   4.706   0.199   0.517 -0.1848  0.0146 -0.4126
 1686SOL    HW116517   0.060   0.156   0.553 -0.0341  0.1100 -0.6241
 1686SOL    HW216518   4.649   0.123   0.504  1.8007 -1.5832  0.1800
 1687SOL     OW16519   2.965   2.820   7.340 -0.3788 -0.7812  0.2619
 1687SOL    HW116520   3.037   2.862   7.387 -0.2141  1.2169 -1.7443
 1687SOL    HW216521   2.913   2.890   7.300  0.2748 -1.5990 -2.0225
 1688SOL     OW16522   0.080   2.888   8.307  0.3253  0.1525 -0.1894
 1688SOL    HW116523   0.002   2.890   8.363  0.9580 -2.1182  0.7615
 1688SOL    HW216524   0.083   2.976   8.271 -1.1978  1.1959  2.2540
 1689SOL     OW16525   0.245   3.951   8.219  0.2465  0.1046 -0.2419
 1689SOL    HW116526   0.169   3.909   8.260  1.3851 -1.0824  0.6333
 1689SOL    HW216527   0.228   4.043   8.238  1.6448 -0.5228  4.0337
 1690SOL     OW16528   1.499   3.610  14.196 -0.3751  0.0478 -0.2400
 1690SOL    HW116529   1.417   3.563  14.185 -0.3043  0.4968 -2.6102
 1690SOL    HW216530   1.512   3.627  14.290 -1.1537  0.8682 -0.2750
 1691SOL     OW16531   0.327   1.459   1.471 -0.1313 -0.4274  0.0902
 1691SOL    HW116532   0.247   1.408   1.462 -0.1966 -0.7774  2.7518
 1691SOL    HW216533   0.390   1.394   1.440 -2.0883 -1.7114 -1.2049
 1692SOL     OW16534   0.599   4.038   7.843 -0.0498 -0.0828  0.1395
 1692SOL    HW116535   0.663   3.967   7.844  1.0395  0.8656 -1.4860
 1692SOL    HW216536   0.519   4.000   7.806 -1.2544  2.9398 -0.3969
 1693SOL     OW16537   3.225   1.275  16.438  0.0030  0.2788  0.1564
 1693SOL    HW116538   3.187   1.363  16.431  1.0330  0.9219  2.5379
 1693SOL    HW216539   3.195   1.240  16.354 -1.8322  0.0869  0.8982
 1694SOL     OW16540   3.366   1.186   4.019  0.2344  0.0181  0.4228
 1694SOL    HW116541   3.411   1.229   3.946  2.6768 -0.2383  1.7899
 1694SOL    HW216542   3.309   1.122   3.977 -0.1415  1.3140 -1.0839
 1695SOL     OW16543   1.391   4.602   7.520 -0.8710  0.0768 -0.0833
 1695SOL    HW116544   1.409   4.522   7.471 -2.2189 -0.5879  0.4927
 1695SOL    HW216545   1.456   4.596   7.590 -1.2603 -1.3656  0.1576
 1696SOL     OW16546   3.449   4.247   1.556  0.3575 -0.1967 -0.4172
 1696SOL    HW116547   3.497   4.174   1.596  0.0785 -0.6147 -0.8377
 1696SOL    HW216548   3.465   4.236   1.462 -1.2543 -1.9395 -0.4863
 1697SOL     OW16549   1.764   1.001   5.529 -0.6373 -0.1069 -0.6099
 1697SOL    HW116550   1.786   1.033   5.617  0.0591  0.7625 -1.1007
 1697SOL    HW216551   1.709   1.069   5.488 -0.3585  0.4890 -0.0032
 1698SOL     OW16552   1.485   1.514   7.389 -0.0333  0.2694 -0.1605
 1698SOL    HW116553   1.543   1.527   7.464 -2.0187 -2.1607  1.7773
 1698SOL    HW216554   1.546   1.552   7.325  0.7510 -0.3670  0.2148
 1699SOL     OW16555   1.225   2.637   5.752  0.1102  0.3108  0.0762
 1699SOL    HW116556   1.163   2.623   5.681  0.8712  2.5339 -1.0442
 1699SOL    HW216557   1.286   2.690   5.700  0.1169  0.8776  0.6555
 1700SOL     OW16558   3.196   0.920   9.533 -0.0399  0.5512 -0.3011
 1700SOL    HW116559   3.185   0.983   9.462 -0.5827  0.0006 -0.7082
 1700SOL    HW216560   3.195   0.837   9.485 -0.5743  1.1102 -1.2438
 1701SOL     OW16561   1.442   2.144  14.648 -0.1040  0.6810 -0.1569
 1701SOL    HW116562   1.373   2.115  14.589  2.4747 -0.9632 -2.3889
 1701SOL    HW216563   1.384   2.191  14.707 -1.2204 -1.0853  0.1697
 1702SOL     OW16564   3.108   4.275  14.669  0.4693 -0.2839 -0.0456
 1702SOL    HW116565   3.112   4.359  14.623  1.2184 -0.8225 -0.9719
 1702SOL    HW216566   3.054   4.218  14.616  0.3415 -1.8066  1.7287
 1703SOL     OW16567   2.153   1.527  10.959 -0.1601  0.0829  0.1314
 1703SOL    HW116568   2.074   1.477  10.979  1.3983 -2.0199  1.0546
 1703SOL    HW216569   2.222   1.469  10.926 -1.1554 -0.5568 -0.8203
 1704SOL     OW16570   4.389   1.661   9.334  0.0540 -0.1008  0.0033
 1704SOL    HW116571   4.369   1.754   9.322  0.8365 -0.1342 -1.5868
 1704SOL    HW216572   4.305   1.643   9.376  2.3345 -2.4682  3.5312
 1705SOL     OW16573   1.602   2.060   5.803 -0.0311 -0.5901 -0.0126
 1705SOL    HW116574   1.569   2.129   5.746  1.7939  2.1146  2.1846
 1705SOL    HW216575   1.518   2.015   5.811  0.5830 -2.1814 -2.5087
 1706SOL     OW16576   2.214   2.950   2.466  0.3642 -0.5114 -0.9337
 1706SOL    HW116577   2.197   2.989   2.380 -3.1289  1.5841  0.7233
 1706SOL    HW216578   2.135   2.974   2.514  1.0214  0.5856 -0.3915
 1707SOL     OW16579   1.194   3.692   2.100 -0.1070  0.3846  0.0013
 1707SOL    HW116580   1.238   3.621   2.054 -1.6139  1.1735 -2.6643
 1707SOL    HW216581   1.180   3.746   2.022 -1.5021 -0.1160 -0.0827
 1708SOL     OW16582   4.159   4.270  11.324 -0.1536 -0.1091  0.1096
 1708SOL    HW116583   4.081   4.230  11.364 -2.0034 -0.2235 -3.6528
 1708SOL    HW216584   4.230   4.215  11.356  1.6418  0.0222 -3.6622
 1709SOL     OW16585   1.709   3.144   3.536  0.1884  0.0953 -0.5240
 1709SOL    HW116586   1.660   3.157   3.617 -0.7737  0.0149 -1.0908
 1709SOL    HW216587   1.637   3.164   3.477  0.6621  0.6909 -0.8918
 1710SOL     OW16588   3.638   3.230  12.054 -0.1325 -0.1129 -0.2903
 1710SOL    HW116589   3.573   3.162  12.073  3.2587 -2.9797  0.8966
 1710SOL    HW216590   3.637   3.223  11.959  1.7008  0.3066 -0.3349
 1711SOL     OW16591   1.115   2.637   9.243  0.0517  0.0948  0.1449
 1711SOL    HW116592   1.196   2.649   9.193 -1.3069  0.5343 -1.9305
 1711SOL    HW216593   1.079   2.559   9.200  2.1795  0.1419 -1.7466
 1712SOL     OW16594   0.077   1.486  10.842  0.3660  0.4716 -0.2253
 1712SOL    HW116595   0.023   1.562  10.864  1.7113  0.6532  2.4404
 1712SOL    HW216596   0.086   1.447  10.929  0.2876  2.3857  0.6563
 1713SOL     OW16597   1.955   3.752   1.779 -0.6739 -0.0523 -0.2197
 1713SOL    HW116598   2.036   3.738   1.731 -0.2667 -2.4866  1.1878
 1713SOL    HW216599   1.997   3.775   1.862  2.5041 -0.2113 -1.7701
 1714SOL     OW16600   4.124   2.682   5.405  0.2332  0.2110 -0.0060
 1714SOL    HW116601   4.146   2.739   5.331 -2.1537 -0.5530 -1.3176
 1714SOL    HW216602   4.155   2.594   5.382 -1.6211 -0.2572 -0.7382
 1715SOL     OW16603   1.246   0.049  15.818 -0.0417 -0.0627 -0.0366
 1715SOL    HW116604   1.194   0.114  15.771 -0.7760 -1.9034 -1.7625
 1715SOL    HW216605   1.331   0.067  15.778 -0.5083  0.5023 -0.7752
 1716SOL     OW16606   1.780   3.182   8.404 -0.3397 -0.3293  0.0820
 1716SOL    HW116607   1.718   3.136   8.461 -1.4080  0.5893 -0.3382
 1716SOL    HW216608   1.786   3.262   8.455  0.1889 -0.8829  0.8952
 1717SOL     OW16609   1.647   3.146   5.891 -0.1094  0.2544 -0.4056
 1717SOL    HW116610   1.702   3.225   5.896 -1.9696  1.5169  0.2382
 1717SOL    HW216611   1.678   3.106   5.810 -0.0162  0.1752 -0.3308
 1718SOL     OW16612   4.377   1.886  14.877  0.4029 -0.5522  0.2936
 1718SOL    HW116613   4.442   1.829  14.836 -1.0900 -0.3520 -2.3490
 1718SOL    HW216614   4.306   1.892  14.813 -1.1384 -2.0276  1.8676
 1719SOL     OW16615   3.563   0.390  10.789  0.1972  0.4565 -0.1685
 1719SOL    HW116616   3.648   0.386  10.746  0.9766  2.5619  1.1564
 1719SOL    HW216617   3.519   0.463  10.745  0.1064  1.6692  1.9257
 1720SOL     OW16618   4.254   4.521   0.850 -0.9538 -0.0670 -0.2487
 1720SOL    HW116619   4.290   4.599   0.891  0.7686 -0.0463 -1.8199
 1720SOL    HW216620   4.308   4.455   0.893  1.1831  0.2989 -2.4220
 1721SOL     OW16621   3.720   2.982   8.513  0.0205  0.0118  0.8496
 1721SOL    HW116622   3.693   2.950   8.427 -2.2274  1.8161  0.8904
 1721SOL    HW216623   3.704   2.906   8.569 -1.8696 -1.4318 -1.6298
 1722SOL     OW16624   3.442   2.852   5.028 -0.0308 -0.1412 -0.0354
 1722SOL    HW116625   3.367   2.894   5.071 -0.2614 -0.4662 -0.1159
 1722SOL    HW216626   3.507   2.843   5.098 -0.1787  1.4116  0.2865
 1723SOL     OW16627   0.704   1.898  13.090  0.2787  0.2212 -0.8138
 1723SOL    HW116628   0.622   1.947  13.094 -0.1948 -0.6561  0.0710
 1723SOL    HW216629   0.718   1.873  13.181  0.7000 -0.2501 -1.0062
 1724SOL     OW16630   2.618   3.314  11.701 -0.0178 -0.2760 -0.0061
 1724SOL    HW116631   2.654   3.389  11.654  0.7874 -0.8754 -0.3565
 1724SOL    HW216632   2.566   3.356  11.769 -0.4722  0.9860 -1.1262
 1725SOL     OW16633   4.374   3.311   1.606 -0.1777 -0.5176  0.1236
 1725SOL    HW116634   4.411   3.318   1.694 -0.3759  1.4279  0.0560
 1725SOL    HW216635   4.357   3.217   1.596  1.2340 -0.9512  1.7961
 1726SOL     OW16636   4.338   3.578   7.237  0.2476 -0.5759  0.5220
 1726SOL    HW116637   4.378   3.553   7.320  1.2907 -0.6183  0.0073
 1726SOL    HW216638   4.367   3.506   7.180  0.6832  0.0654 -0.0678
 1727SOL     OW16639   2.774   2.205   4.191 -0.4295  0.5729  0.2034
 1727SOL    HW116640   2.725   2.185   4.271 -0.2600 -0.9233 -0.0614
 1727SOL    HW216641   2.731   2.284   4.159  0.0875 -0.0316 -2.0073
 1728SOL     OW16642   3.909   2.835   2.908 -0.4666  0.1006 -0.2515
 1728SOL    HW116643   3.860   2.754   2.895 -1.0905  0.2465  1.1870
 1728SOL    HW216644   3.831   2.891   2.915 -1.0673 -0.6469 -0.8665
 1729SOL     OW16645   1.343   0.782   7.290  0.8907  0.4578 -0.0970
 1729SOL    HW116646   1.284   0.715   7.255 -1.6641  2.2632  0.7505
 1729SOL    HW216647   1.422   0.767   7.239  0.2422  0.1933 -1.0385
 1730SOL     OW16648   4.037   4.020  16.740 -0.0972  0.4920  0.0390
 1730SOL    HW116649   3.965   4.014  16.803 -0.4172 -3.2262 -0.6613
 1730SOL    HW216650   4.039   3.929  16.708  1.4794  0.0815  1.2690
 1731SOL     OW16651   1.535   1.234   2.585 -0.6507  0.3181 -0.3307
 1731SOL    HW116652   1.507   1.151   2.547  0.5539 -0.3708  0.2834
 1731SOL    HW216653   1.530   1.213   2.678 -2.0525 -0.7419 -0.6499
 1732SOL     OW16654   2.158   3.747  14.011  0.2410  0.2630  0.2223
 1732SOL    HW116655   2.185   3.670  14.061  0.5373  2.1295  2.9923
 1732SOL    HW216656   2.064   3.747  13.995  0.3003  1.8556 -0.1722
 1733SOL     OW16657   2.230   2.384   5.925  0.8180  0.1083 -0.6330
 1733SOL    HW116658   2.268   2.302   5.956 -0.3660  0.6370  2.1902
 1733SOL    HW216659   2.308   2.416   5.879  0.6529  1.8384  0.2687
 1734SOL     OW16660   4.673   4.233   5.145 -0.0655 -0.7830 -0.8611
 1734SOL    HW116661   4.649   4.143   5.126 -1.6632 -0.3871 -0.7086
 1734SOL    HW216662   4.593   4.280   5.168  1.2546  0.6525  0.8187
 1735SOL     OW16663   2.977   3.284  17.138 -0.5345 -0.4848  0.3881
 1735SOL    HW116664   3.044   3.352  17.144 -2.9716  2.0980 -1.1610
 1735SOL    HW216665   3.027   3.203  17.136  1.8127  0.9679 -0.1953
 1736SOL     OW16666   4.256   2.899   3.615  0.3023  0.8441  0.1322
 1736SOL    HW116667   4.197   2.953   3.562 -0.0241 -1.9456 -2.3550
 1736SOL    HW216668   4.249   2.816   3.568 -0.6131  0.9195  0.1294
 1737SOL     OW16669   3.167   2.630   2.710  0.9444  0.2093 -0.0796
 1737SOL    HW116670   3.164   2.547   2.663  0.3565  0.3825 -0.3450
 1737SOL    HW216671   3.259   2.624   2.737  0.7888  0.8685  0.5950
 1738SOL     OW16672   2.186   0.038   2.196  0.4090 -0.4357 -0.0538
 1738SOL    HW116673   2.277   0.027   2.167  0.6230 -2.2951  1.3713
 1738SOL    HW216674   2.192   0.127   2.230  0.7307 -0.3747 -0.2651
 1739SOL     OW16675   4.270   3.004   3.900 -0.2589 -0.2967 -0.0511
 1739SOL    HW116676   4.266   2.996   3.804 -1.7939  0.4027 -0.0377
 1739SOL    HW216677   4.218   3.083   3.911  1.0440  0.7644 -1.4230
 1740SOL     OW16678   1.864   4.083   4.596  0.3129 -0.5992  0.4692
 1740SOL    HW116679   1.930   4.063   4.663  0.6739  1.8456  0.8581
 1740SOL    HW216680   1.802   4.010   4.603 -0.5944  0.1229 -0.0773
 1741SOL     OW16681   2.405   2.818   3.900 -0.1921  0.5969  0.1058
 1741SOL    HW116682   2.419   2.830   3.807 -0.1359  1.4101  0.2211
 1741SOL    HW216683   2.463   2.743   3.914  0.8178  1.0108 -1.8428
 1742SOL     OW16684   2.700   2.516   4.790  0.4097  0.0502  0.4787
 1742SOL    HW116685   2.640   2.501   4.717 -0.1994  1.0530  0.7718
 1742SOL    HW216686   2.780   2.475   4.756 -0.4631 -0.2134 -1.2427
 1743SOL     OW16687   0.729   1.093   8.718  0.6337 -0.2207 -0.3330
 1743SOL    HW116688   0.647   1.065   8.679 -1.7892 -1.0986  5.3718
 1743SOL    HW216689   0.754   1.005   8.747  0.5443  0.2309  1.0971
 1744SOL     OW16690   4.506   0.666   6.045 -0.0346 -0.4650 -0.0818
 1744SOL    HW116691   4.508   0.732   6.114  1.3483 -0.0847 -0.4803
 1744SOL    HW216692   4.422   0.697   6.011  0.7588  1.3656 -0.3840
 1745SOL     OW16693   1.956   1.223   7.798  0.1720  0.7369  0.4117
 1745SOL    HW116694   1.965   1.155   7.864 -2.5023  0.1290  0.1650
 1745SOL    HW216695   2.039   1.271   7.790 -0.4617  1.9857  1.2086
 1746SOL     OW16696   0.736   3.771   7.151  0.6041  0.0714 -0.0678
 1746SOL    HW116697   0.810   3.831   7.146  2.1514 -1.8672  0.0959
 1746SOL    HW216698   0.747   3.724   7.068  2.2361 -0.3282  0.3904
 1747SOL     OW16699   1.300   1.838   4.707 -0.6616 -0.3736 -0.1979
 1747SOL    HW116700   1.317   1.929   4.728 -1.4132 -0.3314  0.2485
 1747SOL    HW216701   1.218   1.845   4.657  0.6165  1.0981 -2.0637
 1748SOL     OW16702   4.532   3.697   3.095 -0.2175  0.2573  0.3586
 1748SOL    HW116703   4.533   3.770   3.156 -2.4316  0.6798 -0.1115
 1748SOL    HW216704   4.486   3.736   3.021 -2.0941 -0.0851  1.3588
 1749SOL     OW16705   1.929   2.268  11.325 -0.8034 -0.1256 -0.3417
 1749SOL    HW116706   1.870   2.193  11.317  0.5578 -1.1762 -0.5157
 1749SOL    HW216707   1.877   2.347  11.311 -3.9056 -2.3126 -0.9861
 1750SOL     OW16708   4.417   2.625  14.152  0.1174 -0.3495  0.6707
 1750SOL    HW116709   4.392   2.635  14.243  0.5551 -0.0245  0.7538
 1750SOL    HW216710   4.430   2.718  14.135 -1.2436 -0.0062  1.6018
 1751SOL     OW16711   0.538   1.143   2.623 -0.1977  0.5983 -0.1737
 1751SOL    HW116712   0.575   1.232   2.629  1.0932  0.0569  0.0160
 1751SOL    HW216713   0.536   1.117   2.715  1.6738  1.0251  0.0019
 1752SOL     OW16714   4.066   3.794   9.309  0.1437 -0.4484 -0.5461
 1752SOL    HW116715   3.977   3.772   9.337  1.0558  0.8683  3.3684
 1752SOL    HW216716   4.107   3.789   9.395 -0.8510  0.8695  0.0095
 1753SOL     OW16717   2.780   4.468   9.162  0.1737 -0.2467  0.3863
 1753SOL    HW116718   2.843   4.403   9.193  0.2067  0.0136  0.8595
 1753SOL    HW216719   2.706   4.412   9.137 -0.9756  1.4691 -0.0436
 1754SOL     OW16720   2.652   1.483   2.286 -0.1459  0.4600  0.0372
 1754SOL    HW116721   2.689   1.495   2.199  0.1118 -1.8154 -0.1650
 1754SOL    HW216722   2.683   1.566   2.322 -0.0135  0.3260  0.2359
 1755SOL     OW16723   1.414   2.904   2.777  0.1455  0.3267  0.2398
 1755SOL    HW116724   1.422   2.816   2.814 -0.9615  0.0870 -0.0889
 1755SOL    HW216725   1.363   2.900   2.697  1.3627  1.4629 -0.5764
 1756SOL     OW16726   0.025   4.099   0.323  0.4135  0.2488  0.1394
 1756SOL    HW116727   4.658   4.075   0.338 -0.1230  1.1687 -1.6253
 1756SOL    HW216728   0.075   4.054   0.392  1.7318 -0.0267 -0.9802
 1757SOL     OW16729   2.338   0.335   9.992 -0.4134  0.0583 -0.0518
 1757SOL    HW116730   2.367   0.246   9.974  1.5848  0.5934  0.5502
 1757SOL    HW216731   2.379   0.352  10.076 -0.1722 -1.9253  0.2123
 1758SOL     OW16732   0.991   0.882   2.227 -0.1919  0.1953  0.6774
 1758SOL    HW116733   1.046   0.918   2.297 -0.2740 -0.6407  1.1678
 1758SOL    HW216734   1.011   0.942   2.155 -1.1684  0.7639  0.8837
 1759SOL     OW16735   2.858   2.227   7.504 -0.1858  0.1042 -0.0390
 1759SOL    HW116736   2.951   2.246   7.518 -0.3599  1.4806 -0.7425
 1759SOL    HW216737   2.840   2.294   7.437 -1.3150  1.1967  1.3619
 1760SOL     OW16738   1.750   3.792   0.511  0.0346 -0.3192 -0.0441
 1760SOL    HW116739   1.664   3.834   0.505  0.9801  1.6971  0.2832
 1760SOL    HW216740   1.740   3.720   0.573 -0.7061 -0.8148 -0.7300
 1761SOL     OW16741   0.324   0.420   1.344 -0.2220 -0.8877 -0.0405
 1761SOL    HW116742   0.310   0.399   1.436 -0.4367 -1.9792 -0.3266
 1761SOL    HW216743   0.236   0.400   1.312 -0.2429 -0.2330 -0.4052
 1762SOL     OW16744   1.800   2.621   4.890  0.3650  0.5915  0.1665
 1762SOL    HW116745   1.813   2.693   4.828  2.1106 -1.2509 -1.6199
 1762SOL    HW216746   1.877   2.567   4.907  0.2939  0.4545  0.0488
 1763SOL     OW16747   3.723   4.355   4.958 -1.0188  0.5502 -0.0743
 1763SOL    HW116748   3.702   4.435   5.005 -1.0130  1.3639 -1.4617
 1763SOL    HW216749   3.669   4.283   4.992 -0.4493 -0.9251 -2.2740
 1764SOL     OW16750   1.901   3.799   4.418  0.7834 -0.2424 -0.6337
 1764SOL    HW116751   1.889   3.805   4.513 -3.3896  0.1750 -1.2025
 1764SOL    HW216752   1.946   3.715   4.410 -1.1558 -1.4535  1.0979
 1765SOL     OW16753   3.202   0.791  14.197  0.4021  0.1428  0.3195
 1765SOL    HW116754   3.194   0.726  14.127 -1.0468  0.9989 -0.3014
 1765SOL    HW216755   3.245   0.743  14.268  1.0104  0.9220  0.4822
 1766SOL     OW16756   2.922   0.617   3.165 -0.1677 -0.0919 -0.3800
 1766SOL    HW116757   2.828   0.637   3.158 -0.2673 -0.4267  0.0093
 1766SOL    HW216758   2.917   0.522   3.160 -1.0965  0.0181 -1.5224
 1767SOL     OW16759   3.814   3.880   5.231  0.1469  0.0750  0.0708
 1767SOL    HW116760   3.833   3.964   5.189 -0.5599  0.9323  1.4502
 1767SOL    HW216761   3.721   3.889   5.213  0.1513 -0.7603 -0.3502
 1768SOL     OW16762   3.878   2.251   9.019  0.2854  0.5792  0.0040
 1768SOL    HW116763   3.874   2.203   8.937 -2.7173  2.8366 -1.1685
 1768SOL    HW216764   3.912   2.339   8.999 -0.0794  0.6074 -0.4998
 1769SOL     OW16765   0.097   4.484  13.189 -0.0547 -0.2095 -0.7500
 1769SOL    HW116766   0.170   4.438  13.231 -0.3055  0.2795  0.2116
 1769SOL    HW216767   0.023   4.425  13.205 -0.2087 -0.2104 -1.4521
 1770SOL     OW16768   1.066   1.278   8.697 -0.1037 -0.2158 -0.0771
 1770SOL    HW116769   1.004   1.347   8.722 -2.2483 -1.5442 -1.7090
 1770SOL    HW216770   1.082   1.308   8.607  0.3490  1.0428  0.4173
 1771SOL     OW16771   0.067   3.232   5.720  0.1782  0.3044  0.4889
 1771SOL    HW116772   0.060   3.252   5.813 -1.2439 -0.3826  0.5319
 1771SOL    HW216773   4.712   3.178   5.711 -0.5503  1.2694  1.1128
 1772SOL     OW16774   0.026   0.046   9.313 -0.2983 -0.0960  0.0119
 1772SOL    HW116775   4.693   0.108   9.358 -2.4663 -1.3390 -1.0689
 1772SOL    HW216776   0.066   0.099   9.245  0.9575  0.1635  0.9440
 1773SOL     OW16777   3.518   0.647   7.209 -0.3977 -0.5465  0.5089
 1773SOL    HW116778   3.542   0.722   7.154  2.4118 -0.9061  1.2178
 1773SOL    HW216779   3.424   0.635   7.197 -0.4354  0.7716 -0.5786
 1774SOL     OW16780   2.828   1.544  13.744  0.1019 -0.0967 -0.1598
 1774SOL    HW116781   2.773   1.526  13.820 -1.0607 -0.3098 -1.0483
 1774SOL    HW216782   2.820   1.640  13.743  2.8946  0.1752  1.3057
 1775SOL     OW16783   3.356   2.731   4.770  0.5045 -0.0797 -0.0309
 1775SOL    HW116784   3.425   2.793   4.746 -0.9167  2.0739  1.4806
 1775SOL    HW216785   3.357   2.748   4.864  1.3518 -1.0896  0.1452
 1776SOL     OW16786   4.020   2.940   3.488  0.4679  0.5863 -0.3420
 1776SOL    HW116787   3.927   2.953   3.504  0.4341  0.4197 -0.3996
 1776SOL    HW216788   4.030   2.846   3.472 -1.4439  0.5257 -1.1424
 1777SOL     OW16789   4.588   1.651  11.554 -0.0534  0.7165  0.4837
 1777SOL    HW116790   4.518   1.683  11.497  0.8749  2.3991  0.2680
 1777SOL    HW216791   4.661   1.709  11.531 -0.0458  0.2043 -0.7706
 1778SOL     OW16792   0.946   3.047   1.981  0.0144 -0.0048 -0.4430
 1778SOL    HW116793   0.922   3.045   1.888  3.0073  0.5971 -1.2328
 1778SOL    HW216794   0.883   2.992   2.028  0.5283 -0.2323 -0.0130
 1779SOL     OW16795   1.800   1.055   1.959  0.6431  0.3277 -0.3286
 1779SOL    HW116796   1.848   0.978   1.988  0.8254  0.1106 -1.1880
 1779SOL    HW216797   1.860   1.125   1.985  0.2835  0.7943 -0.7510
 1780SOL     OW16798   1.558   0.405  11.858 -0.4982  0.3354 -0.3668
 1780SOL    HW116799   1.525   0.397  11.769 -0.1225 -0.8660 -0.3966
 1780SOL    HW216800   1.492   0.469  11.886 -0.9780  0.2374 -1.2622
 1781SOL     OW16801   3.469   4.151   5.722 -0.4141  0.1826  0.5196
 1781SOL    HW116802   3.521   4.123   5.797  0.2092  0.3378  0.1484
 1781SOL    HW216803   3.462   4.076   5.662 -1.8152  0.1514  0.7439
 1782SOL     OW16804   1.216   1.546  12.870  0.1442  0.4440 -0.3462
 1782SOL    HW116805   1.275   1.595  12.929 -0.7249  1.3258 -0.2054
 1782SOL    HW216806   1.189   1.615  12.809  0.6961  1.4578  0.5430
 1783SOL     OW16807   1.095   3.907   5.312 -0.0505 -0.7461  0.2659
 1783SOL    HW116808   1.006   3.931   5.338 -0.8922 -3.5413 -0.0402
 1783SOL    HW216809   1.136   3.993   5.309 -0.7083 -0.4935 -1.2196
 1784SOL     OW16810   2.799   2.632   2.222 -0.0645 -0.4923 -0.2222
 1784SOL    HW116811   2.858   2.628   2.147  1.8265 -0.3128  1.2310
 1784SOL    HW216812   2.866   2.637   2.290 -0.7656 -1.7610  0.5590
 1785SOL     OW16813   4.218   0.090  14.031 -0.0796  0.2435  0.0148
 1785SOL    HW116814   4.158   0.017  14.019  1.6593 -1.3404  0.9656
 1785SOL    HW216815   4.154   0.161  14.020 -0.5473 -0.1870 -0.0329
 1786SOL     OW16816   1.350   3.355   9.829 -0.3176  0.7565  0.6929
 1786SOL    HW116817   1.443   3.351   9.851 -0.0429  2.0758 -0.2371
 1786SOL    HW216818   1.342   3.421   9.760 -2.5075 -0.3642 -0.1274
 1787SOL     OW16819   0.708   2.633   6.167 -0.6847 -0.3104 -1.2755
 1787SOL    HW116820   0.730   2.726   6.175  0.8455 -0.9663  1.8828
 1787SOL    HW216821   0.637   2.641   6.103 -1.1362 -0.5422 -0.8029
 1788SOL     OW16822   0.275   1.438  16.446  0.6019 -0.0557  0.0031
 1788SOL    HW116823   0.293   1.511  16.386  0.5988  0.2241  0.3448
 1788SOL    HW216824   0.303   1.467  16.533  0.4963 -0.4042  0.1524
 1789SOL     OW16825   3.811   4.374   1.149 -0.0627  0.3975  0.0474
 1789SOL    HW116826   3.844   4.297   1.194 -0.7773 -0.4394 -0.8596
 1789SOL    HW216827   3.716   4.364   1.152 -0.2102  1.3365 -1.2877
 1790SOL     OW16828   1.330   1.290   5.226 -0.0680 -0.0357 -0.2267
 1790SOL    HW116829   1.357   1.380   5.247 -2.4459  0.7930 -0.6776
 1790SOL    HW216830   1.235   1.306   5.225  0.0624  0.9063  1.0352
 1791SOL     OW16831   2.110   0.869   2.871  0.3130  0.3717 -0.5247
 1791SOL    HW116832   2.067   0.831   2.947  0.5565  0.8480 -0.1430
 1791SOL    HW216833   2.144   0.789   2.831 -2.0322 -2.4545  3.2620
 1792SOL     OW16834   3.102   4.176  15.784  0.9179 -0.0530  0.0444
 1792SOL    HW116835   3.155   4.253  15.762  1.7790 -0.4286  0.7629
 1792SOL    HW216836   3.016   4.208  15.810  0.5506 -1.2199  0.2691
 1793SOL     OW16837   2.084   2.707   4.697  0.1346  0.1148  0.4120
 1793SOL    HW116838   2.089   2.787   4.644 -0.9599 -0.0879  0.0013
 1793SOL    HW216839   2.174   2.679   4.713  0.1846  0.0232 -0.0268
 1794SOL     OW16840   0.134   3.759   4.511  0.0472 -0.1369 -0.0307
 1794SOL    HW116841   0.082   3.835   4.536 -1.3833 -1.3234  0.5719
 1794SOL    HW216842   0.136   3.695   4.582 -1.3683 -0.1394  0.0047
 1795SOL     OW16843   2.361   1.751   2.921  0.4927 -0.8804 -0.6394
 1795SOL    HW116844   2.328   1.730   2.834 -0.2442 -0.9601 -0.3427
 1795SOL    HW216845   2.307   1.681   2.958  2.2267 -1.7549  0.2442
 1796SOL     OW16846   2.540   2.449   8.541 -0.3154 -0.6875 -0.2900
 1796SOL    HW116847   2.495   2.415   8.463 -0.2202 -2.6742  0.5196
 1796SOL    HW216848   2.469   2.492   8.589  0.6835 -1.2252  1.6804
 1797SOL     OW16849   3.135   1.996   7.307 -0.1122  0.0450 -0.2961
 1797SOL    HW116850   3.083   1.944   7.246 -0.3357 -0.7563  0.5728
 1797SOL    HW216851   3.098   2.084   7.307  1.0475  0.5345  1.3341
 1798SOL     OW16852   1.225   3.765   2.375  0.0237  0.3754  0.6758
 1798SOL    HW116853   1.176   3.687   2.399 -2.1147  1.9521  1.4049
 1798SOL    HW216854   1.220   3.739   2.283  2.8702  3.0043 -0.2347
 1799SOL     OW16855   4.094   3.829  17.123  0.1032 -0.2537 -0.2754
 1799SOL    HW116856   4.162   3.781  17.170  0.3011 -0.4396 -0.7566
 1799SOL    HW216857   4.135   3.841  17.037 -2.6008  1.9552 -1.2325
 1800SOL     OW16858   1.315   2.395   9.781 -0.3784  0.0969 -0.2036
 1800SOL    HW116859   1.262   2.380   9.860 -2.8306  1.5115 -1.5888
 1800SOL    HW216860   1.380   2.458   9.810 -0.5457  0.2332 -0.1284
 1801SOL     OW16861   0.713   0.686   9.398  0.5857 -0.5794  0.0181
 1801SOL    HW116862   0.743   0.611   9.346 -0.3216 -1.0150  0.1360
 1801SOL    HW216863   0.650   0.641   9.453 -0.3129  0.9898  0.2832
 1802SOL     OW16864   0.441   3.940   6.314  0.1334 -0.0664  0.3605
 1802SOL    HW116865   0.525   3.916   6.277  0.0332 -0.1659  0.1991
 1802SOL    HW216866   0.383   3.863   6.313 -0.4212  0.3747 -1.3398
 1803SOL     OW16867   1.757   2.761   7.246 -0.0463  0.1935  0.5955
 1803SOL    HW116868   1.674   2.714   7.247 -0.3069  0.6567  0.5680
 1803SOL    HW216869   1.818   2.688   7.237  0.1122  0.4326 -0.2512
 1804SOL     OW16870   4.527   0.008   4.458 -0.4288 -0.1457  0.1664
 1804SOL    HW116871   4.524   4.640   4.483  1.1531 -0.4780 -0.8658
 1804SOL    HW216872   4.610   0.040   4.492  1.6840 -5.8402  0.3236
 1805SOL     OW16873   0.875   3.046   2.966 -0.2508  0.6877  0.0604
 1805SOL    HW116874   0.799   3.104   2.978 -0.5426  0.6420 -1.5524
 1805SOL    HW216875   0.861   2.993   3.045 -1.4241  0.0049 -0.6024
 1806SOL     OW16876   1.425   4.510   8.582  0.0292  0.3295 -0.1810
 1806SOL    HW116877   1.390   4.573   8.644 -0.6341  0.5460 -0.7725
 1806SOL    HW216878   1.454   4.439   8.639 -1.0567  1.1232  1.3425
 1807SOL     OW16879   4.338   0.251   7.038  0.2079  0.2733  0.0220
 1807SOL    HW116880   4.417   0.283   6.994  0.4504 -0.1532  0.1459
 1807SOL    HW216881   4.370   0.268   7.126  2.4731  0.6912 -0.8817
 1808SOL     OW16882   4.434   0.019   6.681  0.1196  0.0795 -0.3443
 1808SOL    HW116883   4.345   0.014   6.715  0.4470 -1.8139  0.2022
 1808SOL    HW216884   4.478   0.071   6.749 -0.3135  1.2554 -0.9516
 1809SOL     OW16885   3.066   0.622   5.114  0.2769  0.3819  0.0417
 1809SOL    HW116886   3.085   0.707   5.154  2.1848 -0.4946  0.9803
 1809SOL    HW216887   3.122   0.613   5.037  0.2975 -2.3037  0.3938
 1810SOL     OW16888   3.703   0.833   3.251  0.0559  0.0175  0.1753
 1810SOL    HW116889   3.765   0.800   3.185  0.4077  2.0796 -0.5099
 1810SOL    HW216890   3.760   0.895   3.297  1.4182 -0.2414 -1.1600
 1811SOL     OW16891   1.280   3.394   3.007  0.4642  0.2066  0.2218
 1811SOL    HW116892   1.194   3.352   3.018 -0.4234  1.8824 -0.3406
 1811SOL    HW216893   1.329   3.312   3.004  0.5177  0.3686 -3.1870
 1812SOL     OW16894   1.009   3.417  11.080 -0.1474  0.0655 -0.0235
 1812SOL    HW116895   1.040   3.488  11.135  1.5453 -0.1456 -0.6772
 1812SOL    HW216896   0.993   3.467  11.000 -1.7941  0.2961  0.4583
 1813SOL     OW16897   0.035   0.769   0.121 -0.1405  0.8974 -0.8027
 1813SOL    HW116898   0.103   0.726   0.172  0.0804  1.1549 -0.8798
 1813SOL    HW216899   4.681   0.751   0.174 -0.3933  2.1253 -0.7483
 1814SOL     OW16900   0.933   0.468  10.023 -0.1698  0.2277  0.0194
 1814SOL    HW116901   0.969   0.552   9.995 -1.5804  0.4949 -0.9601
 1814SOL    HW216902   1.015   0.421  10.040 -1.7708 -2.4668  0.2785
 1815SOL     OW16903   3.990   1.610   9.011  0.1664 -0.2943  0.0630
 1815SOL    HW116904   4.070   1.578   8.968 -0.0758 -2.0180  0.8970
 1815SOL    HW216905   3.936   1.624   8.933 -1.0948 -1.3044  0.7526
 1816SOL     OW16906   1.939   2.826   2.533  0.6303 -0.0494  0.3097
 1816SOL    HW116907   1.975   2.877   2.460  1.3672 -2.1695 -0.8037
 1816SOL    HW216908   1.998   2.754   2.554  1.5060  1.1336  1.8671
 1817SOL     OW16909   1.363   2.014   6.210 -0.1152  0.1218 -0.2610
 1817SOL    HW116910   1.375   1.928   6.169  1.5892  0.1795  0.1075
 1817SOL    HW216911   1.355   1.984   6.300 -2.9901 -1.6689 -1.1312
 1818SOL     OW16912   3.545   4.471   2.267 -0.2418  0.2596 -0.0429
 1818SOL    HW116913   3.576   4.487   2.177  1.3319 -0.4430  0.3667
 1818SOL    HW216914   3.489   4.547   2.279 -0.4527  0.1138 -0.1144
 1819SOL     OW16915   0.481   4.521   8.418  0.1899 -0.0926 -0.2318
 1819SOL    HW116916   0.495   4.608   8.457 -1.1461 -1.0830  2.3707
 1819SOL    HW216917   0.402   4.487   8.458  0.9918  2.2055  3.3107
 1820SOL     OW16918   2.727   3.235   5.852 -0.0122  0.3004  0.1883
 1820SOL    HW116919   2.695   3.205   5.937 -1.7707 -0.0016 -0.5905
 1820SOL    HW216920   2.769   3.165   5.803  2.8376  0.7137  2.0321
 1821SOL     OW16921   1.923   1.160   1.401  0.0653  0.1067  0.0550
 1821SOL    HW116922   1.877   1.128   1.479 -1.1974  0.2289 -0.6435
 1821SOL    HW216923   1.963   1.076   1.380  0.6008  0.1961  0.7075
 1822SOL     OW16924   3.342   2.700   2.021 -0.6071  0.1572 -0.0513
 1822SOL    HW116925   3.330   2.794   2.034 -1.0429  0.1159 -0.1523
 1822SOL    HW216926   3.436   2.693   2.003 -0.7343  2.7392 -1.8153
 1823SOL     OW16927   3.333   0.959   6.367  0.1884  0.4877  0.3238
 1823SOL    HW116928   3.273   0.927   6.434 -1.2594  1.3541 -0.5729
 1823SOL    HW216929   3.377   1.032   6.411  2.1822 -0.0558 -0.7644
 1824SOL     OW16930   4.067   2.039   7.661  0.2223  0.3104 -0.2341
 1824SOL    HW116931   4.098   2.036   7.752  0.5556 -1.3338 -0.3933
 1824SOL    HW216932   4.083   1.947   7.641 -0.2897  0.4458 -1.2128
 1825SOL     OW16933   0.657   1.874   1.365  0.3724  0.1669 -0.4398
 1825SOL    HW116934   0.718   1.923   1.309  0.9322  0.5107  0.4610
 1825SOL    HW216935   0.604   1.817   1.310 -0.6802  2.3770 -1.7047
 1826SOL     OW16936   2.985   0.495   1.374 -0.0673 -0.3203 -0.6215
 1826SOL    HW116937   3.079   0.505   1.387 -0.2141 -0.3549  0.4930
 1826SOL    HW216938   2.959   0.549   1.299  2.3153  0.0357 -1.1806
 1827SOL     OW16939   2.959   2.611  11.636 -0.0429 -0.0594 -0.3275
 1827SOL    HW116940   2.925   2.680  11.580 -3.3148 -1.7692 -0.4518
 1827SOL    HW216941   3.050   2.635  11.655 -0.0904  1.1027 -1.6031
 1828SOL     OW16942   1.794   3.416  12.447  0.0660  0.1684  0.1148
 1828SOL    HW116943   1.707   3.425  12.408  0.5596 -0.5486 -1.1407
 1828SOL    HW216944   1.776   3.420  12.541  0.9809  0.7934  0.2634
 1829SOL     OW16945   2.231   0.592   4.072  0.0673  0.0881  0.0785
 1829SOL    HW116946   2.312   0.564   4.028  1.5890  1.0599  2.3034
 1829SOL    HW216947   2.179   0.512   4.065  1.9644 -1.1214 -0.4084
 1830SOL     OW16948   1.754   3.822  13.840 -0.2255 -0.3530  0.3595
 1830SOL    HW116949   1.680   3.866  13.882 -0.5806 -1.5309  0.9834
 1830SOL    HW216950   1.730   3.837  13.749  2.9506 -1.2861 -0.6447
 1831SOL     OW16951   4.536   2.039   8.189  0.1829 -1.0277  0.7147
 1831SOL    HW116952   4.615   1.995   8.221 -0.3097 -2.0780  0.4891
 1831SOL    HW216953   4.570   2.119   8.149 -0.9892  0.3302  2.4475
 1832SOL     OW16954   4.588   0.727   7.557  0.2193  0.0847  0.1191
 1832SOL    HW116955   4.638   0.650   7.586  0.6422  0.0867 -0.5871
 1832SOL    HW216956   4.590   0.720   7.461 -1.5818  3.0829 -0.1164
 1833SOL     OW16957   3.048   2.195  12.024  0.2629 -0.4435 -0.5478
 1833SOL    HW116958   3.129   2.186  11.975  0.0859  1.2583 -1.1638
 1833SOL    HW216959   3.098   2.222  12.102 -2.1305  0.8771  0.5394
 1834SOL     OW16960   3.850   0.858  15.632  0.3924 -0.7251  0.3343
 1834SOL    HW116961   3.870   0.933  15.575 -0.1450 -0.9265 -0.1205
 1834SOL    HW216962   3.921   0.798  15.610 -1.0671 -2.1883 -0.3986
 1835SOL     OW16963   3.923   4.191  15.778  0.3821 -0.4057  0.3031
 1835SOL    HW116964   3.926   4.287  15.780  1.1438 -0.4188 -0.2579
 1835SOL    HW216965   3.992   4.183  15.844  0.3894 -2.6001  0.0170
 1836SOL     OW16966   1.456   0.073   9.223 -0.0355  0.5213  0.3581
 1836SOL    HW116967   1.377   0.021   9.235 -1.7724  3.1678  0.4588
 1836SOL    HW216968   1.523   0.008   9.242 -0.3560 -0.1034 -0.6407
 1837SOL     OW16969   1.449   3.663   4.450  0.5262  0.0760  0.2415
 1837SOL    HW116970   1.453   3.733   4.385 -0.3104 -1.3712 -1.3722
 1837SOL    HW216971   1.394   3.596   4.407 -0.5072 -0.3176  2.1443
 1838SOL     OW16972   0.516   3.563   1.638  0.2341  0.3953  0.6496
 1838SOL    HW116973   0.596   3.552   1.586  1.0789 -0.3606  2.0962
 1838SOL    HW216974   0.528   3.504   1.713  1.7336  0.7768  0.7136
 1839SOL     OW16975   1.790   0.728  17.273  0.4421 -0.3700  0.0839
 1839SOL    HW116976   1.702   0.737  17.311  0.9476 -0.4131  1.2786
 1839SOL    HW216977   1.836   0.662  17.325  0.9353 -0.3025 -0.2668
 1840SOL     OW16978   1.840   0.127   5.342 -0.0078 -0.5525  0.1291
 1840SOL    HW116979   1.924   0.173   5.336 -0.8571  1.0412  0.4693
 1840SOL    HW216980   1.780   0.188   5.383  1.4916 -0.3144  1.9865
 1841SOL     OW16981   0.463   4.651   7.091 -0.3806  0.5777  0.5086
 1841SOL    HW116982   0.452   4.628   6.998  1.5025  0.0001  0.4195
 1841SOL    HW216983   0.384   4.609   7.123 -0.8628  0.9910 -0.1336
 1842SOL     OW16984   0.620   1.396   5.739  0.8672  0.5298  0.0160
 1842SOL    HW116985   0.676   1.340   5.685  0.9783  0.0768  0.5992
 1842SOL    HW216986   0.586   1.463   5.679  0.2225 -1.0033 -1.3283
 1843SOL     OW16987   4.072   2.970   2.399 -0.3234  0.0293  0.2149
 1843SOL    HW116988   4.149   2.961   2.344  0.0895  0.9954  0.6395
 1843SOL    HW216989   4.103   3.048   2.446  2.5858 -0.8309 -0.2997
 1844SOL     OW16990   3.511   1.584   0.268  0.2626 -0.6900 -0.1563
 1844SOL    HW116991   3.527   1.542   0.184 -0.5707 -0.3198 -0.4941
 1844SOL    HW216992   3.601   1.618   0.273 -0.4027  0.7542  1.7607
 1845SOL     OW16993   1.814   1.550  16.354 -0.7428  1.2128  0.1921
 1845SOL    HW116994   1.819   1.522  16.263  2.2497  1.2256  0.3456
 1845SOL    HW216995   1.855   1.636  16.354  0.3425  0.6979  0.2032
 1846SOL     OW16996   3.733   2.947   9.260  0.6818  0.0517  0.1274
 1846SOL    HW116997   3.748   3.038   9.286  0.3806  0.1567 -0.0601
 1846SOL    HW216998   3.807   2.909   9.307  1.1328  1.9307  0.9158
 1847SOL     OW16999   0.154   0.923  17.612 -0.6328 -0.4597  0.3749
 1847SOL    HW117000   0.149   0.842  17.561  0.5800 -0.2595 -0.0590
 1847SOL    HW217001   0.139   0.896   0.005  2.6376 -1.6638  0.5699
 1848SOL     OW17002   2.551   2.100   4.350  0.3857 -0.2317  0.2947
 1848SOL    HW117003   2.504   2.182   4.366 -0.2811 -1.0645  2.6357
 1848SOL    HW217004   2.481   2.058   4.301 -0.4605 -0.0027  1.2926
 1849SOL     OW17005   4.167   2.446   5.579 -0.0367 -0.8573  0.4974
 1849SOL    HW117006   4.146   2.437   5.486 -0.2081  0.1513  0.4339
 1849SOL    HW217007   4.148   2.540   5.587  1.6108 -0.7870  3.4378
 1850SOL     OW17008   1.877   1.234  14.317 -0.0306 -0.3143 -0.0405
 1850SOL    HW117009   1.830   1.317  14.314 -0.7037 -0.6825  0.2537
 1850SOL    HW217010   1.814   1.183  14.266  1.0064 -1.8834  0.2410
 1851SOL     OW17011   1.457   0.418  14.916  0.2700 -0.0019  0.2423
 1851SOL    HW117012   1.449   0.508  14.946  1.2508  0.1970 -0.0943
 1851SOL    HW217013   1.536   0.425  14.864 -0.7208 -1.0708 -1.4195
 1852SOL     OW17014   1.607   0.821   6.092  0.0218  0.1696  0.3049
 1852SOL    HW117015   1.553   0.897   6.113  0.1851  0.9835 -2.2844
 1852SOL    HW217016   1.544   0.754   6.064  0.0913 -1.6649  4.4388
 1853SOL     OW17017   2.543   3.330   5.658  0.1356 -0.5692 -0.1801
 1853SOL    HW117018   2.627   3.316   5.703 -1.8755 -0.9826  3.3993
 1853SOL    HW217019   2.572   3.386   5.586 -2.5315  0.6285 -0.3232
 1854SOL     OW17020   3.790   3.939  11.392  0.0907 -0.2398 -0.8691
 1854SOL    HW117021   3.835   3.892  11.323  0.7523 -0.6906 -0.1237
 1854SOL    HW217022   3.839   4.021  11.394  0.9024 -0.7550  0.3589
 1855SOL     OW17023   1.974   1.912   7.577  0.8881 -0.1785 -0.3203
 1855SOL    HW117024   1.987   1.829   7.530 -0.2912  1.0286 -2.7459
 1855SOL    HW217025   1.892   1.942   7.537  0.9462  0.7645  0.2856
 1856SOL     OW17026   3.953   3.497  13.490  0.1330 -0.7080  0.3723
 1856SOL    HW117027   4.047   3.485  13.506 -0.3518 -2.1547  2.1610
 1856SOL    HW217028   3.932   3.468  13.579 -0.6658  0.2226  0.4795
 1857SOL     OW17029   4.595   2.097   3.231 -0.5230  0.6108  0.3461
 1857SOL    HW117030   4.500   2.104   3.218 -0.4611 -0.8370 -0.8807
 1857SOL    HW217031   4.624   2.006   3.240  1.6644  1.3439  0.7282
 1858SOL     OW17032   0.356   2.183  14.948 -0.2017 -0.8234 -0.3415
 1858SOL    HW117033   0.263   2.174  14.930 -0.2700 -0.3215 -0.2187
 1858SOL    HW217034   0.393   2.125  14.881  1.1861 -0.8075  0.4018
 1859SOL     OW17035   4.532   0.840   6.565 -0.5056  0.3597 -0.0628
 1859SOL    HW117036   4.498   0.757   6.531  0.6282 -0.3502  0.5368
 1859SOL    HW217037   4.460   0.898   6.542 -0.8995 -0.8813 -1.9278
 1860SOL     OW17038   3.243   3.256   5.020 -0.3547  0.5721  0.0427
 1860SOL    HW117039   3.224   3.269   4.927  1.7936 -0.0523 -0.4729
 1860SOL    HW217040   3.306   3.184   5.027  0.1231  0.8862 -1.1254
 1861SOL     OW17041   1.865   2.323  10.472  0.1610 -0.2474  0.6611
 1861SOL    HW117042   1.772   2.347  10.473 -0.2152 -1.6306 -1.0183
 1861SOL    HW217043   1.907   2.409  10.474  0.3885 -0.2835 -1.5378
 1862SOL     OW17044   1.662   3.999  16.382 -0.6112  0.3679  0.2938
 1862SOL    HW117045   1.720   3.930  16.352  0.0678  0.9231  0.3430
 1862SOL    HW217046   1.640   4.040  16.298 -2.5681 -1.2978 -0.0134
 1863SOL     OW17047   1.145   4.685   9.029  0.1922  0.3533 -0.5397
 1863SOL    HW117048   1.188   4.678   9.114 -0.3307 -0.8766 -0.3760
 1863SOL    HW217049   1.072   4.627   9.048 -0.4002  1.6949  1.1958
 1864SOL     OW17050   4.528   0.824   6.273 -0.9223 -0.1941 -0.0331
 1864SOL    HW117051   4.558   0.902   6.227  1.5566 -1.6806 -0.9255
 1864SOL    HW217052   4.545   0.859   6.360 -0.2723 -0.7641  0.0775
 1865SOL     OW17053   0.260   2.410  17.319 -0.1014 -0.3808  0.0718
 1865SOL    HW117054   0.266   2.364  17.403  2.3499  0.0589  0.1269
 1865SOL    HW217055   0.166   2.431  17.318 -0.4647 -2.0341 -0.4925
 1866SOL     OW17056   3.667   0.712   5.410  0.3014 -0.8484  0.3327
 1866SOL    HW117057   3.725   0.659   5.355  2.3760  0.3472  1.3396
 1866SOL    HW217058   3.600   0.742   5.349 -1.3842 -2.1718  1.5541
 1867SOL     OW17059   1.444   2.642   2.914 -0.1624  0.0392  0.0109
 1867SOL    HW117060   1.536   2.624   2.891  0.4226 -0.2043  2.4920
 1867SOL    HW217061   1.416   2.559   2.954 -0.3906  1.0193  1.8651
 1868SOL     OW17062   1.740   2.003   2.721 -0.5660 -0.5169  0.0833
 1868SOL    HW117063   1.754   2.035   2.631 -0.0807  1.1650  0.7529
 1868SOL    HW217064   1.646   2.017   2.733 -0.3019  0.5793  0.8464
 1869SOL     OW17065   2.463   3.374   9.504 -0.6156 -0.3559  0.0203
 1869SOL    HW117066   2.553   3.406   9.512 -0.8616 -0.2841  2.4496
 1869SOL    HW217067   2.475   3.286   9.469 -3.3792 -0.5301 -0.5274
 1870SOL     OW17068   2.177   4.264   7.879 -0.6412 -0.0289 -0.3051
 1870SOL    HW117069   2.177   4.354   7.847 -3.0801 -0.0087 -0.2692
 1870SOL    HW217070   2.246   4.270   7.946 -0.4347 -3.2249 -0.2063
 1871SOL     OW17071   0.801   0.029   3.802  0.4031 -0.5733 -0.7436
 1871SOL    HW117072   0.781   0.121   3.784 -1.7352 -1.2989 -2.2196
 1871SOL    HW217073   0.893   0.039   3.824 -0.1369  0.5161  1.0495
 1872SOL     OW17074   1.029   0.243  16.680  0.4274  0.3579 -0.5371
 1872SOL    HW117075   1.080   0.182  16.626  0.7299  0.7675 -0.7172
 1872SOL    HW217076   0.985   0.282  16.604 -1.7102 -0.0428  0.5110
 1873SOL     OW17077   1.904   3.273   3.101 -0.5867 -0.2461  0.2084
 1873SOL    HW117078   1.815   3.242   3.084 -0.7491 -0.8106  2.0451
 1873SOL    HW217079   1.924   3.254   3.193 -1.0256 -0.6191  0.2262
 1874SOL     OW17080   4.098   3.087  13.919 -0.0501  0.1095  0.2710
 1874SOL    HW117081   4.142   3.070  14.003  1.9852  0.8913 -0.6493
 1874SOL    HW217082   4.105   3.000  13.879  1.0643  1.1966 -1.8497
 1875SOL     OW17083   4.585   4.597   5.176  0.5960 -0.1969 -0.1746
 1875SOL    HW117084   4.595   4.692   5.170  1.3138 -0.2201  0.5536
 1875SOL    HW217085   4.659   4.565   5.124 -0.0770  0.5774 -1.5791
 1876SOL     OW17086   4.135   3.766  16.689 -0.2598  0.1816  0.0011
 1876SOL    HW117087   4.196   3.704  16.649  1.3778  1.4700  0.4876
 1876SOL    HW217088   4.185   3.800  16.763  1.3697 -1.7397 -0.2339
 1877SOL     OW17089   3.054   0.792   8.439 -0.2529 -0.1538 -0.1851
 1877SOL    HW117090   3.099   0.865   8.395  1.4185  0.4036  2.4501
 1877SOL    HW217091   2.992   0.765   8.372 -0.2847 -2.3344  0.7179
 1878SOL     OW17092   3.172   0.776   5.638  0.3639 -0.5244 -0.3147
 1878SOL    HW117093   3.098   0.782   5.698  1.5191  2.4439  0.8299
 1878SOL    HW217094   3.154   0.847   5.576  2.4908  1.4624  1.3178
 1879SOL     OW17095   1.849   4.647   2.519  0.1141  0.5981  0.0652
 1879SOL    HW117096   1.855   0.015   2.494  0.6834 -0.1442 -2.4574
 1879SOL    HW217097   1.940   4.621   2.513  0.1610  0.9229 -0.5648
 1880SOL     OW17098   2.420   2.567  10.297  0.1196  0.3117 -0.5974
 1880SOL    HW117099   2.466   2.486  10.319  2.1448  0.6247 -3.7087
 1880SOL    HW217100   2.494   2.626  10.280  0.4109 -0.3021 -1.4561
 1881SOL     OW17101   1.305   1.218   6.304 -0.5917 -0.5975  0.4726
 1881SOL    HW117102   1.330   1.173   6.223  0.8685 -1.5476  1.4510
 1881SOL    HW217103   1.329   1.306   6.276 -1.0433 -0.7564 -0.4118
 1882SOL     OW17104   1.983   2.069   3.284  0.3867 -0.2340 -0.6387
 1882SOL    HW117105   2.049   2.131   3.313  1.8956 -1.9210 -0.4580
 1882SOL    HW217106   1.997   2.057   3.190 -2.4692  0.1803 -1.1176
 1883SOL     OW17107   0.869   0.206   7.688 -0.4951 -0.0704 -0.2022
 1883SOL    HW117108   0.928   0.136   7.717  2.0054  2.1722  0.0407
 1883SOL    HW217109   0.924   0.249   7.623  1.2189 -1.4754  0.3400
 1884SOL     OW17110   1.076   1.793   3.215  0.2118 -0.6504 -0.7025
 1884SOL    HW117111   1.021   1.716   3.232  0.6431 -1.0381 -1.0644
 1884SOL    HW217112   1.039   1.826   3.133 -0.2466  2.8848  0.9102
 1885SOL     OW17113   1.040   0.401   4.561  0.6039  0.8779 -0.1273
 1885SOL    HW117114   0.966   0.388   4.621 -0.5957  1.4641 -1.4882
 1885SOL    HW217115   1.002   0.452   4.490  1.2706  1.6560  0.0733
 1886SOL     OW17116   1.948   1.306  15.334  0.0366  0.4762  0.0555
 1886SOL    HW117117   1.928   1.343  15.248 -0.6399 -0.6894 -0.2825
 1886SOL    HW217118   1.856   1.289  15.354  1.1240 -1.7981  3.1972
 1887SOL     OW17119   0.781   2.559   3.474 -0.0338  0.0202  0.0038
 1887SOL    HW117120   0.687   2.539   3.469  0.0979 -0.7934  0.7992
 1887SOL    HW217121   0.787   2.644   3.431 -1.0681 -1.1320 -2.4239
 1888SOL     OW17122   4.641   2.770  16.206 -0.6505  0.2273 -0.1902
 1888SOL    HW117123   4.594   2.833  16.260 -0.4596 -0.3594  0.6562
 1888SOL    HW217124   4.712   2.830  16.183 -0.9720  1.9062  3.2087
 1889SOL     OW17125   2.119   4.714  10.845  0.6956  0.5803 -0.3068
 1889SOL    HW117126   2.066   0.060  10.884 -1.5661 -1.5259  0.4438
 1889SOL    HW217127   2.148   0.034  10.765  1.5153  0.2375 -0.1998
 1890SOL     OW17128   0.381   1.248   3.925 -0.4627  0.1084  0.9984
 1890SOL    HW117129   0.437   1.240   3.848  0.7271  0.4674  1.8370
 1890SOL    HW217130   0.303   1.206   3.888  0.2290  1.3273 -1.8905
 1891SOL     OW17131   2.136   2.054   0.099 -0.0403  0.4474  0.4844
 1891SOL    HW117132   2.190   2.127   0.069 -1.3713  1.2617  0.0587
 1891SOL    HW217133   2.198   1.982   0.111  0.6226  0.8327 -0.6531
 1892SOL     OW17134   4.617   1.078   8.251 -0.0270  0.4952 -0.4723
 1892SOL    HW117135   4.561   1.056   8.176 -0.9107  0.0020  0.3435
 1892SOL    HW217136   4.631   0.995   8.296  1.2097  0.1486 -1.4669
 1893SOL     OW17137   2.258   2.898   5.257 -0.2754 -0.2509  0.0164
 1893SOL    HW117138   2.277   2.958   5.185 -0.3670  1.0436  1.0811
 1893SOL    HW217139   2.321   2.925   5.323 -0.5777 -1.2040  0.6950
 1894SOL     OW17140   1.715   2.038   6.059 -0.0365  0.2378 -0.1731
 1894SOL    HW117141   1.659   2.059   5.984 -1.6297  0.1130  0.9925
 1894SOL    HW217142   1.694   2.108   6.121 -1.4115 -1.2087  0.9833
 1895SOL     OW17143   3.393   0.220   8.208 -0.2517  0.3062  0.1900
 1895SOL    HW117144   3.315   0.266   8.178  1.1133  2.7640  0.3491
 1895SOL    HW217145   3.459   0.282   8.175  1.6530 -1.6531  0.2713
 1896SOL     OW17146   3.285   0.227   5.897  0.4570  0.0374  0.2852
 1896SOL    HW117147   3.334   0.206   5.817 -0.6943  1.5036 -0.8123
 1896SOL    HW217148   3.302   0.158   5.961  0.0647 -0.9778 -0.6998
 1897SOL     OW17149   0.723   2.996   2.707 -0.7900 -0.3949 -0.7501
 1897SOL    HW117150   0.763   3.047   2.637 -1.6261 -1.0342 -1.7026
 1897SOL    HW217151   0.773   3.031   2.780  3.1460 -1.4831 -2.9138
 1898SOL     OW17152   4.608   0.972   8.702 -0.1485  0.3544 -0.4302
 1898SOL    HW117153   4.519   1.002   8.683  0.1654  0.6991 -1.3832
 1898SOL    HW217154   4.626   0.920   8.623 -1.0271  0.3655 -0.6377
 1899SOL     OW17155   2.797   2.262  12.104  0.6715  0.0489 -0.5457
 1899SOL    HW117156   2.779   2.211  12.182  1.1023  2.8398  1.3898
 1899SOL    HW217157   2.886   2.238  12.077  1.0939 -0.7934  1.6436
 1900SOL     OW17158   1.038   3.547   4.974 -0.0315 -0.7667  0.0231
 1900SOL    HW117159   1.110   3.591   5.020  1.1641 -1.6074 -1.0501
 1900SOL    HW217160   0.969   3.595   5.019 -1.3730 -2.9567  0.3117
 1901SOL     OW17161   3.385   4.173   7.904 -0.3099 -0.4586  0.2466
 1901SOL    HW117162   3.322   4.235   7.941 -2.5818 -2.2936 -0.4802
 1901SOL    HW217163   3.328   4.096   7.910  1.7882 -2.0240 -0.2260
 1902SOL     OW17164   3.079   4.222   7.621 -0.0917 -0.4880  0.4763
 1902SOL    HW117165   3.172   4.214   7.602 -0.3261 -0.5868 -0.6171
 1902SOL    HW217166   3.075   4.311   7.656 -0.2577 -0.0048 -0.7623
 1903SOL     OW17167   2.638   3.782   4.924 -0.2795  0.2134 -0.3565
 1903SOL    HW117168   2.709   3.731   4.885  1.3996  1.0857  1.5357
 1903SOL    HW217169   2.578   3.769   4.851 -1.2340 -1.4409  0.7266
 1904SOL     OW17170   4.273   1.978  10.786  0.3669  0.2006 -0.4377
 1904SOL    HW117171   4.303   2.034  10.715 -2.1817  0.2133 -1.4984
 1904SOL    HW217172   4.208   2.038  10.822  0.3121  0.1622 -0.4729
 1905SOL     OW17173   3.833   2.166   5.658  0.2245  0.1231 -0.2971
 1905SOL    HW117174   3.744   2.158   5.625 -0.8449  1.6064  2.2023
 1905SOL    HW217175   3.827   2.247   5.710  1.0419  0.0620 -0.1014
 1906SOL     OW17176   3.723   3.831   0.629 -0.0531 -0.3855 -0.4325
 1906SOL    HW117177   3.683   3.852   0.545 -0.3589  0.1419 -0.1557
 1906SOL    HW217178   3.712   3.736   0.629 -1.1896 -0.2534 -3.1116
 1907SOL     OW17179   4.405   0.503   5.243 -0.5855  0.1984 -0.2829
 1907SOL    HW117180   4.467   0.533   5.310  0.8998  0.3409 -1.7275
 1907SOL    HW217181   4.399   0.412   5.271  0.6691  0.1529 -0.1842
 1908SOL     OW17182   2.030   2.622   7.532  0.0872  0.0282 -0.5172
 1908SOL    HW117183   2.121   2.647   7.515 -0.9105  2.3403 -2.3940
 1908SOL    HW217184   1.995   2.594   7.448 -0.6131  0.4283 -0.3537
 1909SOL     OW17185   0.079   4.477   4.947  0.4136  0.2336  0.7329
 1909SOL    HW117186   0.068   4.391   4.986  1.0290  1.1815  3.0114
 1909SOL    HW217187   0.086   4.462   4.853  1.1969  0.8573  0.6879
 1910SOL     OW17188   4.426   4.345  13.085 -1.0585 -0.1034  0.0022
 1910SOL    HW117189   4.387   4.273  13.035  1.3755 -0.1460 -1.8736
 1910SOL    HW217190   4.506   4.305  13.121 -1.3758  0.0194  0.8572
 1911SOL     OW17191   3.804   2.260   3.385 -0.3056  0.2431  0.2611
 1911SOL    HW117192   3.868   2.189   3.394  0.8284  1.2966  0.5655
 1911SOL    HW217193   3.739   2.202   3.346 -0.5290  0.4981  0.2635
 1912SOL     OW17194   0.042   4.636   8.669 -0.2708  0.4521  0.1955
 1912SOL    HW117195   4.697   4.621   8.734 -1.1754 -1.1587 -1.1511
 1912SOL    HW217196   0.048   0.007   8.665 -0.3044  0.6000  3.4332
 1913SOL     OW17197   3.414   1.936   7.249  0.6936  0.3202  0.0387
 1913SOL    HW117198   3.322   1.958   7.262  0.4999 -2.4466  3.3440
 1913SOL    HW217199   3.451   2.020   7.223  0.6525 -0.1582 -1.5423
 1914SOL     OW17200   2.108   0.895  12.485 -0.2325  0.2761  0.0378
 1914SOL    HW117201   2.190   0.846  12.494 -2.0216 -2.7078 -0.1341
 1914SOL    HW217202   2.048   0.832  12.446  0.9399 -1.7545  1.4849
 1915SOL     OW17203   2.780   4.539   1.960  0.4440  0.2306 -0.2487
 1915SOL    HW117204   2.742   4.613   1.913 -0.5131  0.1312  0.3574
 1915SOL    HW217205   2.854   4.579   2.006  0.3405 -2.0249  1.9021
 1916SOL     OW17206   4.391   2.557  12.381  0.7797  0.0976  0.6436
 1916SOL    HW117207   4.316   2.538  12.436  0.1028  0.5982 -0.1135
 1916SOL    HW217208   4.376   2.647  12.354 -1.0664 -0.2235  0.6215
 1917SOL     OW17209   1.849   4.711   3.890  0.6191  0.0296 -0.1520
 1917SOL    HW117210   1.887   4.638   3.840  0.9888  0.2531 -0.1999
 1917SOL    HW217211   1.920   0.004   3.952  0.8501  1.3622 -0.7714
 1918SOL     OW17212   4.430   3.664   8.859  0.1943 -0.0189  0.2474
 1918SOL    HW117213   4.394   3.654   8.947  1.5764  1.8313  1.0370
 1918SOL    HW217214   4.420   3.758   8.845  1.0221 -0.1944 -1.5363
 1919SOL     OW17215   2.866   3.834  10.587 -0.5945 -0.0345 -0.4262
 1919SOL    HW117216   2.886   3.901  10.653 -0.4461 -0.6585  0.1577
 1919SOL    HW217217   2.915   3.863  10.510  1.6974 -1.7882  0.3631
 1920SOL     OW17218   2.892   4.072   5.874 -0.2107  0.1217 -0.2859
 1920SOL    HW117219   2.982   4.038   5.879  0.5740  2.2960  0.0233
 1920SOL    HW217220   2.898   4.156   5.918  2.7210  0.2151 -0.8727
 1921SOL     OW17221   2.656   3.899   3.457  0.0754  0.0405 -0.4260
 1921SOL    HW117222   2.602   3.977   3.466  0.8747  0.6057 -0.6381
 1921SOL    HW217223   2.595   3.838   3.414 -0.5365  1.5513 -1.6683
 1922SOL     OW17224   4.181   0.926   2.523 -0.3100  0.3266  0.0807
 1922SOL    HW117225   4.163   1.012   2.559 -0.0902  1.0553 -1.5664
 1922SOL    HW217226   4.117   0.927   2.452  0.3115 -0.8112 -0.5022
 1923SOL     OW17227   0.070   3.311   2.343 -0.2593 -0.0342  0.0924
 1923SOL    HW117228   0.005   3.380   2.333 -0.0234 -0.1166 -1.9948
 1923SOL    HW217229   0.031   3.263   2.417 -1.1927  0.2821 -0.1880
 1924SOL     OW17230   2.817   2.680   0.522  0.0989 -0.1210  0.1895
 1924SOL    HW117231   2.763   2.639   0.455  2.2641 -2.5927 -0.0242
 1924SOL    HW217232   2.903   2.643   0.500  0.8188  2.6547 -1.7817
 1925SOL     OW17233   0.636   4.675   2.275  0.0737  0.0155  0.3350
 1925SOL    HW117234   0.641   0.043   2.251  0.7049 -0.0597  0.1761
 1925SOL    HW217235   0.714   4.643   2.229  0.0104  0.1334  0.1454
 1926SOL     OW17236   4.146   1.341   4.584  0.2606  0.2650  0.1929
 1926SOL    HW117237   4.186   1.425   4.608  0.1160  0.4122 -0.0795
 1926SOL    HW217238   4.204   1.278   4.627  0.0098  0.0342  0.1886
 1927SOL     OW17239   2.368   2.740   5.953 -0.4763  0.6483 -0.4698
 1927SOL    HW117240   2.445   2.795   5.936  0.8733 -1.5868 -1.5624
 1927SOL    HW217241   2.360   2.691   5.871 -1.1764 -1.5590  0.9260
 1928SOL     OW17242   4.229   4.064   0.181  0.4401 -0.5788  0.1144
 1928SOL    HW117243   4.215   4.147   0.136  1.4982  0.1629  1.1558
 1928SOL    HW217244   4.211   4.085   0.272  1.3801  1.3335 -0.1559
 1929SOL     OW17245   1.674   1.996  14.514 -0.2860  0.6331  0.1199
 1929SOL    HW117246   1.609   1.926  14.518  0.6375 -0.0323  3.1665
 1929SOL    HW217247   1.623   2.076  14.498  0.6332  0.7225 -2.3519
 1930SOL     OW17248   0.967   4.202   4.594 -0.2216 -0.9111  0.0757
 1930SOL    HW117249   0.947   4.212   4.501 -2.1376 -0.1629  0.5799
 1930SOL    HW217250   0.985   4.292   4.622 -1.0768 -0.9014  0.5768
 1931SOL     OW17251   1.385   3.792   7.833  0.1809  0.5100  0.5783
 1931SOL    HW117252   1.444   3.859   7.799  0.4494  0.1431  0.3188
 1931SOL    HW217253   1.384   3.813   7.926 -0.7066  1.0261  0.4485
 1932SOL     OW17254   1.487   2.466  17.631  0.1869  0.0744 -0.1360
 1932SOL    HW117255   1.520   2.478  17.542 -0.0933 -1.2129 -0.4155
 1932SOL    HW217256   1.395   2.440  17.632  0.5361 -1.0994  2.6791
 1933SOL     OW17257   0.517   1.859   2.350  0.1191  0.0903 -0.2268
 1933SOL    HW117258   0.456   1.802   2.304 -0.1368 -0.0131  0.2400
 1933SOL    HW217259   0.462   1.920   2.400 -2.5709 -2.3946 -0.1343
 1934SOL     OW17260   1.684   2.203   1.273  0.2290  0.3625 -0.1117
 1934SOL    HW117261   1.756   2.260   1.246 -0.0632  0.3192 -0.9799
 1934SOL    HW217262   1.625   2.209   1.198 -0.7781  0.4904  0.6775
 1935SOL     OW17263   4.564   2.285  17.286 -0.1318 -0.3357 -0.3053
 1935SOL    HW117264   4.547   2.225  17.359 -0.0096 -0.9643 -0.7888
 1935SOL    HW217265   4.626   2.349  17.319  1.4224 -2.5007  0.9248
 1936SOL     OW17266   2.703   4.633   8.713  0.1510 -0.2808 -0.5656
 1936SOL    HW117267   2.788   4.671   8.689 -1.2689  2.0045 -2.0156
 1936SOL    HW217268   2.648   4.701   8.673  0.1172 -0.2630 -0.4893
 1937SOL     OW17269   2.316   3.704   8.493 -0.1592 -0.3927 -0.4570
 1937SOL    HW117270   2.300   3.791   8.459 -1.6028 -0.3191  0.4522
 1937SOL    HW217271   2.237   3.655   8.471  0.1120 -0.5491 -1.0694
 1938SOL     OW17272   4.264   3.403   5.211 -0.1691 -0.0092  0.1708
 1938SOL    HW117273   4.183   3.408   5.263 -0.6568  0.6585 -0.6556
 1938SOL    HW217274   4.271   3.308   5.219  1.2236  0.0173 -0.8025
 1939SOL     OW17275   1.774   1.787   1.810  0.2776  0.0941  0.9995
 1939SOL    HW117276   1.822   1.792   1.893 -0.7061  0.2189  1.5535
 1939SOL    HW217277   1.753   1.694   1.800  2.7281 -0.4154  0.5271
 1940SOL     OW17278   2.885   3.595   5.783 -0.3854  0.2438 -0.0020
 1940SOL    HW117279   2.901   3.513   5.829  0.6058  0.3734 -0.1287
 1940SOL    HW217280   2.957   3.650   5.815  0.6785 -0.5224 -1.1089
 1941SOL     OW17281   3.863   0.521   2.856 -0.0683 -0.2254 -0.1337
 1941SOL    HW117282   3.917   0.531   2.778 -0.0140 -0.3633 -0.1145
 1941SOL    HW217283   3.791   0.581   2.836 -1.3721 -2.1042 -1.1108
 1942SOL     OW17284   4.392   2.661  16.184  0.1769  0.1946 -0.7378
 1942SOL    HW117285   4.412   2.569  16.202 -0.5478  0.6991  2.6333
 1942SOL    HW217286   4.475   2.704  16.166  0.2036  0.7503  0.6869
 1943SOL     OW17287   3.849   1.246   4.573  0.0444 -0.8596 -0.0811
 1943SOL    HW117288   3.944   1.261   4.571  0.1085 -1.1354  1.7885
 1943SOL    HW217289   3.831   1.320   4.515 -1.3134 -1.3499 -0.2689
 1944SOL     OW17290   2.828   4.527  16.944  0.5413 -0.2200 -0.1222
 1944SOL    HW117291   2.834   4.584  17.020 -0.3121  2.2499 -1.9245
 1944SOL    HW217292   2.842   4.444  16.990  1.7504 -0.3986 -0.8146
 1945SOL     OW17293   4.558   2.514   6.079  0.2835 -0.4774  0.0404
 1945SOL    HW117294   4.527   2.424   6.070 -0.9792 -0.1800  1.3885
 1945SOL    HW217295   4.598   2.532   5.994 -0.2721  1.2464  0.1392
 1946SOL     OW17296   2.154   3.916   6.802  0.0540  0.3084  0.0676
 1946SOL    HW117297   2.223   3.882   6.745 -2.4818 -0.6266 -2.4128
 1946SOL    HW217298   2.159   4.011   6.801  1.0741  0.2666  0.5705
 1947SOL     OW17299   1.120   2.942   3.468  0.3865  0.2268 -0.2769
 1947SOL    HW117300   1.179   2.984   3.405 -1.9266  1.1330 -1.8501
 1947SOL    HW217301   1.185   2.922   3.535 -2.2579 -2.1851  1.5633
 1948SOL     OW17302   2.820   3.444   6.957  0.4817 -0.4813 -0.4465
 1948SOL    HW117303   2.852   3.492   6.881  1.6396  2.9872  2.2354
 1948SOL    HW217304   2.788   3.507   7.021  0.0443 -2.3353  1.1553
 1949SOL     OW17305   4.673   4.133   1.811 -0.1241  0.1402 -0.1265
 1949SOL    HW117306   0.024   4.135   1.870  0.5374 -0.2005 -0.9550
 1949SOL    HW217307   4.715   4.159   1.729 -0.1569  0.4931 -0.0302
 1950SOL     OW17308   2.872   3.040   8.748  0.1050 -0.4147 -0.4350
 1950SOL    HW117309   2.857   3.133   8.730 -0.6975 -0.4526  0.0499
 1950SOL    HW217310   2.852   3.030   8.841  2.6022  3.5433  0.5551
 1951SOL     OW17311   4.129   2.703  12.782 -0.1582 -0.4479  0.1205
 1951SOL    HW117312   4.077   2.687  12.861 -2.0071 -2.6115 -1.5325
 1951SOL    HW217313   4.092   2.790  12.765 -0.7928  0.1445  4.5416
 1952SOL     OW17314   0.161   1.853  10.047 -0.3024  0.2847 -0.5103
 1952SOL    HW117315   0.102   1.917  10.007 -0.0532  0.8063 -0.0403
 1952SOL    HW217316   0.247   1.896  10.047 -0.1315 -0.0533 -0.6614
 1953SOL     OW17317   2.885   1.582   4.029  0.7691 -0.2763 -0.3756
 1953SOL    HW117318   2.845   1.501   3.997  0.0339 -0.1937  0.3352
 1953SOL    HW217319   2.942   1.602   3.955  1.7407 -1.9500 -0.0798
 1954SOL     OW17320   1.005   0.157   2.935 -0.2125 -0.2457  0.4249
 1954SOL    HW117321   0.996   0.241   2.980 -0.1638  0.2040 -0.4127
 1954SOL    HW217322   0.914   0.138   2.914  0.4837 -0.7154 -2.1126
 1955SOL     OW17323   4.629   2.579   4.534 -0.2199  0.0817  0.4205
 1955SOL    HW117324   4.672   2.516   4.592 -0.4660  0.6415  1.2146
 1955SOL    HW217325   4.598   2.510   4.476 -1.4491  0.8768  0.1462
 1956SOL     OW17326   2.395   2.315   4.426  0.4417  0.4793  0.2280
 1956SOL    HW117327   2.329   2.339   4.361 -0.2264 -0.9776  0.3616
 1956SOL    HW217328   2.433   2.401   4.444  2.2559 -0.4231  0.7393
 1957SOL     OW17329   3.303   0.067  17.359  0.0188 -0.6836  0.2730
 1957SOL    HW117330   3.375   0.094  17.303 -0.1732 -1.8707 -0.5332
 1957SOL    HW217331   3.304   0.138  17.424 -1.3834 -2.0273  1.7505
 1958SOL     OW17332   3.211   3.650  13.150  0.3959 -0.8122  0.2591
 1958SOL    HW117333   3.209   3.659  13.245  0.1816 -1.2560  0.2956
 1958SOL    HW217334   3.166   3.733  13.131 -0.1226 -1.1745 -0.1035
 1959SOL     OW17335   2.966   3.381   0.819 -0.5860  0.0207  0.3522
 1959SOL    HW117336   2.958   3.287   0.832  1.0908 -0.1908 -0.1497
 1959SOL    HW217337   2.911   3.411   0.891 -2.1510  0.5822 -1.0579
 1960SOL     OW17338   1.294   4.632   6.789 -0.7263 -0.4316 -0.0138
 1960SOL    HW117339   1.236   4.590   6.724  0.5247  0.2233 -1.5604
 1960SOL    HW217340   1.305   4.560   6.851 -1.7391 -0.2795  0.3395
 1961SOL     OW17341   3.588   0.595  14.505 -0.0457 -0.0975 -0.8858
 1961SOL    HW117342   3.592   0.654  14.430  1.2075  3.7391  2.2206
 1961SOL    HW217343   3.570   0.513  14.459  0.3651 -1.7110  1.8183
 1962SOL     OW17344   2.673   2.690   8.478 -0.0198  0.6002 -0.6867
 1962SOL    HW117345   2.678   2.595   8.485  2.8604  0.7823 -0.3560
 1962SOL    HW217346   2.591   2.689   8.429 -0.4562 -1.3730  0.0920
 1963SOL     OW17347   3.211   2.379   2.562 -0.6416 -0.2132  0.3411
 1963SOL    HW117348   3.124   2.346   2.539 -0.5540 -1.6562  2.0376
 1963SOL    HW217349   3.244   2.406   2.477  1.7052  0.5052  1.4805
 1964SOL     OW17350   3.016   1.861   8.116 -0.1302 -0.3528  0.3164
 1964SOL    HW117351   3.007   1.926   8.186 -1.6084  1.4369 -1.5291
 1964SOL    HW217352   2.991   1.904   8.034  0.3171 -0.0864  0.3179
 1965SOL     OW17353   1.233   0.715  13.107  0.0209 -0.6065 -0.4180
 1965SOL    HW117354   1.304   0.687  13.165 -0.4264 -2.2416 -0.6685
 1965SOL    HW217355   1.277   0.786  13.060 -0.0876 -1.2794 -1.5243
 1966SOL     OW17356   3.703   2.839  11.334  0.0424  0.5679 -0.4251
 1966SOL    HW117357   3.733   2.798  11.415  0.9168  0.9835 -0.5284
 1966SOL    HW217358   3.786   2.877  11.302 -0.0667  0.4557 -0.8440
 1967SOL     OW17359   4.476   0.675   5.743  0.0410 -0.2881  0.0042
 1967SOL    HW117360   4.547   0.645   5.801 -0.4342  1.3423  1.4088
 1967SOL    HW217361   4.412   0.603   5.735  1.6264 -1.8283  1.1136
 1968SOL     OW17362   4.271   2.248   7.991  0.6853 -0.2119  0.1349
 1968SOL    HW117363   4.356   2.291   7.989  0.3665  0.4399  0.5179
 1968SOL    HW217364   4.293   2.157   7.975 -0.6532 -0.5695  0.2693
 1969SOL     OW17365   0.155   1.285   7.708 -0.4196  0.2878  0.8578
 1969SOL    HW117366   0.191   1.196   7.709 -1.3109 -0.0721  1.1799
 1969SOL    HW217367   0.206   1.317   7.633  2.4656 -2.5882  1.5591
 1970SOL     OW17368   0.791   3.749   8.608  1.2576  0.2415 -0.3401
 1970SOL    HW117369   0.743   3.723   8.687 -0.8684 -0.5584 -1.8910
 1970SOL    HW217370   0.879   3.775   8.632  0.9949 -0.9054  1.8497
 1971SOL     OW17371   0.300   3.302   8.151  0.4919  0.4303 -0.0488
 1971SOL    HW117372   0.316   3.335   8.240  1.5869  0.6878 -0.3533
 1971SOL    HW217373   0.290   3.391   8.116  3.7283  0.9195  0.2775
 1972SOL     OW17374   2.934   4.149  14.486  0.2048 -1.0092  0.3073
 1972SOL    HW117375   2.863   4.206  14.454  0.3768 -1.1542 -0.3306
 1972SOL    HW217376   2.887   4.071  14.515 -0.2175 -1.4900 -1.7129
 1973SOL     OW17377   3.403   2.500   4.660 -0.3321 -0.2205 -0.0996
 1973SOL    HW117378   3.402   2.592   4.687  0.0823 -0.1949 -0.1706
 1973SOL    HW217379   3.498   2.494   4.652 -0.1182  0.2320  1.9340
 1974SOL     OW17380   2.756   1.016   2.667 -0.6447  1.0541  0.7271
 1974SOL    HW117381   2.800   1.078   2.609  0.2230  0.3237  0.5977
 1974SOL    HW217382   2.742   1.065   2.748 -1.0940  1.3569  0.4705
 1975SOL     OW17383   2.798   2.141  12.368  0.1476  0.6072  0.3714
 1975SOL    HW117384   2.757   2.086  12.301 -0.4018 -0.0254  1.2199
 1975SOL    HW217385   2.832   2.072  12.425  0.3686  0.1834 -0.2651
 1976SOL     OW17386   1.992   0.574  17.040 -0.5656  0.2260  0.5401
 1976SOL    HW117387   2.046   0.515  16.988 -0.0069  0.3751  0.9474
 1976SOL    HW217388   1.987   0.643  16.974 -1.0742  0.0487  0.3977
 1977SOL     OW17389   4.422   0.398   4.969 -0.5069  0.0841  0.2120
 1977SOL    HW117390   4.402   0.429   5.058 -1.8620 -1.8512  0.5941
 1977SOL    HW217391   4.480   0.468   4.940  1.7993 -2.6077 -1.7144
 1978SOL     OW17392   0.864   1.133   4.536  0.2939  0.9262  0.1793
 1978SOL    HW117393   0.818   1.145   4.453 -1.6366 -2.6244  0.7779
 1978SOL    HW217394   0.794   1.092   4.586  2.5173  2.1935  4.3940
 1979SOL     OW17395   1.162   4.648  14.069  0.1252  1.1178  0.0239
 1979SOL    HW117396   1.122   0.005  14.099 -1.2106  0.4472  0.0544
 1979SOL    HW217397   1.250   4.682  14.054  0.6887 -1.0525 -1.7045
 1980SOL     OW17398   0.908   3.743   9.246  0.3493 -0.0924  0.2184
 1980SOL    HW117399   0.852   3.811   9.283 -0.3646 -1.3497  1.4322
 1980SOL    HW217400   0.853   3.665   9.242  0.2173 -0.0473  1.1096
 1981SOL     OW17401   1.761   1.009  15.189  0.6545  0.0812 -0.0038
 1981SOL    HW117402   1.780   1.046  15.103  0.4721 -1.4069 -0.6839
 1981SOL    HW217403   1.691   1.067  15.217 -1.1468 -2.1607  0.1857
 1982SOL     OW17404   2.943   0.472   9.743 -0.8627  0.0209 -0.5290
 1982SOL    HW117405   2.910   0.424   9.819  0.4963 -0.8333 -0.4779
 1982SOL    HW217406   2.900   0.557   9.752 -0.9067  0.2614 -3.0465
 1983SOL     OW17407   2.153   1.222   5.690  0.0313  0.1625  0.1234
 1983SOL    HW117408   2.185   1.133   5.680 -1.0018 -0.1745 -0.1442
 1983SOL    HW217409   2.137   1.214   5.784 -0.5869  1.0859  0.1047
 1984SOL     OW17410   2.271   3.593   2.534 -0.8946  0.4188  0.1366
 1984SOL    HW117411   2.246   3.663   2.473  0.0169  0.7411  0.1317
 1984SOL    HW217412   2.224   3.513   2.512  1.1139 -0.3697 -1.3007
 1985SOL     OW17413   3.664   0.804   2.202  0.0010  0.4822 -0.1958
 1985SOL    HW117414   3.757   0.827   2.211  0.4773 -1.7704  0.8199
 1985SOL    HW217415   3.682   0.710   2.189 -1.6283 -0.1089  1.9024
 1986SOL     OW17416   3.245   1.221   8.167  0.6409  0.2996 -0.4036
 1986SOL    HW117417   3.172   1.213   8.106  0.8101 -0.3215 -0.5238
 1986SOL    HW217418   3.288   1.300   8.135 -1.6920  1.8977  0.5080
 1987SOL     OW17419   3.303   4.407   9.025 -0.0824 -0.5514 -0.0433
 1987SOL    HW117420   3.227   4.356   8.996  0.5002 -1.6327  0.3199
 1987SOL    HW217421   3.309   4.466   8.949  0.3813 -2.8958 -1.8446
 1988SOL     OW17422   1.062   1.086  10.695 -0.1996  0.2810 -0.4884
 1988SOL    HW117423   1.097   1.099  10.607  0.5770  5.1420  0.5304
 1988SOL    HW217424   1.067   0.991  10.684  0.8819  0.1855  0.9148
 1989SOL     OW17425   1.223   4.691   7.935 -0.2763  0.1076 -0.2731
 1989SOL    HW117426   1.205   4.604   7.973 -1.7724 -0.7546 -2.9867
 1989SOL    HW217427   1.297   0.005   7.981 -1.1979  0.8902  0.5738
 1990SOL     OW17428   2.120   0.022   7.754 -0.0136 -0.4308  0.4336
 1990SOL    HW117429   2.078   4.663   7.776 -0.7766 -0.2374 -0.2608
 1990SOL    HW217430   2.129   0.020   7.658 -0.1589 -0.2431  0.4162
 1991SOL     OW17431   3.844   3.904  16.128 -0.0030 -0.4124  0.1545
 1991SOL    HW117432   3.836   3.944  16.215 -2.3885 -0.6322  0.0388
 1991SOL    HW217433   3.855   3.814  16.157  0.4968 -0.0991  0.9405
 1992SOL     OW17434   2.004   1.723   5.865 -0.6113 -0.3014 -0.0134
 1992SOL    HW117435   1.925   1.759   5.825 -0.1730 -1.4523 -1.8868
 1992SOL    HW217436   2.077   1.772   5.826 -2.0801 -0.3414 -2.7986
 1993SOL     OW17437   3.920   0.120  11.913 -0.3204  0.1976 -0.5012
 1993SOL    HW117438   3.906   0.170  11.993 -0.0076 -1.0772  0.3401
 1993SOL    HW217439   3.839   0.071  11.899  0.4524 -1.0964 -0.3785
 1994SOL     OW17440   1.349   3.110  11.371  0.2703 -0.3195 -0.0097
 1994SOL    HW117441   1.316   3.150  11.291  1.2834 -0.1287 -0.3371
 1994SOL    HW217442   1.439   3.143  11.379 -0.1135  0.4496  1.1063
 1995SOL     OW17443   4.452   2.278   5.992 -0.6326 -0.1816 -0.1501
 1995SOL    HW117444   4.424   2.220   6.063 -5.0749  0.3184 -1.5365
 1995SOL    HW217445   4.372   2.323   5.966 -0.1977 -0.8316 -2.6094
 1996SOL     OW17446   4.680   2.084   4.507  0.3468 -0.0563 -0.4892
 1996SOL    HW117447   4.631   2.152   4.461 -1.9344 -1.5732 -0.3463
 1996SOL    HW217448   4.716   2.037   4.432 -1.5098 -0.4509 -1.1408
 1997SOL     OW17449   0.482   1.239   1.367 -0.2793  0.1221 -0.5521
 1997SOL    HW117450   0.465   1.229   1.273  0.4125 -0.3391 -0.6277
 1997SOL    HW217451   0.425   1.169   1.397 -0.7823  0.7867  0.0395
 1998SOL     OW17452   2.568   3.279  10.145 -0.1773  0.6600 -0.1461
 1998SOL    HW117453   2.496   3.282  10.082  0.4727 -1.8221 -0.9941
 1998SOL    HW217454   2.597   3.370  10.155 -0.7816  0.7555  0.7167
 1999SOL     OW17455   0.204   1.959   5.973 -0.0737  0.6636 -0.1379
 1999SOL    HW117456   0.289   1.993   5.947 -0.4551  2.3830  0.8009
 1999SOL    HW217457   0.155   2.041   5.982 -0.6546  0.1912  0.9742
 2000SOL     OW17458   0.492   0.638   1.301  0.4964  0.7274 -0.2294
 2000SOL    HW117459   0.557   0.611   1.366 -2.3497  0.4830  2.4944
 2000SOL    HW217460   0.432   0.564   1.289  0.0161  0.7006  2.4791
 2001SOL     OW17461   3.570   4.506   7.110  0.0034  0.3134 -0.1516
 2001SOL    HW117462   3.595   4.597   7.092 -3.2468  1.5828  1.7391
 2001SOL    HW217463   3.483   4.513   7.071  0.6515 -0.2897 -1.6683
 2002SOL     OW17464   2.615   0.112   5.532 -0.0799 -0.1640  0.1506
 2002SOL    HW117465   2.634   0.192   5.581 -1.2779  1.4347 -2.0228
 2002SOL    HW217466   2.669   0.047   5.577  1.3149  0.8620 -0.0504
 2003SOL     OW17467   2.948   2.073   2.251 -0.3674  0.1404  0.2996
 2003SOL    HW117468   3.003   2.089   2.174 -0.0929 -1.8652  0.0859
 2003SOL    HW217469   2.986   1.991   2.285 -0.3452  0.1578  0.3171
 2004SOL     OW17470   1.525   3.286   4.347 -0.3557 -0.1507  0.0976
 2004SOL    HW117471   1.436   3.252   4.349 -0.2299 -0.2650  3.7148
 2004SOL    HW217472   1.572   3.202   4.351  2.9102  1.6053 -1.0643
 2005SOL     OW17473   0.583   4.080  16.099  0.0083 -0.7772 -0.0314
 2005SOL    HW117474   0.511   4.022  16.074  0.2136 -1.4141  0.8491
 2005SOL    HW217475   0.634   4.093  16.019 -2.3109  1.7728 -1.0784
 2006SOL     OW17476   2.244   1.255  15.463  0.4958 -0.1987  0.3830
 2006SOL    HW117477   2.214   1.193  15.530  0.7969 -0.5102  0.2237
 2006SOL    HW217478   2.219   1.340  15.501 -0.3614 -1.6052  2.9556
 2007SOL     OW17479   0.728   2.347   8.517  0.2784  0.0028  0.2699
 2007SOL    HW117480   0.676   2.395   8.581 -0.5981  0.8537 -1.0916
 2007SOL    HW217481   0.794   2.414   8.502  0.3232  0.0508  0.6854
 2008SOL     OW17482   4.260   2.710   5.152  0.0232  0.2248 -0.5565
 2008SOL    HW117483   4.338   2.702   5.097  0.3108  0.1143 -0.1308
 2008SOL    HW217484   4.201   2.643   5.116 -0.6628  0.4737  0.1109
 2009SOL     OW17485   0.938   3.118   3.972  1.0063  0.1873  0.1125
 2009SOL    HW117486   0.946   3.150   4.062 -0.5232  0.6295  0.0755
 2009SOL    HW217487   0.985   3.186   3.924  0.4376  0.1742 -0.4536
 2010SOL     OW17488   4.074   2.175  10.455 -0.4225  0.1496  0.5568
 2010SOL    HW117489   4.048   2.096  10.504  2.3086 -2.6017 -2.4349
 2010SOL    HW217490   4.159   2.189  10.496  1.2007 -0.2646 -2.6377
 2011SOL     OW17491   0.809   0.017   6.256  0.6479 -0.1185 -0.3114
 2011SOL    HW117492   0.833   0.044   6.167  0.2733 -2.1924 -1.0436
 2011SOL    HW217493   0.747   4.675   6.224  0.1389  0.6925 -1.0007
 2012SOL     OW17494   4.118   0.415   4.693 -0.5586  0.1150  0.0989
 2012SOL    HW117495   4.090   0.327   4.720 -0.6645  0.0364 -0.2696
 2012SOL    HW217496   4.186   0.433   4.758  0.3765 -0.0597 -0.8273
 2013SOL     OW17497   4.090   1.133  12.383 -0.1513  0.3749  0.0565
 2013SOL    HW117498   4.180   1.118  12.411  1.0075  6.0300 -0.6011
 2013SOL    HW217499   4.048   1.154  12.467  1.0840  2.0266  0.2671
 2014SOL     OW17500   2.734   1.285  12.791  0.0054  0.4422  0.1741
 2014SOL    HW117501   2.748   1.194  12.765  2.3204  0.7528  0.4036
 2014SOL    HW217502   2.771   1.281  12.879 -0.2178  0.5678  0.2729
 2015SOL     OW17503   1.374   0.307  10.021  0.3768  0.7019 -0.1449
 2015SOL    HW117504   1.468   0.300  10.004 -0.2798 -1.3895 -2.9929
 2015SOL    HW217505   1.332   0.319   9.936 -2.0723 -0.0136  0.9597
 2016SOL     OW17506   4.522   3.836   8.225 -0.1419  0.0529 -0.1188
 2016SOL    HW117507   4.512   3.930   8.210 -2.0583 -0.0756  0.3736
 2016SOL    HW217508   4.611   3.824   8.259 -0.0619 -0.8276 -0.6527
 2017SOL     OW17509   2.190   2.607  14.354  0.0552 -0.2934  0.1060
 2017SOL    HW117510   2.206   2.554  14.277 -2.1829 -2.5776  1.2146
 2017SOL    HW217511   2.280   2.632  14.375  0.4049 -1.0786 -0.4763
 2018SOL     OW17512   1.431   3.903   9.221 -0.7142 -0.1959 -0.6937
 2018SOL    HW117513   1.349   3.856   9.234 -0.2164 -0.7084  0.5859
 2018SOL    HW217514   1.497   3.835   9.233  0.1964  0.5696 -1.3680
 2019SOL     OW17515   2.454   2.422  10.677 -0.3670  0.0061  0.5440
 2019SOL    HW117516   2.365   2.457  10.674 -0.1334  0.6667  1.2154
 2019SOL    HW217517   2.468   2.406  10.584 -0.2854  0.6565  0.4458
 2020SOL     OW17518   2.543   4.158   3.502  0.3029 -0.7716 -0.2619
 2020SOL    HW117519   2.459   4.192   3.535  0.4248 -1.3457  0.6395
 2020SOL    HW217520   2.595   4.237   3.488 -2.5413  1.2233  0.3536
 2021SOL     OW17521   2.387   1.190   4.865  0.2133  0.0412  0.2515
 2021SOL    HW117522   2.368   1.244   4.942 -2.7494 -0.8162  0.1435
 2021SOL    HW217523   2.482   1.187   4.857  0.1097  0.5391 -1.1532
 2022SOL     OW17524   3.315   4.169   0.912 -0.4377  0.3045 -0.3456
 2022SOL    HW117525   3.358   4.105   0.967  1.4567  0.4294 -1.6898
 2022SOL    HW217526   3.335   4.249   0.961 -2.7762  0.3564  0.5381
 2023SOL     OW17527   0.840   4.628   7.218  0.0687  0.7814 -0.3085
 2023SOL    HW117528   0.821   4.691   7.288  0.7034 -0.3346  0.8698
 2023SOL    HW217529   0.757   4.580   7.224  0.8762 -0.6916 -0.8923
 2024SOL     OW17530   1.719   1.356   9.154 -0.2467 -0.6413 -0.2165
 2024SOL    HW117531   1.766   1.278   9.183  2.5637  1.2472  0.3493
 2024SOL    HW217532   1.642   1.311   9.121 -0.2510 -0.9462  0.2126
 2025SOL     OW17533   1.525   3.722   2.063 -0.1482 -0.1233  0.2975
 2025SOL    HW117534   1.491   3.811   2.051 -0.2616 -0.1794  0.1952
 2025SOL    HW217535   1.555   3.712   2.153 -2.7410 -0.6339  1.1052
 2026SOL     OW17536   1.401   0.459   7.616 -0.2233  0.1208 -0.7228
 2026SOL    HW117537   1.434   0.379   7.657  1.6961  0.6426 -1.2424
 2026SOL    HW217538   1.439   0.458   7.529 -1.6535  0.5373 -1.3529
 2027SOL     OW17539   4.089   0.492   6.679  0.3047 -0.3371 -0.0745
 2027SOL    HW117540   4.123   0.432   6.745  2.0090  1.2476  0.4776
 2027SOL    HW217541   4.052   0.565   6.729  0.3497  0.0889 -0.6629
 2028SOL     OW17542   0.244   4.117   4.605  0.8918  0.2898  0.5673
 2028SOL    HW117543   0.291   4.196   4.580 -1.6907  0.9197 -2.1953
 2028SOL    HW217544   0.282   4.054   4.543 -2.2401 -0.1321 -0.9170
 2029SOL     OW17545   0.543   2.072   2.847 -0.4263  0.2864 -0.0062
 2029SOL    HW117546   0.595   2.149   2.823  0.0921  0.3195  1.2035
 2029SOL    HW217547   0.513   2.041   2.761  1.9650 -3.0630  0.3779
 2030SOL     OW17548   1.752   1.736   7.684 -0.1262 -0.2604  0.0786
 2030SOL    HW117549   1.696   1.702   7.614 -0.9067 -0.6903  0.9144
 2030SOL    HW217550   1.832   1.686   7.667 -0.9155 -1.6634  0.4902
 2031SOL     OW17551   2.933   3.942  11.136 -0.5037  0.1881 -0.2898
 2031SOL    HW117552   2.900   3.931  11.225 -2.5152 -0.0459 -1.0548
 2031SOL    HW217553   3.003   4.005  11.152 -0.2195 -0.6442  1.6792
 2032SOL     OW17554   0.817   1.830   3.403 -0.2824 -0.5578 -0.0696
 2032SOL    HW117555   0.845   1.753   3.452  2.4576  0.1454 -0.5385
 2032SOL    HW217556   0.811   1.894   3.474 -1.1234  0.2784 -0.8938
 2033SOL     OW17557   3.476   2.801   7.319  0.0620 -0.5795  0.4585
 2033SOL    HW117558   3.431   2.878   7.353  0.2655 -0.3342  0.1816
 2033SOL    HW217559   3.475   2.741   7.394  0.7529 -0.3075  0.6936
 2034SOL     OW17560   1.921   3.180   3.803 -0.1275  0.0159  0.3894
 2034SOL    HW117561   1.999   3.125   3.809 -1.5929 -1.7905  2.5124
 2034SOL    HW217562   1.858   3.109   3.799  1.5209 -1.4390  0.1455
 2035SOL     OW17563   0.171   0.536   4.720 -0.5667  0.4229 -0.6434
 2035SOL    HW117564   0.178   0.441   4.713 -0.0539  0.4246 -0.1913
 2035SOL    HW217565   0.262   0.564   4.731 -0.3804  0.0779 -1.3353
 2036SOL     OW17566   1.970   3.863   6.211 -0.1895  0.2968 -0.1402
 2036SOL    HW117567   1.954   3.931   6.146  2.0766  1.7618  0.8493
 2036SOL    HW217568   2.000   3.904   6.292 -2.5149  0.6224  0.5561
 2037SOL     OW17569   3.420   0.487   7.641  0.6272 -0.0590  0.1078
 2037SOL    HW117570   3.482   0.549   7.679  0.7128  0.3122 -0.6182
 2037SOL    HW217571   3.354   0.472   7.708  1.5276  0.2513  1.0727
 2038SOL     OW17572   3.504   3.799   7.249 -0.4341  0.6619 -0.0172
 2038SOL    HW117573   3.487   3.761   7.335 -2.5818  0.0608 -0.7112
 2038SOL    HW217574   3.597   3.821   7.255 -0.8140  2.4699 -0.7997
 2039SOL     OW17575   1.128   1.560   2.254 -0.2662 -0.1781 -0.1430
 2039SOL    HW117576   1.198   1.602   2.205 -1.5571  0.0789 -1.7589
 2039SOL    HW217577   1.158   1.470   2.264 -1.1326 -0.4208  0.3498
 2040SOL     OW17578   4.604   4.566   6.033 -0.3100 -0.2940  0.9159
 2040SOL    HW117579   4.567   4.634   6.090  0.7475  1.6419 -0.7211
 2040SOL    HW217580   4.611   4.504   6.106  0.4759 -1.8789 -0.5333
 2041SOL     OW17581   1.303   0.759   2.925  0.0566  0.2076 -0.2458
 2041SOL    HW117582   1.389   0.755   2.967  0.5499  2.2223 -1.0552
 2041SOL    HW217583   1.305   0.677   2.875 -0.6807  0.3844 -0.5708
 2042SOL     OW17584   2.832   3.359   8.927 -0.1427  0.0395 -0.4649
 2042SOL    HW117585   2.886   3.389   8.854  1.2200 -0.1980  0.4454
 2042SOL    HW217586   2.880   3.380   9.007  1.6559 -0.2622 -1.4754
 2043SOL     OW17587   1.480   3.531  15.416 -0.3670  0.6247  0.4496
 2043SOL    HW117588   1.463   3.591  15.489 -0.7918 -1.0402  1.7220
 2043SOL    HW217589   1.523   3.582  15.347 -0.9897  3.2468  1.9745
 2044SOL     OW17590   4.305   0.927   0.347 -0.0782 -0.3405 -0.3953
 2044SOL    HW117591   4.243   0.972   0.404  1.8478  1.2105  0.4555
 2044SOL    HW217592   4.281   0.949   0.257 -1.6571 -1.5512 -0.2724
 2045SOL     OW17593   0.574   1.165  12.794  0.0043 -0.0024  0.5146
 2045SOL    HW117594   0.489   1.165  12.837 -0.9040 -0.1031 -1.2902
 2045SOL    HW217595   0.587   1.257  12.772  0.1914 -0.1185  0.1317
 2046SOL     OW17596   2.208   0.623   2.752  0.0690 -0.0825  0.4644
 2046SOL    HW117597   2.143   0.554   2.767 -0.4289  0.2528 -0.1196
 2046SOL    HW217598   2.283   0.565   2.760  2.0896  2.2053 -2.1375
 2047SOL     OW17599   1.665   1.237   6.194  0.2851 -0.4396 -0.0177
 2047SOL    HW117600   1.628   1.279   6.272 -1.0598 -2.7493  0.5895
 2047SOL    HW217601   1.613   1.286   6.130 -0.8728 -1.3904  0.1863
 2048SOL     OW17602   2.220   3.403   7.322  0.3642 -0.3133 -0.1271
 2048SOL    HW117603   2.166   3.329   7.296 -0.2125  0.2959 -0.6685
 2048SOL    HW217604   2.308   3.366   7.323 -0.6334 -2.6174  2.3630
 2049SOL     OW17605   0.347   2.142  17.540 -0.5347 -0.0725 -0.2626
 2049SOL    HW117606   0.300   2.066  17.504  1.0880 -0.4819 -1.5135
 2049SOL    HW217607   0.399   2.098  17.608  1.3772 -0.2645 -1.8747
 2050SOL     OW17608   1.756   0.936   9.308 -0.2601 -0.3339  0.3305
 2050SOL    HW117609   1.835   0.987   9.291 -2.4275  1.9172 -3.0009
 2050SOL    HW217610   1.794   0.852   9.333  1.0114 -0.0630 -0.7378
 2051SOL     OW17611   3.449   0.717   3.900 -0.1997 -0.6121  0.0556
 2051SOL    HW117612   3.490   0.773   3.833 -0.1209 -1.2012 -0.3892
 2051SOL    HW217613   3.414   0.651   3.840 -0.3333  0.4775 -1.0707
 2052SOL     OW17614   1.800   1.622   8.456  0.3117  0.9603  0.2814
 2052SOL    HW117615   1.790   1.577   8.540 -1.7121  1.1561  0.1516
 2052SOL    HW217616   1.795   1.552   8.391 -1.0938  1.8673 -0.5953
 2053SOL     OW17617   1.879   3.329   5.595 -0.0564 -0.5210  0.4778
 2053SOL    HW117618   1.972   3.328   5.617 -0.3584  1.4977  1.8874
 2053SOL    HW217619   1.848   3.397   5.655  1.0858  0.6113 -0.2234
 2054SOL     OW17620   3.483   1.307   8.593 -0.7411  0.2621  0.1303
 2054SOL    HW117621   3.415   1.351   8.542 -0.7639 -1.0793 -0.9904
 2054SOL    HW217622   3.450   1.322   8.682  0.9841  0.8691  0.6494
 2055SOL     OW17623   4.724   3.461   7.245  0.7272 -0.0922 -0.4916
 2055SOL    HW117624   4.697   3.551   7.225  0.2798 -0.2463 -0.5630
 2055SOL    HW217625   4.719   3.424   7.157  2.6066 -0.0982 -0.5926
 2056SOL     OW17626   3.175   4.675   2.140  0.5305  0.4787  0.4021
 2056SOL    HW117627   3.238   4.646   2.207  0.2111 -3.7198 -1.1117
 2056SOL    HW217628   3.152   4.592   2.097  2.0724 -0.3117  1.1008
 2057SOL     OW17629   3.192   3.851  15.542 -0.7801  0.2008 -0.3229
 2057SOL    HW117630   3.104   3.874  15.572 -0.1622 -0.9585  2.3657
 2057SOL    HW217631   3.227   3.819  15.625 -0.9817  1.7521  0.3605
 2058SOL     OW17632   1.121   4.136   5.745 -0.1079 -0.4118 -0.4508
 2058SOL    HW117633   1.056   4.087   5.795  0.7907  0.2696  1.3910
 2058SOL    HW217634   1.129   4.218   5.792  0.7919 -1.7429  1.6996
 2059SOL     OW17635   4.430   0.968   8.043  0.0285 -0.2258  0.3468
 2059SOL    HW117636   4.487   0.909   7.993 -1.9926  0.2639 -2.5273
 2059SOL    HW217637   4.366   0.919   8.094  0.5938 -0.8395  0.4691
 2060SOL     OW17638   0.809   0.372   4.687 -0.1242 -0.1566  0.1241
 2060SOL    HW117639   0.775   0.418   4.764 -1.4424  1.8898 -1.7166
 2060SOL    HW217640   0.816   0.281   4.717 -1.1145 -0.4108 -0.4260
 2061SOL     OW17641   4.665   0.987   2.991 -0.6247  0.3485  0.5723
 2061SOL    HW117642   4.659   0.902   3.036  2.6570 -0.2506 -0.1412
 2061SOL    HW217643   4.669   0.963   2.899 -2.1784 -2.3949  1.2091
 2062SOL     OW17644   0.746   0.352  11.794 -1.0158 -0.6370 -0.1594
 2062SOL    HW117645   0.818   0.392  11.842 -1.4396  3.5760 -3.0193
 2062SOL    HW217646   0.744   0.403  11.713  1.6328 -1.8800 -1.0189
 2063SOL     OW17647   0.517   2.522   8.586  0.5862  0.5619 -0.3975
 2063SOL    HW117648   0.487   2.608   8.616  1.8053  0.6954  0.4215
 2063SOL    HW217649   0.477   2.537   8.500 -1.4005 -0.2229  0.3845
 2064SOL     OW17650   2.967   4.235  16.057 -0.1376  0.0560  0.2846
 2064SOL    HW117651   3.052   4.243  16.100 -0.2332  0.1847  0.4468
 2064SOL    HW217652   2.926   4.162  16.103  1.2572 -0.7344  0.2779
 2065SOL     OW17653   2.640   2.247  15.030 -0.0478 -0.0098  0.3161
 2065SOL    HW117654   2.550   2.238  15.063 -0.5785 -0.0555 -1.1768
 2065SOL    HW217655   2.630   2.337  15.001  0.8413 -0.0694 -0.1511
 2066SOL     OW17656   3.852   1.542   9.323  0.3710 -0.5441  0.0327
 2066SOL    HW117657   3.780   1.595   9.289  1.9027  0.4650 -1.6364
 2066SOL    HW217658   3.868   1.470   9.261  2.7233 -0.3554  0.4371
 2067SOL     OW17659   2.132   1.508   6.721  0.8261 -0.5413  0.0981
 2067SOL    HW117660   2.156   1.577   6.660  1.6335  0.1415  1.2020
 2067SOL    HW217661   2.043   1.524   6.752  0.8299 -1.9731  0.8921
 2068SOL     OW17662   4.579   3.540   2.320  0.5309  0.9917  0.1332
 2068SOL    HW117663   4.496   3.500   2.295  1.3717 -0.5243 -0.2343
 2068SOL    HW217664   4.552   3.596   2.393  0.4434 -1.4644  1.9900
 2069SOL     OW17665   2.823   4.423  13.360 -0.3721  0.0635  0.2255
 2069SOL    HW117666   2.845   4.360  13.428  1.2821  1.3543  0.8683
 2069SOL    HW217667   2.807   4.367  13.284  0.5217 -0.3779  0.3647
 2070SOL     OW17668   2.600   1.385   4.646 -0.3041 -0.4226 -0.6988
 2070SOL    HW117669   2.591   1.300   4.688 -2.1233 -0.2233 -0.7179
 2070SOL    HW217670   2.598   1.437   4.726  0.2587 -3.1630  1.1023
 2071SOL     OW17671   0.717   4.333   6.579 -0.1808  0.2463  0.2442
 2071SOL    HW117672   0.655   4.295   6.517 -0.1638  1.1636 -0.3421
 2071SOL    HW217673   0.771   4.373   6.511  0.4199  0.5941  0.9251
 2072SOL     OW17674   4.533   4.099  16.603 -0.2166  0.1275 -0.0212
 2072SOL    HW117675   4.593   4.029  16.631 -0.4160  0.4371  1.1970
 2072SOL    HW217676   4.454   4.046  16.595 -0.9656  1.4054 -1.1036
 2073SOL     OW17677   3.599   4.168  15.410  0.3526  0.1360  0.1921
 2073SOL    HW117678   3.527   4.133  15.461 -0.1810 -2.1118 -2.1153
 2073SOL    HW217679   3.632   4.094  15.359  1.3450  1.2725 -0.8280
 2074SOL     OW17680   2.348   0.946   1.762 -0.1885  0.2998 -0.4720
 2074SOL    HW117681   2.361   1.033   1.799  1.7506 -0.0086 -0.4561
 2074SOL    HW217682   2.436   0.910   1.749  0.7363  2.4573 -0.1995
 2075SOL     OW17683   0.431   3.052   2.950 -0.0577 -0.0070  0.5139
 2075SOL    HW117684   0.404   3.029   2.861  1.3076 -1.3118  0.4326
 2075SOL    HW217685   0.343   3.055   2.989 -0.8768 -1.1109 -1.2375
 2076SOL     OW17686   3.940   3.600   0.186 -0.4415 -0.4719 -0.4079
 2076SOL    HW117687   3.997   3.662   0.232 -0.7472 -0.6117  0.1564
 2076SOL    HW217688   3.961   3.627   0.096  0.0978 -3.3971 -1.1491
 2077SOL     OW17689   4.472   1.826   5.165 -0.2474  0.1433  0.5231
 2077SOL    HW117690   4.419   1.797   5.091 -1.0584  4.2075 -0.4534
 2077SOL    HW217691   4.557   1.795   5.134 -0.0872  1.3229 -0.1769
 2078SOL     OW17692   3.644   3.065   5.368  0.0825 -0.2698  0.1379
 2078SOL    HW117693   3.668   3.155   5.389 -2.1424  0.5277 -0.7996
 2078SOL    HW217694   3.709   3.015   5.418 -0.8688 -0.0513  1.5792
 2079SOL     OW17695   3.946   2.061   7.075  0.6468  0.4239 -0.1257
 2079SOL    HW117696   3.939   2.136   7.135  1.6713 -0.6974  1.3845
 2079SOL    HW217697   3.932   2.102   6.989 -2.5534  0.0871  0.2625
 2080SOL     OW17698   0.858   1.864   9.920 -0.4562 -0.1517  0.0648
 2080SOL    HW117699   0.811   1.890   9.841 -1.4463 -2.5361 -0.1411
 2080SOL    HW217700   0.803   1.791   9.949 -0.4101 -0.1711  0.1039
 2081SOL     OW17701   1.432   0.075   6.402  0.2157 -0.4702  0.0975
 2081SOL    HW117702   1.428   0.066   6.497 -0.5662  1.6045  0.2545
 2081SOL    HW217703   1.408   0.167   6.389  0.4944 -0.1290  1.9797
 2082SOL     OW17704   2.842   1.765  13.972 -0.4880  0.0047  0.6824
 2082SOL    HW117705   2.799   1.681  13.985  1.3932 -0.8844  1.1560
 2082SOL    HW217706   2.774   1.819  13.931 -1.0012 -1.3253 -0.2035
 2083SOL     OW17707   2.705   1.508   9.935  0.0493  0.1504 -0.6657
 2083SOL    HW117708   2.788   1.530   9.894  0.5550  1.6819  1.1722
 2083SOL    HW217709   2.660   1.591   9.951 -0.9378 -0.7953  1.5348
 2084SOL     OW17710   0.367   0.948  15.237 -0.2146  0.6015  0.2522
 2084SOL    HW117711   0.317   0.951  15.319  0.4564 -1.6675  0.7415
 2084SOL    HW217712   0.443   0.988  15.279  0.0585 -0.7553  1.0400
 2085SOL     OW17713   1.007   4.457  13.056  0.1852 -0.2110  0.2465
 2085SOL    HW117714   1.053   4.428  12.977 -1.0849 -2.1631  0.2221
 2085SOL    HW217715   1.070   4.438  13.125 -0.7387  0.8355  1.3734
 2086SOL     OW17716   0.859   0.171  12.242 -0.3232  0.1195  0.1458
 2086SOL    HW117717   0.896   0.230  12.308 -1.0743  1.7349 -0.8768
 2086SOL    HW217718   0.943   0.128  12.227 -0.4754 -0.0471 -0.2122
 2087SOL     OW17719   1.596   4.151  14.302  0.5728  0.2297 -0.1222
 2087SOL    HW117720   1.591   4.057  14.290  1.6824 -0.0696  1.6550
 2087SOL    HW217721   1.647   4.149  14.384 -0.1151 -2.4524  0.2264
 2088SOL     OW17722   4.182   3.957   7.455 -0.2770  0.1292  0.6311
 2088SOL    HW117723   4.157   3.872   7.419 -0.3518  0.1800  0.5638
 2088SOL    HW217724   4.100   3.993   7.489  0.2890  1.6890  0.3406
 2089SOL     OW17725   0.407   2.292   5.804 -0.0729 -0.5431  0.2244
 2089SOL    HW117726   0.316   2.320   5.818 -0.1901  0.4312 -2.3833
 2089SOL    HW217727   0.443   2.305   5.891  0.4975  1.7784 -0.3675
 2090SOL     OW17728   1.078   0.858   9.461  0.7224 -0.2875  0.4164
 2090SOL    HW117729   1.105   0.945   9.489  1.2402 -0.0491 -0.8182
 2090SOL    HW217730   1.073   0.871   9.367  2.7619  0.6726  0.4282
 2091SOL     OW17731   3.085   3.752  13.756  0.1061 -0.1746  0.2847
 2091SOL    HW117732   3.007   3.748  13.701  0.2906  3.1386 -0.2099
 2091SOL    HW217733   3.045   3.757  13.843 -0.1633  0.8800  0.1060
 2092SOL     OW17734   3.240   1.043   6.109 -0.0766 -0.2767  0.0456
 2092SOL    HW117735   3.319   1.009   6.066 -1.1417  0.1569 -2.2946
 2092SOL    HW217736   3.234   0.992   6.189 -0.9392 -0.0517  0.1185
 2093SOL     OW17737   0.497   2.271  14.637  0.1250 -0.1778 -0.0261
 2093SOL    HW117738   0.528   2.306  14.720  1.1594  1.3189 -1.0540
 2093SOL    HW217739   0.469   2.181  14.656  0.1481 -0.5618 -1.8009
 2094SOL     OW17740   0.590   0.785   3.304  0.2090  0.0990 -0.1935
 2094SOL    HW117741   0.633   0.710   3.263  0.5093  1.1306 -1.7332
 2094SOL    HW217742   0.518   0.802   3.243 -1.8368 -1.5443  1.7627
 2095SOL     OW17743   0.297   0.188   4.088 -0.0858  0.1264 -0.1527
 2095SOL    HW117744   0.296   0.284   4.083  0.3003  0.0977 -0.7873
 2095SOL    HW217745   0.209   0.162   4.115  0.0138 -2.2357 -2.1599
 2096SOL     OW17746   4.327   2.275   2.275  0.0500  0.0014 -0.0797
 2096SOL    HW117747   4.311   2.225   2.195  0.2055 -1.2389  0.6549
 2096SOL    HW217748   4.414   2.312   2.262  0.0174 -0.0235 -0.3694
 2097SOL     OW17749   3.014   0.894   8.943  0.2748 -0.8249  0.7202
 2097SOL    HW117750   2.933   0.877   8.895  1.8848  1.0659 -2.6997
 2097SOL    HW217751   3.007   0.854   9.029 -0.3620 -1.7153  0.2478
 2098SOL     OW17752   3.130   0.701   3.312  0.6383  0.2442  0.3094
 2098SOL    HW117753   3.112   0.791   3.284  1.4884  0.0473 -0.8996
 2098SOL    HW217754   3.059   0.663   3.260  1.3586 -0.3994 -0.2115
 2099SOL     OW17755   0.789   2.976   5.886 -0.4054 -0.3611  0.3930
 2099SOL    HW117756   0.723   3.000   5.951 -1.2801  2.1304 -1.4115
 2099SOL    HW217757   0.845   2.916   5.934  1.8480  1.6766  0.3700
 2100SOL     OW17758   4.615   1.350  10.720 -0.3695  0.6827  0.1149
 2100SOL    HW117759   4.691   1.389  10.763 -0.1050 -1.2152  1.3639
 2100SOL    HW217760   4.627   1.260  10.748 -0.3189  0.1383 -1.6774
 2101SOL     OW17761   4.099   1.569  10.806 -0.8862 -0.1402  0.0004
 2101SOL    HW117762   4.109   1.543  10.898  0.7722 -1.9898 -0.6909
 2101SOL    HW217763   4.160   1.641  10.793  0.5504 -2.1828 -4.7767
 2102SOL     OW17764   2.796   3.749  10.223  0.2906 -0.4385 -0.1184
 2102SOL    HW117765   2.886   3.778  10.241 -0.2569 -0.2709  2.3068
 2102SOL    HW217766   2.746   3.830  10.231  0.5648 -0.6304  3.4416
 2103SOL     OW17767   1.148   3.444   4.094  0.0819 -0.7472 -0.0587
 2103SOL    HW117768   1.196   3.376   4.046 -2.3836 -1.9009 -0.8611
 2103SOL    HW217769   1.120   3.501   4.023  3.1058  1.5104  0.5227
 2104SOL     OW17770   0.485   4.048  15.042 -0.6913 -0.3821 -0.0132
 2104SOL    HW117771   0.468   4.082  15.130 -0.8562  1.4121 -0.7335
 2104SOL    HW217772   0.422   4.099  14.991 -0.2160 -0.4380 -0.6520
 2105SOL     OW17773   4.451   0.240  14.073 -0.3012 -0.3932  0.1652
 2105SOL    HW117774   4.451   0.307  14.005  3.8198 -0.3277  0.2283
 2105SOL    HW217775   4.358   0.222  14.065 -0.1516 -0.4546 -1.3812
 2106SOL     OW17776   1.253   4.414   7.181 -0.2702  0.1039  0.3654
 2106SOL    HW117777   1.312   4.416   7.105 -1.2903  4.4567 -0.2994
 2106SOL    HW217778   1.174   4.383   7.137  0.8813 -3.0504  0.5243
 2107SOL     OW17779   3.042   0.963   4.074  0.3416 -0.4085 -0.5310
 2107SOL    HW117780   2.971   1.000   4.022  0.5874  0.2148 -0.4197
 2107SOL    HW217781   3.042   1.038   4.132  1.7748  0.8126 -2.1152
 2108SOL     OW17782   4.521   3.544   2.841  0.1689 -0.0636 -1.2193
 2108SOL    HW117783   4.521   3.523   2.935 -1.6451 -1.4408 -1.5397
 2108SOL    HW217784   4.593   3.607   2.842 -0.0888  0.2222 -0.3394
 2109SOL     OW17785   2.307   3.027   7.676  0.3223 -0.1618  0.1618
 2109SOL    HW117786   2.354   3.010   7.758  0.3692  0.2780  0.2253
 2109SOL    HW217787   2.301   3.123   7.676  0.8172 -0.1342 -1.0374
 2110SOL     OW17788   1.694   0.654  11.788 -0.2634 -0.0308 -0.2397
 2110SOL    HW117789   1.683   0.561  11.805 -0.0336  0.2443  1.4717
 2110SOL    HW217790   1.622   0.684  11.845  0.2273 -0.5843  0.6835
 2111SOL     OW17791   4.094   2.471   3.715  0.0566 -0.2422  0.1407
 2111SOL    HW117792   4.094   2.564   3.695  2.6396 -0.4025 -0.6296
 2111SOL    HW217793   4.165   2.443   3.657 -0.3823 -0.5016 -0.2690
 2112SOL     OW17794   3.623   3.584   0.558 -0.3690  0.7361  0.3440
 2112SOL    HW117795   3.555   3.634   0.513  1.5031  0.7644 -2.4998
 2112SOL    HW217796   3.568   3.510   0.582 -0.1675  0.5509  0.2383
 2113SOL     OW17797   3.082   4.200   4.236 -0.0748  0.1181 -0.1441
 2113SOL    HW117798   3.178   4.200   4.227  0.0484  1.5583  1.2370
 2113SOL    HW217799   3.067   4.272   4.296  2.2300  0.1650  0.3756
 2114SOL     OW17800   4.507   4.568  12.972 -0.4036  0.6589  0.0515
 2114SOL    HW117801   4.468   4.487  13.006 -1.4182  0.8445 -0.6854
 2114SOL    HW217802   4.450   4.641  12.995 -0.4272  0.4825  0.5495
 2115SOL     OW17803   0.395   0.771   3.115 -0.0063  0.0582 -0.8953
 2115SOL    HW117804   0.390   0.718   3.035 -1.2415  1.1470 -1.5469
 2115SOL    HW217805   0.338   0.847   3.099  0.3692 -0.0363 -2.6445
 2116SOL     OW17806   2.921   1.378   7.800 -0.0720  0.4366 -0.1841
 2116SOL    HW117807   2.942   1.471   7.797  2.6477 -0.1722  0.4468
 2116SOL    HW217808   2.826   1.378   7.812  0.4001 -2.1643  3.4327
 2117SOL     OW17809   1.974   0.258  10.900  0.2319  0.5173 -0.0519
 2117SOL    HW117810   1.878   0.264  10.896  0.4200  2.4067 -1.7224
 2117SOL    HW217811   1.986   0.284  10.991 -0.4300 -2.6508  0.9310
 2118SOL     OW17812   1.638   1.270  15.140  0.9137  0.3777  0.3431
 2118SOL    HW117813   1.557   1.288  15.092  0.4371 -1.1942  0.5581
 2118SOL    HW217814   1.703   1.268  15.070  0.3661  0.1490 -0.1615
 2119SOL     OW17815   4.258   3.463   2.282  0.2548 -0.2628  0.4196
 2119SOL    HW117816   4.229   3.517   2.209 -0.5807  0.8711  1.5957
 2119SOL    HW217817   4.171   3.445   2.319 -0.5460  0.1359 -1.2876
 2120SOL     OW17818   2.262   3.345  15.152 -0.1305 -0.5288  0.3741
 2120SOL    HW117819   2.312   3.340  15.233  1.4077  0.6637 -0.4861
 2120SOL    HW217820   2.185   3.389  15.187  0.0287 -0.4687  0.6497
 2121SOL     OW17821   2.363   1.034   6.048 -0.3976 -0.8793  0.1578
 2121SOL    HW117822   2.340   1.018   6.140 -1.3734 -0.4200 -0.0042
 2121SOL    HW217823   2.459   1.027   6.047 -0.2920  0.6499 -0.4432
 2122SOL     OW17824   1.747   3.131   2.552  0.0051  0.4622  0.5441
 2122SOL    HW117825   1.687   3.113   2.625  3.0816 -3.5944  2.0498
 2122SOL    HW217826   1.692   3.171   2.484  0.3657  0.2755  0.1446
 2123SOL     OW17827   3.074   1.479   1.844  0.1846  0.5255  0.4025
 2123SOL    HW117828   3.076   1.390   1.879 -0.5223  0.2444 -0.2798
 2123SOL    HW217829   2.983   1.497   1.820  0.4915  1.0298 -0.3849
 2124SOL     OW17830   4.643   1.805   9.157 -0.5319 -0.4847  0.2421
 2124SOL    HW117831   4.720   1.804   9.213 -1.2080  1.8119  1.2176
 2124SOL    HW217832   4.595   1.879   9.193  0.3851  0.4042 -0.3560
 2125SOL     OW17833   0.840   4.005  11.986  0.0669  0.2044 -0.2394
 2125SOL    HW117834   0.861   3.916  12.016  0.5140 -0.0244 -1.1992
 2125SOL    HW217835   0.881   3.999  11.899  0.4519 -0.1481 -0.0358
 2126SOL     OW17836   3.386   1.953   0.372  0.3282  0.7746  0.1552
 2126SOL    HW117837   3.367   1.998   0.454  1.1768  0.7614  0.3578
 2126SOL    HW217838   3.479   1.933   0.381  0.8945  2.9402 -0.7802
 2127SOL     OW17839   1.682   2.642  16.215  0.3281 -0.0994 -0.5287
 2127SOL    HW117840   1.595   2.623  16.251  0.5967 -0.4374 -0.0525
 2127SOL    HW217841   1.666   2.689  16.133 -2.1461 -1.1278 -0.6459
 2128SOL     OW17842   2.525   3.970   7.228 -0.0901  0.2612 -0.0912
 2128SOL    HW117843   2.547   3.894   7.173  3.9035  0.2032  1.5598
 2128SOL    HW217844   2.493   4.029   7.160  0.3080  0.3767 -0.1783
 2129SOL     OW17845   2.022   4.308  10.930 -0.1128 -0.4225  0.1425
 2129SOL    HW117846   2.050   4.217  10.939  1.0658 -0.0879 -0.2023
 2129SOL    HW217847   2.090   4.343  10.872 -0.2694 -1.3632 -0.6137
 2130SOL     OW17848   0.755   4.482   4.843 -0.0962 -0.3122  0.6098
 2130SOL    HW117849   0.789   4.550   4.902  0.1902 -0.0428  0.1318
 2130SOL    HW217850   0.832   4.462   4.791 -0.9625 -1.8813 -0.0747
 2131SOL     OW17851   0.069   1.990   6.725 -0.0812  0.2947 -0.3072
 2131SOL    HW117852   0.021   2.056   6.675  1.0416  0.2843 -1.4144
 2131SOL    HW217853   0.156   1.982   6.686 -0.4327  0.8475 -1.2053
 2132SOL     OW17854   4.204   1.755   4.451  0.3605  0.9281  0.0278
 2132SOL    HW117855   4.231   1.703   4.376  2.0120 -0.2463  1.4342
 2132SOL    HW217856   4.228   1.845   4.429  3.4067 -0.2312 -1.2794
 2133SOL     OW17857   2.644   1.166   4.819  0.8788 -0.0224  0.3470
 2133SOL    HW117858   2.641   1.095   4.883 -0.0842 -0.8719 -0.6505
 2133SOL    HW217859   2.739   1.174   4.812  0.6835  2.8012  0.8174
 2134SOL     OW17860   3.760   3.853   9.144 -0.2751  0.5640 -0.0421
 2134SOL    HW117861   3.736   3.941   9.115  0.0327  0.4076 -0.7514
 2134SOL    HW217862   3.683   3.805   9.115 -0.2963 -0.3546  1.4996
 2135SOL     OW17863   1.833   2.482   1.188  0.1171 -0.1341  0.2592
 2135SOL    HW117864   1.793   2.499   1.274 -0.6668  0.5113 -0.2364
 2135SOL    HW217865   1.830   2.565   1.141  1.3976 -1.2512 -1.7594
 2136SOL     OW17866   2.562   1.365  16.554 -0.1650 -0.3993  0.6595
 2136SOL    HW117867   2.510   1.297  16.511 -0.0754 -0.0924  0.0589
 2136SOL    HW217868   2.649   1.342  16.521 -0.7072 -0.2351 -0.8842
 2137SOL     OW17869   2.168   3.571   7.540  0.0821 -0.5559  0.0408
 2137SOL    HW117870   2.168   3.503   7.472  0.4552  0.6645 -1.1834
 2137SOL    HW217871   2.242   3.622   7.507 -1.2563  0.3154 -1.6469
 2138SOL     OW17872   1.764   1.344   5.130  0.4415 -0.4623  0.4128
 2138SOL    HW117873   1.717   1.357   5.213  0.3740  0.1227  0.2791
 2138SOL    HW217874   1.776   1.249   5.130  0.7591 -0.4291  1.8970
 2139SOL     OW17875   1.210   2.216   6.063 -0.1327  0.0422  0.4357
 2139SOL    HW117876   1.270   2.270   6.012 -1.3625  0.5505 -0.4587
 2139SOL    HW217877   1.267   2.168   6.124 -0.0366 -0.3927  0.0075
 2140SOL     OW17878   3.012   1.172   7.986  0.0344  1.2208  0.1321
 2140SOL    HW117879   2.994   1.167   7.892 -1.9013  0.5170  0.5380
 2140SOL    HW217880   2.976   1.259   8.006  0.6281  1.2262  1.2182
 2141SOL     OW17881   3.583   2.018   4.568  0.5534  0.3837 -0.3509
 2141SOL    HW117882   3.649   2.040   4.502  0.0368 -0.1110 -1.0280
 2141SOL    HW217883   3.611   2.068   4.645  3.0358 -1.1798 -0.2153
 2142SOL     OW17884   0.687   0.835   4.427 -0.2700 -0.4631 -0.1613
 2142SOL    HW117885   0.642   0.912   4.460  0.3275  0.4294 -1.4097
 2142SOL    HW217886   0.728   0.795   4.504 -1.6581  0.1390  0.8652
 2143SOL     OW17887   0.858   2.823   4.365  0.6768  0.0123 -0.2909
 2143SOL    HW117888   0.884   2.746   4.416  1.9693 -1.8707 -3.7783
 2143SOL    HW217889   0.924   2.888   4.387 -0.3862  0.5680  1.2408
 2144SOL     OW17890   3.896   2.344  12.840  0.0427  0.7991  0.0062
 2144SOL    HW117891   3.850   2.271  12.798 -0.1241  0.8110  0.1703
 2144SOL    HW217892   3.848   2.359  12.922 -3.3920 -1.8552 -1.5276
 2145SOL     OW17893   3.912   3.856  10.250  0.7131  0.2139 -0.3357
 2145SOL    HW117894   3.859   3.807  10.188  1.0626  0.0612 -0.5112
 2145SOL    HW217895   3.996   3.861  10.205 -0.1473 -0.2751 -1.9863
 2146SOL     OW17896   0.642   2.909   4.865 -0.4535  0.1068  0.3905
 2146SOL    HW117897   0.586   2.844   4.822 -0.7908  0.4974  0.2412
 2146SOL    HW217898   0.592   2.985   4.836  1.8081  0.9943 -1.2125
 2147SOL     OW17899   2.804   0.133   2.892  0.2072 -0.0034  0.0611
 2147SOL    HW117900   2.784   0.162   2.981  1.8250  3.8923 -0.8483
 2147SOL    HW217901   2.749   0.056   2.881  0.5983 -0.2196 -0.3696
 2148SOL     OW17902   3.043   4.507   5.671 -0.1231 -0.5305  0.0040
 2148SOL    HW117903   2.966   4.522   5.617 -0.3979 -0.2702  0.4702
 2148SOL    HW217904   3.085   4.592   5.660  0.1809 -0.8254 -1.1445
 2149SOL     OW17905   1.550   2.985   6.283  0.3562 -0.7673  0.7440
 2149SOL    HW117906   1.628   2.931   6.272  0.1878 -0.9520  0.4892
 2149SOL    HW217907   1.495   2.938   6.346  1.1027  0.7344  2.5417
 2150SOL     OW17908   0.755   3.049  16.182 -0.1667  0.2921 -0.3420
 2150SOL    HW117909   0.794   3.026  16.099  2.4886  0.1389  0.9617
 2150SOL    HW217910   0.693   3.120  16.160 -0.3830  0.7445  1.6870
 2151SOL     OW17911   2.585   0.647   9.989  0.3058  0.4031 -0.8342
 2151SOL    HW117912   2.599   0.673   9.898  1.0906 -0.1216 -0.8673
 2151SOL    HW217913   2.642   0.571  10.001 -0.5465 -0.5369 -2.7552
 2152SOL     OW17914   1.451   1.111   3.790  0.3856 -0.3088 -0.4346
 2152SOL    HW117915   1.536   1.154   3.795 -0.1289  0.8780 -1.8724
 2152SOL    HW217916   1.412   1.184   3.742 -0.2777  1.3565  2.6064
 2153SOL     OW17917   1.257   0.247   5.568  0.4962  0.3764  0.0995
 2153SOL    HW117918   1.230   0.163   5.605  1.4956 -0.4358 -1.0144
 2153SOL    HW217919   1.179   0.253   5.513  1.8182  0.6696 -1.7559
 2154SOL     OW17920   3.416   3.111   6.831  0.3340 -0.2271 -0.2974
 2154SOL    HW117921   3.393   3.019   6.822 -1.7631  0.2973 -0.4706
 2154SOL    HW217922   3.325   3.133   6.812 -0.3254 -0.2086  2.8365
 2155SOL     OW17923   0.828   2.725   9.843  0.0908  0.2180 -0.2705
 2155SOL    HW117924   0.803   2.817   9.838 -3.7409 -0.7834  0.9973
 2155SOL    HW217925   0.749   2.681   9.873  1.0674  0.1095  2.1340
 2156SOL     OW17926   0.026   0.094   4.234 -0.4025  0.6636 -0.0718
 2156SOL    HW117927   0.030   0.133   4.321  1.0702 -0.6833  0.4550
 2156SOL    HW217928   4.673   0.139   4.199 -2.0682 -0.7327  1.8207
 2157SOL     OW17929   0.813   3.936   1.726  0.1236 -0.0822 -0.6072
 2157SOL    HW117930   0.844   3.848   1.747  1.2818  0.6837  0.9046
 2157SOL    HW217931   0.723   3.924   1.757  0.2317 -1.6571 -0.9131
 2158SOL     OW17932   1.087   2.962   5.789 -0.5024  0.6426 -0.0853
 2158SOL    HW117933   1.045   2.905   5.853  0.8608  1.3011  1.3873
 2158SOL    HW217934   1.144   3.018   5.843 -1.2754  3.1439 -1.8594
 2159SOL     OW17935   2.616   0.750  10.388 -0.2592 -1.0083  0.1728
 2159SOL    HW117936   2.664   0.688  10.443 -2.2928 -0.1738  2.8961
 2159SOL    HW217937   2.526   0.726  10.408 -0.2383 -0.4485  0.9468
 2160SOL     OW17938   2.325   1.441   7.469 -0.1551  0.0010  0.1237
 2160SOL    HW117939   2.327   1.477   7.558 -0.6667  2.7131 -0.9899
 2160SOL    HW217940   2.414   1.408   7.481 -0.7617 -1.4979  0.5248
 2161SOL     OW17941   1.883   3.030   5.332  0.3200 -0.1306  0.1981
 2161SOL    HW117942   1.915   2.963   5.393  4.5502  0.3039 -1.5229
 2161SOL    HW217943   1.919   3.001   5.248 -3.0470 -2.5375 -0.4107
 2162SOL     OW17944   1.771   2.540   3.667 -0.0370 -1.0990  0.5388
 2162SOL    HW117945   1.840   2.489   3.625 -0.4322 -0.6278 -0.6957
 2162SOL    HW217946   1.748   2.612   3.608  0.8448 -1.6463 -0.4569
 2163SOL     OW17947   1.996   3.926  16.430 -0.5312  0.5131 -0.2890
 2163SOL    HW117948   1.928   3.870  16.392  1.1657 -1.7719  0.0231
 2163SOL    HW217949   2.020   3.967  16.347  2.3914 -0.5302  0.0424
 2164SOL     OW17950   2.638   2.791   0.979 -0.2709 -0.2271  0.3204
 2164SOL    HW117951   2.699   2.740   0.925  2.2160  1.8295  1.1522
 2164SOL    HW217952   2.697   2.818   1.050 -0.5634 -0.7238  0.7524
 2165SOL     OW17953   0.243   3.418   9.489  0.5546  0.0437  0.4080
 2165SOL    HW117954   0.282   3.436   9.575  0.2814 -1.1005  0.7656
 2165SOL    HW217955   0.321   3.378   9.449 -0.8676 -2.5924  0.2842
 2166SOL     OW17956   3.559   1.219   5.297 -0.4063 -0.4819  0.0705
 2166SOL    HW117957   3.582   1.163   5.371 -0.2413 -0.6864 -0.1349
 2166SOL    HW217958   3.629   1.203   5.233  0.2011 -0.8028  0.8129
 2167SOL     OW17959   4.478   0.013   2.924 -0.2519 -0.2673 -0.3355
 2167SOL    HW117960   4.470   0.009   2.828  0.8351  0.6441 -0.4735
 2167SOL    HW217961   4.571   4.712   2.930 -0.9469 -1.9875  3.3144
 2168SOL     OW17962   3.352   0.280   3.768 -0.2664 -0.2956  0.0575
 2168SOL    HW117963   3.332   0.372   3.783 -1.8361 -0.5466 -0.5358
 2168SOL    HW217964   3.358   0.273   3.673  2.4444 -2.5654  0.3960
 2169SOL     OW17965   0.718   2.732   8.387 -0.6538  0.0526  0.3266
 2169SOL    HW117966   0.757   2.812   8.424 -1.7382  0.6839  0.1023
 2169SOL    HW217967   0.781   2.670   8.423  1.9234  1.1466 -2.2510
 2170SOL     OW17968   2.336   2.811   8.103 -0.4966  0.6166  0.5568
 2170SOL    HW117969   2.366   2.829   8.192  0.1546 -0.3350  0.5269
 2170SOL    HW217970   2.245   2.781   8.115 -0.4906  0.8457  1.1933
 2171SOL     OW17971   1.820   1.104   5.789 -0.0949  0.1296  0.0148
 2171SOL    HW117972   1.795   1.196   5.793 -1.7480 -0.3716  1.7045
 2171SOL    HW217973   1.901   1.095   5.839 -0.7769  0.7012  1.2116
 2172SOL     OW17974   0.789   2.457   4.808 -0.0386 -0.4354 -0.0813
 2172SOL    HW117975   0.840   2.383   4.842  0.9400 -0.1265 -0.8847
 2172SOL    HW217976   0.858   2.522   4.823  0.6690 -1.7774  2.5308
 2173SOL     OW17977   2.216   1.887   6.854 -0.5263 -0.7322  0.0584
 2173SOL    HW117978   2.277   1.960   6.842 -2.8304  1.1328 -0.3423
 2173SOL    HW217979   2.278   1.824   6.891 -0.7952 -1.5631 -0.9090
 2174SOL     OW17980   1.946   4.294  12.319 -0.1989  0.2441 -0.1631
 2174SOL    HW117981   2.007   4.364  12.296 -1.6532  0.9523 -1.9317
 2174SOL    HW217982   2.004   4.237  12.369  0.1325 -0.7394 -1.6827
 2175SOL     OW17983   2.620   2.509  10.890  0.5700 -0.9285  0.0718
 2175SOL    HW117984   2.670   2.573  10.839 -0.3924  1.4780  2.1299
 2175SOL    HW217985   2.576   2.465  10.818 -0.9945  0.9932 -0.1500
 2176SOL     OW17986   3.043   2.056   0.898  0.3295  0.0010 -0.1730
 2176SOL    HW117987   3.040   2.143   0.938  0.1498  0.7272 -1.7807
 2176SOL    HW217988   3.129   2.055   0.856 -0.2553  0.4085 -1.3747
 2177SOL     OW17989   1.789   0.080   5.832  0.8714 -0.3515  0.0766
 2177SOL    HW117990   1.702   0.107   5.803  1.2213  0.7033  0.0126
 2177SOL    HW217991   1.776   4.720   5.876  0.2090  0.3117  1.1523
 2178SOL     OW17992   4.433   1.721   6.000  0.3822 -0.3187 -0.0478
 2178SOL    HW117993   4.467   1.731   6.090 -0.7194  0.6345  0.2574
 2178SOL    HW217994   4.476   1.791   5.952 -1.0275  0.1341 -0.6432
 2179SOL     OW17995   0.315   3.104  13.913 -0.2878 -0.2530  0.5920
 2179SOL    HW117996   0.279   3.193  13.911  0.9102  0.1904 -1.8065
 2179SOL    HW217997   0.242   3.043  13.922  0.9097 -1.7245  0.3689
 2180SOL     OW17998   1.001   2.744  15.190  0.0354  0.0145  0.2627
 2180SOL    HW117999   1.095   2.761  15.196  0.3827 -0.7043 -3.3511
 2180SOL    HW218000   1.000   2.677  15.122 -0.2449  1.2182 -0.9210
 2181SOL     OW18001   4.219   3.114   6.677  0.0215  0.0944 -0.0578
 2181SOL    HW118002   4.188   3.187   6.731 -1.7462 -0.9946  0.4082
 2181SOL    HW218003   4.153   3.050   6.704  0.8906 -0.4903  0.7106
 2182SOL     OW18004   2.056   3.209   8.298  0.0846  0.5227 -0.0738
 2182SOL    HW118005   2.127   3.148   8.319  1.4270  2.2592  0.4091
 2182SOL    HW218006   1.997   3.207   8.374 -0.1738 -0.5262 -0.3021
 2183SOL     OW18007   4.684   1.518   8.388  0.6894  0.2967 -0.3181
 2183SOL    HW118008   4.626   1.574   8.440 -1.4838 -1.0160 -1.3135
 2183SOL    HW218009   4.641   1.533   8.304  0.9578 -0.6852 -0.6405
 2184SOL     OW18010   1.367   0.116   8.096 -0.0911 -0.0989  0.2378
 2184SOL    HW118011   1.350   0.189   8.156 -0.0631 -0.6084  0.8784
 2184SOL    HW218012   1.356   0.045   8.160 -0.8781 -0.0932  0.1046
 2185SOL     OW18013   3.032   0.888   5.898 -0.1409  0.1535  0.6952
 2185SOL    HW118014   3.087   0.822   5.940  0.9042  0.7217  0.2100
 2185SOL    HW218015   3.032   0.948   5.973 -0.8935  0.0962  0.7429
 2186SOL     OW18016   3.989   2.051   2.443 -0.4024 -0.3456  0.0127
 2186SOL    HW118017   3.966   2.139   2.414  0.7301  0.2972  1.0736
 2186SOL    HW218018   4.049   2.066   2.516 -0.5379  0.0139  0.0497
 2187SOL     OW18019   1.680   1.353   6.905  0.0777 -0.3986 -0.3105
 2187SOL    HW118020   1.726   1.361   6.989  0.7903 -0.0036 -0.7360
 2187SOL    HW218021   1.741   1.404   6.851 -3.0441  0.8869 -2.6052
 2188SOL     OW18022   0.383   0.277   6.467 -0.2159 -0.4872 -0.1262
 2188SOL    HW118023   0.455   0.286   6.405 -1.2337  0.0340 -1.2409
 2188SOL    HW218024   0.314   0.315   6.412 -1.4151 -0.7938  1.1878
 2189SOL     OW18025   2.553   2.345  10.424  0.1773 -0.4331 -0.1508
 2189SOL    HW118026   2.593   2.260  10.444  1.0587 -0.1329 -0.6505
 2189SOL    HW218027   2.630   2.402  10.422 -1.1198  1.2980 -0.8749
 2190SOL     OW18028   0.690   2.581   9.538  0.1166 -0.1618  0.2065
 2190SOL    HW118029   0.743   2.629   9.474  1.4211 -1.3765  0.3743
 2190SOL    HW218030   0.645   2.655   9.577 -1.2914 -0.3821 -1.0026
 2191SOL     OW18031   1.270   2.879   6.195 -0.1781  0.3627 -0.0816
 2191SOL    HW118032   1.266   2.793   6.155 -0.3408  0.7670 -0.9382
 2191SOL    HW218033   1.344   2.920   6.149  0.9450  0.2117  1.5749
 2192SOL     OW18034   2.716   3.966  11.764 -0.1105 -0.2208 -0.0735
 2192SOL    HW118035   2.772   3.890  11.751  1.2034  0.4322  1.7521
 2192SOL    HW218036   2.671   3.971  11.680  1.6756 -0.5407 -1.0357
 2193SOL     OW18037   4.100   3.669   5.137  0.1743 -0.0339  0.7416
 2193SOL    HW118038   4.151   3.590   5.117 -0.9654 -0.5754  0.0141
 2193SOL    HW218039   4.163   3.733   5.104 -1.4264  2.0077  1.6335
 2194SOL     OW18040   3.920   2.497   8.706 -0.1349  0.0979  0.5455
 2194SOL    HW118041   3.959   2.410   8.714 -0.0013  0.1958  0.9505
 2194SOL    HW218042   3.836   2.488   8.662  0.1059  2.7270 -0.4658
 2195SOL     OW18043   3.072   2.299   8.169 -0.3568  0.0034 -0.2175
 2195SOL    HW118044   3.166   2.302   8.157 -0.3862 -2.7977 -1.2794
 2195SOL    HW218045   3.054   2.219   8.219  0.8557  0.2874  0.6737
 2196SOL     OW18046   0.255   4.250   8.915  0.0446 -0.5016  0.5268
 2196SOL    HW118047   0.339   4.283   8.946 -0.5264 -0.4439  2.0105
 2196SOL    HW218048   0.274   4.157   8.900 -0.0865 -0.7652  2.0035
 2197SOL     OW18049   3.593   2.415  12.668  0.0924  0.1904 -0.2608
 2197SOL    HW118050   3.644   2.340  12.639 -1.4173 -0.0991 -2.2011
 2197SOL    HW218051   3.650   2.464  12.727 -1.5213  2.7692 -0.8373
 2198SOL     OW18052   2.455   4.080   2.956  0.0519  0.2825  0.0982
 2198SOL    HW118053   2.536   4.120   2.989  0.5938 -1.1359  0.4811
 2198SOL    HW218054   2.455   3.999   3.006  0.7410 -0.9765 -1.9795
 2199SOL     OW18055   0.407   3.997   2.488  0.1336 -0.2062 -0.0416
 2199SOL    HW118056   0.330   3.945   2.462 -0.6026  1.5089 -1.3260
 2199SOL    HW218057   0.434   4.032   2.403  1.0694  0.2063  0.4275
 2200SOL     OW18058   0.414   0.618   1.705  0.2875  0.2060 -0.0811
 2200SOL    HW118059   0.505   0.593   1.686 -0.3452 -1.3532 -1.0062
 2200SOL    HW218060   0.370   0.569   1.636 -0.0166  0.5899 -0.1566
 2201SOL     OW18061   0.674   3.736   6.675  0.0754 -0.2436  0.0488
 2201SOL    HW118062   0.673   3.684   6.595  1.8951  0.7880 -0.6372
 2201SOL    HW218063   0.594   3.787   6.663  0.9556  0.9189 -0.7078
 2202SOL     OW18064   3.919   3.738   0.850  0.1730  0.4119 -0.1741
 2202SOL    HW118065   3.960   3.822   0.873 -0.7695  1.3715 -1.9210
 2202SOL    HW218066   3.862   3.773   0.781  0.4427  3.4478  1.1405
 2203SOL     OW18067   1.943   0.009   6.073  0.5338 -0.0782 -1.1205
 2203SOL    HW118068   1.883   4.668   6.038 -0.4332  0.9657 -1.4240
 2203SOL    HW218069   1.882   0.074   6.109  2.9322  1.0066  1.0042
 2204SOL     OW18070   3.629   3.382  12.791  0.5258 -0.2324  0.3183
 2204SOL    HW118071   3.690   3.364  12.720  1.2196  2.3511  0.2574
 2204SOL    HW218072   3.573   3.305  12.780  0.5843 -0.1530 -0.5275
 2205SOL     OW18073   1.217   2.076  10.163  0.4246  0.3214  0.2374
 2205SOL    HW118074   1.165   2.025  10.226  2.0381  0.3512  1.5928
 2205SOL    HW218075   1.155   2.074  10.090  0.4666  3.2210  0.1477
 2206SOL     OW18076   1.775   1.262   8.611 -0.1086 -0.2822  0.0180
 2206SOL    HW118077   1.736   1.236   8.527 -1.2381 -0.0839  0.4798
 2206SOL    HW218078   1.722   1.341   8.622 -0.8615 -0.7482 -0.2605
 2207SOL     OW18079   2.011   2.639   7.813 -0.2096 -0.1499 -0.0727
 2207SOL    HW118080   1.916   2.628   7.810 -0.1459 -0.1676 -2.2056
 2207SOL    HW218081   2.019   2.655   7.719 -0.7347  1.4969  0.1576
 2208SOL     OW18082   1.336   2.030   4.362  0.2714  0.1051 -0.2830
 2208SOL    HW118083   1.249   1.990   4.364  0.6857 -0.8148 -0.6719
 2208SOL    HW218084   1.318   2.115   4.324  0.6238  0.6404  0.7396
 2209SOL     OW18085   3.320   0.017   8.351  0.0672 -0.2431 -0.2028
 2209SOL    HW118086   3.352   0.089   8.297  1.1218 -1.3351 -1.0282
 2209SOL    HW218087   3.241   4.719   8.302  1.1152  1.2563 -2.5405
 2210SOL     OW18088   0.816   0.355   5.438 -0.3795  0.4487 -0.2517
 2210SOL    HW118089   0.783   0.443   5.423 -0.6471  0.0102 -2.2805
 2210SOL    HW218090   0.768   0.338   5.519 -0.2623  1.0335 -0.0636
 2211SOL     OW18091   3.882   2.465  12.147 -0.3315 -0.4190  0.2320
 2211SOL    HW118092   3.906   2.411  12.222 -1.6210  1.4605  1.9945
 2211SOL    HW218093   3.954   2.455  12.084  0.1395  2.6393  0.3295
 2212SOL     OW18094   1.758   4.240   2.950  0.2070 -0.2726 -0.0740
 2212SOL    HW118095   1.687   4.286   2.996 -1.1122 -2.0843 -0.3119
 2212SOL    HW218096   1.708   4.159   2.941 -2.5222  1.4257 -0.2984
 2213SOL     OW18097   4.486   3.900   9.580 -0.0599  0.7099 -0.1050
 2213SOL    HW118098   4.453   3.966   9.519 -0.1562 -0.4733 -1.3141
 2213SOL    HW218099   4.510   3.947   9.660 -0.5241  0.7420  0.0148
 2214SOL     OW18100   2.346   3.687   0.182 -0.1831 -0.2970  0.2501
 2214SOL    HW118101   2.335   3.592   0.187 -0.9527 -0.1980  0.3334
 2214SOL    HW218102   2.258   3.719   0.198 -0.6569 -1.4949  0.0134
 2215SOL     OW18103   1.132   3.814  15.899 -1.0830 -0.3562 -0.4492
 2215SOL    HW118104   1.074   3.889  15.908  1.1123  1.3032  0.0513
 2215SOL    HW218105   1.186   3.826  15.821 -1.4816 -0.8549 -0.7973
 2216SOL     OW18106   1.107   4.327   2.410  0.0836  0.3125 -0.5310
 2216SOL    HW118107   1.076   4.246   2.368  0.9811 -0.5171  0.3998
 2216SOL    HW218108   1.035   4.381   2.379 -0.2548  0.1583 -0.0173
 2217SOL     OW18109   4.017   4.655   0.871 -0.1524 -0.4906 -0.0844
 2217SOL    HW118110   4.094   4.602   0.891 -1.3894 -1.4319  2.2113
 2217SOL    HW218111   4.054   4.688   0.789  2.2551 -1.1506  0.7195
 2218SOL     OW18112   3.880   1.588   5.563  0.3675 -0.2242 -0.1604
 2218SOL    HW118113   3.848   1.517   5.619 -0.9045  1.3346  1.1032
 2218SOL    HW218114   3.859   1.563   5.474 -0.3518  1.8063 -0.5745
 2219SOL     OW18115   0.545   1.274   5.360 -0.1954 -0.1433  0.0268
 2219SOL    HW118116   0.457   1.269   5.397 -0.2313 -1.4372 -0.2470
 2219SOL    HW218117   0.595   1.285   5.441 -3.4475  1.0903  1.9065
 2220SOL     OW18118   3.023   4.194  14.236 -0.2132 -0.0801 -0.4947
 2220SOL    HW118119   3.081   4.268  14.254 -1.3036 -0.0214  2.8440
 2220SOL    HW218120   3.016   4.150  14.321  0.3380 -2.9535 -1.9553
 2221SOL     OW18121   4.486   0.262   0.105  0.0823 -0.2528 -0.1776
 2221SOL    HW118122   4.416   0.222   0.156  2.2035 -4.0930 -0.2226
 2221SOL    HW218123   4.550   0.291   0.169 -0.0032 -2.4508  0.9185
 2222SOL     OW18124   2.541   1.002   6.651 -0.4253  0.2118  0.3542
 2222SOL    HW118125   2.582   0.916   6.654 -0.3769  0.2037 -0.5069
 2222SOL    HW218126   2.477   0.984   6.719  1.6115  0.2499  2.2623
 2223SOL     OW18127   4.542   3.684   5.477  0.6818 -0.6165 -0.1362
 2223SOL    HW118128   4.581   3.684   5.390 -3.2997 -0.6439 -1.9107
 2223SOL    HW218129   4.582   3.611   5.524  0.5249 -0.8639 -0.3912
 2224SOL     OW18130   0.908   0.257  15.790 -0.0728  0.0090 -0.3283
 2224SOL    HW118131   0.880   0.333  15.841  0.1057 -0.9940  1.2844
 2224SOL    HW218132   0.826   0.214  15.766 -0.2752  1.3614 -2.0250
 2225SOL     OW18133   2.404   0.466   6.530 -0.4225 -1.0148 -0.1567
 2225SOL    HW118134   2.470   0.415   6.483  2.5491 -0.0452  2.9685
 2225SOL    HW218135   2.381   0.538   6.470 -1.9724  1.8866  3.9318
 2226SOL     OW18136   1.586   2.741   1.517 -0.4880 -0.1785 -0.1820
 2226SOL    HW118137   1.639   2.780   1.587 -1.2827  1.6932 -0.6341
 2226SOL    HW218138   1.522   2.812   1.514 -1.0960 -0.7400 -0.4368
 2227SOL     OW18139   3.449   2.678   3.744  0.1141 -0.0039  0.2245
 2227SOL    HW118140   3.538   2.643   3.735  0.2650  0.2835  0.5820
 2227SOL    HW218141   3.405   2.643   3.821 -0.7071 -0.0433 -0.2649
 2228SOL     OW18142   1.639   0.269  10.542 -0.6197 -0.4051  0.5187
 2228SOL    HW118143   1.729   0.279  10.510 -0.6960  1.4334  0.8493
 2228SOL    HW218144   1.639   0.318  10.625  2.0527 -0.4059  0.5301
 2229SOL     OW18145   3.342   3.582   8.756 -0.7761  0.2368 -0.1005
 2229SOL    HW118146   3.327   3.677   8.749  0.7685  0.5548  0.9032
 2229SOL    HW218147   3.435   3.592   8.778 -0.8645 -1.8841  1.2366
 2230SOL     OW18148   3.530   3.934  11.364 -0.1420 -0.1686 -1.0926
 2230SOL    HW118149   3.505   3.944  11.456  1.4567 -3.9053 -0.2866
 2230SOL    HW218150   3.625   3.940  11.367 -0.1442 -0.4653 -0.4277
 2231SOL     OW18151   2.515   3.846   3.062 -0.3601  0.1398 -0.0583
 2231SOL    HW118152   2.463   3.768   3.045  0.3861 -0.7221  1.6300
 2231SOL    HW218153   2.591   3.834   3.006 -0.8477 -1.1706 -0.4262
 2232SOL     OW18154   1.480   1.390   4.416 -0.5494  0.1478  0.0536
 2232SOL    HW118155   1.551   1.396   4.480  0.5312 -0.8332 -1.0443
 2232SOL    HW218156   1.504   1.318   4.357  0.3206 -0.1790  0.8057
 2233SOL     OW18157   1.057   0.640   9.612  0.1471 -0.0269 -0.0068
 2233SOL    HW118158   1.063   0.718   9.556 -0.3621 -0.7627 -1.0836
 2233SOL    HW218159   1.048   0.681   9.698 -0.5734 -2.0709  0.8779
 2234SOL     OW18160   2.639   3.924   6.075  0.0044  0.0798 -0.2906
 2234SOL    HW118161   2.594   3.852   6.031  2.2444 -1.1268 -0.5822
 2234SOL    HW218162   2.722   3.891   6.108 -0.3520  0.5508  1.0850
 2235SOL     OW18163   0.879   0.986   9.224 -0.0980 -0.2148 -0.3664
 2235SOL    HW118164   0.804   0.952   9.175 -0.2069 -0.2781 -0.1547
 2235SOL    HW218165   0.947   0.920   9.214  1.7740  1.5355  0.8372
 2236SOL     OW18166   1.487   0.186   5.390  0.0340  0.5338  0.9254
 2236SOL    HW118167   1.513   0.115   5.449  0.9653  0.5422  0.5320
 2236SOL    HW218168   1.420   0.224   5.447 -0.8110  1.5025 -0.7378
 2237SOL     OW18169   1.347   0.400   8.997 -0.2060 -0.5270 -0.0530
 2237SOL    HW118170   1.415   0.438   9.052  1.7842 -2.1806 -1.3736
 2237SOL    HW218171   1.383   0.314   8.976 -1.3088 -1.4157  1.6888
 2238SOL     OW18172   2.608   0.001  16.549  0.0918  0.3245 -0.7353
 2238SOL    HW118173   2.632   4.656  16.487 -1.9057 -0.0382 -1.1311
 2238SOL    HW218174   2.595   4.666  16.623  0.4185  3.5108  1.8459
 2239SOL     OW18175   2.797   2.067   5.448 -0.2132 -0.0776  0.0951
 2239SOL    HW118176   2.818   2.122   5.373 -0.3351 -0.0931  0.0490
 2239SOL    HW218177   2.828   1.978   5.429  2.1343  1.1636 -1.8935
 2240SOL     OW18178   1.931   0.412   3.319  0.1505  0.2891 -0.1673
 2240SOL    HW118179   1.853   0.412   3.262  0.4822 -0.1236 -0.6248
 2240SOL    HW218180   1.986   0.345   3.278  2.5607  2.7196 -0.9100
 2241SOL     OW18181   3.794   1.529   7.728 -0.1078 -0.5135  0.4747
 2241SOL    HW118182   3.779   1.551   7.636  0.0566  0.5220  0.7013
 2241SOL    HW218183   3.717   1.472   7.734  0.4275 -1.1617  1.1806
 2242SOL     OW18184   3.053   3.790   7.017  0.0028  0.0999  0.3751
 2242SOL    HW118185   2.979   3.788   7.078  1.9645 -0.6437  2.7154
 2242SOL    HW218186   3.090   3.876   7.035 -0.1909 -0.1095  1.7119
 2243SOL     OW18187   3.796   3.216   5.084 -0.1994  0.4483 -0.5032
 2243SOL    HW118188   3.754   3.285   5.033  0.0610  1.0859  0.1431
 2243SOL    HW218189   3.826   3.279   5.150  1.3632 -0.5655 -0.2481
 2244SOL     OW18190   0.990   3.309   1.748  0.0451  0.1763 -0.3338
 2244SOL    HW118191   0.957   3.220   1.737  0.7432 -0.1884  0.5089
 2244SOL    HW218192   1.055   3.292   1.817  0.6832 -1.3937 -1.3285
 2245SOL     OW18193   1.100   3.285  13.063  0.0218  0.4279 -0.3913
 2245SOL    HW118194   1.111   3.336  13.143 -0.1537 -0.3263  0.1160
 2245SOL    HW218195   1.019   3.233  13.063 -0.3525  1.0118  0.3136
 2246SOL     OW18196   3.095   1.871  13.711  0.3902  0.5916 -0.1738
 2246SOL    HW118197   3.091   1.966  13.698  0.0885  0.6430  0.2817
 2246SOL    HW218198   3.003   1.847  13.699 -0.0096  0.5266  2.9499
 2247SOL     OW18199   3.990   3.915   2.219 -0.1189  0.2644 -0.0738
 2247SOL    HW118200   3.979   3.990   2.160 -1.8876 -0.5839 -0.8227
 2247SOL    HW218201   4.031   3.851   2.161 -1.0978 -2.3723  2.1627
 2248SOL     OW18202   1.226   3.286  10.374  0.0099 -0.2658 -0.1641
 2248SOL    HW118203   1.177   3.350  10.322 -1.0697  0.5834  1.9078
 2248SOL    HW218204   1.264   3.338  10.444 -0.2871 -0.8380  0.4209
 2249SOL     OW18205   2.015   0.973  12.076  0.2685  0.0733 -0.4665
 2249SOL    HW118206   2.002   0.879  12.066 -0.1417  0.3110 -2.1103
 2249SOL    HW218207   1.926   1.007  12.072 -0.5394 -1.9649  0.2783
 2250SOL     OW18208   1.441   0.056   5.134 -0.9360 -0.1495  0.6010
 2250SOL    HW118209   1.527   0.017   5.148 -1.4260 -1.8981 -1.2123
 2250SOL    HW218210   1.428   0.085   5.224  0.6269  2.3544  0.0268
 2251SOL     OW18211   4.325   4.097  14.820 -0.6463  0.4922  0.5931
 2251SOL    HW118212   4.244   4.119  14.774  0.2308 -0.8460 -1.5738
 2251SOL    HW218213   4.297   4.017  14.864 -0.3193 -0.3188 -0.6763
 2252SOL     OW18214   1.771   3.048   2.930  0.1832  0.5192  0.5931
 2252SOL    HW118215   1.853   3.010   2.896  0.0040  0.4247  0.2733
 2252SOL    HW218216   1.743   2.967   2.973  2.5558  0.0190  1.2289
 2253SOL     OW18217   3.511   2.402   3.165 -0.2349 -0.3784  0.7377
 2253SOL    HW118218   3.565   2.391   3.086 -0.6113 -1.0493  0.5752
 2253SOL    HW218219   3.422   2.426   3.139  0.4757  2.4087  0.8244
 2254SOL     OW18220   0.385   0.547  11.756 -0.1936 -0.2916 -0.0488
 2254SOL    HW118221   0.341   0.560  11.673 -0.9360 -1.3025  0.1769
 2254SOL    HW218222   0.448   0.617  11.740 -0.7733 -0.0531 -1.3002
 2255SOL     OW18223   3.600   0.404   4.376  0.0088  0.4483  0.5136
 2255SOL    HW118224   3.546   0.326   4.380  1.7211 -0.6830  1.2071
 2255SOL    HW218225   3.540   0.461   4.328  1.0655  0.6462 -0.5811
 2256SOL     OW18226   3.859   1.481  17.153 -0.3581 -0.1923  0.5813
 2256SOL    HW118227   3.775   1.457  17.115  0.8769 -1.3522 -1.4076
 2256SOL    HW218228   3.917   1.428  17.098 -0.8358  0.2812 -0.3692
 2257SOL     OW18229   2.860   3.859   7.192 -0.2237 -0.0020  0.2559
 2257SOL    HW118230   2.875   3.953   7.206  0.2629 -0.0703  0.1906
 2257SOL    HW218231   2.774   3.861   7.150 -0.8237 -0.3752  1.4752
 2258SOL     OW18232   2.700   2.751   9.010  0.5385  0.2821  0.2535
 2258SOL    HW118233   2.716   2.845   9.013  1.4201  0.0404  2.6522
 2258SOL    HW218234   2.717   2.749   8.915 -1.6322 -1.2051 -0.0936
 2259SOL     OW18235   2.632   4.216   6.064 -0.1791 -0.3931  0.5003
 2259SOL    HW118236   2.618   4.122   6.049 -1.5171 -0.3005  1.1741
 2259SOL    HW218237   2.645   4.246   5.974 -1.4743 -1.9993 -0.2430
 2260SOL     OW18238   4.017   0.238  11.093 -0.1664  0.1186 -0.0196
 2260SOL    HW118239   4.084   0.218  11.027  0.8758  1.0866  0.7600
 2260SOL    HW218240   4.053   0.203  11.174 -1.1826 -1.0054 -0.0557
 2261SOL     OW18241   1.524   0.750   9.281  0.5149  0.0071 -0.1645
 2261SOL    HW118242   1.593   0.733   9.217 -0.1022 -0.2055 -0.7744
 2261SOL    HW218243   1.484   0.829   9.245  1.5921  1.1542  1.1926
 2262SOL     OW18244   4.505   2.573  13.664 -0.3822  0.2076  0.4742
 2262SOL    HW118245   4.480   2.490  13.622  0.4252  0.4863 -0.5650
 2262SOL    HW218246   4.504   2.549  13.756  0.1534 -1.8132 -0.0449
 2263SOL     OW18247   2.868   2.736  16.514 -0.2064  0.6117 -0.0690
 2263SOL    HW118248   2.937   2.779  16.464 -1.0452 -0.7812 -2.4486
 2263SOL    HW218249   2.794   2.795  16.498  0.2163  1.9095  2.8498
 2264SOL     OW18250   3.367   2.316   8.201 -0.4659 -0.0263  0.0595
 2264SOL    HW118251   3.397   2.232   8.235 -0.3577 -0.6307 -1.5286
 2264SOL    HW218252   3.344   2.362   8.282 -0.7085  1.3974 -0.8276
 2265SOL     OW18253   2.182   3.455   1.713 -0.5685  0.4472  0.2982
 2265SOL    HW118254   2.273   3.459   1.683 -1.2601 -1.0735 -1.9579
 2265SOL    HW218255   2.138   3.488   1.635 -0.6394 -1.4588 -0.4704
 2266SOL     OW18256   3.795   1.227   3.218  0.1135  0.9197 -0.4853
 2266SOL    HW118257   3.874   1.276   3.239  0.0891  0.1015  1.4547
 2266SOL    HW218258   3.770   1.203   3.307  0.4966 -0.0832 -0.6532
 2267SOL     OW18259   3.900   4.217  15.188  0.1237  0.5398 -0.1350
 2267SOL    HW118260   3.872   4.126  15.180  0.7444  0.2143  1.2560
 2267SOL    HW218261   3.930   4.219  15.280 -2.4468 -3.5326  0.7846
 2268SOL     OW18262   1.022   1.619  13.864  0.1876 -0.2424 -0.0641
 2268SOL    HW118263   1.101   1.566  13.853  0.2616  0.0407 -0.8860
 2268SOL    HW218264   0.985   1.580  13.943  0.4095 -0.3439 -0.0095
 2269SOL     OW18265   1.007   2.106   9.987  0.1798  0.1725 -0.1235
 2269SOL    HW118266   0.981   2.167   9.918 -0.5281 -1.9626 -1.7196
 2269SOL    HW218267   0.960   2.025   9.969 -0.9991  0.2004  2.9096
 2270SOL     OW18268   1.761   0.811   7.325  0.2048 -0.1669  0.3442
 2270SOL    HW118269   1.682   0.835   7.277 -0.2283 -1.3576  0.4641
 2270SOL    HW218270   1.721   0.820   7.411 -0.4944  2.8317 -0.3065
 2271SOL     OW18271   3.712   2.487   4.595 -0.4274  0.2464 -0.6397
 2271SOL    HW118272   3.708   2.479   4.500 -0.0522  1.6116 -0.7690
 2271SOL    HW218273   3.786   2.544   4.614 -1.5399  0.5591  2.7112
 2272SOL     OW18274   3.567   4.622  17.348  0.0176 -0.2816 -0.2351
 2272SOL    HW118275   3.573   4.691  17.281 -0.8414 -0.5814 -0.6222
 2272SOL    HW218276   3.473   4.630  17.365  0.1438 -1.2088  0.8756
 2273SOL     OW18277   2.657   3.491   5.449 -0.6592  0.1913  0.7613
 2273SOL    HW118278   2.718   3.421   5.422 -1.3754  0.2704 -1.0676
 2273SOL    HW218279   2.587   3.484   5.385  2.5107 -1.3182 -2.5347
 2274SOL     OW18280   1.557   3.262  16.883 -0.3410 -0.6693 -0.5151
 2274SOL    HW118281   1.475   3.299  16.916  0.2832  2.2761 -2.1947
 2274SOL    HW218282   1.538   3.250  16.790  0.1641 -0.0486 -0.6979
 2275SOL     OW18283   1.789   1.248   2.904 -0.0261 -1.0801 -0.4419
 2275SOL    HW118284   1.734   1.226   2.979  0.5287  1.3834  0.7005
 2275SOL    HW218285   1.752   1.334   2.886  0.0884 -0.6046  1.6698
 2276SOL     OW18286   0.977   1.274  12.753 -0.0094  0.3369  0.1446
 2276SOL    HW118287   0.949   1.183  12.748  3.6197 -0.7653 -0.6257
 2276SOL    HW218288   0.938   1.321  12.680 -0.0844  0.4311  0.2448
 2277SOL     OW18289   1.924   2.080   4.600 -0.0618 -0.3235  0.2357
 2277SOL    HW118290   1.995   2.121   4.649  0.7545 -2.0716  0.5073
 2277SOL    HW218291   1.945   1.987   4.600  0.5062 -0.1787  4.6848
 2278SOL     OW18292   4.534   0.498   3.153 -0.2329 -0.0404  0.3897
 2278SOL    HW118293   4.562   0.420   3.105 -0.4533 -0.9475  1.7201
 2278SOL    HW218294   4.475   0.538   3.090  1.5125  1.3019 -0.4041
 2279SOL     OW18295   2.208   3.013  10.092  0.0339 -0.1880  0.0216
 2279SOL    HW118296   2.221   2.965  10.174  1.7890 -0.1612 -0.2391
 2279SOL    HW218297   2.189   2.935  10.038 -0.3529  1.8395 -2.7916
 2280SOL     OW18298   1.811   1.413   3.901  0.6438 -0.2588 -0.5123
 2280SOL    HW118299   1.878   1.422   3.969 -1.1345 -0.8287  1.2922
 2280SOL    HW218300   1.746   1.480   3.922  2.4337  1.3817 -0.1512
 2281SOL     OW18301   0.160   4.183   6.729 -0.2670  0.3889 -0.6232
 2281SOL    HW118302   0.186   4.188   6.821  0.7083 -1.3600 -0.8002
 2281SOL    HW218303   0.064   4.180   6.735 -0.0332 -1.0895  2.1012
 2282SOL     OW18304   3.079   0.425   7.403  0.3649 -0.4016  0.0789
 2282SOL    HW118305   2.985   0.431   7.390  0.4046 -1.3443 -0.6716
 2282SOL    HW218306   3.089   0.336   7.367 -2.1563 -0.3904 -0.6369
 2283SOL     OW18307   3.194   0.696   6.026 -0.2038 -0.1911  0.0943
 2283SOL    HW118308   3.205   0.601   6.034 -0.6189 -0.3326 -1.0467
 2283SOL    HW218309   3.285   0.722   6.035 -0.0104 -0.9312  0.2181
 2284SOL     OW18310   3.058   2.030   3.151 -0.5546 -0.1000  0.1894
 2284SOL    HW118311   3.023   2.069   3.231  0.1176  0.2600  0.3038
 2284SOL    HW218312   2.974   2.027   3.104  0.9829  1.7870 -2.6375
 2285SOL     OW18313   0.601   4.498   7.271  0.0933 -0.1342 -0.3764
 2285SOL    HW118314   0.533   4.452   7.320  0.4164  1.1517  1.2711
 2285SOL    HW218315   0.553   4.540   7.200  1.2984 -0.4810 -1.3889
 2286SOL     OW18316   0.042   0.003  11.204  0.0882 -0.3818  0.4477
 2286SOL    HW118317   0.100   4.659  11.170  2.0982  0.1034  2.8656
 2286SOL    HW218318   0.043   4.708  11.298  1.7596 -0.6009  0.3879
 2287SOL     OW18319   3.756   2.331   0.030 -0.0034  0.3985  0.4293
 2287SOL    HW118320   3.672   2.375   0.041  0.0145  0.6001 -0.2102
 2287SOL    HW218321   3.760   2.313  17.634 -1.8361 -1.0731  0.6269
 2288SOL     OW18322   4.652   0.649   7.306  1.0314 -0.0633 -0.0595
 2288SOL    HW118323   4.694   0.592   7.242  0.2824 -2.0488  1.2104
 2288SOL    HW218324   0.004   0.686   7.351 -0.5847  0.8253  1.9756
 2289SOL     OW18325   3.725   4.571   8.088 -0.3548  0.0676 -0.6406
 2289SOL    HW118326   3.790   4.503   8.069 -0.8185  0.2105 -2.7156
 2289SOL    HW218327   3.789   4.641   8.095 -0.8615  0.3012  1.7902
 2290SOL     OW18328   2.158   1.089  12.263 -0.0179 -0.8668  0.4381
 2290SOL    HW118329   2.091   1.070  12.197  0.8223  0.4197 -0.7964
 2290SOL    HW218330   2.152   1.003  12.303  0.7402 -1.3760 -0.5396
 2291SOL     OW18331   2.887   2.517   7.441  0.1308 -0.2530  0.4173
 2291SOL    HW118332   2.941   2.590   7.411  1.4858 -1.7844 -0.8782
 2291SOL    HW218333   2.811   2.557   7.484 -1.1607 -0.4238 -1.6811
 2292SOL     OW18334   4.301   3.961   7.965  0.1740 -0.3871 -0.1209
 2292SOL    HW118335   4.304   3.865   7.963  1.1039 -0.3192 -1.9158
 2292SOL    HW218336   4.341   3.982   8.049  0.5132 -2.2302  0.1733
 2293SOL     OW18337   2.106   3.424  10.206  0.1825  0.1972  0.7202
 2293SOL    HW118338   2.089   3.355  10.142 -1.1555  1.4549 -0.2617
 2293SOL    HW218339   2.100   3.371  10.286  1.3088 -1.7677 -0.4811
 2294SOL     OW18340   1.056   2.171   4.088  1.1169  0.2941  0.2042
 2294SOL    HW118341   1.148   2.147   4.099  0.7992 -1.2967 -0.7006
 2294SOL    HW218342   1.068   2.265   4.075 -1.6764  0.7334  0.6823
 2295SOL     OW18343   2.505   2.350   3.325 -0.1795 -0.2062 -0.4846
 2295SOL    HW118344   2.541   2.281   3.380 -1.9302 -0.5525  0.2262
 2295SOL    HW218345   2.423   2.364   3.372  0.1133 -0.0292 -0.0228
 2296SOL     OW18346   1.646   2.089   8.105  0.4283  0.3897 -0.1633
 2296SOL    HW118347   1.713   2.022   8.093  0.8211  0.6264  0.6927
 2296SOL    HW218348   1.579   2.060   8.043 -1.0191 -1.4818  2.3170
 2297SOL     OW18349   0.692   1.770   4.428 -0.2662  0.0445  0.5798
 2297SOL    HW118350   0.603   1.754   4.396 -0.4022 -0.8944  1.4331
 2297SOL    HW218351   0.680   1.856   4.468 -0.2143 -0.3989  1.5516
 2298SOL     OW18352   0.887   2.124   8.793 -0.6720 -0.8485  0.0088
 2298SOL    HW118353   0.930   2.203   8.825 -2.5578  1.2656 -2.5945
 2298SOL    HW218354   0.795   2.140   8.815  0.4172  2.3495  2.2824
 2299SOL     OW18355   2.140   2.286  15.593  0.2361 -0.4617  0.2328
 2299SOL    HW118356   2.076   2.347  15.556  1.8267 -0.0347 -1.7707
 2299SOL    HW218357   2.173   2.331  15.671  0.4260  1.1538 -0.7825
 2300SOL     OW18358   4.245   3.981   9.085 -0.2380 -0.0022 -0.2261
 2300SOL    HW118359   4.227   3.887   9.087  1.2111 -0.2952 -0.4977
 2300SOL    HW218360   4.276   4.010   9.171 -2.0792  2.7484 -0.4939
 2301SOL     OW18361   2.887   4.214  12.772 -0.0608 -0.1206  0.1477
 2301SOL    HW118362   2.838   4.191  12.693  0.5929  0.9935 -0.5863
 2301SOL    HW218363   2.842   4.289  12.810  0.2640 -0.4108  1.1035
 2302SOL     OW18364   4.367   0.992   4.498  0.4967  0.4703  0.2448
 2302SOL    HW118365   4.281   0.962   4.466  0.4954 -1.9609  2.5054
 2302SOL    HW218366   4.407   0.913   4.534 -0.6548 -0.9896 -1.6385
 2303SOL     OW18367   2.903   4.174   2.344 -0.1430  0.0978 -0.6067
 2303SOL    HW118368   2.945   4.133   2.420 -2.9440  0.1460  0.9435
 2303SOL    HW218369   2.813   4.177   2.375 -0.2539  0.2431 -0.9375
 2304SOL     OW18370   2.874   0.508   3.789  0.5740 -0.1285 -0.4422
 2304SOL    HW118371   2.852   0.426   3.833  2.1605  0.1111  0.7952
 2304SOL    HW218372   2.864   0.580   3.852  6.2148 -1.3645  1.8743
 2305SOL     OW18373   3.003   1.243   7.042  1.2766 -0.2963  0.2389
 2305SOL    HW118374   2.930   1.297   7.073  0.1576 -0.7606 -1.5850
 2305SOL    HW218375   3.033   1.209   7.126  3.3179 -0.0468 -0.3912
 2306SOL     OW18376   0.087   2.200   2.434  0.2058  0.2677  0.0648
 2306SOL    HW118377   0.027   2.267   2.469  1.7950  2.0788 -0.6982
 2306SOL    HW218378   0.030   2.123   2.431 -1.7476  1.7572 -0.8642
 2307SOL     OW18379   1.163   3.078   6.357 -0.2971 -0.9232  0.4005
 2307SOL    HW118380   1.161   3.023   6.279 -0.2273 -1.6754  0.9314
 2307SOL    HW218381   1.247   3.123   6.348 -0.5057 -1.1074 -2.5834
 2308SOL     OW18382   0.968   3.225   5.768 -0.4358 -0.6917  0.3988
 2308SOL    HW118383   0.975   3.130   5.781  1.9905 -1.0945 -3.8574
 2308SOL    HW218384   1.026   3.240   5.842  0.5486 -1.8841 -0.1363
 2309SOL     OW18385   3.876   3.613  15.808  0.1388  0.0935 -0.4831
 2309SOL    HW118386   3.904   3.616  15.717  0.9554  2.2569 -0.1744
 2309SOL    HW218387   3.861   3.706  15.828  0.2291  0.0300 -0.1184
 2310SOL     OW18388   4.648   3.361   2.600  0.1346 -0.2877  0.0995
 2310SOL    HW118389   4.581   3.430   2.607 -0.0097 -0.4127 -0.0391
 2310SOL    HW218390   4.724   3.419   2.598 -0.6163  0.6075 -2.1405
 2311SOL     OW18391   0.233   0.384   1.588  0.3036 -0.1665  0.1078
 2311SOL    HW118392   0.187   0.301   1.580 -1.6080  0.8879  0.2661
 2311SOL    HW218393   0.201   0.413   1.674  2.0320 -0.0374  0.7133
 2312SOL     OW18394   0.667   1.034   3.408  0.1326  0.2378  0.3397
 2312SOL    HW118395   0.584   1.081   3.405 -0.8586 -1.3044  3.3350
 2312SOL    HW218396   0.641   0.952   3.365  4.0349 -1.3477  1.0183
 2313SOL     OW18397   1.243   1.273   4.208  0.2653  0.2795  0.0730
 2313SOL    HW118398   1.257   1.357   4.252 -0.3530 -0.7385  2.2115
 2313SOL    HW218399   1.327   1.231   4.227 -0.0742 -0.6766 -0.5853
 2314SOL     OW18400   4.544   0.179  13.723  0.0368  0.0230  0.1863
 2314SOL    HW118401   4.476   0.118  13.692  0.1442  0.4481 -0.8626
 2314SOL    HW218402   4.603   0.124  13.775  0.3266  1.2190  1.1239
 2315SOL     OW18403   0.283   1.193   2.854 -0.2428 -0.6138  0.0820
 2315SOL    HW118404   0.297   1.158   2.766 -0.4702  0.4435 -0.3780
 2315SOL    HW218405   0.267   1.285   2.830  2.1362  0.0289  0.9996
 2316SOL     OW18406   0.950   1.769   3.940 -0.2004  0.7695  0.3087
 2316SOL    HW118407   0.908   1.756   4.025  1.6018  2.0638  1.3983
 2316SOL    HW218408   0.938   1.864   3.929  0.9328  1.0717  1.6851
 2317SOL     OW18409   3.693   3.149   7.746  0.0745 -0.1005  0.7881
 2317SOL    HW118410   3.707   3.209   7.672 -0.8278 -0.6117  0.2005
 2317SOL    HW218411   3.656   3.212   7.808 -0.6799 -0.4346  0.6785
 2318SOL     OW18412   2.784   1.719   1.404  0.1070 -0.3093 -0.3693
 2318SOL    HW118413   2.788   1.698   1.311  1.7290 -0.0065 -0.3768
 2318SOL    HW218414   2.840   1.796   1.417 -2.1578  0.9827  1.7807
 2319SOL     OW18415   2.423   0.423   3.152  0.0783  0.2363 -0.7593
 2319SOL    HW118416   2.369   0.501   3.166  0.3795  0.0298  1.5959
 2319SOL    HW218417   2.482   0.441   3.079  3.9737 -0.9894  2.1015
 2320SOL     OW18418   2.938   4.564   8.953  0.2343  0.4661 -0.8384
 2320SOL    HW118419   2.953   4.481   8.907 -1.9094 -0.3794  0.0074
 2320SOL    HW218420   2.890   4.532   9.029 -0.8083  0.4656 -1.4902
 2321SOL     OW18421   4.601   2.829   2.401 -0.2351  0.1485 -0.6750
 2321SOL    HW118422   4.528   2.874   2.443 -0.2762 -1.0750  0.5662
 2321SOL    HW218423   4.656   2.892   2.354 -0.3277  0.7620  0.0316
 2322SOL     OW18424   0.463   4.645   6.838  0.3432 -0.1886  0.0426
 2322SOL    HW118425   0.405   4.571   6.820 -1.7285  0.7677  2.5686
 2322SOL    HW218426   0.431   4.722   6.790 -0.6495 -1.2350 -0.9667
 2323SOL     OW18427   4.397   3.112   5.939 -0.4564  0.2673  0.0070
 2323SOL    HW118428   4.360   3.040   5.889  3.3267 -0.6821 -1.4725
 2323SOL    HW218429   4.377   3.189   5.885 -0.7953 -1.7031 -2.6418
 2324SOL     OW18430   0.431   4.496   0.710 -0.2256 -0.7345 -0.0597
 2324SOL    HW118431   0.389   4.581   0.723 -1.3621 -0.9755 -2.1023
 2324SOL    HW218432   0.388   4.440   0.775  2.2032 -0.7368  1.5219
 2325SOL     OW18433   0.301   2.261   2.730  0.2499  0.0342 -0.6683
 2325SOL    HW118434   0.221   2.208   2.722  0.0526  0.1857  0.2622
 2325SOL    HW218435   0.339   2.245   2.644 -1.1840 -1.9085 -0.9388
 2326SOL     OW18436   3.376   3.764  13.848  0.5875 -0.1743  0.2542
 2326SOL    HW118437   3.342   3.835  13.902  1.3393 -1.0810  1.9063
 2326SOL    HW218438   3.295   3.713  13.851  1.3039 -1.2934  0.4838
 2327SOL     OW18439   4.046   2.986   4.395 -0.5818 -0.0463  0.2036
 2327SOL    HW118440   3.971   3.012   4.342 -0.0809  2.7748  0.8476
 2327SOL    HW218441   4.123   3.016   4.347 -1.5312  2.8841  0.5198
 2328SOL     OW18442   0.936   2.954   6.870  0.2014 -0.1511 -0.6494
 2328SOL    HW118443   0.927   2.944   6.775 -1.3601  0.7750 -0.5974
 2328SOL    HW218444   1.025   2.986   6.886 -1.0673  1.4226  3.3608
 2329SOL     OW18445   1.562   3.403   2.241  0.2444 -0.1060  0.3006
 2329SOL    HW118446   1.610   3.336   2.191  1.2693 -0.8644  2.3322
 2329SOL    HW218447   1.630   3.470   2.234  0.6695 -0.6841 -1.0646
 2330SOL     OW18448   0.809   2.207   8.235 -0.0111 -0.0952 -0.7247
 2330SOL    HW118449   0.816   2.202   8.330 -3.1946 -2.1136 -0.5842
 2330SOL    HW218450   0.874   2.149   8.196  1.5524  0.6820  0.7300
 2331SOL     OW18451   3.804   2.177   1.371  0.0320  0.0973 -0.2805
 2331SOL    HW118452   3.771   2.212   1.289  1.4457  1.4759 -0.2653
 2331SOL    HW218453   3.863   2.109   1.339  0.2895 -0.2114  0.8323
 2332SOL     OW18454   3.814   1.306   6.400  0.1850  0.6788  0.2199
 2332SOL    HW118455   3.829   1.377   6.337  1.7467 -1.8097 -2.1981
 2332SOL    HW218456   3.762   1.248   6.345 -1.8062  1.3234  1.4373
 2333SOL     OW18457   4.081   0.105  11.331  0.3089  0.7272  0.1618
 2333SOL    HW118458   4.088   0.015  11.298 -0.0683  1.4152 -1.7319
 2333SOL    HW218459   4.140   0.091  11.406 -0.2636  0.7740  0.6263
 2334SOL     OW18460   2.288   2.232   9.099 -0.3459 -0.0684 -0.1893
 2334SOL    HW118461   2.371   2.202   9.136  0.0284 -1.8467 -2.5073
 2334SOL    HW218462   2.312   2.324   9.088 -0.2057 -0.2595 -1.4364
 2335SOL     OW18463   3.429   1.723  10.718 -0.3415 -0.2087  0.2926
 2335SOL    HW118464   3.487   1.711  10.642  2.3018 -0.3117  2.2934
 2335SOL    HW218465   3.497   1.716  10.786  0.6645  2.2752 -0.4747
 2336SOL     OW18466   0.829   2.322  14.161 -0.6454 -0.0131  0.0843
 2336SOL    HW118467   0.919   2.354  14.150 -1.8168  2.9181 -0.7355
 2336SOL    HW218468   0.783   2.405  14.159 -0.9354 -0.1096  2.5910
 2337SOL     OW18469   3.855   1.156   3.987  0.1999  0.3561 -0.6396
 2337SOL    HW118470   3.823   1.103   4.060  1.8504  0.6778  0.3091
 2337SOL    HW218471   3.917   1.090   3.954 -0.9806 -1.0093 -0.1436
 2338SOL     OW18472   0.552   4.269   7.692  0.4612 -0.1611  0.6173
 2338SOL    HW118473   0.609   4.195   7.672  0.3571 -0.1239  0.1684
 2338SOL    HW218474   0.476   4.220   7.725 -1.5104  0.9188 -2.2798
 2339SOL     OW18475   1.955   1.802   6.903  0.3957  0.1368  0.4544
 2339SOL    HW118476   1.950   1.853   6.984 -0.0678  1.5118 -0.4417
 2339SOL    HW218477   2.050   1.812   6.892  0.0833  2.1649 -0.4517
 2340SOL     OW18478   0.936   4.702   4.942 -0.2114 -0.0133  0.2352
 2340SOL    HW118479   1.011   4.647   4.916 -1.0110 -0.3417 -1.3711
 2340SOL    HW218480   0.930   0.031   4.862 -1.2604  0.5852  0.7134
 2341SOL     OW18481   4.316   1.816   0.058 -0.0626  0.1842 -0.3723
 2341SOL    HW118482   4.309   1.742   0.118  2.1413  1.0609  0.9771
 2341SOL    HW218483   4.382   1.783  17.694  0.5718  0.4015  0.1797
 2342SOL     OW18484   3.666   0.875   8.273  0.1097  0.0189  0.7420
 2342SOL    HW118485   3.616   0.893   8.193  0.3257 -1.1562  0.3573
 2342SOL    HW218486   3.661   0.781   8.286 -1.3534 -0.2166 -1.6237
 2343SOL     OW18487   1.913   1.804   3.416  0.4513 -0.8912 -0.3945
 2343SOL    HW118488   1.960   1.825   3.497 -2.4943  1.2367  0.7857
 2343SOL    HW218489   1.908   1.890   3.373 -1.0331  0.3344  2.2162
 2344SOL     OW18490   1.915   3.561   4.175  0.3645  0.6690 -0.2714
 2344SOL    HW118491   1.961   3.532   4.254  1.3017  0.2534 -0.9723
 2344SOL    HW218492   1.831   3.540   4.216  1.0723 -0.7091  0.4839
 2345SOL     OW18493   1.594   2.290   5.668  0.5448  0.0470  0.1035
 2345SOL    HW118494   1.585   2.385   5.663 -2.1898 -0.3011 -1.0271
 2345SOL    HW218495   1.689   2.289   5.683  0.5562  1.3276  0.0534
 2346SOL     OW18496   0.574   1.448  17.018  0.0472 -0.0344 -0.0463
 2346SOL    HW118497   0.580   1.514  16.950  0.0248 -0.7525 -0.7460
 2346SOL    HW218498   0.583   1.369  16.964  0.6183 -0.4233  0.6150
 2347SOL     OW18499   2.333   4.553  17.058  0.2908  0.5638 -0.2815
 2347SOL    HW118500   2.284   4.522  16.981  1.2371 -0.5548 -0.4234
 2347SOL    HW218501   2.322   4.647  17.045 -2.5107  0.2614 -0.1969
 2348SOL     OW18502   4.582   2.316  14.888 -0.5214 -0.3049  0.3506
 2348SOL    HW118503   4.620   2.229  14.876 -1.0174 -0.7641  2.0946
 2348SOL    HW218504   4.567   2.348  14.800  1.4452 -0.1474  0.0732
 2349SOL     OW18505   0.502   1.528   4.578 -0.4741  0.0321 -0.3692
 2349SOL    HW118506   0.428   1.564   4.529  1.6954  1.7886 -2.3195
 2349SOL    HW218507   0.527   1.599   4.637  3.9660 -0.5155 -1.6202
 2350SOL     OW18508   0.323   0.900   2.662  0.4642 -0.7766 -0.4182
 2350SOL    HW118509   0.341   0.834   2.730  0.3425 -0.1136  0.2560
 2350SOL    HW218510   0.412   0.926   2.638 -0.1709  0.8353 -1.0217
 2351SOL     OW18511   1.056   1.374   8.416  0.6179 -0.2528  0.0264
 2351SOL    HW118512   0.990   1.444   8.417  2.1289  1.1093  2.3569
 2351SOL    HW218513   1.119   1.409   8.353  1.8242 -0.1254  1.3176
 2352SOL     OW18514   3.915   3.170  13.734 -0.1603  0.6802  0.2067
 2352SOL    HW118515   3.865   3.247  13.762 -1.0756 -0.3304  1.3937
 2352SOL    HW218516   3.985   3.155  13.797 -0.0109  3.8547  0.8116
 2353SOL     OW18517   4.547   3.683  15.606 -0.0430 -0.2348  0.7079
 2353SOL    HW118518   4.491   3.736  15.550  0.4554 -1.4061 -0.8997
 2353SOL    HW218519   4.496   3.608  15.638 -2.6810  1.2719  0.0214
 2354SOL     OW18520   3.547   4.502  14.360 -0.3145  0.3875  0.3576
 2354SOL    HW118521   3.527   4.452  14.281 -1.6070  0.1119  0.8491
 2354SOL    HW218522   3.496   4.583  14.350  2.4806  2.0343 -0.5178
 2355SOL     OW18523   0.321   1.697   9.020  0.5356 -0.1815  0.0599
 2355SOL    HW118524   0.308   1.608   9.053  2.0024  0.6461  2.8714
 2355SOL    HW218525   0.237   1.719   8.981  0.8882 -0.0816 -0.6394
 2356SOL     OW18526   4.585   3.301  11.824  0.0259  0.0845  0.4570
 2356SOL    HW118527   4.679   3.287  11.811 -0.1289 -0.4831 -0.0608
 2356SOL    HW218528   4.576   3.393  11.800 -0.3241 -0.2053 -0.5057
 2357SOL     OW18529   1.938   2.502   0.030  0.0037  0.9403 -0.3524
 2357SOL    HW118530   1.994   2.472  17.656 -0.6962  0.2880 -0.6193
 2357SOL    HW218531   1.959   2.434   0.094 -1.8595  0.9535  0.2596
 2358SOL     OW18532   1.351   2.169  16.805 -0.3140  0.0933  0.0415
 2358SOL    HW118533   1.265   2.168  16.848 -0.3256  0.9266  0.0377
 2358SOL    HW218534   1.350   2.264  16.793  0.8351  0.2462  1.2682
 2359SOL     OW18535   0.833   2.737   8.855  0.2021 -0.0008 -0.1984
 2359SOL    HW118536   0.771   2.669   8.883 -0.8095  0.9717 -0.0722
 2359SOL    HW218537   0.764   2.781   8.805 -1.0536 -1.5898  0.1162
 2360SOL     OW18538   3.207   3.715   8.288 -0.0052  0.8805 -0.0527
 2360SOL    HW118539   3.241   3.792   8.240  0.7576 -0.6291 -1.9518
 2360SOL    HW218540   3.187   3.757   8.372  0.5820 -1.0072  1.0175
 2361SOL     OW18541   2.620   1.295   2.748  0.5693 -0.1992  0.2120
 2361SOL    HW118542   2.711   1.314   2.770  1.0028 -3.4460  1.2005
 2361SOL    HW218543   2.638   1.287   2.655  2.6315 -2.2114  0.7936
 2362SOL     OW18544   0.563   4.497  15.058 -0.1219  0.1600  0.1344
 2362SOL    HW118545   0.655   4.485  15.032 -0.7601  1.2249 -2.6745
 2362SOL    HW218546   0.541   4.570  15.001  1.8282 -2.4100 -3.9772
 2363SOL     OW18547   3.031   2.080   8.337 -0.2999 -0.2902 -0.4677
 2363SOL    HW118548   3.125   2.076   8.357 -0.1973  0.6612 -0.7459
 2363SOL    HW218549   2.993   2.085   8.425  1.3977  1.5990  0.1727
 2364SOL     OW18550   3.469   4.667   8.102 -0.2812 -0.5786  0.0783
 2364SOL    HW118551   3.559   4.637   8.088  0.2629  0.5933  1.1946
 2364SOL    HW218552   3.488   0.032   8.073  0.0413 -0.7301 -0.1680
 2365SOL     OW18553   3.844   1.857   4.477 -0.5667  0.0371 -0.1003
 2365SOL    HW118554   3.918   1.805   4.446 -0.6135 -0.1171  0.0454
 2365SOL    HW218555   3.819   1.816   4.560  0.6498  0.2005  0.3422
 2366SOL     OW18556   1.689   2.736   5.514  0.6779  0.0893  0.0544
 2366SOL    HW118557   1.750   2.737   5.441  1.1704 -1.4754  0.4481
 2366SOL    HW218558   1.726   2.803   5.571 -1.4410 -0.5140  2.1638
 2367SOL     OW18559   3.153   2.990  14.869  0.0442  0.6953  0.4809
 2367SOL    HW118560   3.225   3.053  14.870  0.8492 -0.2577  2.6889
 2367SOL    HW218561   3.145   2.965  14.777  0.8445  1.5791  0.1681
 2368SOL     OW18562   2.101   2.802  12.920 -0.3768 -0.5852  0.4308
 2368SOL    HW118563   2.156   2.744  12.973  1.5611  0.7483 -0.1001
 2368SOL    HW218564   2.163   2.832  12.854  0.4180 -1.1347  0.9212
 2369SOL     OW18565   0.959   0.773   8.264 -0.8380  0.3560  0.2060
 2369SOL    HW118566   0.894   0.704   8.251  1.1191 -1.3258 -0.5225
 2369SOL    HW218567   0.947   0.816   8.179  1.3385 -1.5702 -1.0547
 2370SOL     OW18568   1.263   3.822   7.120  0.4117  0.0534  0.0049
 2370SOL    HW118569   1.189   3.841   7.062  0.9504 -0.2493 -0.7841
 2370SOL    HW218570   1.299   3.748   7.071 -0.9067  0.3560 -1.4063
 2371SOL     OW18571   1.000   1.779   1.565  0.2224  0.4318  0.6273
 2371SOL    HW118572   0.935   1.710   1.576 -0.6900  1.0017 -1.2015
 2371SOL    HW218573   1.015   1.773   1.470  0.8577 -0.2100  0.7671
 2372SOL     OW18574   1.361   3.547   6.428 -0.2403  0.3437  0.0853
 2372SOL    HW118575   1.399   3.510   6.349 -0.3367  3.4252 -1.3818
 2372SOL    HW218576   1.305   3.476   6.459 -2.1682  1.8541  0.0178
 2373SOL     OW18577   4.141   2.756   3.039 -0.6524 -0.1586  0.3108
 2373SOL    HW118578   4.076   2.781   2.972 -1.8815 -1.1238  1.1311
 2373SOL    HW218579   4.124   2.824   3.103 -1.9686  0.1518 -0.3487
 2374SOL     OW18580   1.337   3.262   7.030 -0.5140 -0.3173 -0.3092
 2374SOL    HW118581   1.281   3.188   7.008 -0.6943 -0.0446 -0.7596
 2374SOL    HW218582   1.343   3.306   6.945 -3.3528  2.0920  0.7562
 2375SOL     OW18583   1.109   1.485   4.012  0.4619 -0.6309  0.0797
 2375SOL    HW118584   1.109   1.484   4.108  0.9297  3.2071  0.1505
 2375SOL    HW218585   1.182   1.546   4.000  1.0348 -0.9435  1.9220
 2376SOL     OW18586   0.582   3.073   0.693 -0.0906  0.3793 -0.0301
 2376SOL    HW118587   0.521   3.080   0.766  1.2676 -1.3877  1.2931
 2376SOL    HW218588   0.559   3.154   0.647  1.6557 -0.1483 -1.8288
 2377SOL     OW18589   0.768   0.147   9.748  0.3192  0.2486 -0.3902
 2377SOL    HW118590   0.726   0.067   9.780  0.7412 -0.8383 -2.5575
 2377SOL    HW218591   0.844   0.102   9.711 -0.6351 -1.6530 -0.0333
 2378SOL     OW18592   0.821   3.282   2.335  0.1585 -0.3667 -0.0456
 2378SOL    HW118593   0.874   3.319   2.264  0.1139  0.7368  0.5014
 2378SOL    HW218594   0.742   3.263   2.285 -0.0531  0.2955  0.0325
 2379SOL     OW18595   2.319   2.608   7.470 -0.4619 -0.1586 -0.0802
 2379SOL    HW118596   2.364   2.675   7.523  0.2172  0.7715 -1.8233
 2379SOL    HW218597   2.381   2.605   7.396 -0.1972  1.7439  0.0546
 2380SOL     OW18598   1.629   0.913   5.816 -0.3458 -0.0211  0.0949
 2380SOL    HW118599   1.680   0.834   5.833 -0.8378 -0.8104 -2.1640
 2380SOL    HW218600   1.693   0.983   5.805  0.1231  0.0062  2.8949
 2381SOL     OW18601   0.220   2.541  12.898  0.5125  0.2541  0.2214
 2381SOL    HW118602   0.253   2.631  12.902 -1.4050  1.0896 -2.7233
 2381SOL    HW218603   0.126   2.552  12.887  0.3488  0.0139  1.4614
 2382SOL     OW18604   0.948   3.310   2.073  0.7139  0.6814 -0.1369
 2382SOL    HW118605   0.972   3.217   2.066  0.6665  0.9404 -3.9268
 2382SOL    HW218606   1.025   3.363   2.053 -0.2805  2.1923  0.0104
 2383SOL     OW18607   0.709   4.576   7.680 -0.6820  0.0583 -0.1495
 2383SOL    HW118608   0.678   4.490   7.710 -0.6965 -0.5944 -2.0721
 2383SOL    HW218609   0.799   4.569   7.714 -0.6898 -3.0741 -0.7151
 2384SOL     OW18610   2.208   3.262   3.561 -0.4136 -0.4567  0.2215
 2384SOL    HW118611   2.195   3.346   3.604  0.3056 -0.3608  0.2524
 2384SOL    HW218612   2.282   3.231   3.614 -1.1415 -1.6778  0.5111
 2385SOL     OW18613   0.795   1.217  15.967  0.3205 -0.3292  0.1688
 2385SOL    HW118614   0.845   1.291  15.932 -0.0499 -1.1660 -2.1122
 2385SOL    HW218615   0.857   1.197  16.037 -1.8508 -1.9005  1.6586
 2386SOL     OW18616   3.050   0.851  11.040 -0.2341  0.3796 -0.4800
 2386SOL    HW118617   3.125   0.793  11.023 -0.5357 -0.5576  1.3873
 2386SOL    HW218618   2.988   0.782  11.065  0.2989 -0.4992 -1.5915
 2387SOL     OW18619   2.987   4.223   7.919 -0.1432 -0.2397  1.1793
 2387SOL    HW118620   3.025   4.269   7.844 -2.3191  0.1087  0.2959
 2387SOL    HW218621   2.911   4.182   7.877 -0.4744  0.2942  1.2535
 2388SOL     OW18622   1.261   3.495  11.339  0.4229 -0.1546  0.4443
 2388SOL    HW118623   1.230   3.580  11.371  0.3397  0.0811 -0.2576
 2388SOL    HW218624   1.343   3.472  11.384 -0.9794 -2.6038  1.7172
 2389SOL     OW18625   4.633   0.501  11.616 -0.4371  0.8267 -0.2062
 2389SOL    HW118626   4.660   0.438  11.549  0.7883  2.2042 -1.0208
 2389SOL    HW218627   4.689   0.576  11.595  0.4850  0.1333 -0.1795
 2390SOL     OW18628   2.983   2.516  10.555 -0.2417  0.3062 -0.3052
 2390SOL    HW118629   3.005   2.424  10.572  2.3278  0.5454 -2.5345
 2390SOL    HW218630   3.058   2.547  10.505  0.7724 -1.2297  0.2646
 2391SOL     OW18631   1.669   1.558   8.974 -0.0073  0.3971 -0.6860
 2391SOL    HW118632   1.693   1.494   9.040 -0.3536  1.3628  0.3652
 2391SOL    HW218633   1.752   1.587   8.936  0.0225  2.4320  0.9249
 2392SOL     OW18634   2.353   4.024   7.807  0.2590  0.4641  0.0121
 2392SOL    HW118635   2.354   4.000   7.714  1.1249 -0.4495  0.2552
 2392SOL    HW218636   2.346   4.118   7.790 -0.5353  0.9880  3.2420
 2393SOL     OW18637   2.358   2.989   5.015 -0.1010 -0.0199  0.3646
 2393SOL    HW118638   2.351   3.034   4.930  0.8485 -0.8787 -0.1652
 2393SOL    HW218639   2.388   2.899   5.006 -0.2659 -0.0836  0.4731
 2394SOL     OW18640   4.121   4.331   0.076  0.4693  0.3057 -0.3527
 2394SOL    HW118641   4.055   4.296   0.136  0.8787  1.3107  0.7036
 2394SOL    HW218642   4.063   4.340   0.000 -1.1089 -1.2362  0.6707
 2395SOL     OW18643   0.134   2.953  12.178 -0.1889  0.0511  0.6062
 2395SOL    HW118644   0.082   2.943  12.098 -0.0011  0.9795  0.3694
 2395SOL    HW218645   0.218   2.943  12.133 -0.9229 -1.4445 -0.4112
 2396SOL     OW18646   2.693   1.780  12.669  0.3401 -0.6067 -0.0569
 2396SOL    HW118647   2.631   1.798  12.598  0.5739 -0.0585 -0.1229
 2396SOL    HW218648   2.650   1.706  12.712 -0.6549 -0.7703 -1.3114
 2397SOL     OW18649   0.955   0.760   6.838  0.0550  0.4695  0.1439
 2397SOL    HW118650   1.024   0.803   6.888 -0.3252  0.6418  0.5120
 2397SOL    HW218651   0.940   0.680   6.887  0.6872 -0.2016 -0.7497
 2398SOL     OW18652   0.670   0.578   3.600 -0.1830  0.1146 -0.3548
 2398SOL    HW118653   0.629   0.557   3.516 -2.0227  0.5705  0.4458
 2398SOL    HW218654   0.600   0.634   3.632 -0.7295 -0.6538 -0.2037
 2399SOL     OW18655   4.450   4.097   4.771  0.0605  0.2312 -0.1728
 2399SOL    HW118656   4.537   4.130   4.749  0.8251 -3.1805 -2.3829
 2399SOL    HW218657   4.462   4.010   4.732 -1.3090  0.1558 -0.4116
 2400SOL     OW18658   1.407   3.019   1.575 -0.0535 -0.5148 -0.3420
 2400SOL    HW118659   1.363   3.017   1.490  3.0897 -3.3804 -1.9282
 2400SOL    HW218660   1.338   2.974   1.624  0.1985 -2.2989 -1.5898
 2401SOL     OW18661   0.976   0.111   5.205  0.7443  0.4298  0.0374
 2401SOL    HW118662   1.046   0.052   5.178  0.1355  0.4864 -1.6598
 2401SOL    HW218663   0.905   0.086   5.146 -1.8154  2.7992  2.0874
 2402SOL     OW18664   2.652   4.494  10.234  0.3281 -0.2820  0.1205
 2402SOL    HW118665   2.586   4.481  10.302  2.0778 -0.8630  1.6856
 2402SOL    HW218666   2.597   4.507  10.156  1.3946 -0.0605 -0.5950
 2403SOL     OW18667   3.952   2.469   6.073  0.2580 -0.2425 -0.0655
 2403SOL    HW118668   3.883   2.439   6.131  0.4529  0.4700  0.5327
 2403SOL    HW218669   4.013   2.501   6.140 -0.3520 -3.9566  2.2452
 2404SOL     OW18670   1.213   0.586   4.230  0.4227  0.2451  0.0016
 2404SOL    HW118671   1.239   0.598   4.321  1.0638 -1.1922 -0.0051
 2404SOL    HW218672   1.277   0.520   4.206 -0.0023 -0.1649 -0.0071
 2405SOL     OW18673   4.226   3.091   6.353  0.0833 -0.1049 -0.5515
 2405SOL    HW118674   4.215   3.181   6.323  1.9148  0.7869  1.4847
 2405SOL    HW218675   4.232   3.111   6.446 -1.5849 -1.2468 -0.1878
 2406SOL     OW18676   1.089   2.245  14.369  0.0207  0.4925 -0.3678
 2406SOL    HW118677   1.064   2.308  14.436  0.6361 -0.3191  0.6341
 2406SOL    HW218678   1.027   2.273  14.302  0.7847 -2.4147 -2.3046
 2407SOL     OW18679   0.677   0.847   6.590 -0.3620  0.1629 -0.5542
 2407SOL    HW118680   0.732   0.906   6.539  0.3165  0.2214  0.2318
 2407SOL    HW218681   0.592   0.852   6.546 -0.1939  0.1456 -0.8811
 2408SOL     OW18682   2.051   4.624  11.117 -0.4896  0.3692  0.0941
 2408SOL    HW118683   1.960   4.632  11.089 -0.4283 -1.6618 -0.6478
 2408SOL    HW218684   2.095   4.649  11.036 -2.0924 -1.9151 -1.4958
 2409SOL     OW18685   2.172   3.006   7.982  0.0111 -0.4718 -0.0693
 2409SOL    HW118686   2.157   2.952   7.904 -0.4414 -1.7885  0.9081
 2409SOL    HW218687   2.237   2.949   8.022 -0.6234 -0.6804  0.6840
 2410SOL     OW18688   4.483   1.276   3.870 -0.5151 -0.2004  0.0570
 2410SOL    HW118689   4.446   1.359   3.840 -1.3023 -0.1592  1.1492
 2410SOL    HW218690   4.439   1.278   3.954  1.9402 -2.9811  1.4034
 2411SOL     OW18691   3.731   2.287   7.668  0.1325  0.4528  0.7756
 2411SOL    HW118692   3.757   2.286   7.576  0.2212  1.4569  0.7863
 2411SOL    HW218693   3.734   2.193   7.686 -1.6093  0.1923 -0.3164
 2412SOL     OW18694   1.282   2.710  15.195  0.5752  0.3699  0.0310
 2412SOL    HW118695   1.259   2.618  15.202 -1.0615  0.7350 -0.7064
 2412SOL    HW218696   1.346   2.696  15.125 -1.7194 -1.9365 -1.5553
 2413SOL     OW18697   0.186   0.743   7.226  0.0571 -0.2616  0.0563
 2413SOL    HW118698   0.244   0.757   7.300 -0.1622 -0.5936  0.2877
 2413SOL    HW218699   0.221   0.802   7.158 -3.6926  2.3823  0.3921
 2414SOL     OW18700   3.991   4.442   7.324 -0.3451  0.1904  0.6484
 2414SOL    HW118701   4.080   4.407   7.322  0.0722  1.2360  0.9065
 2414SOL    HW218702   4.016   4.527   7.361  2.5385  0.0267 -0.8914
 2415SOL     OW18703   3.887   3.764   4.464  0.3007 -0.4492 -0.4767
 2415SOL    HW118704   3.866   3.786   4.555 -0.2845 -0.4844 -0.6037
 2415SOL    HW218705   3.902   3.669   4.464  0.0033 -0.4950 -0.7489
 2416SOL     OW18706   0.728   0.525   4.933  0.0945 -0.3359  0.2053
 2416SOL    HW118707   0.649   0.487   4.972  0.0639 -2.9511 -2.4119
 2416SOL    HW218708   0.695   0.610   4.904 -1.2620 -0.6476  0.8245
 2417SOL     OW18709   0.651   0.564   1.543 -0.6105  0.3414 -0.7108
 2417SOL    HW118710   0.675   0.473   1.560 -3.6916 -0.2811  0.4183
 2417SOL    HW218711   0.716   0.609   1.597 -2.4435  0.2450  1.6178
 2418SOL     OW18712   2.722   0.989   5.020  0.6174  0.0539 -0.2572
 2418SOL    HW118713   2.774   0.913   4.995  0.4429  0.1996 -1.0615
 2418SOL    HW218714   2.798   1.047   5.027  2.8064 -2.7453 -0.9736
 2419SOL     OW18715   1.471   1.259  16.067 -1.1741  0.6925  0.2015
 2419SOL    HW118716   1.434   1.274  16.154 -3.3211 -2.2642 -0.2135
 2419SOL    HW218717   1.408   1.196  16.031 -1.3086 -1.2302  3.8422
 2420SOL     OW18718   3.016   3.285  14.458  0.1377 -0.1168  0.8443
 2420SOL    HW118719   3.002   3.378  14.477 -3.6396 -0.2497 -1.2409
 2420SOL    HW218720   2.924   3.260  14.473 -0.4931 -0.4825 -3.5617
 2421SOL     OW18721   0.501   1.299   4.757  1.2131 -0.3670  0.4555
 2421SOL    HW118722   0.499   1.383   4.711  0.3153  0.3673  1.8395
 2421SOL    HW218723   0.587   1.293   4.797  1.3312 -1.8565  0.0018
 2422SOL     OW18724   4.617   0.133   5.136 -0.0792  0.5339  0.2906
 2422SOL    HW118725   4.611   0.195   5.063 -1.1586  1.2415  0.9810
 2422SOL    HW218726   4.710   0.142   5.158  0.0035  0.0909  0.1276
 2423SOL     OW18727   2.970   0.118   9.382  0.0919  0.4711  0.1325
 2423SOL    HW118728   2.888   0.138   9.338 -1.6582 -1.5602  2.4605
 2423SOL    HW218729   3.036   0.120   9.313 -0.3801  1.8339 -0.2790
 2424SOL     OW18730   4.233   3.877   4.497  0.2915 -0.1344 -0.4186
 2424SOL    HW118731   4.287   3.956   4.495 -2.3694  1.7390  0.0841
 2424SOL    HW218732   4.225   3.853   4.590 -1.2958  1.8909 -0.0314
 2425SOL     OW18733   4.038   4.191   2.343  0.3715 -0.2455 -0.1229
 2425SOL    HW118734   3.989   4.111   2.325 -1.0657  0.1763  1.8709
 2425SOL    HW218735   4.039   4.205   2.438  1.2967 -0.3733 -0.1179
 2426SOL     OW18736   1.260   1.601   7.766  0.2960  0.0207 -0.2547
 2426SOL    HW118737   1.224   1.638   7.847 -2.3675 -3.2492  0.0841
 2426SOL    HW218738   1.317   1.673   7.740  3.5508 -2.5244 -0.2027
 2427SOL     OW18739   0.439   3.053   2.671 -0.3191  0.6470 -0.2668
 2427SOL    HW118740   0.527   3.021   2.685 -0.3976  0.3507 -0.4541
 2427SOL    HW218741   0.381   2.981   2.695  1.0839 -0.1122  0.8171
 2428SOL     OW18742   1.352   2.774  15.477  0.1687  0.2937 -0.2047
 2428SOL    HW118743   1.314   2.719  15.408 -0.4500  1.6084 -0.9162
 2428SOL    HW218744   1.356   2.855  15.427  1.6916  0.2648 -0.1256
 2429SOL     OW18745   1.275   4.190   6.069 -0.8873  0.0146  0.7304
 2429SOL    HW118746   1.325   4.242   6.132 -0.9885  2.8698 -1.5935
 2429SOL    HW218747   1.191   4.232   6.055  0.2207  1.4202 -1.7085
 2430SOL     OW18748   4.617   3.256   3.274 -0.7582 -0.2061 -0.2203
 2430SOL    HW118749   4.650   3.206   3.200 -1.2023  1.9852 -1.9144
 2430SOL    HW218750   4.546   3.307   3.234 -0.9444 -0.2100  0.1085
 2431SOL     OW18751   3.194   3.328   7.568  0.7552  0.1333 -0.9062
 2431SOL    HW118752   3.225   3.272   7.497 -0.9538 -1.6339 -0.2551
 2431SOL    HW218753   3.190   3.271   7.645 -0.1147  1.2235 -0.1436
 2432SOL     OW18754   0.570   0.641  16.341  0.6180  0.0083  0.3981
 2432SOL    HW118755   0.614   0.726  16.340  2.8650 -1.1549  0.7050
 2432SOL    HW218756   0.481   0.675  16.352  0.3799 -0.1266 -1.1116
 2433SOL     OW18757   0.009   3.602   6.175  0.1458  0.1623 -0.2301
 2433SOL    HW118758   4.705   3.515   6.148  0.0366  0.5046 -1.2579
 2433SOL    HW218759   4.648   3.644   6.162 -0.6378 -1.3765 -0.0034
 2434SOL     OW18760   1.358   0.912   4.372 -0.6668  0.0794  0.1212
 2434SOL    HW118761   1.385   0.909   4.464  0.2157  1.3540 -0.0850
 2434SOL    HW218762   1.265   0.900   4.389 -0.5862 -0.2487  0.3265
 2435SOL     OW18763   0.566   2.134  11.427  0.6019 -0.9256  0.2609
 2435SOL    HW118764   0.536   2.158  11.339  1.0246 -0.5971  0.2050
 2435SOL    HW218765   0.479   2.103  11.454  0.5840 -0.0415  1.1981
 2436SOL     OW18766   0.055   1.554   1.416 -0.2719 -0.0530  0.3219
 2436SOL    HW118767   0.073   1.474   1.367  0.3959  0.6014 -0.4951
 2436SOL    HW218768   4.707   1.529   1.474 -1.3866 -1.7751 -1.8144
 2437SOL     OW18769   3.259   0.673  10.935  0.7070  0.1407  0.2558
 2437SOL    HW118770   3.321   0.705  11.000  0.9495 -2.2904  1.2251
 2437SOL    HW218771   3.271   0.737  10.865 -2.6752 -0.8692 -1.2368
 2438SOL     OW18772   2.016   3.070  17.308  0.5109  0.3624  0.0474
 2438SOL    HW118773   2.060   3.051  17.225  2.0665 -3.0310  1.6475
 2438SOL    HW218774   1.944   3.009  17.294  0.6473  0.1557  0.2495
 2439SOL     OW18775   0.810   3.097   6.649  0.3035  0.0344  0.1857
 2439SOL    HW118776   0.867   3.171   6.671  1.8855 -0.4898 -2.0670
 2439SOL    HW218777   0.727   3.144   6.649  2.3487  3.6023 -1.4564
 2440SOL     OW18778   1.383   0.009   1.191 -0.1823 -0.2799  0.1996
 2440SOL    HW118779   1.436   4.671   1.141 -0.8247 -0.0287 -0.7925
 2440SOL    HW218780   1.446   0.023   1.262  1.8963 -0.4196 -1.6288
 2441SOL     OW18781   0.051   1.561   0.826  0.2784  0.3642  0.3002
 2441SOL    HW118782   0.085   1.583   0.913  1.9932  1.9557 -0.7792
 2441SOL    HW218783   4.692   1.516   0.843 -0.4837  0.5659 -2.8316
 2442SOL     OW18784   0.519   3.674   5.862 -0.0562  0.0490 -0.0154
 2442SOL    HW118785   0.610   3.701   5.845 -0.1334 -0.6625 -1.5324
 2442SOL    HW218786   0.489   3.636   5.780  0.3150  1.3186 -0.7321
 2443SOL     OW18787   3.543   2.723   7.826  0.0672  0.4668 -0.2963
 2443SOL    HW118788   3.624   2.713   7.877 -0.1200  1.4845  0.2044
 2443SOL    HW218789   3.499   2.639   7.827 -2.4476  1.7770 -1.5225
 2444SOL     OW18790   3.283   1.469   3.498  0.2913  0.0108  0.0560
 2444SOL    HW118791   3.284   1.560   3.526 -0.0623 -1.2264  4.2069
 2444SOL    HW218792   3.306   1.474   3.406  0.5707  2.4049  0.2640
 2445SOL     OW18793   4.586   3.352   7.499  0.6464 -0.1565  0.0324
 2445SOL    HW118794   4.633   3.348   7.416  0.7055  1.3280 -0.0203
 2445SOL    HW218795   4.531   3.274   7.500  2.3269 -1.3209  1.2745
 2446SOL     OW18796   1.981   1.750  10.530  0.2528  0.3940 -0.0268
 2446SOL    HW118797   1.996   1.754  10.624  0.6766 -1.9970  0.0151
 2446SOL    HW218798   1.916   1.680  10.526  0.6922 -0.0142 -0.0475
 2447SOL     OW18799   2.837   3.725   2.902  0.2626  0.3939  0.3598
 2447SOL    HW118800   2.831   3.807   2.854  0.6819 -0.4186 -1.0977
 2447SOL    HW218801   2.887   3.670   2.841 -0.3004 -0.0867  0.3250
 2448SOL     OW18802   2.565   4.049   0.025 -0.0211 -0.5807 -0.4169
 2448SOL    HW118803   2.557   4.108  17.648 -0.1806 -0.5442 -0.3723
 2448SOL    HW218804   2.514   3.970   0.004 -0.8685  0.1525 -1.1545
 2449SOL     OW18805   3.248   2.502   5.853  0.2745  0.2776 -0.0092
 2449SOL    HW118806   3.290   2.516   5.769  0.1437 -0.0744 -0.1309
 2449SOL    HW218807   3.167   2.459   5.826  1.0034  0.3962 -2.3894
 2450SOL     OW18808   2.097   4.002  11.083 -0.3769 -0.5549  0.2688
 2450SOL    HW118809   2.024   3.983  11.023 -1.8338  3.2878  0.7701
 2450SOL    HW218810   2.169   3.960  11.035  0.5256  1.4223 -0.1373
 2451SOL     OW18811   0.498   3.505   2.178 -0.5202 -0.1746 -0.7121
 2451SOL    HW118812   0.432   3.489   2.246  1.9017 -2.2598  1.1875
 2451SOL    HW218813   0.550   3.425   2.180 -1.3397 -0.6619  1.7506
 2452SOL     OW18814   2.339   1.969  13.120 -0.1665 -0.0703  0.3897
 2452SOL    HW118815   2.265   2.022  13.090  0.3212  0.5061  0.2039
 2452SOL    HW218816   2.290   1.909  13.176  2.1676 -0.4944  1.9667
 2453SOL     OW18817   3.149   2.115  10.689  0.3857  0.2966 -0.6669
 2453SOL    HW118818   3.157   2.190  10.629  0.5823  1.5113  0.8816
 2453SOL    HW218819   3.205   2.058  10.636  1.2211 -0.7865  1.4236
 2454SOL     OW18820   0.624   2.156  14.071 -0.4073 -0.9204 -0.5344
 2454SOL    HW118821   0.570   2.227  14.037 -1.2298 -0.3512  1.9764
 2454SOL    HW218822   0.701   2.206  14.096  0.9022 -3.8925  1.4220
 2455SOL     OW18823   4.083   3.431   5.403 -0.2541  0.0650 -0.1101
 2455SOL    HW118824   4.131   3.471   5.475  1.0504 -1.1687 -0.2975
 2455SOL    HW218825   4.078   3.341   5.435 -1.3175  0.7003  1.5165
 2456SOL     OW18826   0.889   2.008   2.676 -0.7439 -0.2789  0.4270
 2456SOL    HW118827   0.935   1.927   2.698 -0.7638  0.0877  1.8491
 2456SOL    HW218828   0.841   1.992   2.595  0.4372  1.0139 -0.5299
 2457SOL     OW18829   2.338   0.633   0.027 -0.1944  0.9521  0.6495
 2457SOL    HW118830   2.268   0.585  17.681 -0.1803  2.0185 -0.5546
 2457SOL    HW218831   2.354   0.579   0.103  1.0582 -0.7644 -0.8471
 2458SOL     OW18832   1.652   3.053   6.745  0.1164 -0.0206  0.0971
 2458SOL    HW118833   1.700   2.997   6.684 -3.4450  0.7794 -3.3666
 2458SOL    HW218834   1.677   3.010   6.827 -0.2421 -1.3089 -0.4742
 2459SOL     OW18835   2.214   4.429   3.899  0.1539  0.0728  0.1252
 2459SOL    HW118836   2.197   4.479   3.979  1.1589  1.2220 -0.3902
 2459SOL    HW218837   2.134   4.377   3.893 -0.2059  0.5818  0.5041
 2460SOL     OW18838   1.942   0.439   0.448  0.4978  0.4134 -0.1088
 2460SOL    HW118839   2.019   0.482   0.486  1.1352 -0.1619 -0.7460
 2460SOL    HW218840   1.925   0.373   0.515  0.1956  1.0525  0.4355
 2461SOL     OW18841   1.681   2.494   4.525 -0.2040 -0.1442 -0.2607
 2461SOL    HW118842   1.708   2.413   4.482 -0.8086 -0.6099  0.2467
 2461SOL    HW218843   1.753   2.554   4.505 -1.3045  1.5861  1.0173
 2462SOL     OW18844   0.825   1.928   2.111 -0.5730  0.1836 -0.4903
 2462SOL    HW118845   0.762   1.896   2.046 -2.3952 -0.0965  1.3990
 2462SOL    HW218846   0.885   1.854   2.112  1.8844  2.1928  0.9018
 2463SOL     OW18847   1.210   2.223   8.519 -0.3104  0.1073  0.3139
 2463SOL    HW118848   1.117   2.202   8.516  0.1125 -1.7838  0.6774
 2463SOL    HW218849   1.238   2.198   8.606  1.4958  1.1305  0.0266
 2464SOL     OW18850   3.943   2.055   5.013  0.5813 -0.1247  0.6707
 2464SOL    HW118851   4.018   2.049   4.954 -0.1735 -0.0920 -0.2759
 2464SOL    HW218852   3.953   1.995   5.087 -0.1240 -0.4067  0.5354
 2465SOL     OW18853   1.252   0.858   8.424 -0.3084  0.0448  0.7176
 2465SOL    HW118854   1.325   0.824   8.477  2.3390  1.0117 -2.2954
 2465SOL    HW218855   1.290   0.864   8.336 -0.8336 -0.0040  0.4911
 2466SOL     OW18856   4.625   1.006   5.973 -0.0039 -0.0289 -0.2075
 2466SOL    HW118857   4.533   0.995   5.999  0.3498 -2.1620  0.0661
 2466SOL    HW218858   4.635   1.101   5.983 -1.4925  0.0914  0.2118
 2467SOL     OW18859   2.893   0.717   3.969  0.6878 -0.2787  0.2135
 2467SOL    HW118860   2.848   0.785   3.918  1.1741  0.7409  1.1603
 2467SOL    HW218861   2.964   0.779   3.985  1.0394 -0.3570 -1.0274
 2468SOL     OW18862   3.458   1.770  11.001  0.0003 -0.1109  0.2689
 2468SOL    HW118863   3.550   1.754  10.981  0.1169  0.5987  0.2615
 2468SOL    HW218864   3.425   1.680  11.008  1.0031 -0.4285  0.8894
 2469SOL     OW18865   0.599   0.033  13.722 -0.1416  0.3522 -0.2213
 2469SOL    HW118866   0.672   4.715  13.766  0.3577 -0.1671 -1.5376
 2469SOL    HW218867   0.627   0.125  13.723 -0.1905  0.3656 -0.1105
 2470SOL     OW18868   4.341   2.316   9.482 -1.0255  0.0638 -1.1261
 2470SOL    HW118869   4.371   2.272   9.562 -0.2604  1.6605 -0.5436
 2470SOL    HW218870   4.401   2.389   9.495 -1.9422  0.3623  1.4253
 2471SOL     OW18871   0.473   3.777   2.775 -0.1972 -0.6853 -0.2154
 2471SOL    HW118872   0.533   3.794   2.848 -2.1970  0.7528  1.0781
 2471SOL    HW218873   0.534   3.750   2.707  0.3940  0.1938 -0.0335
 2472SOL     OW18874   3.784   3.863  11.668  0.3608 -0.0085  0.1116
 2472SOL    HW118875   3.798   3.858  11.573 -1.1294 -1.1668 -0.0586
 2472SOL    HW218876   3.696   3.900  11.677  0.2823 -0.7890  2.4412
 2473SOL     OW18877   4.536   3.435   1.419  0.2315 -0.3960  0.4938
 2473SOL    HW118878   4.473   3.365   1.436 -1.1334  0.3065 -1.6569
 2473SOL    HW218879   4.489   3.506   1.464  2.1514 -0.6655  2.9197
 2474SOL     OW18880   4.040   2.733   7.338 -0.1910  0.4672 -1.2576
 2474SOL    HW118881   4.123   2.686   7.334 -1.5321 -2.0427  0.6120
 2474SOL    HW218882   3.996   2.675   7.275 -0.3356  0.8820 -1.5416
 2475SOL     OW18883   1.961   1.386   5.486  0.2611 -0.5276 -0.1397
 2475SOL    HW118884   1.880   1.436   5.477  1.0528  0.9308  1.0115
 2475SOL    HW218885   1.954   1.362   5.578  0.8074  0.6096  0.1916
 2476SOL     OW18886   1.991   1.577  17.125 -0.3230 -0.5856  0.4363
 2476SOL    HW118887   1.900   1.586  17.097  0.1672  0.8125 -0.6922
 2476SOL    HW218888   2.029   1.633  17.057 -1.1260  0.8368  1.1517
 2477SOL     OW18889   3.217   1.398   8.687  0.5657 -0.0627 -0.2317
 2477SOL    HW118890   3.197   1.462   8.619 -1.2819 -0.0529  0.3038
 2477SOL    HW218891   3.173   1.321   8.650 -1.8016  0.6286  1.1002
 2478SOL     OW18892   3.350   4.603   2.614 -0.1366  0.0012 -0.3746
 2478SOL    HW118893   3.344   4.524   2.561  0.3077 -1.0309  1.1261
 2478SOL    HW218894   3.384   4.568   2.697  0.6416  0.2744 -0.5733
 2479SOL     OW18895   4.681   2.926   4.322  0.0219 -0.1519 -0.5810
 2479SOL    HW118896   4.691   2.961   4.234  2.2289  1.0122  0.1490
 2479SOL    HW218897   4.708   2.836   4.303 -0.2414 -0.2358 -0.5554
 2480SOL     OW18898   3.300   0.441   7.876  0.4569 -0.4381 -0.8241
 2480SOL    HW118899   3.360   0.439   7.950  1.4657 -2.9168 -1.6949
 2480SOL    HW218900   3.235   0.509   7.894  1.1294 -0.0282  0.0815
 2481SOL     OW18901   1.751   0.195   7.834  0.1365  0.5578 -0.2144
 2481SOL    HW118902   1.823   0.193   7.896 -0.6318  0.4796  0.6698
 2481SOL    HW218903   1.680   0.216   7.895  0.9813 -0.6688  1.1623
 2482SOL     OW18904   1.584   2.061   6.632  0.2436 -0.2927 -0.2265
 2482SOL    HW118905   1.526   2.012   6.690 -0.1560  0.5449  0.0773
 2482SOL    HW218906   1.521   2.125   6.600 -0.3165 -1.0101 -0.5628
 2483SOL     OW18907   2.546   1.489   8.825  0.5199 -0.0909 -0.0714
 2483SOL    HW118908   2.640   1.473   8.826  0.1285 -2.4830 -0.0805
 2483SOL    HW218909   2.545   1.584   8.813 -1.1272 -0.0384  0.5129
 2484SOL     OW18910   1.036   0.814  10.938  0.0568 -0.7662 -0.3016
 2484SOL    HW118911   1.132   0.816  10.939  0.0428 -0.8538  1.0108
 2484SOL    HW218912   1.021   0.905  10.963 -1.1122 -0.2854 -2.7356
 2485SOL     OW18913   2.235   4.079   8.326  0.2903  0.0001 -1.0223
 2485SOL    HW118914   2.192   4.162   8.347 -0.4643  0.0513 -2.7644
 2485SOL    HW218915   2.189   4.009   8.373  1.1425  0.2567  0.1882
 2486SOL     OW18916   3.223   3.943   7.866 -0.5049 -0.7331  0.8296
 2486SOL    HW118917   3.245   3.862   7.820 -0.9350 -0.5482  0.2970
 2486SOL    HW218918   3.161   3.987   7.808  0.2596  2.6409  2.5544
 2487SOL     OW18919   2.901   2.006  11.380 -0.5855  0.3173  0.1496
 2487SOL    HW118920   2.860   1.972  11.301 -2.8456 -1.7644  2.2481
 2487SOL    HW218921   2.843   1.965  11.444 -0.4661  2.8056  1.8338
 2488SOL     OW18922   2.056   2.480   3.544  0.4457  0.0531 -0.1238
 2488SOL    HW118923   2.011   2.417   3.487 -0.5077  1.3107 -0.7690
 2488SOL    HW218924   2.042   2.561   3.495 -0.7426 -1.2773 -2.0015
 2489SOL     OW18925   4.100   1.587   0.539  0.4320  0.2832 -0.4858
 2489SOL    HW118926   4.022   1.544   0.505  0.3847 -0.7596  0.9121
 2489SOL    HW218927   4.091   1.670   0.492 -1.5495 -0.6130 -1.6389
 2490SOL     OW18928   3.224   3.241   3.791  0.1127  0.8714  0.1335
 2490SOL    HW118929   3.292   3.176   3.802  1.3032  2.3894  1.7201
 2490SOL    HW218930   3.142   3.194   3.808  0.6489  0.2725  1.0089
 2491SOL     OW18931   1.012   1.975   9.268 -0.1225 -0.4042 -0.0539
 2491SOL    HW118932   1.086   2.012   9.219 -1.2790  1.6883 -0.2126
 2491SOL    HW218933   0.938   2.022   9.229 -0.4482 -1.7702 -1.1095
 2492SOL     OW18934   0.941   2.546  11.714 -0.1393  0.1031 -0.3376
 2492SOL    HW118935   0.934   2.583  11.802 -1.4323  0.8451 -0.7548
 2492SOL    HW218936   1.009   2.601  11.675  1.1760  1.8333  4.4350
 2493SOL     OW18937   2.481   3.381   6.723  0.7484 -0.0826  0.4086
 2493SOL    HW118938   2.510   3.384   6.632 -0.1556 -3.2756  0.0319
 2493SOL    HW218939   2.426   3.459   6.734  2.0149  0.8328  0.2611
 2494SOL     OW18940   1.643   2.469   6.714  0.2356 -0.2912 -0.3093
 2494SOL    HW118941   1.562   2.465   6.664 -0.2286 -0.3300  0.4314
 2494SOL    HW218942   1.607   2.474   6.803  3.7647  0.8614  1.0573
 2495SOL     OW18943   1.096   2.132   7.638 -0.1699 -0.3306 -0.0558
 2495SOL    HW118944   1.051   2.177   7.709 -0.1275 -3.2575  1.7977
 2495SOL    HW218945   1.092   2.043   7.672  2.2545 -0.3290  0.2109
 2496SOL     OW18946   0.502   2.294  11.901 -0.3588 -0.3649 -0.0354
 2496SOL    HW118947   0.535   2.258  11.984  1.0203 -1.1046 -0.8885
 2496SOL    HW218948   0.583   2.338  11.875 -2.1169  3.1861  0.6068
 2497SOL     OW18949   2.339   3.841   6.607  0.2931 -0.1547 -0.1497
 2497SOL    HW118950   2.377   3.925   6.583 -0.9796  1.2919  2.9204
 2497SOL    HW218951   2.411   3.779   6.591 -1.5148 -4.0798  6.6709
 2498SOL     OW18952   0.899   3.697   4.335 -0.2730  0.7405  0.1451
 2498SOL    HW118953   0.815   3.740   4.350  0.0580  0.1951  3.7234
 2498SOL    HW218954   0.946   3.765   4.287 -1.1586 -0.5577 -2.5111
 2499SOL     OW18955   1.582   0.735   9.871 -0.1220  0.2622 -0.0275
 2499SOL    HW118956   1.604   0.654   9.824 -2.1506 -0.1885 -0.1865
 2499SOL    HW218957   1.534   0.773   9.797  1.8047  2.2509 -0.2744
 2500SOL     OW18958   2.630   3.710   0.243  0.7674 -0.4328  0.0805
 2500SOL    HW118959   2.535   3.695   0.239  1.0718 -3.1650  2.6866
 2500SOL    HW218960   2.634   3.806   0.249 -2.4692 -0.3591  1.1691
 2501SOL     OW18961   2.214   3.489   9.600  0.5963 -0.0363  0.4638
 2501SOL    HW118962   2.222   3.454   9.689  0.7355 -0.3601  0.3260
 2501SOL    HW218963   2.306   3.479   9.574 -0.0236  1.6585 -2.4470
 2502SOL     OW18964   1.422   1.041  14.857  0.0232 -0.8008 -0.1473
 2502SOL    HW118965   1.358   1.111  14.873  2.7931  1.6541  0.1059
 2502SOL    HW218966   1.425   1.041  14.761 -0.9519  0.0811 -0.1779
 2503SOL     OW18967   1.649   2.739   9.344 -0.6427 -0.0219 -0.2534
 2503SOL    HW118968   1.695   2.742   9.260 -1.0032 -3.0677 -0.5842
 2503SOL    HW218969   1.697   2.810   9.385  1.3989 -0.3550 -2.0757
 2504SOL     OW18970   3.814   0.421   4.201 -0.1813  0.1893  0.0672
 2504SOL    HW118971   3.768   0.382   4.126 -0.1441  0.1374  0.0710
 2504SOL    HW218972   3.744   0.407   4.264  0.3571  0.1831  0.6549
 2505SOL     OW18973   0.415   3.472   4.956  0.4703 -0.0291  0.7760
 2505SOL    HW118974   0.454   3.467   4.869  0.6063 -1.2602  0.9120
 2505SOL    HW218975   0.337   3.419   4.942  0.9944 -0.4572 -0.5328
 2506SOL     OW18976   0.532   2.898   8.260 -0.3042  0.0501 -0.2269
 2506SOL    HW118977   0.593   2.839   8.302 -0.9780 -0.0937  0.5512
 2506SOL    HW218978   0.487   2.944   8.331 -0.2378  0.7658 -0.6394
 2507SOL     OW18979   3.744   1.351   8.526 -0.3435  0.4041 -0.2010
 2507SOL    HW118980   3.764   1.438   8.490  0.6614  0.7793  1.2397
 2507SOL    HW218981   3.653   1.333   8.502 -0.0699  0.2760 -1.1367
 2508SOL     OW18982   1.438   3.154  16.637 -0.3516 -0.5704 -0.6526
 2508SOL    HW118983   1.361   3.211  16.650  0.0693 -0.3211  0.6901
 2508SOL    HW218984   1.405   3.073  16.675  0.9175 -1.6759 -1.9355
 2509SOL     OW18985   1.744   2.712   9.690 -0.2244  0.8749 -0.4264
 2509SOL    HW118986   1.786   2.796   9.708  2.8884 -0.5153 -1.3473
 2509SOL    HW218987   1.660   2.754   9.670 -0.4106  0.4257 -0.5773
 2510SOL     OW18988   1.401   1.867   0.853  0.2274 -0.4495  0.0187
 2510SOL    HW118989   1.377   1.945   0.903  1.8135 -1.9007  3.0754
 2510SOL    HW218990   1.497   1.876   0.853  0.1645  0.1868 -0.3563
 2511SOL     OW18991   0.219   3.303   6.214  0.0914 -0.0347 -0.3378
 2511SOL    HW118992   0.277   3.356   6.270  1.0772 -1.2730 -0.1934
 2511SOL    HW218993   0.258   3.313   6.127  0.3950  1.1666 -0.0763
 2512SOL     OW18994   2.019   2.137   2.347  0.2286 -0.5682  0.3147
 2512SOL    HW118995   2.075   2.095   2.412  0.0300  1.1191  1.5705
 2512SOL    HW218996   1.980   2.213   2.390 -0.1562 -1.1182  0.9362
 2513SOL     OW18997   4.418   0.860  11.896  0.4391 -0.6837 -0.0503
 2513SOL    HW118998   4.488   0.799  11.918  1.6565 -0.6539 -3.7021
 2513SOL    HW218999   4.422   0.920  11.970  0.0855  0.8045 -1.2438
 2514SOL     OW19000   2.533   3.150   8.283 -0.1253  0.2798 -0.8211
 2514SOL    HW119001   2.514   3.151   8.189 -1.4336  1.0811 -0.5501
 2514SOL    HW219002   2.585   3.231   8.281 -0.3789  0.4799  0.6899
 2515SOL     OW19003   1.513   4.074   6.606  0.3807  0.3190 -0.0541
 2515SOL    HW119004   1.419   4.062   6.618  0.5552 -2.5153 -1.5387
 2515SOL    HW219005   1.535   4.144   6.667 -1.4497  2.1237 -1.4820
 2516SOL     OW19006   1.715   1.627  10.879 -0.0638 -0.1393  0.0020
 2516SOL    HW119007   1.754   1.687  10.942 -0.9242  0.3434  0.0694
 2516SOL    HW219008   1.737   1.548  10.927 -1.4028 -0.7921 -0.4751
 2517SOL     OW19009   2.067   1.285   4.406 -0.0983 -0.0153  0.0718
 2517SOL    HW119010   2.067   1.252   4.317 -1.1795 -3.1652  1.2603
 2517SOL    HW219011   2.008   1.359   4.390 -1.0491 -0.6832  0.5137
 2518SOL     OW19012   1.751   0.639   9.134 -0.3782  0.1611 -0.1078
 2518SOL    HW119013   1.818   0.681   9.081 -1.3571  1.5312 -0.2657
 2518SOL    HW219014   1.806   0.612   9.207  0.8844 -0.0037 -1.1324
 2519SOL     OW19015   2.509   1.665  10.643  0.5018  0.4412 -0.2179
 2519SOL    HW119016   2.414   1.676  10.640  0.6021  1.6082  0.5606
 2519SOL    HW219017   2.534   1.756  10.628  0.0579  0.7995  1.1844
 2520SOL     OW19018   1.700   3.271   4.882 -0.0609 -0.4731 -0.1476
 2520SOL    HW119019   1.702   3.184   4.922 -1.0610 -1.0693 -1.3982
 2520SOL    HW219020   1.732   3.256   4.793 -0.7735  2.5089 -0.9096
 2521SOL     OW19021   0.430   0.253   2.829 -0.4773 -0.1428 -0.4491
 2521SOL    HW119022   0.415   0.306   2.751 -0.9643  0.4394  0.0413
 2521SOL    HW219023   0.345   0.229   2.866  0.2069  0.4412  1.5039
 2522SOL     OW19024   0.709   3.850   8.383  0.1854 -0.2570 -0.3606
 2522SOL    HW119025   0.730   3.784   8.318 -0.4365  0.5237 -1.3503
 2522SOL    HW219026   0.761   3.833   8.462  1.5862  0.6350 -1.1020
 2523SOL     OW19027   4.297   4.616   0.488  0.1709  0.0158 -0.2264
 2523SOL    HW119028   4.244   4.536   0.485  0.3007 -0.0364 -0.9520
 2523SOL    HW219029   4.232   4.675   0.527 -0.9110 -3.2689  2.8853
 2524SOL     OW19030   1.748   4.156  14.612  0.3612 -0.2220  0.7809
 2524SOL    HW119031   1.800   4.160  14.692  0.0053 -0.7910  1.0384
 2524SOL    HW219032   1.724   4.063  14.612 -0.8599  0.0901  2.1720
 2525SOL     OW19033   4.421   4.300  12.140 -0.4386 -0.6021  0.3116
 2525SOL    HW119034   4.344   4.274  12.190 -0.5222  0.2934  0.6403
 2525SOL    HW219035   4.382   4.295  12.052  0.1851  0.0564 -0.0084
 2526SOL     OW19036   1.992   2.657   8.757 -0.1801 -0.1224 -0.0809
 2526SOL    HW119037   1.934   2.725   8.721  1.8369  1.6408  0.0391
 2526SOL    HW219038   2.025   2.681   8.843  3.4242  0.2012 -1.5863
 2527SOL     OW19039   2.016   1.385   8.200 -0.5720  0.3177  0.3390
 2527SOL    HW119040   2.028   1.291   8.191  1.2367  0.6454 -0.5676
 2527SOL    HW219041   2.105   1.411   8.222  0.6016  0.9382 -5.1718
 2528SOL     OW19042   1.079   4.028   3.378  0.6695 -0.2886 -0.1580
 2528SOL    HW119043   1.136   4.067   3.444  1.0901 -0.9312 -0.1463
 2528SOL    HW219044   1.000   4.072   3.409 -0.0727 -1.4660 -0.3681
 2529SOL     OW19045   3.355   1.256   9.284 -0.3641 -0.0708 -0.0295
 2529SOL    HW119046   3.285   1.191   9.289 -0.9732  0.3799 -2.7107
 2529SOL    HW219047   3.415   1.228   9.352  1.3192 -0.0543 -1.5004
 2530SOL     OW19048   2.616   0.166   3.584  0.0332  0.0285 -0.2722
 2530SOL    HW119049   2.706   0.199   3.588  0.0519 -0.1165  0.5095
 2530SOL    HW219050   2.572   0.241   3.544 -0.4331 -0.6255 -0.9924
 2531SOL     OW19051   0.359   0.387   7.032 -0.2415  0.5094 -0.2572
 2531SOL    HW119052   0.373   0.305   7.078 -2.9405  1.1705  1.7296
 2531SOL    HW219053   0.443   0.402   6.990  0.1578  0.1224  0.4103
 2532SOL     OW19054   4.468   2.768  16.627 -0.6350  0.8326  0.0390
 2532SOL    HW119055   4.374   2.748  16.629  0.2126 -2.9038  1.8396
 2532SOL    HW219056   4.490   2.738  16.539 -1.4085 -2.2679  0.8895
 2533SOL     OW19057   2.924   0.083   8.632  0.0871 -0.0242 -0.0270
 2533SOL    HW119058   3.008   0.082   8.677  0.2673 -0.4722 -0.3672
 2533SOL    HW219059   2.918   0.178   8.633  2.2179  0.0977  0.3208
 2534SOL     OW19060   0.588   1.349   2.012  0.1801  0.2760  0.1528
 2534SOL    HW119061   0.578   1.272   2.068 -0.1813 -0.3386 -0.7634
 2534SOL    HW219062   0.595   1.307   1.926 -1.1365  1.0113 -0.3138
 2535SOL     OW19063   1.242   4.048   1.567 -0.4527 -0.0709  0.1279
 2535SOL    HW119064   1.290   4.118   1.523  0.1384 -0.5721 -0.0277
 2535SOL    HW219065   1.273   3.976   1.512 -0.2785 -1.2242  1.7321
 2536SOL     OW19066   2.013   1.782  12.908 -0.3074 -0.1960  0.0454
 2536SOL    HW119067   2.047   1.840  12.840  2.0246 -2.2873 -0.5566
 2536SOL    HW219068   2.078   1.793  12.978 -0.5056  0.1608  0.1723
 2537SOL     OW19069   2.547   4.010   0.321  0.0883  0.0893 -0.2407
 2537SOL    HW119070   2.544   4.060   0.239  0.1986 -2.9747 -2.1138
 2537SOL    HW219071   2.454   4.002   0.341  0.6167  1.1433  2.5614
 2538SOL     OW19072   4.621   4.244   8.075 -0.5149 -0.0760  0.4961
 2538SOL    HW119073   4.668   4.327   8.086  1.4023 -1.2380  1.0719
 2538SOL    HW219074   4.686   4.205   8.017 -1.1925 -0.6995  0.1480
 2539SOL     OW19075   2.665   0.754   4.505 -0.2311  0.1040 -0.1640
 2539SOL    HW119076   2.658   0.743   4.410 -3.1939  0.1240  0.0591
 2539SOL    HW219077   2.756   0.736   4.527 -0.3250 -0.0086  0.1267
 2540SOL     OW19078   3.540   3.085   8.024  0.4516 -0.0889  0.2885
 2540SOL    HW119079   3.611   3.022   8.012  1.4691  1.0887  0.1431
 2540SOL    HW219080   3.546   3.107   8.117  1.0551  3.0015 -0.4842
 2541SOL     OW19081   0.999   1.657   9.618  0.2671 -0.2726 -0.7186
 2541SOL    HW119082   1.021   1.716   9.690 -1.2680  0.4548 -0.8436
 2541SOL    HW219083   1.003   1.576   9.667 -0.9128  0.8395  1.2064
 2542SOL     OW19084   1.920   3.070  11.087  0.1206  0.3715 -0.8050
 2542SOL    HW119085   1.858   2.999  11.070  0.2478  0.7279 -2.7152
 2542SOL    HW219086   1.988   3.056  11.020  0.4574 -0.1204 -0.3681
 2543SOL     OW19087   1.073   1.935  13.748  0.1554  0.4947  0.5291
 2543SOL    HW119088   1.009   1.864  13.736 -0.5033  1.1517  0.1859
 2543SOL    HW219089   1.010   1.999  13.781 -0.2612  1.3247 -1.8898
 2544SOL     OW19090   2.278   0.595  13.068 -0.5893  0.1883  0.3137
 2544SOL    HW119091   2.225   0.611  13.147 -0.1261  1.7729  0.2984
 2544SOL    HW219092   2.281   0.500  13.062 -1.0255 -0.0411  3.3484
 2545SOL     OW19093   3.209   1.979   6.988 -0.2468 -0.0030 -0.4683
 2545SOL    HW119094   3.120   1.955   7.015  0.8784 -3.9806 -0.3383
 2545SOL    HW219095   3.260   1.943   7.060 -0.0418 -0.5030 -0.8657
 2546SOL     OW19096   2.824   2.181  14.731  0.1043  0.8582 -0.3618
 2546SOL    HW119097   2.879   2.111  14.695 -0.8304  0.9034 -1.9071
 2546SOL    HW219098   2.823   2.247  14.662 -1.6332 -1.0386 -2.1366
 2547SOL     OW19099   1.133   4.492   8.126 -0.0959  0.5537 -0.4122
 2547SOL    HW119100   1.202   4.541   8.170  0.4498 -0.5841 -0.0050
 2547SOL    HW219101   1.056   4.538   8.160 -2.0771 -2.2840 -1.0509
 2548SOL     OW19102   4.369   3.054  13.581  0.0466  0.1335  0.1910
 2548SOL    HW119103   4.438   2.997  13.614  0.2666  0.6625  0.6504
 2548SOL    HW219104   4.416   3.126  13.538 -2.2514  0.9299 -0.9970
 2549SOL     OW19105   0.425   3.694   4.460 -0.2326  0.1237 -0.2539
 2549SOL    HW119106   0.342   3.735   4.438 -0.5747  0.4711  1.6477
 2549SOL    HW219107   0.398   3.602   4.473  0.3535 -0.0770 -0.4741
 2550SOL     OW19108   3.318   1.795  14.514 -0.0421  0.2480 -0.2778
 2550SOL    HW119109   3.320   1.840  14.599  0.0056  1.3166 -0.8456
 2550SOL    HW219110   3.224   1.781  14.502 -0.2885  0.0270  1.8310
 2551SOL     OW19111   0.367   1.173   2.287 -0.9095  0.5766 -0.1485
 2551SOL    HW119112   0.389   1.144   2.199  0.8966 -0.9635  0.8055
 2551SOL    HW219113   0.380   1.268   2.283  1.5279  0.2664  0.1926
 2552SOL     OW19114   3.216   0.938   7.094  0.0121 -0.1866 -0.2762
 2552SOL    HW119115   3.215   1.033   7.083  0.9993  0.0880  2.0954
 2552SOL    HW219116   3.124   0.933   7.118  0.2235 -2.3198  0.0974
 2553SOL     OW19117   3.045   4.229   5.563 -0.0128  0.2735 -0.1028
 2553SOL    HW119118   3.064   4.309   5.611  0.3428 -0.4987  1.0216
 2553SOL    HW219119   3.031   4.265   5.475 -1.6961 -0.5645 -0.1789
 2554SOL     OW19120   0.881   1.554   4.384  0.5467  0.2692  0.1862
 2554SOL    HW119121   0.811   1.618   4.398  0.8708  0.7232 -0.3216
 2554SOL    HW219122   0.849   1.519   4.301 -2.6871  1.6618  0.8301
 2555SOL     OW19123   2.511   0.659   7.737 -0.0155 -0.0875  0.0669
 2555SOL    HW119124   2.601   0.671   7.769  0.6693 -2.4403 -0.9726
 2555SOL    HW219125   2.522   0.575   7.692  0.5957  1.3207 -2.4401
 2556SOL     OW19126   0.895   1.674   4.710 -0.6661  0.6265 -0.0738
 2556SOL    HW119127   0.926   1.599   4.661  2.5141  1.7202  0.2781
 2556SOL    HW219128   0.918   1.643   4.797 -0.8643 -0.1324 -0.2958
 2557SOL     OW19129   3.826   3.665   9.322 -0.2409 -0.9321 -0.0903
 2557SOL    HW119130   3.745   3.632   9.362  0.9974 -0.3423  2.9235
 2557SOL    HW219131   3.795   3.737   9.267  1.7232 -1.1600 -1.4601
 2558SOL     OW19132   0.586   1.705  12.948  0.2035  0.1430  0.1422
 2558SOL    HW119133   0.636   1.769  12.998  1.3403 -0.7367  0.1246
 2558SOL    HW219134   0.620   1.627  12.991 -2.4061  0.1904  2.2480
 2559SOL     OW19135   2.002   1.523   7.226  0.0196  0.3684 -0.0532
 2559SOL    HW119136   2.018   1.460   7.295  0.6964 -0.1224 -0.6554
 2559SOL    HW219137   2.084   1.570   7.243 -0.5645  0.3354  2.7324
 2560SOL     OW19138   0.181   3.300  17.086  0.0288 -0.1634  0.5163
 2560SOL    HW119139   0.220   3.224  17.043 -0.8946 -0.1422 -0.3742
 2560SOL    HW219140   0.091   3.275  17.107  0.0229 -0.7489 -0.2216
 2561SOL     OW19141   0.008   0.253  12.782 -0.3217 -0.2149  0.0624
 2561SOL    HW119142   4.719   0.192  12.854  0.6582 -0.5434 -0.0353
 2561SOL    HW219143   0.082   0.300  12.821 -0.7274  0.2668  0.2474
 2562SOL     OW19144   2.651   0.821  16.508 -0.0236 -0.6518 -0.6168
 2562SOL    HW119145   2.710   0.895  16.522 -0.3599 -0.5266  0.1363
 2562SOL    HW219146   2.714   0.757  16.477  0.2186 -0.7148  0.0054
 2563SOL     OW19147   1.173   4.251   7.940 -0.0002  0.1203 -0.3783
 2563SOL    HW119148   1.138   4.258   7.851 -1.4131  1.5613  0.2900
 2563SOL    HW219149   1.111   4.308   7.985  1.5431 -0.0419  1.9709
 2564SOL     OW19150   4.147   3.761   4.763 -0.4092  0.1126 -0.9169
 2564SOL    HW119151   4.151   3.669   4.738  3.6041 -0.6167  2.3360
 2564SOL    HW219152   4.063   3.788   4.727  0.2409  0.0948 -2.4478
 2565SOL     OW19153   2.351   4.160   8.808 -0.0100 -0.8075  0.3956
 2565SOL    HW119154   2.355   4.198   8.896  2.1025 -1.3500  0.5304
 2565SOL    HW219155   2.440   4.128   8.794  0.2737 -0.2351  0.8777
 2566SOL     OW19156   3.917   4.211   6.206 -0.1699 -0.0814 -0.2446
 2566SOL    HW119157   3.903   4.143   6.139  0.9111  0.2608 -0.8299
 2566SOL    HW219158   3.871   4.283   6.162 -2.1602 -0.6377  0.9237
 2567SOL     OW19159   0.118   2.039  10.629  0.8251 -0.0534  0.5650
 2567SOL    HW119160   0.129   1.979  10.703  1.8164  1.1604  1.3860
 2567SOL    HW219161   0.173   1.992  10.566  0.1957  0.1669 -0.1436
 2568SOL     OW19162   2.850   2.048   5.051  0.3222  0.4788  0.4500
 2568SOL    HW119163   2.901   2.052   4.971  1.1474  1.7100  1.0380
 2568SOL    HW219164   2.775   1.992   5.029  0.9598  0.4130 -1.5071
 2569SOL     OW19165   3.408   4.034  15.568  0.0742  0.3418  0.0510
 2569SOL    HW119166   3.331   4.015  15.514  1.5076 -1.0224 -1.5137
 2569SOL    HW219167   3.458   3.953  15.559  0.0773  0.2731  0.6570
 2570SOL     OW19168   3.541   3.396  12.246  0.7814 -0.0947 -0.2939
 2570SOL    HW119169   3.479   3.324  12.259  0.4307  0.1524 -0.5855
 2570SOL    HW219170   3.592   3.371  12.168  0.9929  0.2989 -0.2818
 2571SOL     OW19171   2.623   1.581  11.192 -0.3537  0.2720 -0.3649
 2571SOL    HW119172   2.535   1.602  11.160 -0.7289  0.9723  1.1322
 2571SOL    HW219173   2.647   1.673  11.206  0.1913  0.1287 -0.3501
 2572SOL     OW19174   0.753   3.915  12.819 -0.1461 -0.4197  0.4024
 2572SOL    HW119175   0.836   3.867  12.814  0.8536  1.3736 -0.3477
 2572SOL    HW219176   0.795   3.994  12.853 -0.7852 -0.6558  1.7181
 2573SOL     OW19177   1.013   4.281  15.407  0.0661  0.0111 -0.3296
 2573SOL    HW119178   1.107   4.267  15.405  0.0478  0.2375 -2.2960
 2573SOL    HW219179   0.988   4.290  15.315 -0.2341 -1.0106 -0.3581
 2574SOL     OW19180   4.212   1.099   4.060  0.0771 -0.3713  0.0252
 2574SOL    HW119181   4.278   1.140   4.117  1.6624 -1.0249 -1.3298
 2574SOL    HW219182   4.216   1.005   4.078 -1.7754 -0.3321  0.6304
 2575SOL     OW19183   4.712   3.711   1.522 -0.4983 -0.6140  0.1988
 2575SOL    HW119184   0.030   3.627   1.505 -1.2534 -0.8926 -0.2891
 2575SOL    HW219185   4.618   3.703   1.504 -0.3148  1.2613 -1.6478
 2576SOL     OW19186   2.311   0.916  14.258 -0.1172  0.3425  0.0666
 2576SOL    HW119187   2.368   0.850  14.218 -0.2951  1.0476 -1.3580
 2576SOL    HW219188   2.352   0.996  14.225  0.3791  0.4674  1.0001
 2577SOL     OW19189   0.991   2.872   2.736  0.1353 -0.1157 -0.1334
 2577SOL    HW119190   1.007   2.801   2.798  0.2961  1.7263  1.9307
 2577SOL    HW219191   0.895   2.865   2.732  0.0923 -0.1542  0.9061
 2578SOL     OW19192   3.662   2.250   6.451  0.1952  0.0640  0.2300
 2578SOL    HW119193   3.614   2.204   6.519 -0.2088 -0.3411 -0.3338
 2578SOL    HW219194   3.597   2.265   6.383  0.3443  2.4854  0.6151
 2579SOL     OW19195   3.372   1.640   8.847 -0.5157 -0.4180 -0.8747
 2579SOL    HW119196   3.351   1.556   8.888  0.9970 -1.4423 -2.1585
 2579SOL    HW219197   3.450   1.609   8.800  0.0721 -0.0562 -0.1415
 2580SOL     OW19198   0.211   0.396   3.282  0.7954  0.1022  0.1576
 2580SOL    HW119199   0.183   0.456   3.214 -0.5675  1.2562  1.7479
 2580SOL    HW219200   0.138   0.401   3.344 -0.0991 -2.7210 -0.6422
 2581SOL     OW19201   3.083   1.797  15.852  0.2228 -0.0399 -0.6034
 2581SOL    HW119202   3.119   1.771  15.937 -2.2024  0.2827  0.5256
 2581SOL    HW219203   3.067   1.707  15.824 -1.7096 -0.4173  1.5931
 2582SOL     OW19204   4.620   2.399   0.236  0.1670  0.3775 -0.3142
 2582SOL    HW119205   4.573   2.438   0.311  0.8336  0.1477  0.2219
 2582SOL    HW219206   4.674   2.332   0.276 -1.4833 -1.0113 -0.3960
 2583SOL     OW19207   0.891   3.209  14.426 -0.1317  0.5121 -0.2654
 2583SOL    HW119208   0.814   3.254  14.391  0.6208  0.2554 -2.2869
 2583SOL    HW219209   0.889   3.232  14.519 -3.7387 -0.6232 -0.0770
 2584SOL     OW19210   0.095   1.084   8.826 -0.8609 -0.1316  0.4340
 2584SOL    HW119211   0.027   1.042   8.772 -0.8337 -0.7191  0.8544
 2584SOL    HW219212   0.166   1.027   8.797 -1.8770 -1.5846  0.7772
 2585SOL     OW19213   3.802   1.504   9.602  0.5669  0.2088 -0.3237
 2585SOL    HW119214   3.779   1.416   9.631 -0.6209  1.7567  3.3185
 2585SOL    HW219215   3.817   1.485   9.509  0.7904 -0.4989 -0.1418
 2586SOL     OW19216   2.482   0.495  10.200  0.6002 -0.5092  0.0754
 2586SOL    HW119217   2.425   0.550  10.254  0.2808 -0.5927 -0.1766
 2586SOL    HW219218   2.508   0.555  10.130 -0.9025 -0.5091 -0.4716
 2587SOL     OW19219   2.870   4.337  15.833 -0.3237  0.4871  0.3438
 2587SOL    HW119220   2.905   4.315  15.919 -0.1942 -2.9492 -0.5703
 2587SOL    HW219221   2.782   4.298  15.837  0.7354 -1.8750  0.6256
 2588SOL     OW19222   2.743   2.421  12.403  0.0369 -0.2851 -0.4644
 2588SOL    HW119223   2.664   2.419  12.349 -0.2760 -0.9482  0.0286
 2588SOL    HW219224   2.761   2.328  12.416 -0.4631 -0.2691  0.3093
 2589SOL     OW19225   1.925   2.783   5.863 -0.2117  0.0378 -0.0410
 2589SOL    HW119226   1.831   2.803   5.870 -1.0920 -3.9795 -0.3926
 2589SOL    HW219227   1.955   2.869   5.835  0.3850 -0.2790 -0.3778
 2590SOL     OW19228   0.752   1.216   5.564  0.5582  0.6164 -0.5278
 2590SOL    HW119229   0.742   1.124   5.538  0.8982 -0.1805  2.2212
 2590SOL    HW219230   0.837   1.224   5.521  0.6413  0.6770 -0.3499
 2591SOL     OW19231   3.970   4.491   1.672  0.2580 -0.1202 -0.0921
 2591SOL    HW119232   3.924   4.411   1.650 -0.8411  0.6754 -0.6590
 2591SOL    HW219233   3.978   4.484   1.768 -1.9950  2.5773  0.2739
 2592SOL     OW19234   2.390   0.419  12.270 -0.5376 -0.1334 -0.2546
 2592SOL    HW119235   2.462   0.472  12.236 -2.1623  1.7390 -0.7162
 2592SOL    HW219236   2.315   0.476  12.254  0.3237  1.0815  0.0712
 2593SOL     OW19237   4.274   1.792   2.804  1.3175 -0.3594 -0.6553
 2593SOL    HW119238   4.324   1.745   2.737  2.0601  0.6129 -0.7821
 2593SOL    HW219239   4.333   1.773   2.877 -0.2130  1.9047  1.1544
 2594SOL     OW19240   2.994   1.962  17.304  0.2320 -0.3639  0.5042
 2594SOL    HW119241   2.980   1.932  17.393  1.5682 -1.1646  0.4281
 2594SOL    HW219242   3.086   1.938  17.294  0.8181  1.2568  1.9120
 2595SOL     OW19243   1.956   1.466  16.620 -0.2538 -0.2632 -0.4789
 2595SOL    HW119244   2.044   1.432  16.602  0.1696 -0.3864  1.8212
 2595SOL    HW219245   1.945   1.514  16.538  0.6327 -0.5822 -0.7842
 2596SOL     OW19246   0.504   3.873   3.789 -0.3070 -0.1311  0.2411
 2596SOL    HW119247   0.419   3.899   3.754  0.6276  2.2822 -0.2832
 2596SOL    HW219248   0.495   3.778   3.795  1.1595 -0.3229 -0.4890
 2597SOL     OW19249   1.353   3.129   2.981  0.0703  0.2040  0.1503
 2597SOL    HW119250   1.271   3.079   2.987 -0.2667  0.6856 -0.3747
 2597SOL    HW219251   1.405   3.082   2.915  0.1324 -0.7223  0.8615
 2598SOL     OW19252   2.413   0.361   7.997  0.3032 -0.0615 -0.3520
 2598SOL    HW119253   2.358   0.377   7.921 -1.3517 -0.4274  0.7642
 2598SOL    HW219254   2.348   0.320   8.053 -0.0195  0.2027 -0.5377
 2599SOL     OW19255   4.576   0.691  13.849 -0.8516  0.0294 -0.0976
 2599SOL    HW119256   4.602   0.772  13.893  1.8735 -0.5147 -0.6844
 2599SOL    HW219257   4.556   0.645  13.930  0.1713  1.7633  1.1381
 2600SOL     OW19258   4.500   4.251   8.982 -0.6988  0.3230  0.1406
 2600SOL    HW119259   4.575   4.255   9.042  0.1224 -0.3188 -0.8335
 2600SOL    HW219260   4.459   4.322   9.030 -1.3395  0.0995 -0.0829
 2601SOL     OW19261   2.341   0.517   2.339  0.2426 -0.6514 -0.1182
 2601SOL    HW119262   2.358   0.567   2.260 -1.6220  0.0823 -0.0568
 2601SOL    HW219263   2.248   0.533   2.354  0.3375 -0.0106 -0.1889
 2602SOL     OW19264   4.436   2.663   6.918  0.1071  0.3275 -0.8405
 2602SOL    HW119265   4.374   2.598   6.885 -0.7376  0.6399  0.1591
 2602SOL    HW219266   4.515   2.622   6.883  3.0444  2.4818  3.3526
 2603SOL     OW19267   0.534   2.761   2.170 -0.2626  0.0856 -0.0198
 2603SOL    HW119268   0.512   2.684   2.117 -1.1799  0.3538 -0.0375
 2603SOL    HW219269   0.455   2.767   2.224 -1.3195 -2.1003 -1.3132
 2604SOL     OW19270   2.796   0.547   5.089 -0.0704 -0.0829 -0.1702
 2604SOL    HW119271   2.892   0.555   5.086  0.0024  0.0288  2.0350
 2604SOL    HW219272   2.775   0.599   5.166  2.6542 -0.4919  0.8853
 2605SOL     OW19273   4.165   2.310  15.246  0.3742  0.1781 -0.0055
 2605SOL    HW119274   4.233   2.247  15.268  0.0239  0.3480  1.5776
 2605SOL    HW219275   4.120   2.322  15.330 -1.0023 -1.8842 -0.4524
 2606SOL     OW19276   4.670   1.577   6.555 -0.5746  0.1859  0.2670
 2606SOL    HW119277   4.629   1.504   6.601  0.6405 -0.4107  0.4063
 2606SOL    HW219278   4.641   1.648   6.612  1.8985  0.6754  0.8920
 2607SOL     OW19279   0.621   2.170  15.063  0.2168 -0.6470  0.2804
 2607SOL    HW119280   0.676   2.203  14.992  1.6243 -0.8097  1.2720
 2607SOL    HW219281   0.531   2.186  15.035 -0.0225  0.7908  1.8215
 2608SOL     OW19282   0.579   2.450   7.553  0.6221  0.1768 -0.1305
 2608SOL    HW119283   0.640   2.508   7.599  0.6719  0.3463 -0.4130
 2608SOL    HW219284   0.564   2.491   7.468  0.0205  0.4043  0.0808
 2609SOL     OW19285   2.448   4.285   7.338  0.4430  0.5983 -0.2830
 2609SOL    HW119286   2.371   4.251   7.294  0.8601 -2.4923  1.3566
 2609SOL    HW219287   2.459   4.222   7.410 -1.5143 -1.1941 -1.5431
 2610SOL     OW19288   2.368   3.472   5.819 -0.0507 -0.2806 -0.5444
 2610SOL    HW119289   2.434   3.420   5.773 -1.3840 -1.9488 -0.5646
 2610SOL    HW219290   2.317   3.501   5.743  1.6588 -0.2143 -1.6877
 2611SOL     OW19291   2.170   4.321  15.911 -0.3107  0.3566  0.4366
 2611SOL    HW119292   2.234   4.302  15.843  0.4362  1.1912  0.9079
 2611SOL    HW219293   2.220   4.319  15.992  0.7981  0.7472 -0.2411
 2612SOL     OW19294   2.166   0.265   8.799 -0.1584 -0.0483 -0.1126
 2612SOL    HW119295   2.203   0.292   8.883  0.4581 -0.0723 -0.3801
 2612SOL    HW219296   2.114   0.345   8.787  1.3958  1.1387  1.0467
 2613SOL     OW19297   4.592   2.551  16.779 -0.6248  0.4505  0.3507
 2613SOL    HW119298   4.547   2.485  16.727  2.7619  1.4734 -3.8322
 2613SOL    HW219299   4.600   2.627  16.722 -1.6752  0.3788  0.1100
 2614SOL     OW19300   2.105   3.241  16.505  0.0791  0.1140  0.3166
 2614SOL    HW119301   2.127   3.179  16.436 -1.6686 -0.6250  0.4211
 2614SOL    HW219302   2.181   3.298  16.499 -0.1448  0.5070  1.1715
 2615SOL     OW19303   0.315   0.616  14.600 -0.6753 -0.4849  0.9344
 2615SOL    HW119304   0.268   0.631  14.518  1.8014  0.6409 -0.2588
 2615SOL    HW219305   0.261   0.658  14.668  1.1661  1.5431  1.1372
 2616SOL     OW19306   2.081   4.461   7.419  0.0554 -0.9012  0.2467
 2616SOL    HW119307   2.056   4.374   7.386  1.6314 -0.9098 -0.9011
 2616SOL    HW219308   2.102   4.506   7.338  1.0294 -0.9891  0.4574
 2617SOL     OW19309   4.151   4.305   5.096  0.4638 -0.0264  0.0884
 2617SOL    HW119310   4.192   4.226   5.060  0.8502  0.1301  0.1856
 2617SOL    HW219311   4.226   4.362   5.115  1.5212 -1.5105  0.4063
 2618SOL     OW19312   1.844   1.888  10.338 -0.0378 -0.4550  0.4150
 2618SOL    HW119313   1.783   1.922  10.403 -0.8398 -1.6230  0.2846
 2618SOL    HW219314   1.913   1.843  10.387 -0.6087 -2.4470 -0.6159
 2619SOL     OW19315   2.971   1.385   0.565 -0.2474 -0.3364  0.3457
 2619SOL    HW119316   2.961   1.417   0.655 -0.0648 -1.5510  0.7987
 2619SOL    HW219317   2.916   1.307   0.572  2.7595 -2.4617  0.1922
 2620SOL     OW19318   3.170   0.053   8.741  0.3347 -0.0247  0.1260
 2620SOL    HW119319   3.238   0.089   8.684 -1.2084  2.4350 -0.1945
 2620SOL    HW219320   3.204   4.690   8.761 -0.8048 -0.7189 -0.9581
 2621SOL     OW19321   0.539   0.939   4.092 -0.3562 -0.0819 -0.0648
 2621SOL    HW119322   0.541   1.032   4.114  3.1966 -0.5839  1.8263
 2621SOL    HW219323   0.603   0.930   4.022  0.3798 -2.8817  0.9370
 2622SOL     OW19324   4.557   3.754   2.479 -0.0599  0.6015  0.3056
 2622SOL    HW119325   4.608   3.807   2.541  2.3519  0.8123 -1.8806
 2622SOL    HW219326   4.552   3.816   2.406  1.1669 -0.3299 -0.5745
 2623SOL     OW19327   1.541   0.487   8.481 -0.0961 -0.9041  0.5396
 2623SOL    HW119328   1.486   0.410   8.493  0.6667 -1.6399 -0.6557
 2623SOL    HW219329   1.537   0.504   8.387 -2.3482  0.3462  0.8600
 2624SOL     OW19330   4.124   4.401   0.368 -0.0460  0.5243  0.0886
 2624SOL    HW119331   4.092   4.399   0.459  1.8102 -2.2852  0.6701
 2624SOL    HW219332   4.145   4.308   0.368  2.0203  1.0046 -1.6932
 2625SOL     OW19333   3.279   3.317  15.242  0.7094  0.4005 -0.1720
 2625SOL    HW119334   3.262   3.405  15.206  1.8134 -0.0870 -1.8564
 2625SOL    HW219335   3.298   3.340  15.333 -0.1105  1.6579 -0.3115
 2626SOL     OW19336   3.716   3.269  10.671  0.5729 -0.3033  0.4525
 2626SOL    HW119337   3.648   3.328  10.704 -0.0785 -0.9365  0.2558
 2626SOL    HW219338   3.718   3.205  10.742 -1.1271  0.5557  1.2794
 2627SOL     OW19339   2.827   1.374   6.006 -0.1072 -0.8073  0.4516
 2627SOL    HW119340   2.884   1.310   6.048  0.4988 -2.1653 -2.4802
 2627SOL    HW219341   2.896   1.435   5.982 -1.6342  0.1052 -1.6507
 2628SOL     OW19342   4.596   1.755   6.773  0.1133  0.5405  0.0852
 2628SOL    HW119343   4.674   1.791   6.816 -1.2542  2.9647  0.5666
 2628SOL    HW219344   4.551   1.713   6.847  1.6082  0.2480  0.8431
 2629SOL     OW19345   2.888   0.912   3.409 -0.0279  0.0336 -1.0241
 2629SOL    HW119346   2.807   0.951   3.375 -0.9517  1.6781  3.0226
 2629SOL    HW219347   2.936   0.877   3.334  1.1341 -1.9510  0.6483
 2630SOL     OW19348   1.221   1.177  16.973 -0.1976 -0.0007  0.3939
 2630SOL    HW119349   1.204   1.083  16.965 -1.6593  0.2340  0.7975
 2630SOL    HW219350   1.311   1.174  16.940  0.2229 -0.2167  1.5526
 2631SOL     OW19351   3.212   0.624   6.919  0.2213  0.7161 -0.0610
 2631SOL    HW119352   3.197   0.596   7.010  1.7311 -0.9899 -0.3206
 2631SOL    HW219353   3.134   0.677   6.908 -0.1294  0.1572 -0.2797
 2632SOL     OW19354   0.834   1.378  12.966 -0.2401  0.0075 -0.1547
 2632SOL    HW119355   0.871   1.316  12.904  1.5941 -0.1838  1.1350
 2632SOL    HW219356   0.843   1.462  12.921  4.3788  0.2000  1.1075
 2633SOL     OW19357   1.456   3.847  14.792  0.0430 -0.4642  0.4474
 2633SOL    HW119358   1.471   3.754  14.808  0.3010 -0.6412 -0.8639
 2633SOL    HW219359   1.378   3.840  14.738 -0.7503  0.6978  1.4520
 2634SOL     OW19360   1.607   2.497   8.925  0.6168 -0.4646  0.6675
 2634SOL    HW119361   1.558   2.579   8.928 -1.2508 -1.6403  2.3440
 2634SOL    HW219362   1.547   2.427   8.952 -0.3520 -0.6315 -1.9900
 2635SOL     OW19363   0.156   3.664   2.297  0.8235 -0.0931  0.2866
 2635SOL    HW119364   0.141   3.746   2.344 -0.7444 -0.2416  0.0181
 2635SOL    HW219365   0.106   3.691   2.221 -0.9804 -1.9327  0.8291
 2636SOL     OW19366   3.451   1.975   3.976 -0.0593 -0.3915 -0.1243
 2636SOL    HW119367   3.448   1.944   4.066  0.4374 -2.3871 -0.7842
 2636SOL    HW219368   3.393   2.050   3.987 -2.5143 -2.2837 -0.0471
 2637SOL     OW19369   4.120   4.165   8.935  0.2126  0.0314  0.5109
 2637SOL    HW119370   4.167   4.105   8.992 -0.9234  0.6319  2.0829
 2637SOL    HW219371   4.068   4.225   8.989 -0.5129  1.2483 -1.5233
 2638SOL     OW19372   1.830   3.712   1.244 -0.6739 -0.2351 -0.6804
 2638SOL    HW119373   1.752   3.657   1.241 -0.2930 -0.9264  1.8819
 2638SOL    HW219374   1.888   3.669   1.182  0.2732 -0.0602  0.0868
 2639SOL     OW19375   0.331   2.037   1.917  0.2051 -0.0038  0.1746
 2639SOL    HW119376   0.351   2.023   1.824  0.1719  0.3383  0.1157
 2639SOL    HW219377   0.253   1.982   1.926  0.5657 -0.5121  0.2486
 2640SOL     OW19378   4.683   3.809  15.248  0.1226  0.0844  0.7097
 2640SOL    HW119379   4.705   3.901  15.233 -0.2061  0.0065 -0.2302
 2640SOL    HW219380   4.606   3.793  15.195 -0.8759  0.8346  1.9376
 2641SOL     OW19381   1.727   1.000   6.565  0.2216 -0.4315 -0.1758
 2641SOL    HW119382   1.709   0.937   6.495  2.0202  0.1902 -1.2022
 2641SOL    HW219383   1.652   1.058   6.549 -0.2684 -0.7870  0.8354
 2642SOL     OW19384   4.340   3.811   4.994 -0.2795 -0.2737  0.4309
 2642SOL    HW119385   4.304   3.756   4.924 -0.1200 -0.6679  0.6612
 2642SOL    HW219386   4.422   3.765   5.007 -1.8558 -2.6857  1.8537
 2643SOL     OW19387   0.104   1.260  12.469 -0.0595 -0.1664 -0.2213
 2643SOL    HW119388   0.179   1.203  12.490 -0.6975 -0.1405  2.0923
 2643SOL    HW219389   0.125   1.329  12.531  2.6364  0.7688 -2.1503
 2644SOL     OW19390   1.809   3.243  10.222  0.2721  0.0656  0.5410
 2644SOL    HW119391   1.868   3.266  10.294 -0.1737  0.2752  0.8367
 2644SOL    HW219392   1.869   3.247  10.148 -0.5059  0.7111 -0.0567
 2645SOL     OW19393   3.692   0.087   9.990 -0.2837  0.2040  0.0186
 2645SOL    HW119394   3.743   0.111   9.912  2.4160  0.8153  1.9775
 2645SOL    HW219395   3.628   0.158   9.996 -0.9815 -0.5085  1.0528
 2646SOL     OW19396   2.275   4.392   4.537  0.5400  0.1758  0.0061
 2646SOL    HW119397   2.243   4.329   4.602 -0.2759  0.7723  0.1826
 2646SOL    HW219398   2.278   4.336   4.460 -0.7420 -2.9268  2.1870
 2647SOL     OW19399   4.691   4.678   3.426 -0.5969  0.5248  0.8136
 2647SOL    HW119400   0.016   4.600   3.450  2.1392  2.0901  0.2420
 2647SOL    HW219401   4.616   4.658   3.369 -0.2035 -1.8583  1.1376
 2648SOL     OW19402   0.188   3.793   6.168 -0.0130  0.0698  0.3154
 2648SOL    HW119403   0.257   3.738   6.131 -0.6074  0.2947 -1.1405
 2648SOL    HW219404   0.114   3.733   6.167  0.1301 -0.0962 -2.8246
 2649SOL     OW19405   0.002   0.866   3.952 -0.6436 -0.1587  0.1563
 2649SOL    HW119406   0.033   0.776   3.958 -0.2068 -0.0244 -0.1515
 2649SOL    HW219407   0.079   0.917   3.974  2.3707 -4.6406 -0.0054
 2650SOL     OW19408   4.482   2.746   9.131 -0.1849 -0.2019 -0.1199
 2650SOL    HW119409   4.557   2.760   9.189 -0.0444  0.4180 -0.4508
 2650SOL    HW219410   4.432   2.678   9.177 -0.1752 -1.0919 -1.4458
 2651SOL     OW19411   2.615   4.544   2.581 -0.5078  0.3927  0.4768
 2651SOL    HW119412   2.633   4.549   2.675 -0.6733 -1.0386  0.5791
 2651SOL    HW219413   2.698   4.569   2.540 -0.6112  1.9834  1.2460
 2652SOL     OW19414   1.787   3.021   7.384  0.2118  0.1062 -0.0096
 2652SOL    HW119415   1.787   2.955   7.315  0.2110 -0.0595  0.1484
 2652SOL    HW219416   1.752   2.971   7.458  2.1187  1.0253  1.5185
 2653SOL     OW19417   1.420   0.321   2.775  0.4479  0.3262 -0.1755
 2653SOL    HW119418   1.498   0.265   2.776  0.4175  0.2593 -1.4815
 2653SOL    HW219419   1.356   0.250   2.770  2.0446 -0.9748 -2.3044
 2654SOL     OW19420   1.958   2.006   1.802 -0.4800 -0.3699  0.4293
 2654SOL    HW119421   1.931   2.088   1.842  0.2037  0.0208  0.0984
 2654SOL    HW219422   1.940   1.934   1.863  1.2308 -1.9260 -0.8946
 2655SOL     OW19423   1.467   4.173   0.666 -0.1877 -0.0900  0.2817
 2655SOL    HW119424   1.424   4.257   0.650 -0.8702 -0.3093  0.9816
 2655SOL    HW219425   1.555   4.200   0.689 -0.3638 -0.4065  1.2977
 2656SOL     OW19426   2.442   1.987   5.153  0.1092 -0.3234  0.0143
 2656SOL    HW119427   2.525   1.964   5.110 -0.8550 -0.4019 -1.8258
 2656SOL    HW219428   2.430   1.913   5.212 -0.3063  0.8121  1.3590
 2657SOL     OW19429   1.666   2.799   4.532 -0.3767  0.1646 -0.2923
 2657SOL    HW119430   1.748   2.753   4.516 -0.4917 -0.5237  1.0855
 2657SOL    HW219431   1.635   2.759   4.614  2.3210 -1.8781 -0.2553
 2658SOL     OW19432   1.129   0.028   1.314  0.0633  0.2238 -0.6906
 2658SOL    HW119433   1.128   4.659   1.335 -0.1462  0.4156  0.1186
 2658SOL    HW219434   1.219   0.036   1.283 -0.4604  1.8843 -1.8205
 2659SOL     OW19435   0.423   0.550   8.279  0.0357 -0.6627 -0.0172
 2659SOL    HW119436   0.401   0.503   8.359  1.4501  1.6748  1.7434
 2659SOL    HW219437   0.343   0.602   8.270  0.8707  0.6786  0.2983
 2660SOL     OW19438   1.542   2.160   5.364  0.4193  0.1723 -0.4537
 2660SOL    HW119439   1.633   2.138   5.382  0.1649 -0.5414 -0.0317
 2660SOL    HW219440   1.547   2.255   5.368  2.0332  0.1140 -0.9271
 2661SOL     OW19441   1.110   3.967   4.950 -0.2844 -0.5691 -0.0800
 2661SOL    HW119442   1.020   3.996   4.962  0.2934  0.5739  1.5290
 2661SOL    HW219443   1.110   3.947   4.856 -2.4226  0.3270 -0.2631
 2662SOL     OW19444   1.970   1.096   3.128  0.2804 -0.5221 -0.1743
 2662SOL    HW119445   2.049   1.135   3.164  0.0998 -0.1299 -0.1971
 2662SOL    HW219446   1.913   1.115   3.203  0.7160 -1.9824  0.5204
 2663SOL     OW19447   0.997   1.490   3.753  0.3676  0.1767  0.0371
 2663SOL    HW119448   0.913   1.535   3.746  1.6618  2.4488 -1.2360
 2663SOL    HW219449   1.012   1.510   3.845 -1.2336  0.9929  0.1282
 2664SOL     OW19450   4.337   2.045   3.146  0.7295 -0.1706 -0.4503
 2664SOL    HW119451   4.254   2.092   3.149  0.1147 -1.1812 -1.5544
 2664SOL    HW219452   4.362   2.056   3.054 -1.2927 -0.1881 -0.9992
 2665SOL     OW19453   0.420   4.434   6.051 -0.0126 -0.2468  0.3530
 2665SOL    HW119454   0.339   4.386   6.068 -1.1634  1.8962  0.9852
 2665SOL    HW219455   0.449   4.382   5.976  0.3861 -1.8641  1.6277
 2666SOL     OW19456   1.832   1.141  11.346 -0.0498  0.5973  0.0136
 2666SOL    HW119457   1.739   1.124  11.357  0.3147 -1.3312  0.1224
 2666SOL    HW219458   1.855   1.193  11.423 -0.4909  0.9470 -0.0916
 2667SOL     OW19459   2.060   3.586   8.537  0.3636 -0.0424 -0.2775
 2667SOL    HW119460   2.108   3.533   8.601 -1.0751  0.6787  1.4038
 2667SOL    HW219461   2.072   3.534   8.458  0.6475  0.3180 -0.4696
 2668SOL     OW19462   1.765   1.831   5.808  0.2165  0.3196  0.2075
 2668SOL    HW119463   1.704   1.779   5.756  0.9056 -1.5530  1.2595
 2668SOL    HW219464   1.731   1.920   5.814  2.0457  1.0317 -0.1184
 2669SOL     OW19465   4.059   0.280   1.431 -0.1454  0.2474 -0.1044
 2669SOL    HW119466   4.154   0.289   1.441 -0.1683 -1.3997  1.6808
 2669SOL    HW219467   4.022   0.316   1.512 -3.0479 -0.2426 -1.2359
 2670SOL     OW19468   4.075   2.392   3.960 -0.4553  0.0820  0.0148
 2670SOL    HW119469   4.087   2.426   3.871  3.1623 -0.7213  0.1715
 2670SOL    HW219470   4.062   2.301   3.933 -1.7601  0.6207 -1.1859
 2671SOL     OW19471   3.699   0.708   2.762 -0.1857 -0.3079 -0.0205
 2671SOL    HW119472   3.650   0.790   2.775 -0.1361  0.0721 -2.2258
 2671SOL    HW219473   3.644   0.680   2.689 -0.3256  1.7076 -0.7033
 2672SOL     OW19474   3.164   4.444  14.269 -0.3775 -0.0850 -0.0670
 2672SOL    HW119475   3.250   4.451  14.310 -0.0331  1.0506 -0.9913
 2672SOL    HW219476   3.108   4.453  14.347  1.6763 -0.6960  1.4878
 2673SOL     OW19477   3.582   0.748  14.288 -0.7138  0.0618  0.0770
 2673SOL    HW119478   3.667   0.792  14.296 -1.2726  0.6462  2.8540
 2673SOL    HW219479   3.574   0.747  14.193 -1.9727  1.6538  0.1587
 2674SOL     OW19480   2.283   0.417   9.721  0.6697  0.7144  0.3272
 2674SOL    HW119481   2.222   0.491   9.725  0.7947  0.8235  0.2065
 2674SOL    HW219482   2.296   0.395   9.813  0.0424 -2.9172 -0.4575
 2675SOL     OW19483   3.388   4.310   4.657  0.2092 -0.2054  0.5045
 2675SOL    HW119484   3.482   4.325   4.666  0.5278 -2.1483  0.4286
 2675SOL    HW219485   3.387   4.276   4.567 -0.5720 -0.2531  0.5307
 2676SOL     OW19486   1.695   0.024   7.157 -0.4623  0.1378  0.6385
 2676SOL    HW119487   1.745   4.667   7.169  0.0072  0.6819  2.4235
 2676SOL    HW219488   1.623   0.003   7.218 -0.9319 -1.9961 -0.6557
 2677SOL     OW19489   3.120   0.058   4.229  0.6869 -0.4205 -0.0898
 2677SOL    HW119490   3.146   0.015   4.147 -2.6104  0.7674 -1.7761
 2677SOL    HW219491   3.102   0.146   4.196 -0.6483 -0.4072  0.7005
 2678SOL     OW19492   4.059   1.778   5.454 -0.3299  0.5274  0.3340
 2678SOL    HW119493   4.030   1.835   5.525 -4.2147 -0.3624 -0.5404
 2678SOL    HW219494   3.991   1.714   5.474 -0.8793  1.7246  2.3772
 2679SOL     OW19495   2.257   3.336  14.520 -0.9687 -0.1945 -0.1856
 2679SOL    HW119496   2.243   3.248  14.486  0.7328 -0.6154  0.1657
 2679SOL    HW219497   2.256   3.385  14.438 -1.7355 -2.4784 -1.5269
 2680SOL     OW19498   1.882   0.690   5.331 -0.4823  0.3697 -0.6035
 2680SOL    HW119499   1.966   0.647   5.347 -0.3428  0.6847 -0.4827
 2680SOL    HW219500   1.898   0.768   5.385  0.2153 -1.3275  1.6412
 2681SOL     OW19501   0.497   0.178   2.205  0.2966 -0.3886  0.1583
 2681SOL    HW119502   0.468   0.179   2.297 -0.0417  1.7638  0.0283
 2681SOL    HW219503   0.546   0.259   2.195  0.1601 -0.2620  0.5129
 2682SOL     OW19504   0.572   1.219   7.550  0.1603  0.5143  0.3219
 2682SOL    HW119505   0.523   1.138   7.534 -1.4166  1.2443  1.3645
 2682SOL    HW219506   0.635   1.227   7.479  0.5995  0.5824  0.7191
 2683SOL     OW19507   3.858   1.540   6.279 -0.0976 -0.2346  0.3633
 2683SOL    HW119508   3.899   1.601   6.341 -0.7509 -1.4131  1.9428
 2683SOL    HW219509   3.856   1.587   6.196  0.8514 -1.3994 -0.3071
 2684SOL     OW19510   0.849   3.368   5.269  0.7589  0.5461 -0.2402
 2684SOL    HW119511   0.894   3.332   5.345 -1.3242 -1.1843  0.1865
 2684SOL    HW219512   0.874   3.460   5.268  1.3767  0.3855  0.6433
 2685SOL     OW19513   3.208   3.909  13.563 -0.1101 -0.0366 -0.3521
 2685SOL    HW119514   3.197   3.850  13.637 -0.7597 -1.3688 -1.5050
 2685SOL    HW219515   3.200   3.847  13.491  0.3660  3.0615 -3.0689
 2686SOL     OW19516   0.487   1.711   1.211  0.0659  0.1135  0.0869
 2686SOL    HW119517   0.428   1.779   1.178  0.9624  0.2640 -1.1983
 2686SOL    HW219518   0.447   1.631   1.177  1.4453 -0.5690  0.0782
 2687SOL     OW19519   4.506   0.362   8.166 -0.3359  0.1260  0.3796
 2687SOL    HW119520   4.424   0.405   8.187  0.1519  1.3197 -0.1496
 2687SOL    HW219521   4.570   0.398   8.227  0.6541 -0.7870 -0.1198
 2688SOL     OW19522   3.156   0.372  10.733 -0.2136  0.1951  0.0160
 2688SOL    HW119523   3.169   0.452  10.784  0.5570 -0.3521  0.6861
 2688SOL    HW219524   3.061   0.357  10.737 -0.1077  0.0200  1.9536
 2689SOL     OW19525   3.978   3.438   0.837 -0.5235 -0.4091 -0.3181
 2689SOL    HW119526   4.014   3.494   0.768 -0.6537  0.8201  0.5943
 2689SOL    HW219527   4.025   3.357   0.819  0.2873  0.2158 -1.0324
 2690SOL     OW19528   3.720   2.409   4.899 -0.6942  0.1055 -0.2190
 2690SOL    HW119529   3.697   2.486   4.951 -1.0676  1.4631 -2.4288
 2690SOL    HW219530   3.722   2.455   4.816  3.5769  2.3601  1.1571
 2691SOL     OW19531   1.090   4.305   6.738 -0.3529 -0.2152  0.4631
 2691SOL    HW119532   1.073   4.240   6.670 -3.3139 -0.8891  1.8614
 2691SOL    HW219533   1.116   4.375   6.678  1.3149 -1.6148 -0.4565
 2692SOL     OW19534   4.673   3.200   1.362 -0.4147  0.2456  0.4781
 2692SOL    HW119535   4.631   3.285   1.377 -0.4170  0.0258  1.7389
 2692SOL    HW219536   0.043   3.216   1.358 -0.1072 -1.7799 -0.2488
 2693SOL     OW19537   3.497   4.482   0.825  0.5434  0.6273 -0.5512
 2693SOL    HW119538   3.588   4.489   0.852  0.3303  0.5353  0.2094
 2693SOL    HW219539   3.453   4.474   0.910  2.3378  0.3660  0.3377
 2694SOL     OW19540   2.048   2.917   3.765 -0.0667  0.9719 -0.0947
 2694SOL    HW119541   2.140   2.893   3.766  0.1907  2.0349  2.0283
 2694SOL    HW219542   2.033   2.931   3.671  0.7810 -1.2164 -0.5646
 2695SOL     OW19543   1.246   1.398  10.406  0.0978 -0.2220  0.5261
 2695SOL    HW119544   1.212   1.481  10.439 -1.3601 -0.8115  0.4893
 2695SOL    HW219545   1.182   1.370  10.340  0.6202 -1.2201  0.4414
 2696SOL     OW19546   3.016   2.827  15.289 -0.2502 -0.0923  0.0295
 2696SOL    HW119547   2.978   2.740  15.281 -0.0008 -0.0972 -1.1523
 2696SOL    HW219548   3.004   2.846  15.382  0.0027  0.7428 -0.1090
 2697SOL     OW19549   4.174   1.484   9.724  0.0836 -0.1973  0.1647
 2697SOL    HW119550   4.144   1.510   9.637 -0.3929  4.4837  1.7393
 2697SOL    HW219551   4.092   1.495   9.773 -0.6536 -0.4178 -1.0184
 2698SOL     OW19552   3.503   0.902   3.724  0.2892  0.3325  0.4539
 2698SOL    HW119553   3.527   0.854   3.645 -1.0478 -0.2170  0.3767
 2698SOL    HW219554   3.552   0.984   3.717  1.1234 -0.0302  1.9878
 2699SOL     OW19555   3.533   1.353  16.492  0.2291  0.0879  0.4591
 2699SOL    HW119556   3.474   1.428  16.479  1.6524  1.1853  0.3128
 2699SOL    HW219557   3.484   1.288  16.441  3.1653 -2.6066  1.1110
 2700SOL     OW19558   0.581   4.005  16.872 -0.2378 -0.5867 -0.8527
 2700SOL    HW119559   0.564   4.009  16.777  1.6407  0.4832 -1.1479
 2700SOL    HW219560   0.503   3.950  16.882 -1.8183  1.3867 -2.1464
 2701SOL     OW19561   1.769   3.974   6.507 -0.6040 -0.1004 -0.4277
 2701SOL    HW119562   1.755   3.969   6.413 -1.7959  1.1775 -0.3188
 2701SOL    HW219563   1.681   3.976   6.544 -0.5314 -1.7382 -0.1455
 2702SOL     OW19564   1.653   2.624   5.148  0.1688 -0.1699  0.5651
 2702SOL    HW119565   1.700   2.641   5.067 -1.1134  0.3472 -0.0672
 2702SOL    HW219566   1.566   2.660   5.132 -0.1001  0.0374  2.4186
 2703SOL     OW19567   1.238   0.989   2.028  0.4865 -0.3565  0.5294
 2703SOL    HW119568   1.188   1.067   2.052 -1.1267 -0.8698 -1.2258
 2703SOL    HW219569   1.185   0.952   1.958  0.5276  3.2354 -1.4151
 2704SOL     OW19570   3.402   1.789  15.581 -0.1903  0.3506  0.1612
 2704SOL    HW119571   3.400   1.729  15.655 -0.1110  0.0115 -0.1080
 2704SOL    HW219572   3.450   1.740  15.513 -0.4574 -0.1507  0.3368
 2705SOL     OW19573   1.096   1.936   7.854 -0.6564  0.3082  0.1181
 2705SOL    HW119574   1.126   2.014   7.900  0.8182 -0.2660  0.1397
 2705SOL    HW219575   1.114   1.866   7.916 -1.5318 -0.8719 -0.9517
 2706SOL     OW19576   1.286   2.328  17.553  0.1436  0.0140 -0.1745
 2706SOL    HW119577   1.238   2.257  17.595 -0.8447 -0.3567 -1.9147
 2706SOL    HW219578   1.351   2.270  17.513  2.0217  1.0020  1.4761
 2707SOL     OW19579   2.271   1.220  15.878 -0.4351  0.3488  0.6807
 2707SOL    HW119580   2.327   1.289  15.841  1.3793 -1.6969 -0.4412
 2707SOL    HW219581   2.326   1.142  15.864 -1.7368 -0.5422  0.5927
 2708SOL     OW19582   4.588   2.452   9.728  0.0969 -0.4781 -0.0655
 2708SOL    HW119583   4.632   2.433   9.646 -0.9972 -2.3587 -0.2059
 2708SOL    HW219584   4.542   2.373   9.755 -0.3065 -0.7744 -1.6657
 2709SOL     OW19585   1.769   3.704  15.443 -0.5399  0.0390  0.0186
 2709SOL    HW119586   1.746   3.733  15.531  0.1666 -0.5334  0.3960
 2709SOL    HW219587   1.833   3.637  15.467  1.4083  0.8871 -2.6767
 2710SOL     OW19588   1.081   1.660   9.267 -0.2636 -0.5329 -0.2363
 2710SOL    HW119589   1.021   1.590   9.292 -0.7995  0.0681  0.1466
 2710SOL    HW219590   1.086   1.641   9.173  1.5103 -0.6132 -0.1122
 2711SOL     OW19591   3.304   4.192   2.977 -0.5227 -0.5057  0.4631
 2711SOL    HW119592   3.304   4.253   3.051 -0.3721  0.7218 -0.5523
 2711SOL    HW219593   3.340   4.107   3.002 -1.1346 -0.1400  2.5918
 2712SOL     OW19594   2.640   1.919  17.047  0.1659  0.4092  0.2585
 2712SOL    HW119595   2.668   1.859  16.978  1.1329  2.6285 -1.2937
 2712SOL    HW219596   2.545   1.909  17.034  0.0946  0.2060  0.9784
 2713SOL     OW19597   2.423   3.232   1.962  0.5497 -0.8658  0.6950
 2713SOL    HW119598   2.453   3.174   2.032 -0.3306  0.2097  1.9556
 2713SOL    HW219599   2.495   3.245   1.899  1.4445 -0.4749  1.7860
 2714SOL     OW19600   1.167   2.332   5.361  0.0445 -0.1351 -0.3400
 2714SOL    HW119601   1.170   2.408   5.304 -0.2207 -1.3166 -1.9403
 2714SOL    HW219602   1.137   2.366   5.445  0.5851 -4.2354  1.5478
 2715SOL     OW19603   1.799   4.692   6.607 -0.0625 -0.6355 -0.8285
 2715SOL    HW119604   1.708   4.671   6.628  1.3406 -2.9593  2.8005
 2715SOL    HW219605   1.794   4.707   6.513  0.0964 -1.4296 -0.9695
 2716SOL     OW19606   1.592   4.476   3.756  0.1760  0.4658  0.2325
 2716SOL    HW119607   1.590   4.496   3.662  1.6499  2.1900  0.5743
 2716SOL    HW219608   1.610   4.565   3.784 -1.2370  0.7178  0.3185
 2717SOL     OW19609   4.143   4.067   8.691  0.2136 -0.3546  0.3474
 2717SOL    HW119610   4.115   4.112   8.771 -0.4711  1.9576 -1.2067
 2717SOL    HW219611   4.150   3.979   8.728  1.1997 -0.2468  0.3950
 2718SOL     OW19612   3.789   1.035   6.084 -0.0212  0.1507 -0.3623
 2718SOL    HW119613   3.876   1.044   6.123  0.3917 -0.8184 -1.0700
 2718SOL    HW219614   3.740   1.002   6.160  1.5420 -1.3408 -0.0160
 2719SOL     OW19615   0.013   2.324   4.635  0.7568  0.1338 -0.0822
 2719SOL    HW119616   4.708   2.233   4.637 -0.1052  0.3674 -2.5008
 2719SOL    HW219617   0.102   2.314   4.599  0.7429  0.5393 -0.2215
 2720SOL     OW19618   0.677   1.680   8.235  0.2705 -0.2653  0.3449
 2720SOL    HW119619   0.650   1.614   8.299 -1.7992  0.7851  0.5420
 2720SOL    HW219620   0.648   1.763   8.271 -1.4605 -0.6349 -0.2165
 2721SOL     OW19621   3.439   3.058   8.555 -0.6806 -0.1231 -0.4656
 2721SOL    HW119622   3.533   3.073   8.561 -1.0734  1.4599  1.6050
 2721SOL    HW219623   3.411   3.112   8.481  2.0539  1.4679 -0.3205
 2722SOL     OW19624   2.568   4.647   1.733 -0.5749 -0.0215  0.5641
 2722SOL    HW119625   2.562   4.624   1.640 -2.8532  3.0803 -0.0831
 2722SOL    HW219626   2.563   0.018   1.717 -1.1729 -0.1916 -0.2423
 2723SOL     OW19627   3.607   0.302   6.470  0.7612  0.0213 -0.2984
 2723SOL    HW119628   3.674   0.260   6.524  0.7047 -1.6899 -1.5649
 2723SOL    HW219629   3.580   0.360   6.541 -0.1611 -2.0831  1.0659
 2724SOL     OW19630   2.656   0.761   6.638  0.1712  0.1900 -0.0157
 2724SOL    HW119631   2.705   0.706   6.700 -1.6439 -0.4810  0.8102
 2724SOL    HW219632   2.682   0.712   6.560  1.5038 -0.8080  1.0471
 2725SOL     OW19633   0.647   0.017   1.585  0.4748 -0.2360 -0.3888
 2725SOL    HW119634   0.700   4.702   1.516 -0.4877 -0.5598 -0.9473
 2725SOL    HW219635   0.670   4.696   1.666  1.7526  2.4850  0.7239
 2726SOL     OW19636   1.840   3.243   2.125  0.1718 -0.0037  0.7289
 2726SOL    HW119637   1.849   3.338   2.113  0.0884 -0.1593 -0.5646
 2726SOL    HW219638   1.917   3.216   2.075  0.6669  2.7672 -0.0497
 2727SOL     OW19639   3.657   3.177   4.506  0.5236 -0.5546  0.4426
 2727SOL    HW119640   3.596   3.227   4.452 -0.5433 -1.1548  1.0810
 2727SOL    HW219641   3.649   3.216   4.593 -0.8590  0.0375  0.0498
 2728SOL     OW19642   3.578   4.046   5.974 -0.3795  0.4648  0.0118
 2728SOL    HW119643   3.668   4.078   5.965 -0.2634  0.6440  1.6628
 2728SOL    HW219644   3.590   3.957   6.007 -0.2986 -0.1946 -1.8085
 2729SOL     OW19645   3.121   3.901   7.480  0.5186  0.1647  0.5027
 2729SOL    HW119646   3.165   3.982   7.457 -2.7241  0.8712 -3.2641
 2729SOL    HW219647   3.066   3.929   7.553 -0.8170  0.7141 -0.7227
 2730SOL     OW19648   1.560   3.290   6.542 -0.1698 -0.5530  0.3827
 2730SOL    HW119649   1.469   3.271   6.521 -0.2530  1.4019 -1.0003
 2730SOL    HW219650   1.552   3.307   6.636 -0.8983  1.7271 -0.0947
 2731SOL     OW19651   3.539   3.918   5.174  0.0597 -0.1446  0.1314
 2731SOL    HW119652   3.529   3.859   5.099 -0.7469  0.4858 -0.2556
 2731SOL    HW219653   3.451   3.909   5.211 -0.4684  1.1159 -0.8291
 2732SOL     OW19654   3.259   4.509  10.379 -0.6682  0.1330 -0.0618
 2732SOL    HW119655   3.258   4.416  10.359 -1.7324 -0.3417  2.1367
 2732SOL    HW219656   3.195   4.536  10.314 -1.2201 -1.5708 -0.2223
 2733SOL     OW19657   1.500   1.859   7.026  0.6336 -0.4467  0.0243
 2733SOL    HW119658   1.548   1.777   7.030  2.7810  0.8761  1.0322
 2733SOL    HW219659   1.426   1.837   7.083 -0.2023  0.6794 -0.6120
 2734SOL     OW19660   2.950   1.161   4.939  0.7987 -0.0270 -0.4149
 2734SOL    HW119661   3.023   1.104   4.961  0.9309  0.4750  0.4518
 2734SOL    HW219662   2.991   1.175   4.854 -0.0763 -1.5225 -1.0841
 2735SOL     OW19663   1.462   2.029   2.744 -0.0329 -0.0438 -0.0300
 2735SOL    HW119664   1.472   1.934   2.745  0.5877  0.0196  0.0171
 2735SOL    HW219665   1.376   2.038   2.704 -0.7302 -1.0531  1.2731
 2736SOL     OW19666   0.996   2.642   4.841 -0.5075  0.1287  0.1129
 2736SOL    HW119667   1.036   2.615   4.758 -0.7468  0.2905 -0.0522
 2736SOL    HW219668   0.956   2.721   4.806 -0.4433  0.8526  1.6630
 2737SOL     OW19669   2.921   2.117   9.230 -0.1358 -0.9723 -0.6286
 2737SOL    HW119670   2.904   2.178   9.158 -0.9445 -2.1431 -1.4329
 2737SOL    HW219671   2.899   2.171   9.306  2.2553  3.8499 -3.4020
 2738SOL     OW19672   0.965   4.571   4.081  0.1577  0.3497  0.0378
 2738SOL    HW119673   1.021   4.643   4.108 -2.1567  1.8301  0.8649
 2738SOL    HW219674   1.026   4.513   4.034 -1.7980 -1.9799  0.3485
 2739SOL     OW19675   0.149   3.701   5.556 -0.4586 -0.5256 -0.2000
 2739SOL    HW119676   0.131   3.763   5.486  1.0669  0.0993 -0.0282
 2739SOL    HW219677   0.113   3.752   5.629 -1.1243 -0.5335 -0.5270
 2740SOL     OW19678   3.376   0.378   2.398  0.4289  0.2406 -0.0183
 2740SOL    HW119679   3.313   0.362   2.328  0.4840 -1.0409  0.2394
 2740SOL    HW219680   3.328   0.348   2.475  3.8914 -0.6006  1.8286
 2741SOL     OW19681   2.971   1.218   2.671  0.0956  0.4412 -0.0750
 2741SOL    HW119682   3.028   1.163   2.617 -1.2009 -2.3161  1.3983
 2741SOL    HW219683   2.965   1.160   2.747 -0.1422  0.2830 -0.2155
 2742SOL     OW19684   1.165   2.356   2.596  0.2153 -0.3780  0.0111
 2742SOL    HW119685   1.223   2.326   2.666 -0.1897  0.6566  0.7968
 2742SOL    HW219686   1.144   2.272   2.555 -0.6819  0.3830 -1.0829
 2743SOL     OW19687   0.805   2.105   4.749 -0.1647  0.5171 -0.0492
 2743SOL    HW119688   0.787   2.073   4.838  1.0464  0.5920  0.2297
 2743SOL    HW219689   0.900   2.108   4.741 -0.1431  1.1025  0.4540
 2744SOL     OW19690   3.725   1.746   2.157 -0.1264  0.0874 -0.3598
 2744SOL    HW119691   3.800   1.798   2.128  0.6280 -0.8061 -0.0215
 2744SOL    HW219692   3.706   1.687   2.084  0.1919 -1.8706  1.1395
 2745SOL     OW19693   1.705   3.926   1.841 -0.2780 -0.2868  0.1528
 2745SOL    HW119694   1.630   3.869   1.821 -1.9538  0.6140  3.8257
 2745SOL    HW219695   1.682   3.959   1.928  2.7080  0.4354  0.6502
 2746SOL     OW19696   4.114   0.903  13.111  0.2227  0.4721  0.0489
 2746SOL    HW119697   4.074   0.965  13.050 -0.0577 -0.7655 -1.0357
 2746SOL    HW219698   4.087   0.821  13.069 -0.6790  0.2141  1.1449
 2747SOL     OW19699   1.307   0.549   6.284 -0.2950 -0.7368  0.0290
 2747SOL    HW119700   1.221   0.511   6.300  0.5716 -2.6116  0.2170
 2747SOL    HW219701   1.360   0.501   6.348 -2.1269 -1.1258  1.2586
 2748SOL     OW19702   1.465   1.058   1.388 -0.4001 -0.3470  0.8347
 2748SOL    HW119703   1.541   1.011   1.423  0.6801  0.5082 -0.3794
 2748SOL    HW219704   1.453   1.130   1.450 -0.3956 -0.7458  1.2974
 2749SOL     OW19705   2.294   3.409   4.506  0.5504 -0.5226 -0.0475
 2749SOL    HW119706   2.238   3.431   4.580  2.7415 -0.9864  1.7313
 2749SOL    HW219707   2.372   3.393   4.559  0.1091  0.3854  0.8842
 2750SOL     OW19708   1.899   4.436  11.335 -0.1102  0.1168  0.5027
 2750SOL    HW119709   1.963   4.370  11.307 -3.4786 -1.9143 -2.4422
 2750SOL    HW219710   1.852   4.423  11.252  0.7635 -1.3909  0.2380
 2751SOL     OW19711   2.715   3.692   5.180  0.2536 -0.3762 -0.1374
 2751SOL    HW119712   2.684   3.753   5.113 -0.8673 -0.1343  0.6161
 2751SOL    HW219713   2.696   3.608   5.137 -2.4996  0.1653  0.0226
 2752SOL     OW19714   3.299   0.549   8.371  0.4167  0.4710  0.9375
 2752SOL    HW119715   3.334   0.511   8.452  0.3184  1.6131  1.5146
 2752SOL    HW219716   3.381   0.567   8.325  0.6648  1.9998  1.9801
 2753SOL     OW19717   0.072   4.374  16.360 -0.0043  0.0492  0.8853
 2753SOL    HW119718   0.060   4.398  16.268 -2.2789 -2.2505  0.5920
 2753SOL    HW219719   4.720   4.320  16.383  0.0557 -0.9465 -1.2215
 2754SOL     OW19720   3.742   4.004   0.869  0.2667 -0.0803  0.4041
 2754SOL    HW119721   3.713   3.987   0.779  0.0811  1.0179  0.2625
 2754SOL    HW219722   3.781   4.090   0.859 -0.6847  0.4013  0.8712
 2755SOL     OW19723   0.205   1.758   8.502  0.1982 -0.2372  0.2441
 2755SOL    HW119724   0.162   1.725   8.581 -0.2649  2.0145  0.9344
 2755SOL    HW219725   0.127   1.788   8.455  0.4031 -0.0174  0.0439
 2756SOL     OW19726   4.468   1.072   5.028  0.0726  0.3489  0.1808
 2756SOL    HW119727   4.451   1.161   4.997  2.6205  1.4633  1.9350
 2756SOL    HW219728   4.405   1.066   5.099 -0.1492 -0.5036 -0.0978
 2757SOL     OW19729   2.247   0.214   0.484  0.0530  0.2831 -0.0955
 2757SOL    HW119730   2.176   0.162   0.522  0.7132 -0.9603 -0.5753
 2757SOL    HW219731   2.226   0.184   0.396 -2.1742  0.7656  0.2768
 2758SOL     OW19732   1.665   3.536   7.930  0.2440 -0.2457  0.7518
 2758SOL    HW119733   1.687   3.529   7.837 -0.3879 -0.9165  0.6531
 2758SOL    HW219734   1.589   3.593   7.917 -0.5574 -1.9611 -2.1807
 2759SOL     OW19735   0.883   1.925  15.500  0.4970 -0.2733  0.1800
 2759SOL    HW119736   0.807   1.981  15.515  2.7687  2.9878 -0.6123
 2759SOL    HW219737   0.911   1.956  15.414 -1.6855 -0.9760 -0.7798
 2760SOL     OW19738   0.839   0.286   4.290 -0.7702  0.4530 -0.7054
 2760SOL    HW119739   0.879   0.372   4.301 -1.9827  0.9547 -0.2269
 2760SOL    HW219740   0.766   0.308   4.233 -0.9968  1.9123  0.1533
 2761SOL     OW19741   3.272   2.542   1.809 -0.4259  0.2998  0.0566
 2761SOL    HW119742   3.222   2.470   1.846  0.2180 -1.0869 -1.7366
 2761SOL    HW219743   3.285   2.595   1.887  2.8531  0.8408 -0.8234
 2762SOL     OW19744   3.942   0.146   2.379  0.4172 -0.9362 -0.3604
 2762SOL    HW119745   4.011   0.200   2.341 -0.8927  0.5357 -0.6576
 2762SOL    HW219746   3.869   0.189   2.335  0.5419 -0.0282  0.3138
 2763SOL     OW19747   1.522   4.166   7.197 -0.4390  0.5981 -0.5905
 2763SOL    HW119748   1.592   4.122   7.149  0.3133 -1.0030  1.9982
 2763SOL    HW219749   1.446   4.136   7.147 -1.1463  1.1876  0.1352
 2764SOL     OW19750   1.385   2.899   4.347  0.0264 -0.5513 -0.4121
 2764SOL    HW119751   1.348   2.935   4.427 -0.1451  0.6936 -1.0469
 2764SOL    HW219752   1.477   2.926   4.350  0.4143 -1.9309  0.0876
 2765SOL     OW19753   1.287   1.226   3.581  0.2487 -0.2465  0.3196
 2765SOL    HW119754   1.192   1.210   3.587  0.4669 -0.3194  3.5244
 2765SOL    HW219755   1.302   1.319   3.566 -0.9433 -0.2393 -0.8694
 2766SOL     OW19756   4.587   3.110   9.040  0.2607  0.9425  0.8692
 2766SOL    HW119757   4.512   3.105   9.100 -1.2251 -0.4541 -1.1233
 2766SOL    HW219758   4.543   3.169   8.980 -1.0656  0.3490  1.2554
 2767SOL     OW19759   0.993   4.021   5.953 -0.6798 -0.4574  0.5944
 2767SOL    HW119760   0.909   4.052   5.920 -0.3446 -0.7385 -0.5242
 2767SOL    HW219761   0.991   4.063   6.039 -1.5074 -1.2092  0.9482
 2768SOL     OW19762   2.990   3.554   0.249 -0.2308  0.0593  0.0610
 2768SOL    HW119763   2.934   3.496   0.300 -0.5532 -0.9959 -1.5046
 2768SOL    HW219764   2.919   3.591   0.197  0.7964  1.7239 -0.1769
 2769SOL     OW19765   4.308   1.139   5.512 -0.1323  0.1685  0.1154
 2769SOL    HW119766   4.366   1.191   5.568 -0.5553 -0.7426  1.3889
 2769SOL    HW219767   4.335   1.183   5.431  1.0447  0.7953  0.8376
 2770SOL     OW19768   2.385   4.198   4.943  0.1871 -0.0327  0.1450
 2770SOL    HW119769   2.328   4.141   4.995 -0.3424 -0.8586 -1.3298
 2770SOL    HW219770   2.357   4.175   4.854 -0.6380  1.3659  0.0446
 2771SOL     OW19771   0.433   3.123   1.951  0.2899  0.0677 -0.0536
 2771SOL    HW119772   0.490   3.055   1.916  3.1822  2.3554  0.1569
 2771SOL    HW219773   0.501   3.175   1.995  1.5595 -0.9682 -0.7939
 2772SOL     OW19774   4.717   3.813   9.423  0.4414 -0.2161  0.0490
 2772SOL    HW119775   4.646   3.810   9.486 -0.0994 -1.3060 -0.6225
 2772SOL    HW219776   0.068   3.771   9.464  0.8417 -1.4398 -1.9414
 2773SOL     OW19777   2.567   3.391   4.601  0.1196 -0.5804  0.2844
 2773SOL    HW119778   2.602   3.352   4.521 -0.4463 -0.9415  0.2114
 2773SOL    HW219779   2.610   3.346   4.674  2.4857 -0.4542 -1.0323
 2774SOL     OW19780   0.034   4.110  17.659  0.0332  0.3968  0.0045
 2774SOL    HW119781   0.080   4.094  17.576 -0.4427  0.4515 -0.2666
 2774SOL    HW219782   4.699   4.174  17.620  0.1923  0.6116  0.1157
 2775SOL     OW19783   0.700   1.315   1.690 -0.1046 -0.1100  0.7377
 2775SOL    HW119784   0.630   1.252   1.668 -0.8062  0.0156  2.6324
 2775SOL    HW219785   0.766   1.311   1.621  1.8188  1.0420  2.5497
 2776SOL     OW19786   0.329   2.844   2.787 -0.2486 -0.0640  0.3269
 2776SOL    HW119787   0.295   2.784   2.854 -2.1827  1.8706  1.0668
 2776SOL    HW219788   0.370   2.779   2.731  0.1753  1.3907 -1.0306
 2777SOL     OW19789   1.121   3.785   5.946 -0.4490 -0.4152 -0.5718
 2777SOL    HW119790   1.080   3.865   5.980  1.2408  1.2281 -2.3951
 2777SOL    HW219791   1.056   3.772   5.877 -0.3924 -1.1746 -0.4844
 2778SOL     OW19792   2.916   2.005  15.806 -0.7382 -0.2396 -0.3080
 2778SOL    HW119793   2.959   1.927  15.841 -0.1423 -0.3452 -1.2696
 2778SOL    HW219794   2.926   1.994  15.711  0.4121  2.1287 -0.4461
 2779SOL     OW19795   0.757   2.837  15.187  0.1452  0.3676  0.8324
 2779SOL    HW119796   0.827   2.791  15.234  1.0696  1.0907  0.1495
 2779SOL    HW219797   0.814   2.873  15.119 -0.6522  1.2308  0.6257
 2780SOL     OW19798   1.262   0.244   0.948 -0.8348 -0.3317  0.6168
 2780SOL    HW119799   1.313   0.306   1.000  0.8536 -1.4003  0.2212
 2780SOL    HW219800   1.335   0.187   0.927  0.4514  1.7274 -0.4476
 2781SOL     OW19801   4.253   3.723  14.124 -0.2029 -0.4629 -0.3879
 2781SOL    HW119802   4.175   3.759  14.081  0.9470  2.4392 -0.0797
 2781SOL    HW219803   4.323   3.788  14.119  0.3577 -0.9451  1.1112
 2782SOL     OW19804   1.550   1.916   7.456 -0.2394  0.6146  0.2443
 2782SOL    HW119805   1.582   2.005   7.442  3.0106 -0.8100 -1.3460
 2782SOL    HW219806   1.620   1.867   7.414  0.1489 -0.4316  2.1199
 2783SOL     OW19807   0.395   1.776   5.404 -0.5898  0.2456  0.2184
 2783SOL    HW119808   0.308   1.738   5.391 -1.3297  2.1270 -0.3733
 2783SOL    HW219809   0.390   1.847   5.341 -0.3204  0.3952  0.3664
 2784SOL     OW19810   4.397   2.687   6.252 -0.0608  0.3087  0.4537
 2784SOL    HW119811   4.457   2.712   6.322  1.0298 -4.3621  1.2218
 2784SOL    HW219812   4.454   2.632   6.197 -0.4987  1.3788 -1.0637
 2785SOL     OW19813   2.782   3.173  14.760  0.2419 -0.6094 -0.2679
 2785SOL    HW119814   2.779   3.257  14.807 -0.2938 -0.1016 -1.2131
 2785SOL    HW219815   2.782   3.213  14.673  0.0299 -1.5405 -0.6985
 2786SOL     OW19816   1.899   0.389   9.854 -0.2661 -0.3349 -0.0443
 2786SOL    HW119817   1.939   0.462   9.807  0.1439 -0.6096 -0.1254
 2786SOL    HW219818   1.972   0.333   9.880 -0.0908 -0.1637 -0.1705
 2787SOL     OW19819   3.094   0.173   7.298  0.2645 -0.4484 -0.1676
 2787SOL    HW119820   3.052   0.096   7.336  1.9836 -0.7047  1.1646
 2787SOL    HW219821   3.056   0.181   7.210 -0.9112 -1.3080  0.2627
 2788SOL     OW19822   2.123   0.405   7.367  0.6094  0.1331 -0.4362
 2788SOL    HW119823   2.118   0.381   7.460 -0.4666 -0.6727 -0.6932
 2788SOL    HW219824   2.080   0.336   7.317  1.3141 -0.4375 -0.2518
 2789SOL     OW19825   0.030   4.352   8.775  0.1637 -0.2098 -0.0575
 2789SOL    HW119826   0.089   4.297   8.826  0.3712  1.9805  2.0032
 2789SOL    HW219827   4.719   4.411   8.841  0.1692  0.2314 -0.4473
 2790SOL     OW19828   3.866   2.935   7.752  0.2125 -0.0813  0.5619
 2790SOL    HW119829   3.802   3.007   7.750 -0.3384 -0.6847 -3.8548
 2790SOL    HW219830   3.843   2.879   7.678  2.5499  0.2979 -0.4697
 2791SOL     OW19831   4.197   2.393   8.227  0.0991 -0.0384  0.5772
 2791SOL    HW119832   4.211   2.329   8.157  0.8405 -1.2155  1.7967
 2791SOL    HW219833   4.229   2.340   8.300 -1.4104  0.4924  1.6188
 2792SOL     OW19834   0.038   2.111   9.312 -0.4582 -0.1810 -0.3190
 2792SOL    HW119835   4.671   2.080   9.305 -0.0121 -1.4853 -0.3731
 2792SOL    HW219836   0.085   2.029   9.324  1.6197  1.1197  0.2963
 2793SOL     OW19837   3.355   3.368   5.733  0.0535  0.0226  0.4394
 2793SOL    HW119838   3.422   3.436   5.735 -2.0500  2.1763 -2.7055
 2793SOL    HW219839   3.364   3.302   5.803  1.0997 -0.5140 -0.2037
 2794SOL     OW19840   2.439   4.029   4.414  0.8561  0.1345  0.3491
 2794SOL    HW119841   2.391   3.954   4.381  2.3882 -0.6686 -0.0491
 2794SOL    HW219842   2.423   4.103   4.355  0.4366 -0.6869 -0.5695
 2795SOL     OW19843   0.830   4.186   3.378  0.5188  0.5717 -0.5370
 2795SOL    HW119844   0.845   4.248   3.306  0.3050 -2.3952 -3.1109
 2795SOL    HW219845   0.737   4.171   3.359  0.7834 -1.4905 -0.1158
 2796SOL     OW19846   2.640   3.366  15.176 -0.0381  0.1466  0.7505
 2796SOL    HW119847   2.609   3.433  15.116  0.0099 -0.0438  0.5129
 2796SOL    HW219848   2.725   3.342  15.139 -0.0842  0.2259  0.5921
 2797SOL     OW19849   0.964   3.305   7.814 -0.0383  0.1664 -0.3353
 2797SOL    HW119850   0.910   3.383   7.816  0.8432  0.7267  1.7140
 2797SOL    HW219851   1.017   3.319   7.892  0.5015  1.2943 -0.9144
 2798SOL     OW19852   2.940   2.452  15.337  0.7411  0.1872 -0.3459
 2798SOL    HW119853   2.937   2.514  15.264 -2.1630 -2.7027 -2.6933
 2798SOL    HW219854   3.021   2.406  15.312  0.3969 -1.1127  0.9712
 2799SOL     OW19855   2.152   4.075  10.747  0.0478  0.0075  0.5597
 2799SOL    HW119856   2.063   4.099  10.719 -0.2900 -1.2916  0.5495
 2799SOL    HW219857   2.172   3.999  10.693  2.4006  0.1523  1.2330
 2800SOL     OW19858   2.860   3.972   3.687 -0.5474  0.1609 -0.0934
 2800SOL    HW119859   2.938   3.920   3.671 -0.4845  0.3598 -0.4429
 2800SOL    HW219860   2.785   3.921   3.656 -0.7757 -0.1285  0.9259
 2801SOL     OW19861   0.086   1.378   5.302 -0.0264  0.0206  0.3187
 2801SOL    HW119862   0.068   1.380   5.208  0.1817 -0.1753  0.2723
 2801SOL    HW219863   0.026   1.444   5.336 -0.6074  1.2072 -2.9299
 2802SOL     OW19864   1.321   0.189   1.476 -0.0434  0.0546 -0.8066
 2802SOL    HW119865   1.286   0.243   1.405 -1.8793 -0.6672 -0.4589
 2802SOL    HW219866   1.398   0.151   1.435  0.2198  2.1874 -2.3235
 2803SOL     OW19867   1.213   2.575   3.286 -0.1620 -0.2756  0.7603
 2803SOL    HW119868   1.243   2.515   3.219  2.1160  0.4444  1.1320
 2803SOL    HW219869   1.241   2.660   3.251 -0.9223 -0.0333  0.7371
 2804SOL     OW19870   3.427   0.562   1.171  0.0882  0.0726  0.2139
 2804SOL    HW119871   3.497   0.501   1.146  0.5806  2.2938 -3.7628
 2804SOL    HW219872   3.351   0.519   1.131 -0.3664 -0.2641  1.4350
 2805SOL     OW19873   1.805   4.006   9.740  0.4442 -0.3777  0.5667
 2805SOL    HW119874   1.744   3.958   9.797  1.3236 -1.3503  0.7028
 2805SOL    HW219875   1.744   4.072   9.709  0.6966  0.8143  2.6495
 2806SOL     OW19876   1.912   3.267  14.897  0.2498 -0.5308 -0.1379
 2806SOL    HW119877   1.927   3.202  14.965 -1.7837  0.9878  1.7462
 2806SOL    HW219878   1.915   3.219  14.814 -1.4682 -0.4553 -0.2558
 2807SOL     OW19879   0.566   2.769   2.993  0.0561 -0.2356  0.0954
 2807SOL    HW119880   0.531   2.857   2.978 -1.6630 -0.5365  2.3567
 2807SOL    HW219881   0.483   2.724   3.008  1.1090 -2.7379 -1.6042
 2808SOL     OW19882   2.063   2.532   0.374  0.3264  0.4035  0.1485
 2808SOL    HW119883   1.980   2.577   0.385 -0.5820 -1.0008 -0.8930
 2808SOL    HW219884   2.027   2.443   0.377  0.1425  0.5258  1.9128
 2809SOL     OW19885   0.892   0.200   6.579  0.5059  0.0745 -0.0118
 2809SOL    HW119886   0.908   0.284   6.623  0.5243  0.9243 -1.6591
 2809SOL    HW219887   0.806   0.210   6.538  1.5622 -0.9543 -2.4889
 2810SOL     OW19888   4.283   3.106   4.313 -0.8530  0.3102 -0.0578
 2810SOL    HW119889   4.350   3.082   4.378 -1.5264 -1.3214  0.0239
 2810SOL    HW219890   4.339   3.133   4.241  0.0308 -1.0384  0.1213
 2811SOL     OW19891   1.505   4.213   2.202  0.4846 -0.1533 -0.4159
 2811SOL    HW119892   1.465   4.290   2.160 -2.0340 -0.4110  1.5224
 2811SOL    HW219893   1.435   4.187   2.262 -0.3659 -1.2524 -1.8796
 2812SOL     OW19894   1.329   1.003   7.922 -0.1716  0.3626 -0.1191
 2812SOL    HW119895   1.325   1.076   7.983 -1.7941 -1.0695  1.5259
 2812SOL    HW219896   1.243   1.019   7.883 -0.4777  2.3657  1.3613
 2813SOL     OW19897   1.187   1.792  16.881 -0.2664  0.5510  0.0047
 2813SOL    HW119898   1.110   1.743  16.909  0.3525  0.1939  1.0815
 2813SOL    HW219899   1.221   1.821  16.966  0.1351 -0.1527  0.0815
 2814SOL     OW19900   1.995   2.554   7.259  0.3447 -0.0978  0.3008
 2814SOL    HW119901   2.073   2.610   7.259 -0.8437  1.5550 -0.8572
 2814SOL    HW219902   1.991   2.557   7.164  0.4136  0.4187  0.3155
 2815SOL     OW19903   3.760   2.199  12.542 -0.1962  0.0877  0.1016
 2815SOL    HW119904   3.766   2.146  12.620  0.2019  0.5086  0.3576
 2815SOL    HW219905   3.677   2.172  12.503 -1.0443  1.6863  0.7975
 2816SOL     OW19906   1.704   2.185   4.714  0.1611 -0.5034  0.7576
 2816SOL    HW119907   1.662   2.187   4.629 -1.5577 -0.9330  1.6021
 2816SOL    HW219908   1.787   2.142   4.691 -0.3167 -0.8372 -0.3408
 2817SOL     OW19909   2.304   0.648  16.778 -0.3338  0.1075  0.2330
 2817SOL    HW119910   2.394   0.681  16.785 -1.0438  2.4122 -1.7336
 2817SOL    HW219911   2.264   0.735  16.776  0.6427  0.5875  1.2079
 2818SOL     OW19912   1.031   0.928  15.214  0.2782 -0.3629  0.0301
 2818SOL    HW119913   0.983   0.853  15.248  0.7911  0.5727  2.7927
 2818SOL    HW219914   0.984   0.998  15.258 -0.6410 -2.7246  2.7876
 2819SOL     OW19915   1.994   1.287   4.147 -0.4137  0.4224  0.6515
 2819SOL    HW119916   1.932   1.358   4.163 -1.7590 -0.9007  1.2873
 2819SOL    HW219917   2.070   1.340   4.123  0.5791 -1.6478 -0.7661
 2820SOL     OW19918   2.246   4.466  10.831 -0.2464 -0.2015  0.1892
 2820SOL    HW119919   2.207   4.552  10.849 -1.6478 -0.4819 -1.5387
 2820SOL    HW219920   2.312   4.464  10.901 -1.6237 -2.0329  1.4507
 2821SOL     OW19921   0.515   0.307  16.107  0.0989  0.0140 -0.5243
 2821SOL    HW119922   0.465   0.253  16.169  0.3992  1.5555  1.0436
 2821SOL    HW219923   0.457   0.378  16.080 -0.4676 -0.7513 -1.3098
 2822SOL     OW19924   3.440   3.296   4.726 -0.3097  0.0668  0.0738
 2822SOL    HW119925   3.452   3.375   4.673  0.4414  0.1947  0.4471
 2822SOL    HW219926   3.346   3.277   4.719 -0.2798  0.8265 -2.4367
 2823SOL     OW19927   3.274   3.802  15.804 -0.3810  0.7297  0.5307
 2823SOL    HW119928   3.240   3.728  15.854  0.6631  0.9476  1.5595
 2823SOL    HW219929   3.368   3.798  15.825 -0.1257 -1.0846 -0.9857
 2824SOL     OW19930   3.911   2.687   4.954  0.1256  0.4659  0.1730
 2824SOL    HW119931   3.952   2.771   4.977  0.3975  0.7192 -1.2044
 2824SOL    HW219932   3.819   2.713   4.957  0.3727  1.4010 -0.2334
 2825SOL     OW19933   3.140   3.511  11.029 -0.1159  0.2426 -0.3953
 2825SOL    HW119934   3.078   3.583  11.039 -2.1502 -1.4172 -0.9575
 2825SOL    HW219935   3.198   3.531  11.102 -1.0223  0.5981  0.2232
 2826SOL     OW19936   2.462   0.913   6.907 -0.2885 -0.4210  0.6237
 2826SOL    HW119937   2.461   0.818   6.921  0.9930 -0.8273 -2.0451
 2826SOL    HW219938   2.367   0.928   6.908 -0.7064 -2.8717 -1.2443
 2827SOL     OW19939   4.612   4.180   6.703  0.6457 -0.4852  0.1432
 2827SOL    HW119940   4.525   4.190   6.665  0.5595 -1.6538  0.0089
 2827SOL    HW219941   4.600   4.227   6.785  1.6087 -0.4149  0.2423
 2828SOL     OW19942   3.257   1.635   7.534 -0.2384  0.3018  0.6774
 2828SOL    HW119943   3.224   1.723   7.548 -1.0616  0.0647  0.1771
 2828SOL    HW219944   3.179   1.613   7.485  1.6944 -0.8144 -1.9114
 2829SOL     OW19945   1.328   4.208   1.809  0.3362 -0.0096 -0.1875
 2829SOL    HW119946   1.302   4.284   1.758  1.1665  2.0913  2.5356
 2829SOL    HW219947   1.384   4.172   1.739 -0.1200 -1.2585  0.0967
 2830SOL     OW19948   2.273   0.673   4.486  0.2628  0.0997 -0.8700
 2830SOL    HW119949   2.272   0.767   4.467 -1.6337  0.5495  1.5215
 2830SOL    HW219950   2.207   0.647   4.421 -0.4792 -0.4387  0.1094
 2831SOL     OW19951   4.249   3.093   8.425 -0.3151  0.1266  0.0531
 2831SOL    HW119952   4.205   3.019   8.466  0.5157  0.5122  1.6482
 2831SOL    HW219953   4.174   3.151   8.432 -0.0330  0.1513  2.8081
 2832SOL     OW19954   1.311   2.133   9.667  0.2002 -0.5248 -0.2901
 2832SOL    HW119955   1.347   2.072   9.731 -1.8700 -1.8564 -0.3993
 2832SOL    HW219956   1.332   2.220   9.702  1.5168 -0.7261 -0.5945
 2833SOL     OW19957   4.041   0.440   6.029  0.3389 -0.1570  0.4337
 2833SOL    HW119958   4.044   0.457   6.123  1.5864 -1.2975  0.5904
 2833SOL    HW219959   3.955   0.398   6.029  0.3019 -0.0707  2.1084
 2834SOL     OW19960   3.203   3.214   7.821  0.2154 -0.2069  0.3985
 2834SOL    HW119961   3.113   3.194   7.849  0.5294 -3.2831 -0.7758
 2834SOL    HW219962   3.243   3.130   7.844 -0.0771 -0.4750 -0.0681
 2835SOL     OW19963   2.619   1.606   5.506 -0.5875  0.0026 -0.0341
 2835SOL    HW119964   2.676   1.656   5.565 -0.8814 -0.0298  0.2798
 2835SOL    HW219965   2.678   1.603   5.431 -0.7350 -0.5426 -0.1266
 2836SOL     OW19966   2.546   0.745   8.276  0.3968 -0.1389 -0.1760
 2836SOL    HW119967   2.491   0.704   8.209  0.2623  2.4808 -1.6509
 2836SOL    HW219968   2.481   0.764   8.344  0.3266  2.3880 -0.9609
 2837SOL     OW19969   2.498   2.740   5.414 -0.4157 -0.3339 -0.4693
 2837SOL    HW119970   2.443   2.662   5.423  0.1441 -0.4904  1.6731
 2837SOL    HW219971   2.521   2.732   5.322  0.7502 -0.2665 -0.1851
 2838SOL     OW19972   1.306   3.595   7.673 -0.1187 -0.1706 -0.4576
 2838SOL    HW119973   1.224   3.582   7.721 -0.0148 -1.8955 -0.7105
 2838SOL    HW219974   1.344   3.663   7.728 -1.5151 -0.2769  0.6474
 2839SOL     OW19975   3.393   0.547   3.697 -0.1882 -0.4483 -0.0804
 2839SOL    HW119976   3.431   0.518   3.615 -2.4583 -0.8097 -1.0002
 2839SOL    HW219977   3.308   0.577   3.666  0.1262  0.3783 -0.1595
 2840SOL     OW19978   0.846   4.054   5.376 -0.2461 -0.9814 -0.1879
 2840SOL    HW119979   0.879   4.143   5.379  0.5919 -1.2470 -1.9485
 2840SOL    HW219980   0.844   4.030   5.469  2.2183  0.8645  0.3202
 2841SOL     OW19981   3.456   3.578   2.867 -0.0258  0.3806  0.0374
 2841SOL    HW119982   3.512   3.596   2.943  0.6661 -2.1334  0.1050
 2841SOL    HW219983   3.521   3.597   2.800  1.2528 -3.3557  0.2488
 2842SOL     OW19984   1.318   2.212  12.379 -0.1423 -0.4102  0.2579
 2842SOL    HW119985   1.327   2.271  12.305  0.7171 -1.2211 -0.2868
 2842SOL    HW219986   1.407   2.217  12.414 -0.0069 -1.6502  0.1192
 2843SOL     OW19987   2.188   2.769   2.208 -0.2669 -0.2444  0.2396
 2843SOL    HW119988   2.152   2.730   2.128 -4.3046  1.0899  1.3920
 2843SOL    HW219989   2.254   2.826   2.169 -1.0293 -0.3624 -1.2401
 2844SOL     OW19990   3.754   3.995   1.145  0.3945 -0.0837  0.1048
 2844SOL    HW119991   3.769   4.017   1.053 -1.5646  2.0965  0.3058
 2844SOL    HW219992   3.759   3.900   1.135  3.0010  0.1569 -0.8372
 2845SOL     OW19993   0.742   1.300   6.406 -0.2120  0.0342 -0.2687
 2845SOL    HW119994   0.753   1.329   6.316 -1.1578 -0.3803 -0.5096
 2845SOL    HW219995   0.754   1.378   6.461 -1.3287  0.5475 -0.7732
 2846SOL     OW19996   3.949   3.440   9.521 -0.2411 -0.4109 -0.1215
 2846SOL    HW119997   3.906   3.515   9.563  1.2420  0.4405 -0.1306
 2846SOL    HW219998   4.000   3.484   9.453  1.9591  0.4451  2.0889
 2847SOL     OW19999   1.898   3.970   1.317  0.2845  0.4014 -0.6794
 2847SOL    HW120000   1.882   3.883   1.281  1.6836 -0.6511  1.2314
 2847SOL    HW220001   1.857   3.972   1.403  2.0910 -0.3697  0.1915
 2848SOL     OW20002   2.809   1.403   7.152  0.3641 -0.5766  0.3658
 2848SOL    HW120003   2.749   1.422   7.079  1.3567  0.0032 -0.3074
 2848SOL    HW220004   2.822   1.490   7.190  1.0000 -0.5523  0.1026
 2849SOL     OW20005   0.567   4.338   4.731 -0.0454 -0.0782  0.8790
 2849SOL    HW120006   0.548   4.255   4.775 -1.3150 -1.2060 -1.8082
 2849SOL    HW220007   0.633   4.380   4.785  1.1692 -0.3299 -0.4018
 2850SOL     OW20008   0.341   3.380  16.772  0.1791 -0.3620 -0.1288
 2850SOL    HW120009   0.283   3.357  16.845  0.3456 -2.2207 -0.5612
 2850SOL    HW220010   0.427   3.399  16.809 -0.8622 -1.3285  2.7704
 2851SOL     OW20011   4.442   0.421  14.763  0.0410  0.3660  0.1999
 2851SOL    HW120012   4.378   0.437  14.833  1.8076  0.2675  1.8603
 2851SOL    HW220013   4.478   0.506  14.738  0.7249  0.0674  0.1585
 2852SOL     OW20014   3.475   2.939   8.946  0.2198 -0.2728 -0.0237
 2852SOL    HW120015   3.403   2.901   8.896 -0.6155  2.0009 -0.5136
 2852SOL    HW220016   3.537   2.866   8.944  2.3723  1.6105 -1.2478
 2853SOL     OW20017   0.983   4.429   8.929 -0.6208 -0.6509 -0.0278
 2853SOL    HW120018   0.977   4.454   9.021 -2.4336  0.9448 -0.6003
 2853SOL    HW220019   0.933   4.497   8.884 -0.5212  0.6368  1.8178
 2854SOL     OW20020   2.492   1.384   3.369  0.2352 -0.1844 -0.1816
 2854SOL    HW120021   2.455   1.424   3.291 -0.0427  0.2476  0.1699
 2854SOL    HW220022   2.456   1.431   3.444  1.3770 -1.5117  1.1870
 2855SOL     OW20023   2.814   4.596   5.540  0.6925  0.0832  0.8324
 2855SOL    HW120024   2.761   4.533   5.490  1.9536 -1.6567  1.7037
 2855SOL    HW220025   2.760   4.601   5.619 -0.0558  2.4571  0.1924
 2856SOL     OW20026   1.372   1.388   9.408 -0.3859 -0.4716  0.3382
 2856SOL    HW120027   1.374   1.446   9.484 -1.4712 -0.6796  0.5360
 2856SOL    HW220028   1.278   1.376   9.394 -0.5132  0.8215  0.1408
 2857SOL     OW20029   0.842   3.633   3.447 -0.0813  0.5309 -0.5453
 2857SOL    HW120030   0.910   3.654   3.383  1.9394  0.4683  1.5895
 2857SOL    HW220031   0.878   3.679   3.523 -0.8604  0.5403 -0.1738
 2858SOL     OW20032   3.305   4.506   8.550 -0.1539  0.0087 -0.4987
 2858SOL    HW120033   3.330   4.474   8.463  0.1353  2.4531 -1.3291
 2858SOL    HW220034   3.277   4.596   8.533 -0.1748 -0.2636 -1.9143
 2859SOL     OW20035   3.461   2.635   6.477  0.2121  0.3856  0.1707
 2859SOL    HW120036   3.400   2.695   6.435 -0.1942 -1.2127 -1.4690
 2859SOL    HW220037   3.549   2.657   6.447  0.6283 -2.2532 -0.4582
 2860SOL     OW20038   3.124   2.451   7.558 -0.3130 -0.0468  0.8139
 2860SOL    HW120039   3.047   2.476   7.507 -1.0290  4.0412  3.8682
 2860SOL    HW220040   3.089   2.459   7.647 -2.1842  0.0268  0.0528
 2861SOL     OW20041   1.905   2.625   1.718  0.4150  0.2824 -0.2361
 2861SOL    HW120042   1.847   2.549   1.710  1.3635 -0.3972 -0.5921
 2861SOL    HW220043   1.934   2.637   1.628 -0.1380 -1.0042 -0.5899
 2862SOL     OW20044   1.768   3.672   9.010 -0.3247 -0.4079  0.7544
 2862SOL    HW120045   1.720   3.609   9.063  1.1109  0.0255  2.5567
 2862SOL    HW220046   1.843   3.686   9.068  0.5658  0.3137 -0.5649
 2863SOL     OW20047   4.699   1.651   2.596 -0.6288 -0.1231 -0.5871
 2863SOL    HW120048   0.048   1.626   2.540  0.5924  0.1048  0.8812
 2863SOL    HW220049   0.004   1.735   2.633  1.1436 -0.5971 -0.8883
 2864SOL     OW20050   4.567   2.902   2.784 -0.3322 -0.7025 -0.4471
 2864SOL    HW120051   4.575   2.997   2.793 -1.2545 -0.7062  0.3831
 2864SOL    HW220052   4.473   2.887   2.789 -0.3491 -0.0556  1.4796
 2865SOL     OW20053   4.448   0.924   8.943  0.4768  0.7034 -0.1514
 2865SOL    HW120054   4.410   0.959   9.024 -1.7462 -0.9486 -0.4911
 2865SOL    HW220055   4.525   0.977   8.923  1.5774 -0.7771  0.1339
 2866SOL     OW20056   2.598   2.565   9.301  0.3216 -0.0530  0.0125
 2866SOL    HW120057   2.593   2.489   9.243  1.2215 -0.0731 -0.0408
 2866SOL    HW220058   2.517   2.558   9.352  0.1114  1.5076 -0.1005
 2867SOL     OW20059   1.198   2.749   7.998  0.1586  0.3720  0.2114
 2867SOL    HW120060   1.266   2.697   8.040 -1.7907 -2.8511 -0.5906
 2867SOL    HW220061   1.248   2.830   7.988  1.0261  0.1382  2.8421
 2868SOL     OW20062   3.712   0.323   7.685 -0.0110  0.0852 -0.6817
 2868SOL    HW120063   3.716   0.417   7.673 -0.3329  0.1422 -0.3599
 2868SOL    HW220064   3.617   0.318   7.674 -0.0732  0.8664 -0.4603
 2869SOL     OW20065   1.384   3.519   1.964 -0.2452  0.2958  0.2749
 2869SOL    HW120066   1.441   3.568   2.023  0.3121 -0.7891  0.6265
 2869SOL    HW220067   1.455   3.507   1.902 -0.5584  0.3779 -0.1029
 2870SOL     OW20068   2.450   1.086  16.729 -0.5435 -0.4313 -0.2341
 2870SOL    HW120069   2.382   1.019  16.733  0.5766 -1.7484 -3.1360
 2870SOL    HW220070   2.470   1.081  16.635  1.9213 -0.6367  0.2927
 2871SOL     OW20071   1.702   0.347   4.963  0.0857 -0.2492  0.0586
 2871SOL    HW120072   1.661   0.349   5.049  0.3197 -1.5800  0.1962
 2871SOL    HW220073   1.774   0.287   4.978  0.0060 -0.1299  0.9450
 2872SOL     OW20074   1.491   2.266   1.480  0.3994  0.0354 -0.1361
 2872SOL    HW120075   1.473   2.360   1.482  0.2545  0.0222 -0.6419
 2872SOL    HW220076   1.559   2.259   1.413 -0.5217 -1.1944 -0.9473
 2873SOL     OW20077   2.672   1.296   2.489 -0.2954  0.0150  0.2201
 2873SOL    HW120078   2.657   1.366   2.426 -0.8748 -2.1447 -2.0149
 2873SOL    HW220079   2.747   1.253   2.450 -0.1557  0.3929  0.0759
 2874SOL     OW20080   1.231   2.972   7.414 -0.2055  0.1147 -0.4791
 2874SOL    HW120081   1.161   2.961   7.349  0.2504 -0.4918 -0.8601
 2874SOL    HW220082   1.190   2.955   7.499  1.3306  1.3825  0.5138
 2875SOL     OW20083   3.391   4.188  11.392  1.0686  0.5061 -0.5029
 2875SOL    HW120084   3.409   4.241  11.470  0.1758  1.8196 -1.1715
 2875SOL    HW220085   3.433   4.106  11.419 -1.3391 -0.0060  1.7257
 2876SOL     OW20086   3.602   4.671   5.744 -0.2044  0.2296 -0.0041
 2876SOL    HW120087   3.597   0.042   5.746  2.5731  0.3753  0.0283
 2876SOL    HW220088   3.560   4.652   5.661 -3.9935  0.5647  1.8200
 2877SOL     OW20089   2.933   1.185   3.145  0.6761 -0.6744  0.2534
 2877SOL    HW120090   2.921   1.258   3.085 -0.1012 -0.1486  1.0600
 2877SOL    HW220091   2.997   1.217   3.209  0.1489 -0.7274  0.8001
 2878SOL     OW20092   2.020   3.559   3.945  0.2452 -0.1026 -0.1213
 2878SOL    HW120093   1.983   3.566   4.033  1.8957 -0.9092  0.6356
 2878SOL    HW220094   1.939   3.530   3.903 -0.0167  0.9192 -0.3198
 2879SOL     OW20095   2.382   0.597   5.667  0.4546 -0.0096  0.4423
 2879SOL    HW120096   2.352   0.666   5.726 -1.2181 -1.1330  0.9158
 2879SOL    HW220097   2.352   0.525   5.722 -1.2073  0.1608 -0.2179
 2880SOL     OW20098   0.747   0.460   9.270  0.6210 -0.6749 -0.0133
 2880SOL    HW120099   0.676   0.411   9.229 -1.1238  0.9417  1.0978
 2880SOL    HW220100   0.787   0.496   9.190  0.6376 -0.6442  0.0087
 2881SOL     OW20101   2.500   3.826   1.570 -0.8442 -0.6854  0.0103
 2881SOL    HW120102   2.446   3.900   1.595 -0.2899 -0.3307  0.1551
 2881SOL    HW220103   2.463   3.823   1.482  1.7350 -1.7193 -1.0264
 2882SOL     OW20104   3.005   0.952  14.244 -0.0884  0.4836 -0.1102
 2882SOL    HW120105   3.047   0.932  14.327  0.2015 -0.7103 -0.5412
 2882SOL    HW220106   3.075   0.902  14.203 -0.4717  1.5390 -2.0643
 2883SOL     OW20107   2.130   1.677   8.685  0.0865 -0.3348  0.0459
 2883SOL    HW120108   2.106   1.668   8.592 -3.1616 -2.6462  1.0789
 2883SOL    HW220109   2.181   1.757   8.677 -1.1153  0.4036 -0.1511
 2884SOL     OW20110   3.468   1.258   3.774 -0.0117 -0.5519  0.6902
 2884SOL    HW120111   3.547   1.207   3.753 -0.6940 -0.6466 -1.6244
 2884SOL    HW220112   3.496   1.341   3.737  0.8738 -1.6257 -1.0867
 2885SOL     OW20113   2.726   1.115  10.022 -0.2690  0.1291  0.4076
 2885SOL    HW120114   2.638   1.153  10.014  0.3493  1.0573 -1.8479
 2885SOL    HW220115   2.750   1.114   9.930  1.9111 -0.7764  0.9893
 2886SOL     OW20116   2.202   0.128  10.572 -0.0309  0.1607  0.4971
 2886SOL    HW120117   2.284   0.112  10.620 -1.8159 -3.2499  2.3962
 2886SOL    HW220118   2.188   0.223  10.575 -2.1683 -0.1203 -0.5205
 2887SOL     OW20119   4.000   2.173   5.355  0.0887 -0.1569 -0.0039
 2887SOL    HW120120   3.918   2.204   5.317  0.8294 -0.2357 -1.6972
 2887SOL    HW220121   4.002   2.095   5.300  0.2548 -0.7072  0.7822
 2888SOL     OW20122   4.590   4.275   8.531 -0.4600  0.0379  0.3744
 2888SOL    HW120123   4.652   4.320   8.589  2.0808 -1.1877 -1.4005
 2888SOL    HW220124   4.521   4.268   8.597 -0.5850 -2.7032 -0.0739
 2889SOL     OW20125   2.981   0.035   4.871 -0.5274  0.0624 -0.3742
 2889SOL    HW120126   2.940   0.087   4.940 -1.2279  0.7150 -1.2878
 2889SOL    HW220127   3.041   4.705   4.921 -1.7232 -1.8485 -1.0321
 2890SOL     OW20128   1.813   0.978  16.781 -0.0832 -0.5605 -0.0421
 2890SOL    HW120129   1.841   1.052  16.836 -0.0193 -0.4472 -0.2284
 2890SOL    HW220130   1.735   1.014  16.739 -0.4559  1.3074  2.2011
 2891SOL     OW20131   4.542   4.299  11.518  0.1766  0.2586  0.3360
 2891SOL    HW120132   4.500   4.381  11.493 -0.1859 -0.1821 -0.5104
 2891SOL    HW220133   4.614   4.326  11.575  0.4915 -0.1533  0.1427
 2892SOL     OW20134   3.801   1.683   8.812  0.0734  0.0053  0.0569
 2892SOL    HW120135   3.759   1.741   8.875  0.3955 -0.5110  0.7431
 2892SOL    HW220136   3.723   1.637   8.779 -1.2343  1.5071  1.0547
 2893SOL     OW20137   3.386   0.988   5.695 -0.2052 -0.4604  0.1445
 2893SOL    HW120138   3.374   0.946   5.780  2.0669  0.3715  0.8671
 2893SOL    HW220139   3.454   0.927   5.668 -0.5023 -1.0988  0.8358
 2894SOL     OW20140   1.896   3.503   2.039 -0.5540 -0.0365 -0.4012
 2894SOL    HW120141   1.986   3.496   2.009 -0.9900 -4.3652 -0.7750
 2894SOL    HW220142   1.852   3.481   1.956  0.0961  0.8906 -0.9913
 2895SOL     OW20143   3.087   0.944   3.585  0.2069  0.1585  0.6081
 2895SOL    HW120144   3.013   0.965   3.527 -0.3149 -0.7296  0.9481
 2895SOL    HW220145   3.072   1.012   3.650  1.3298 -0.6347  1.6894
 2896SOL     OW20146   1.014   3.941   4.631  0.0659  0.2007 -0.2009
 2896SOL    HW120147   1.040   3.937   4.539 -0.0017  0.1737 -0.2191
 2896SOL    HW220148   0.991   4.033   4.639 -1.5778 -0.1207 -1.2724
 2897SOL     OW20149   0.637   3.595   5.614  0.0488 -0.5536 -0.4484
 2897SOL    HW120150   0.571   3.614   5.547 -1.3819 -0.6417  0.9386
 2897SOL    HW220151   0.678   3.511   5.594  1.0237  0.2034 -1.6228
 2898SOL     OW20152   1.388   2.079   4.785 -0.3348  0.8190  0.8605
 2898SOL    HW120153   1.400   2.163   4.742  1.4385  1.3442  2.3842
 2898SOL    HW220154   1.466   2.056   4.834 -0.2504 -1.1667 -0.1888
 2899SOL     OW20155   3.501   4.485   7.390  0.1422  0.3338  0.3016
 2899SOL    HW120156   3.582   4.490   7.440  0.1558  0.3476  0.2782
 2899SOL    HW220157   3.535   4.523   7.309 -0.6469  0.5863  0.0881
 2900SOL     OW20158   1.556   1.821   2.360 -0.7288  0.1816  0.1474
 2900SOL    HW120159   1.586   1.767   2.433 -2.0011 -0.4733  0.1981
 2900SOL    HW220160   1.604   1.770   2.295  0.0344 -1.7266  2.1766
 2901SOL     OW20161   3.925   4.472   7.023  0.6051 -0.2866 -0.7754
 2901SOL    HW120162   3.992   4.405   7.010 -0.1394 -1.6793  2.5589
 2901SOL    HW220163   3.955   4.521   7.099 -1.1806 -0.4802  0.0453
 2902SOL     OW20164   1.880   0.606   6.648  0.1765  0.0723 -0.1424
 2902SOL    HW120165   1.972   0.595   6.625 -0.2095 -0.1782 -1.5612
 2902SOL    HW220166   1.833   0.642   6.573  0.7206  1.1590  0.0319
 2903SOL     OW20167   0.449   3.747   4.745  0.5421  0.0864 -0.2608
 2903SOL    HW120168   0.520   3.779   4.690  0.4318 -0.7636 -0.8949
 2903SOL    HW220169   0.366   3.787   4.720  0.0478 -1.4587 -1.0439
 2904SOL     OW20170   1.677   3.943   0.813 -0.1679  0.0276 -0.4035
 2904SOL    HW120171   1.764   3.904   0.811  0.2263  0.8639  0.2266
 2904SOL    HW220172   1.632   3.887   0.877  1.2609 -1.3133 -0.5594
 2905SOL     OW20173   4.469   3.122   3.460 -0.1963 -0.2092  0.0593
 2905SOL    HW120174   4.534   3.175   3.414 -0.2425 -1.0132 -0.9369
 2905SOL    HW220175   4.407   3.097   3.391 -0.6031 -0.0322  0.3593
 2906SOL     OW20176   4.635   2.509   4.033 -0.2387 -0.3958  0.3417
 2906SOL    HW120177   4.614   2.596   4.068  0.3601  0.1887 -0.7439
 2906SOL    HW220178   4.582   2.502   3.953  2.1600 -1.7591 -1.1231
 2907SOL     OW20179   1.058   1.543   1.291  0.9838 -0.3680  0.0449
 2907SOL    HW120180   0.995   1.577   1.228  0.5664 -1.1855  0.0200
 2907SOL    HW220181   1.128   1.606   1.274  1.3371 -0.4142  1.2816
 2908SOL     OW20182   3.596   3.715   7.929  0.0494  0.4887  0.3738
 2908SOL    HW120183   3.585   3.646   7.994  2.1290 -0.5653 -0.4005
 2908SOL    HW220184   3.620   3.787   7.987 -1.3892  0.8723  0.5005
 2909SOL     OW20185   3.318   3.236   5.352  0.2604 -0.1172  0.0811
 2909SOL    HW120186   3.227   3.250   5.377  0.8512 -0.0851  2.1509
 2909SOL    HW220187   3.336   3.169   5.418  0.3769 -0.3388 -0.1751
 2910SOL     OW20188   2.011   0.037   9.315 -0.2998 -0.3921  0.5243
 2910SOL    HW120189   2.095   0.048   9.271 -1.1959 -1.3443 -1.4024
 2910SOL    HW220190   1.942   0.089   9.276  0.7796 -0.2224 -1.1422
 2911SOL     OW20191   0.802   1.619   7.563  0.4430  0.5808  0.1435
 2911SOL    HW120192   0.716   1.578   7.575  0.6004  0.2345  0.0938
 2911SOL    HW220193   0.836   1.627   7.652  1.8543 -1.9737 -0.1626
 2912SOL     OW20194   1.901   2.177   3.676  0.1715 -0.0096 -0.1748
 2912SOL    HW120195   1.933   2.184   3.586  1.4439 -0.6976  0.2249
 2912SOL    HW220196   1.808   2.153   3.675  0.9068 -2.7579 -1.6691
 2913SOL     OW20197   3.468   4.168  17.657 -0.2020 -0.0789  0.1351
 2913SOL    HW120198   3.539   4.200   0.015 -1.4204  1.4670  0.8143
 2913SOL    HW220199   3.398   4.233  17.664  1.3603  1.7855 -1.3594
 2914SOL     OW20200   1.772   4.572   5.923 -0.2527 -0.4333  0.3576
 2914SOL    HW120201   1.783   4.490   5.875 -0.4070  0.3194 -0.9687
 2914SOL    HW220202   1.725   4.546   6.002 -0.3859  0.5880  0.6144
 2915SOL     OW20203   1.379   1.760  11.469 -0.3543  0.0750  0.1744
 2915SOL    HW120204   1.380   1.698  11.542  0.3058 -0.5564 -0.3734
 2915SOL    HW220205   1.315   1.719  11.411  0.8770 -1.3410 -0.1795
 2916SOL     OW20206   4.430   0.681   4.552  0.1399 -0.7237 -0.5279
 2916SOL    HW120207   4.522   0.656   4.542 -0.0674 -1.7255  0.0622
 2916SOL    HW220208   4.385   0.597   4.542 -0.9629 -0.0235 -1.4779
 2917SOL     OW20209   0.120   1.353   9.307  0.0876  0.1107 -0.2917
 2917SOL    HW120210   0.124   1.318   9.396 -1.7306  3.3213  1.0332
 2917SOL    HW220211   0.045   1.412   9.304  0.2892  0.3549 -0.4617
 2918SOL     OW20212   0.199   0.954  13.436  0.1562 -0.0851  0.6252
 2918SOL    HW120213   0.146   1.030  13.411  1.2118 -0.5994 -3.1573
 2918SOL    HW220214   0.269   0.963  13.373 -0.1798  1.3476  0.4665
 2919SOL     OW20215   1.163   2.487  10.811 -0.1788  0.8282 -0.1625
 2919SOL    HW120216   1.111   2.522  10.739  1.6224  0.9105 -1.4150
 2919SOL    HW220217   1.203   2.414  10.764  0.7215  0.4307  1.2547
 2920SOL     OW20218   1.853   2.566  11.536 -0.1314 -0.6267 -0.8452
 2920SOL    HW120219   1.849   2.618  11.456 -0.4775  0.9861  0.1930
 2920SOL    HW220220   1.840   2.639  11.597  2.9940 -0.2483 -0.6271
 2921SOL     OW20221   2.627   1.705   3.200 -0.7306 -0.5025  0.0760
 2921SOL    HW120222   2.633   1.781   3.142 -1.9077  0.3498  1.0860
 2921SOL    HW220223   2.532   1.691   3.200 -0.7474 -0.4060  0.6750
 2922SOL     OW20224   3.597   2.844   4.703  0.6080  0.0824  0.0423
 2922SOL    HW120225   3.606   2.934   4.734 -3.3833  1.0936 -1.6644
 2922SOL    HW220226   3.641   2.852   4.618  1.4139  0.8534  0.5367
 2923SOL     OW20227   2.669   4.512  15.117  0.0736 -0.2934  0.2400
 2923SOL    HW120228   2.674   4.602  15.149 -0.7417 -0.5982  1.2114
 2923SOL    HW220229   2.603   4.470  15.171  0.2192 -0.9112 -0.0583
 2924SOL     OW20230   2.976   1.550   6.472  0.1769 -0.5286 -0.2529
 2924SOL    HW120231   2.973   1.644   6.493  1.6127 -1.1781  2.8632
 2924SOL    HW220232   2.915   1.519   6.539  0.6946 -0.7037  0.1378
 2925SOL     OW20233   1.784   3.857   0.148 -0.2838  0.1284 -0.4913
 2925SOL    HW120234   1.783   3.793   0.078  3.2431 -0.1283 -0.3311
 2925SOL    HW220235   1.802   3.803   0.225  1.0194  0.5372 -0.5026
 2926SOL     OW20236   0.763   4.267   6.987 -0.4357  0.3797 -0.1239
 2926SOL    HW120237   0.771   4.346   6.934  1.3429  0.5298  0.3742
 2926SOL    HW220238   0.687   4.230   6.943 -0.5102  0.9963 -0.5055
 2927SOL     OW20239   0.214   3.420  12.872  0.1306 -0.4433 -0.4522
 2927SOL    HW120240   0.133   3.425  12.922  0.0059 -0.2040 -0.6747
 2927SOL    HW220241   0.276   3.486  12.905 -0.3370  1.1033 -2.5972
 2928SOL     OW20242   2.769   3.776   5.425 -0.6699 -0.2276 -0.1135
 2928SOL    HW120243   2.844   3.729   5.459  1.4636  3.5483  0.4171
 2928SOL    HW220244   2.763   3.726   5.344 -1.2056 -1.6705  0.8208
 2929SOL     OW20245   4.296   0.960   6.475  0.3198  0.5680  1.0703
 2929SOL    HW120246   4.272   1.011   6.552  2.9877 -2.7767  4.1540
 2929SOL    HW220247   4.271   1.026   6.411 -1.3887 -1.7485 -0.6092
 2930SOL     OW20248   4.070   1.445   7.705  0.2844  0.2734  0.3691
 2930SOL    HW120249   4.109   1.477   7.624  2.0219 -0.3185  0.9603
 2930SOL    HW220250   3.981   1.465   7.678  0.2487 -0.1909  0.1503
 2931SOL     OW20251   0.439   0.541   4.804  0.2157  0.4324 -0.3827
 2931SOL    HW120252   0.455   0.497   4.721  1.8535 -0.4041  0.3824
 2931SOL    HW220253   0.464   0.482   4.875  1.6508  1.5654  0.0482
 2932SOL     OW20254   2.446   1.660   4.123 -0.4585 -0.5034 -0.3959
 2932SOL    HW120255   2.475   1.640   4.034  1.3014  1.1565 -0.2110
 2932SOL    HW220256   2.504   1.733   4.145 -0.7072  0.5416 -3.1833
 2933SOL     OW20257   1.918   3.799   6.666  0.0675  0.3569  0.3516
 2933SOL    HW120258   1.872   3.859   6.607 -0.4264 -0.7284 -0.3556
 2933SOL    HW220259   1.984   3.859   6.700  0.3625  0.1313  0.1813
 2934SOL     OW20260   0.767   3.939   5.647  0.1377  0.0260 -0.4232
 2934SOL    HW120261   0.678   3.928   5.612 -0.1771  2.0372 -0.2855
 2934SOL    HW220262   0.763   4.025   5.689 -2.4130 -0.0334 -0.5518
 2935SOL     OW20263   2.272   3.511   3.267 -0.3475  0.3049 -0.1440
 2935SOL    HW120264   2.265   3.569   3.191  1.1522  0.2671 -0.3002
 2935SOL    HW220265   2.204   3.558   3.316  0.9019  0.6496  1.2417
 2936SOL     OW20266   2.301   1.393   9.663  0.1224  0.2895 -0.1152
 2936SOL    HW120267   2.273   1.475   9.704 -1.7313  0.0561 -0.8795
 2936SOL    HW220268   2.358   1.354   9.729  0.8082  0.4882 -0.6002
 2937SOL     OW20269   3.232   2.217   5.421 -0.2447 -0.2782  0.4644
 2937SOL    HW120270   3.250   2.136   5.374  3.3656 -1.1250  3.2745
 2937SOL    HW220271   3.295   2.275   5.378 -1.9866  0.3406 -1.1992
 2938SOL     OW20272   4.075   3.504   6.500  0.0169  0.1887 -0.3463
 2938SOL    HW120273   4.036   3.517   6.586 -0.6346 -0.7299 -0.5020
 2938SOL    HW220274   4.006   3.550   6.452  1.5769 -0.4400 -3.2006
 2939SOL     OW20275   1.236   1.019   6.860 -0.0236  0.0109  0.7650
 2939SOL    HW120276   1.181   1.087   6.900 -1.8570 -0.3730 -1.1238
 2939SOL    HW220277   1.225   0.942   6.916  0.0374 -0.6642 -0.1551
 2940SOL     OW20278   3.003   4.500  15.668 -0.3908 -0.6257 -0.3218
 2940SOL    HW120279   2.957   4.447  15.733 -0.0295 -0.4639  0.0648
 2940SOL    HW220280   3.093   4.472  15.684 -0.4465  1.0186  2.9229
 2941SOL     OW20281   3.743   2.891  15.496  0.3631  0.0087  0.5474
 2941SOL    HW120282   3.707   2.847  15.420 -0.4870 -1.9103  2.0702
 2941SOL    HW220283   3.827   2.846  15.495  1.0546  1.3721 -1.3894
 2942SOL     OW20284   0.953   1.520   7.320 -0.1914  0.0073  0.0222
 2942SOL    HW120285   0.984   1.586   7.258 -1.8832  0.5893 -0.1833
 2942SOL    HW220286   0.893   1.575   7.370  1.0976  1.6746 -0.2648
 2943SOL     OW20287   2.812   1.726   5.652  0.3295 -0.0595 -0.6231
 2943SOL    HW120288   2.829   1.729   5.746  1.7598  2.7807 -0.9849
 2943SOL    HW220289   2.882   1.782   5.619  2.1578 -0.2482  2.8930
 2944SOL     OW20290   3.597   3.586   8.827 -0.4744  0.7870  0.5191
 2944SOL    HW120291   3.689   3.569   8.807 -1.4691 -0.5911 -2.8776
 2944SOL    HW220292   3.574   3.546   8.911  1.6683 -0.6699  0.3921
 2945SOL     OW20293   1.472   0.380   1.635  0.2718 -0.7336  0.3527
 2945SOL    HW120294   1.416   0.430   1.694  1.5906 -0.0132  1.0064
 2945SOL    HW220295   1.409   0.319   1.598 -0.3802  0.1934 -0.0464
 2946SOL     OW20296   3.431   4.431   1.812  0.1248 -0.3160 -0.4190
 2946SOL    HW120297   3.414   4.366   1.880  1.3346  0.1853  0.3573
 2946SOL    HW220298   3.358   4.418   1.751 -0.7895  2.0047  0.1851
 2947SOL     OW20299   3.131   1.118   9.375 -0.4372  0.4268 -0.5036
 2947SOL    HW120300   3.053   1.080   9.333 -0.3056  0.5279 -0.8435
 2947SOL    HW220301   3.092   1.197   9.413 -1.1357 -1.7203  3.2489
 2948SOL     OW20302   3.827   0.867   3.668  0.6067 -1.2876  0.7962
 2948SOL    HW120303   3.843   0.883   3.575 -0.8717  0.1517  0.8022
 2948SOL    HW220304   3.791   0.779   3.660 -3.2006  0.4280 -0.6067
 2949SOL     OW20305   4.164   0.195   4.249 -0.4339 -0.4658  0.4406
 2949SOL    HW120306   4.206   0.129   4.194  0.8494  0.5609  0.1891
 2949SOL    HW220307   4.125   0.249   4.180  1.6562  1.0571  0.4629
 2950SOL     OW20308   1.354   1.035   6.109 -0.3621  0.0037 -0.4621
 2950SOL    HW120309   1.289   1.025   6.039  1.5135  0.1256 -2.1940
 2950SOL    HW220310   1.317   0.970   6.168  0.6487  1.1235  1.3965
 2951SOL     OW20311   1.744   3.511  14.144  0.6548  0.2551  0.5446
 2951SOL    HW120312   1.741   3.429  14.193  0.5146  0.1961  0.4358
 2951SOL    HW220313   1.652   3.534  14.152  0.2847 -1.2408  0.4765
 2952SOL     OW20314   0.732   2.639   7.698  0.1494  0.0990 -0.6751
 2952SOL    HW120315   0.658   2.674   7.748  1.2096  0.1829  0.8301
 2952SOL    HW220316   0.805   2.672   7.750  1.0663 -2.0827 -0.5537
 2953SOL     OW20317   3.780   3.646  13.323 -0.3722 -0.0007  0.0466
 2953SOL    HW120318   3.827   3.569  13.356 -1.2181 -1.0110 -1.0830
 2953SOL    HW220319   3.843   3.684  13.263  0.0635 -0.6507  0.0919
 2954SOL     OW20320   3.622   1.606   2.520  0.4405 -0.3092 -0.4210
 2954SOL    HW120321   3.687   1.652   2.467  1.1662  0.3802  1.0692
 2954SOL    HW220322   3.660   1.519   2.508 -0.5803 -1.0126  1.4605
 2955SOL     OW20323   3.986   0.351   3.222 -0.2422 -0.6736  0.4587
 2955SOL    HW120324   4.007   0.438   3.189  2.0753 -1.1635  0.6618
 2955SOL    HW220325   3.997   0.365   3.316  0.7338 -1.8148  0.5225
 2956SOL     OW20326   1.760   4.423  14.531  0.2393 -0.0308 -0.8304
 2956SOL    HW120327   1.682   4.465  14.493  0.3701  0.4437 -0.5602
 2956SOL    HW220328   1.738   4.330  14.537  2.0091 -0.3788  0.0672
 2957SOL     OW20329   2.192   0.918   6.993  0.2044  0.1290 -0.3230
 2957SOL    HW120330   2.129   0.991   6.994  0.4801  0.3406  1.5589
 2957SOL    HW220331   2.154   0.865   6.923 -2.5261  2.7092 -0.8245
 2958SOL     OW20332   3.533   1.503   5.125  0.0429  0.5836  0.7919
 2958SOL    HW120333   3.599   1.444   5.089 -0.9996  1.0305 -1.8312
 2958SOL    HW220334   3.460   1.483   5.066 -1.7957  2.7552  2.3341
 2959SOL     OW20335   3.302   2.517   4.011 -0.7130  0.1041  0.8362
 2959SOL    HW120336   3.237   2.546   3.947 -1.0897  0.0715  1.2001
 2959SOL    HW220337   3.279   2.425   4.024 -1.9306  0.5843  2.0667
 2960SOL     OW20338   0.328   0.460   2.648 -0.0974  0.6393  0.3104
 2960SOL    HW120339   0.248   0.490   2.604 -0.0176 -0.4536 -0.5874
 2960SOL    HW220340   0.389   0.482   2.578 -2.1115  1.4466 -1.1871
 2961SOL     OW20341   2.118   4.653  10.386 -0.3602  0.2461 -0.3221
 2961SOL    HW120342   2.076   4.705  10.318 -0.8351 -1.4149 -1.3015
 2961SOL    HW220343   2.173   4.716  10.433  0.7598 -1.0760  0.1372
 2962SOL     OW20344   1.262   1.011  10.909  0.1590 -0.0256 -0.0172
 2962SOL    HW120345   1.335   1.052  10.863  0.8501  1.0833  2.0778
 2962SOL    HW220346   1.180   1.036  10.867 -0.5723 -1.1475  0.7246
 2963SOL     OW20347   0.224   0.439   0.096 -0.5824 -0.2667 -0.1508
 2963SOL    HW120348   0.174   0.377   0.149 -3.0099 -0.2249 -2.4100
 2963SOL    HW220349   0.222   0.515   0.154 -0.5762  0.2368 -0.8205
 2964SOL     OW20350   1.558   0.992   8.280 -0.0538 -0.2856 -0.3784
 2964SOL    HW120351   1.531   1.082   8.294  1.8613  0.4129 -1.1181
 2964SOL    HW220352   1.633   0.984   8.339 -0.2050  1.9376  0.0901
 2965SOL     OW20353   4.708   3.413  12.678 -0.5421 -0.2702 -0.1288
 2965SOL    HW120354   4.718   3.324  12.643  1.8600  0.0493 -0.2810
 2965SOL    HW220355   0.056   3.420  12.741 -0.2967  1.6050 -0.6217
 2966SOL     OW20356   1.327   2.079   1.062 -0.2430 -0.0641  0.4053
 2966SOL    HW120357   1.382   2.077   1.140  1.3637  0.3575 -0.6928
 2966SOL    HW220358   1.358   2.164   1.029 -0.6521 -0.1275 -0.1450
 2967SOL     OW20359   0.551   0.390   8.074 -0.1351 -0.3023 -0.1718
 2967SOL    HW120360   0.461   0.369   8.099  0.7032 -0.4373  2.7244
 2967SOL    HW220361   0.553   0.361   7.982  0.4327 -0.4208 -0.1189
 2968SOL     OW20362   2.447   0.543  15.987 -0.1854 -0.2154  0.6552
 2968SOL    HW120363   2.525   0.535  15.932 -0.4659  0.7888  0.1151
 2968SOL    HW220364   2.401   0.610  15.936 -1.2209 -0.5988  1.0852
 2969SOL     OW20365   1.336   3.040   0.856  0.3980 -0.3038  0.1714
 2969SOL    HW120366   1.304   3.028   0.766 -1.2274  3.3611  0.2761
 2969SOL    HW220367   1.431   3.046   0.842  0.1025  0.8256 -1.4033
 2970SOL     OW20368   2.264   0.679   7.656 -0.1320  0.4003  0.0201
 2970SOL    HW120369   2.273   0.596   7.610  0.8157  0.9039 -0.7033
 2970SOL    HW220370   2.354   0.693   7.685 -1.0885  1.0674  2.5808
 2971SOL     OW20371   0.588   2.506   4.015  0.3089  0.1148 -0.3508
 2971SOL    HW120372   0.504   2.541   3.984  1.6792  0.8516 -3.2524
 2971SOL    HW220373   0.585   2.567   4.089 -0.7695 -0.1018 -0.2160
 2972SOL     OW20374   4.152   3.292   3.048 -0.2579 -0.0381 -0.4135
 2972SOL    HW120375   4.145   3.345   3.127  0.8192  0.8972 -0.9395
 2972SOL    HW220376   4.065   3.253   3.045 -0.7325  0.8150  2.2573
 2973SOL     OW20377   4.552   1.273   3.387 -0.0341 -0.4853 -0.2876
 2973SOL    HW120378   4.531   1.247   3.297 -3.1514 -0.9320  0.5711
 2973SOL    HW220379   4.571   1.190   3.429  1.3221  0.3041  0.6426
 2974SOL     OW20380   3.182   4.289   8.626 -0.5196  0.1740 -0.6415
 2974SOL    HW120381   3.215   4.370   8.588 -3.3836  1.6398 -0.0161
 2974SOL    HW220382   3.121   4.262   8.558 -1.1118 -0.6891  0.2181
 2975SOL     OW20383   3.433   3.025  15.369 -0.0964  0.3559  0.4096
 2975SOL    HW120384   3.487   3.077  15.429  0.1631  1.5229 -0.8419
 2975SOL    HW220385   3.356   3.016  15.424 -0.7433  3.3707  0.0101
 2976SOL     OW20386   2.143   3.741   2.773 -0.3344 -0.0741  0.4168
 2976SOL    HW120387   2.204   3.813   2.765  0.2444 -0.5238  0.8142
 2976SOL    HW220388   2.148   3.710   2.683 -0.5777  1.5011 -0.1303
 2977SOL     OW20389   0.984   2.745   8.212  0.0615 -0.0888 -0.3277
 2977SOL    HW120390   1.042   2.733   8.137  0.4321  0.3352 -0.1093
 2977SOL    HW220391   0.933   2.820   8.183  0.6460  0.6994  0.6458
 2978SOL     OW20392   2.042   1.740  10.807 -0.0666 -0.1854  0.4841
 2978SOL    HW120393   2.075   1.659  10.847 -1.7253 -1.2475 -0.2843
 2978SOL    HW220394   2.101   1.797  10.857  0.1112 -0.8285  1.0068
 2979SOL     OW20395   3.870   2.035   2.864 -0.3618 -0.9505  0.3338
 2979SOL    HW120396   3.900   2.126   2.855  0.8730 -1.3769  0.2294
 2979SOL    HW220397   3.800   2.042   2.798 -0.2941  2.7724  0.6640
 2980SOL     OW20398   2.404   2.090   6.802 -0.2419 -0.1792  0.2246
 2980SOL    HW120399   2.387   2.162   6.863 -0.7098 -0.8333  0.8652
 2980SOL    HW220400   2.408   2.143   6.723 -2.3006  0.1986  0.3938
 2981SOL     OW20401   1.215   1.124   1.323 -0.3528 -0.3443 -0.3516
 2981SOL    HW120402   1.230   1.120   1.228 -0.4451  2.1074 -0.4663
 2981SOL    HW220403   1.298   1.086   1.351 -0.5802 -1.5783 -1.3088
 2982SOL     OW20404   0.674   0.926   3.832  0.2116 -0.0728  0.3195
 2982SOL    HW120405   0.762   0.914   3.866 -0.0834  0.1227  1.1754
 2982SOL    HW220406   0.689   0.992   3.764  1.0055 -2.8331 -2.1396
 2983SOL     OW20407   3.348   4.375   2.771 -0.5593 -0.0708  0.0886
 2983SOL    HW120408   3.326   4.306   2.834 -2.4843  1.5975  1.2488
 2983SOL    HW220409   3.264   4.418   2.753 -0.4807 -0.1471 -0.4644
 2984SOL     OW20410   4.050   0.449   3.473 -0.4131  0.0643  0.2387
 2984SOL    HW120411   4.061   0.380   3.540  1.1145 -0.8508 -0.9582
 2984SOL    HW220412   4.088   0.527   3.514 -1.2392  1.3307 -1.4371
 2985SOL     OW20413   3.237   3.829  10.274 -0.5220 -0.0540  0.6541
 2985SOL    HW120414   3.331   3.811  10.279 -0.2977  1.0713  0.4997
 2985SOL    HW220415   3.235   3.917  10.236 -1.5674 -0.7855 -0.9713
 2986SOL     OW20416   3.531   0.732   1.928 -0.0168 -0.0785  0.2143
 2986SOL    HW120417   3.564   0.727   2.018 -2.0692  1.0227  1.0409
 2986SOL    HW220418   3.528   0.827   1.920  1.6548 -0.1285 -0.7948
 2987SOL     OW20419   0.397   4.525   2.881  0.2910 -0.0207  0.1655
 2987SOL    HW120420   0.363   4.443   2.916 -0.1745  0.0548 -0.1074
 2987SOL    HW220421   0.482   4.530   2.923  0.8332  0.2322 -0.9480
 2988SOL     OW20422   3.014   2.506  11.921 -0.0896 -0.6313  0.0110
 2988SOL    HW120423   3.086   2.557  11.886 -1.1206  0.3478 -0.6718
 2988SOL    HW220424   3.014   2.534  12.013  1.0092 -2.3489  0.5359
 2989SOL     OW20425   3.535   4.127   6.713 -0.1056  0.4872  0.0785
 2989SOL    HW120426   3.462   4.150   6.770 -0.2456 -1.2747  0.5977
 2989SOL    HW220427   3.589   4.206   6.703 -1.0875  1.1968  0.4413
 2990SOL     OW20428   3.898   2.550  11.289  0.0853 -0.4242  0.5204
 2990SOL    HW120429   3.837   2.491  11.334 -3.0667  1.5460 -1.2272
 2990SOL    HW220430   3.881   2.630  11.338  0.4135 -0.1186  0.1285
 2991SOL     OW20431   0.548   4.050   2.262  0.5086  0.2354 -0.0464
 2991SOL    HW120432   0.640   4.038   2.241 -0.3426 -1.6807 -2.6220
 2991SOL    HW220433   0.546   4.144   2.241 -1.6698 -0.4304 -2.7871
 2992SOL     OW20434   3.229   0.224   6.859  0.4070 -0.2674  0.0292
 2992SOL    HW120435   3.247   0.180   6.776  1.1850 -2.0065  1.1307
 2992SOL    HW220436   3.262   0.145   6.902  0.5148 -0.1672  0.1271
 2993SOL     OW20437   4.595   2.798   4.711  0.1690 -0.2503  0.2771
 2993SOL    HW120438   4.611   2.745   4.633 -2.3674 -0.3001 -0.2028
 2993SOL    HW220439   4.548   2.741   4.772 -1.2511 -1.4655 -1.9361
 2994SOL     OW20440   0.433   2.470   2.869 -0.4280  0.3890 -0.3482
 2994SOL    HW120441   0.372   2.406   2.833 -0.7186  0.3465  0.2323
 2994SOL    HW220442   0.503   2.468   2.803 -0.3177 -0.0969 -0.2154
 2995SOL     OW20443   3.298   3.977   6.564 -0.0585  0.6233 -0.2012
 2995SOL    HW120444   3.376   4.029   6.579  0.5242 -0.1146 -0.6572
 2995SOL    HW220445   3.293   3.930   6.647 -1.3751  1.4077  0.1523
 2996SOL     OW20446   2.814   1.453   1.746  1.2999 -0.5289 -0.4633
 2996SOL    HW120447   2.746   1.501   1.698  0.7752 -2.0365 -1.2287
 2996SOL    HW220448   2.843   1.390   1.680  0.5037  0.3194 -1.6217
 2997SOL     OW20449   3.555   1.127   9.424 -0.4106 -0.0904 -0.2167
 2997SOL    HW120450   3.599   1.050   9.387 -1.0312 -1.3786  1.7149
 2997SOL    HW220451   3.627   1.154   9.480 -0.2410 -0.8116 -0.0898
 2998SOL     OW20452   1.589   3.243  10.986  0.0669 -0.4139  0.1920
 2998SOL    HW120453   1.662   3.304  10.981  0.0912 -0.3876  0.8797
 2998SOL    HW220454   1.628   3.173  10.933 -0.8669 -0.6870 -0.1441
 2999SOL     OW20455   0.521   4.438   1.913  0.1844 -0.2476  0.4102
 2999SOL    HW120456   0.564   4.499   1.854  0.4221 -1.9294 -1.1566
 2999SOL    HW220457   0.587   4.369   1.914  0.3734 -0.0732 -0.1160
 3000SOL     OW20458   4.367   2.311   7.400 -0.9600  0.1987 -0.2769
 3000SOL    HW120459   4.416   2.239   7.439 -0.8898  0.5923  0.3670
 3000SOL    HW220460   4.277   2.285   7.418 -0.4996 -1.2589 -0.1149
 3001SOL     OW20461   3.470   2.331   6.912 -0.0834 -0.3602 -0.0407
 3001SOL    HW120462   3.393   2.339   6.967  1.8360 -3.2996  3.0601
 3001SOL    HW220463   3.462   2.412   6.860 -1.1846 -1.0003 -0.8637
 3002SOL     OW20464   3.945   3.570   2.196  0.8667  0.6202  0.7815
 3002SOL    HW120465   3.884   3.636   2.228 -2.1392 -1.6349 -0.3329
 3002SOL    HW220466   3.900   3.490   2.222 -0.3168  1.5880  1.6640
 3003SOL     OW20467   0.091   0.439   7.197  0.2816  0.4047  0.2325
 3003SOL    HW120468   0.101   0.448   7.102 -3.0907 -1.1285 -0.2687
 3003SOL    HW220469   0.181   0.455   7.226  0.6687  0.0904 -0.7880
 3004SOL     OW20470   2.980   1.776   2.182 -0.2821 -0.1139 -0.3043
 3004SOL    HW120471   3.044   1.712   2.151 -0.2279 -0.4025  0.4017
 3004SOL    HW220472   2.940   1.797   2.097 -1.2260 -2.0030 -0.3438
 3005SOL     OW20473   4.149   2.625   6.224  0.0393 -0.0092  0.1937
 3005SOL    HW120474   4.088   2.658   6.290 -2.4105 -0.9719 -1.5930
 3005SOL    HW220475   4.215   2.693   6.235 -0.0917  0.0368  0.6873
 3006SOL     OW20476   2.975   3.181   6.201  0.1117 -0.2889  0.1818
 3006SOL    HW120477   2.990   3.151   6.111 -2.0004 -0.5658 -0.0638
 3006SOL    HW220478   3.064   3.200   6.232  0.7686  0.4408 -2.1610
 3007SOL     OW20479   4.304   1.696   5.380  0.8338 -0.3225  0.8627
 3007SOL    HW120480   4.374   1.737   5.430 -0.7976  2.4566  0.8478
 3007SOL    HW220481   4.222   1.716   5.425  1.2777  0.2618  1.3988
 3008SOL     OW20482   2.015   3.309   1.192 -0.0406  0.4781  0.1173
 3008SOL    HW120483   2.064   3.331   1.113  1.6428 -0.3796  0.9094
 3008SOL    HW220484   1.925   3.339   1.180 -0.5222 -1.6993 -1.6228
 3009SOL     OW20485   3.584   2.042   5.099  0.1682  0.6350  0.9144
 3009SOL    HW120486   3.588   2.134   5.124 -1.9604  0.6598  1.1456
 3009SOL    HW220487   3.650   2.004   5.157 -0.2833 -1.5862 -0.0070
 3010SOL     OW20488   0.854   1.299   2.281  0.0389 -0.0875 -0.1127
 3010SOL    HW120489   0.912   1.235   2.240 -0.1228  0.3422 -1.0206
 3010SOL    HW220490   0.812   1.246   2.349  1.9577 -2.5666 -0.8358
 3011SOL     OW20491   0.173   3.305   5.465  0.1106  0.0496  0.7780
 3011SOL    HW120492   0.150   3.263   5.549 -1.2508  1.5060  1.1311
 3011SOL    HW220493   0.131   3.235   5.415  0.8383  0.0916  0.1173
 3012SOL     OW20494   4.314   1.998   4.421 -0.2459  0.3387 -0.0739
 3012SOL    HW120495   4.324   2.073   4.479 -0.1866 -0.0505  0.4155
 3012SOL    HW220496   4.365   2.028   4.346  0.0847 -0.2007 -0.0653
 3013SOL     OW20497   4.712   0.246   6.170  0.1426 -0.0525 -0.0092
 3013SOL    HW120498   4.621   0.264   6.146  0.9829  2.7144 -1.0696
 3013SOL    HW220499   4.690   0.225   6.261 -0.2015  1.7147  0.3255
 3014SOL     OW20500   2.322   2.618   2.432  0.2330  0.0496  1.1709
 3014SOL    HW120501   2.399   2.675   2.429  1.2914 -1.4717 -0.9361
 3014SOL    HW220502   2.256   2.684   2.415 -0.1472 -0.8586 -0.8712
 3015SOL     OW20503   3.750   1.676   5.156  0.7352 -0.1204 -0.2514
 3015SOL    HW120504   3.807   1.611   5.199  0.6698 -0.5404 -0.8060
 3015SOL    HW220505   3.666   1.630   5.157  0.1856  0.9351  2.2729
 3016SOL     OW20506   4.020   3.765   6.969  0.6979  0.2530  0.2133
 3016SOL    HW120507   4.073   3.737   7.044 -1.2106 -0.9957  1.0906
 3016SOL    HW220508   4.085   3.754   6.899  1.1403 -0.7751  0.7732
 3017SOL     OW20509   1.619   1.628   2.551  0.0241 -0.0651  0.3490
 3017SOL    HW120510   1.571   1.552   2.519  0.8791 -1.8576  3.3370
 3017SOL    HW220511   1.713   1.611   2.541  0.0002  1.0376 -1.7576
 3018SOL     OW20512   3.710   3.663  15.161 -0.1284 -0.0844  0.1011
 3018SOL    HW120513   3.751   3.592  15.110  0.8001  0.9537 -0.6093
 3018SOL    HW220514   3.620   3.632  15.166  0.1366 -1.3397 -2.4362
 3019SOL     OW20515   4.537   2.718   1.035  0.2439 -0.3599  0.4694
 3019SOL    HW120516   4.632   2.732   1.042  0.6267 -2.7258  0.2338
 3019SOL    HW220517   4.540   2.640   0.980  0.6330 -0.4716  0.6455
 3020SOL     OW20518   3.011   0.467   6.255  0.4728 -0.1749  0.3821
 3020SOL    HW120519   3.095   0.497   6.291  1.1905 -1.1293 -0.4889
 3020SOL    HW220520   3.027   0.437   6.165 -2.8901 -1.1794  0.1164
 3021SOL     OW20521   0.002   4.688   2.889  0.6577 -0.2797  0.1832
 3021SOL    HW120522   0.045   4.719   2.809  0.2526 -0.1980 -0.0020
 3021SOL    HW220523   0.043   4.604   2.910  0.3581 -0.6671 -0.7930
 3022SOL     OW20524   2.335   4.264   8.092 -0.0075  0.1030 -0.0078
 3022SOL    HW120525   2.315   4.197   8.157  0.7680 -0.3683 -0.2579
 3022SOL    HW220526   2.324   4.345   8.141 -0.1137 -2.0284  3.4405
 3023SOL     OW20527   3.347   1.225   7.237  0.1667  0.7583 -0.5809
 3023SOL    HW120528   3.303   1.302   7.202  0.7658  1.6850  0.6890
 3023SOL    HW220529   3.419   1.224   7.175  0.8121 -0.4421  0.1908
 3024SOL     OW20530   2.129   1.175   5.975  0.3081 -1.2963  0.1375
 3024SOL    HW120531   2.212   1.128   5.975  0.2518 -1.3795  2.1752
 3024SOL    HW220532   2.078   1.118   6.034  1.1166  0.1221  2.1941
 3025SOL     OW20533   4.618   2.196  15.391 -0.5150 -0.2865 -0.6362
 3025SOL    HW120534   4.666   2.259  15.445 -0.5853 -1.8387  1.2475
 3025SOL    HW220535   4.682   2.159  15.331  0.6254  0.2534  0.2233
 3026SOL     OW20536   1.475   0.708   4.000  0.6079 -0.4689 -0.3246
 3026SOL    HW120537   1.471   0.792   4.046  0.8618  1.4997 -3.9017
 3026SOL    HW220538   1.567   0.695   4.023  0.5336 -1.3398 -0.5034
 3027SOL     OW20539   3.475   0.547   6.104 -0.8621 -0.1437 -0.0034
 3027SOL    HW120540   3.539   0.600   6.152  0.0026 -0.5614 -0.6966
 3027SOL    HW220541   3.485   0.461   6.143  0.8120  0.9645  1.9962
 3028SOL     OW20542   2.473   1.057  15.613  0.2421  0.1616 -0.0314
 3028SOL    HW120543   2.518   1.017  15.687 -0.6210 -0.7157  0.0169
 3028SOL    HW220544   2.401   0.997  15.593  1.1370 -1.2539  1.0284
 3029SOL     OW20545   3.891   2.766  16.795 -0.0094  0.2589 -0.0304
 3029SOL    HW120546   3.902   2.691  16.854 -0.0275  0.5110  0.2923
 3029SOL    HW220547   3.803   2.756  16.758  0.4859 -2.9235 -0.3442
 3030SOL     OW20548   3.882   2.871  13.651 -0.0674  0.1792  0.2418
 3030SOL    HW120549   3.959   2.927  13.645  1.0270 -1.6146 -2.4998
 3030SOL    HW220550   3.831   2.906  13.724  0.1444 -1.9491  1.4264
 3031SOL     OW20551   3.037   3.149   2.542  0.1433 -0.4098  0.4581
 3031SOL    HW120552   2.997   3.149   2.629 -1.4662  1.8035 -0.2814
 3031SOL    HW220553   3.091   3.071   2.554 -2.4657 -2.1790  0.5587
 3032SOL     OW20554   2.649   1.508   6.952 -0.0000 -0.0277 -0.5058
 3032SOL    HW120555   2.591   1.514   6.876 -1.0814 -0.4755  0.2820
 3032SOL    HW220556   2.632   1.600   6.973  2.2276 -0.0282  1.3131
 3033SOL     OW20557   0.769   3.252   7.499 -0.3203 -0.6812  0.1489
 3033SOL    HW120558   0.851   3.301   7.499 -0.2778 -0.7622 -1.6866
 3033SOL    HW220559   0.773   3.191   7.573 -0.1880 -0.3180  0.4384
 3034SOL     OW20560   0.128   3.899   5.364  0.5583  0.0396 -0.1769
 3034SOL    HW120561   0.195   3.919   5.299  2.0916 -0.1573  1.3510
 3034SOL    HW220562   0.067   3.841   5.318 -1.6796  3.0466 -1.0747
 3035SOL     OW20563   2.836   1.337  12.116 -0.1916 -0.3728  0.0571
 3035SOL    HW120564   2.928   1.347  12.090 -1.1579  1.4898 -2.6407
 3035SOL    HW220565   2.792   1.348  12.032 -2.2288 -2.0308  0.9068
 3036SOL     OW20566   1.553   3.115   0.182  0.3880  0.2149  0.6657
 3036SOL    HW120567   1.524   3.133   0.272 -0.4526 -2.0500  0.8462
 3036SOL    HW220568   1.484   3.054   0.156  0.6520 -1.0986  3.0329
 3037SOL     OW20569   2.585   3.175   8.563  0.0794 -0.0191 -0.1294
 3037SOL    HW120570   2.552   3.170   8.473  0.8990 -0.0360 -0.4293
 3037SOL    HW220571   2.577   3.268   8.584 -1.4680 -0.2537  0.3139
 3038SOL     OW20572   1.252   1.268   2.346 -0.0558  0.2249  0.4184
 3038SOL    HW120573   1.246   1.176   2.372  1.2475 -0.6020 -2.2148
 3038SOL    HW220574   1.336   1.260   2.302 -0.7733 -0.2773 -0.8738
 3039SOL     OW20575   3.661   3.442  15.883 -0.6407 -0.8565  0.0731
 3039SOL    HW120576   3.711   3.365  15.855 -0.8886  0.3004 -3.5684
 3039SOL    HW220577   3.726   3.506  15.855 -1.0900  0.4795  2.1372
 3040SOL     OW20578   4.130   1.817   3.598  0.3607 -0.1021  0.2056
 3040SOL    HW120579   4.076   1.848   3.670  1.5064  2.2813  0.0431
 3040SOL    HW220580   4.214   1.859   3.615  0.0630  0.7717 -0.4420
 3041SOL     OW20581   0.506   1.065   8.318  0.0653 -0.1959 -0.4670
 3041SOL    HW120582   0.439   1.131   8.299 -0.0430 -0.2652 -0.3218
 3041SOL    HW220583   0.471   0.986   8.277  1.3008 -1.6211  1.2287
 3042SOL     OW20584   2.333   1.037   2.882 -0.3171 -0.1219 -0.4017
 3042SOL    HW120585   2.330   1.069   2.792 -1.9158 -1.8881 -0.9819
 3042SOL    HW220586   2.240   1.022   2.900 -0.6252  0.6178 -1.3905
 3043SOL     OW20587   3.500   3.084   7.515 -0.2319 -0.6406 -0.4610
 3043SOL    HW120588   3.496   3.004   7.568 -2.3685  0.2615  0.7488
 3043SOL    HW220589   3.594   3.093   7.502 -0.5144  2.5897 -0.0407
 3044SOL     OW20590   4.341   0.041   0.254 -0.5563  0.1714  0.3048
 3044SOL    HW120591   4.343   0.076   0.343  3.2780  1.2728 -0.2115
 3044SOL    HW220592   4.324   4.673   0.276  3.6958 -1.5412 -3.5833
 3045SOL     OW20593   4.426   2.382   5.019  0.1703 -0.6279 -0.3632
 3045SOL    HW120594   4.470   2.347   5.096  0.2353 -0.6297 -0.4017
 3045SOL    HW220595   4.431   2.301   4.968 -0.1570 -1.3956  0.8275
 3046SOL     OW20596   1.440   1.880   2.004  0.4174 -0.3415  0.1729
 3046SOL    HW120597   1.526   1.887   1.962  0.9357  1.1547  1.4999
 3046SOL    HW220598   1.440   1.953   2.066 -0.5479  0.2564 -0.5373
 3047SOL     OW20599   1.746   1.513  14.268 -0.4683 -0.1080  0.3475
 3047SOL    HW120600   1.683   1.568  14.223 -1.6676 -1.1966  0.6880
 3047SOL    HW220601   1.819   1.575  14.270  0.7039 -1.4164 -1.4775
 3048SOL     OW20602   1.246   1.031   6.523  0.7024  0.2312 -0.5462
 3048SOL    HW120603   1.275   1.062   6.437  1.3776  1.7118  0.2222
 3048SOL    HW220604   1.163   0.991   6.497 -0.2186  0.9343  1.3500
 3049SOL     OW20605   3.315   4.342   3.242 -0.6788  0.4344 -0.6048
 3049SOL    HW120606   3.301   4.375   3.331  0.0992  0.7598 -0.6093
 3049SOL    HW220607   3.406   4.366   3.227 -1.0163  1.7927 -0.4625
 3050SOL     OW20608   0.045   0.753  11.525 -0.1064  0.5976 -0.1261
 3050SOL    HW120609   4.710   0.808  11.576 -1.0813 -1.1653  0.6584
 3050SOL    HW220610   0.049   0.816  11.453 -0.6122 -0.5481 -1.1645
 3051SOL     OW20611   1.543   3.320  11.307  0.1289  0.0466  0.4230
 3051SOL    HW120612   1.615   3.384  11.304 -0.9618  1.2493 -0.0734
 3051SOL    HW220613   1.497   3.343  11.227  0.0122 -1.0422  0.1803
 3052SOL     OW20614   3.471   1.011   2.089  0.3015  0.2782 -0.3967
 3052SOL    HW120615   3.517   0.979   2.166  1.7164 -0.6078 -1.6208
 3052SOL    HW220616   3.381   1.015   2.122  0.7408 -1.5690  1.0069
 3053SOL     OW20617   2.026   1.817   2.617  0.3836 -0.3753 -0.2576
 3053SOL    HW120618   2.009   1.784   2.705  1.9803 -1.5055 -0.3721
 3053SOL    HW220619   1.944   1.788   2.579  1.4511 -1.5926 -1.6562
 3054SOL     OW20620   1.695   2.145  14.788 -0.6434  0.9595 -0.3979
 3054SOL    HW120621   1.607   2.113  14.771 -0.6481  0.2946  0.8721
 3054SOL    HW220622   1.717   2.055  14.815 -2.3047  1.1139  1.4244
 3055SOL     OW20623   3.915   3.767  14.775 -0.0412  0.4665 -0.2101
 3055SOL    HW120624   3.958   3.715  14.707 -2.0434  0.9696 -1.8545
 3055SOL    HW220625   3.863   3.703  14.823  1.3121  1.4971  2.6864
 3056SOL     OW20626   4.322   0.436   5.674 -0.0484 -0.0726  0.1799
 3056SOL    HW120627   4.267   0.383   5.732  0.0010 -0.7757 -0.4183
 3056SOL    HW220628   4.259   0.428   5.602  1.4831 -1.4670 -0.9852
 3057SOL     OW20629   2.931   0.709   2.106 -0.1412 -0.0521 -0.1627
 3057SOL    HW120630   2.919   0.798   2.073 -0.5161  0.2254  0.7135
 3057SOL    HW220631   3.024   0.691   2.088 -0.6505 -1.4767 -1.3974
 3058SOL     OW20632   4.339   1.390  12.840  0.0348  0.1525  0.0725
 3058SOL    HW120633   4.245   1.398  12.858 -0.1492 -1.1095 -0.2941
 3058SOL    HW220634   4.344   1.447  12.764 -0.1615 -0.3564 -0.3276
 3059SOL     OW20635   3.642   4.360   8.481 -0.0471 -0.4816  0.4130
 3059SOL    HW120636   3.710   4.397   8.424 -1.7629  1.8098 -0.1569
 3059SOL    HW220637   3.572   4.419   8.453 -0.6195 -1.7760 -0.8867
 3060SOL     OW20638   3.303   3.353  15.499  0.4870  0.2714 -0.2780
 3060SOL    HW120639   3.352   3.303  15.564  0.8834  1.2792  0.1932
 3060SOL    HW220640   3.331   3.439  15.530  0.9110  0.4021 -1.0318
 3061SOL     OW20641   0.143   1.402   9.645 -0.2780  0.2472 -0.0841
 3061SOL    HW120642   0.187   1.316   9.648 -0.8874 -0.0195  1.4418
 3061SOL    HW220643   0.076   1.389   9.712  1.3663  0.7200  1.6824
 3062SOL     OW20644   1.098   2.060  16.491 -0.2649  0.6225 -0.2519
 3062SOL    HW120645   1.136   2.141  16.457 -0.0742  0.7064  0.1748
 3062SOL    HW220646   1.137   1.994  16.433 -0.6449  0.7727 -0.6832
 3063SOL     OW20647   4.491   1.835   5.529  0.1287 -0.3597  0.4825
 3063SOL    HW120648   4.586   1.831   5.519  0.0511  0.3680 -0.5173
 3063SOL    HW220649   4.482   1.902   5.462 -2.7124 -1.1973  0.0303
 3064SOL     OW20650   2.311   3.755   1.345  0.3953 -0.8023 -0.4097
 3064SOL    HW120651   2.273   3.687   1.288 -3.5128  0.8769  0.2004
 3064SOL    HW220652   2.256   3.830   1.324 -1.4173 -2.5332 -1.8318
 3065SOL     OW20653   3.171   1.729  16.110  0.2536  0.1640  0.0530
 3065SOL    HW120654   3.210   1.642  16.115 -0.2248  0.0245  1.4435
 3065SOL    HW220655   3.094   1.722  16.168  0.9475  1.0400  1.0867
 3066SOL     OW20656   3.063   3.790   3.601  0.0028  0.6081  0.4459
 3066SOL    HW120657   3.030   3.749   3.521  0.1326  1.8403 -0.2417
 3066SOL    HW220658   3.157   3.773   3.606 -0.1122  0.0481  0.7122
 3067SOL     OW20659   2.602   3.195   6.869  0.3549  0.0842 -0.2277
 3067SOL    HW120660   2.563   3.242   6.795 -0.6091 -0.9005 -0.3508
 3067SOL    HW220661   2.681   3.243   6.892  0.1313  1.9745 -3.3069
 3068SOL     OW20662   2.137   1.368   4.747  0.2538 -0.0114  0.1364
 3068SOL    HW120663   2.066   1.395   4.806  0.1312  1.2520 -0.5725
 3068SOL    HW220664   2.211   1.348   4.804  0.7492  0.3303 -0.3798
 3069SOL     OW20665   3.641   0.872   4.947 -0.1783 -0.1468 -0.4102
 3069SOL    HW120666   3.634   0.779   4.926  1.6879  0.1311 -2.2893
 3069SOL    HW220667   3.692   0.906   4.873 -0.1874 -1.2140 -0.9029
 3070SOL     OW20668   1.169   0.178   4.434 -0.2705  0.0401  0.5282
 3070SOL    HW120669   1.201   0.125   4.507  1.1196  1.5992  1.0443
 3070SOL    HW220670   1.100   0.230   4.476  1.5169  1.7169  1.3821
 3071SOL     OW20671   2.609   2.902   5.942 -0.4095 -0.5705  0.3034
 3071SOL    HW120672   2.664   2.887   6.019 -0.2159  0.8441  0.4359
 3071SOL    HW220673   2.640   2.987   5.910 -3.2520 -0.8031 -2.9990
 3072SOL     OW20674   4.092   0.857   9.172  0.3273  0.1925  0.3837
 3072SOL    HW120675   4.086   0.952   9.177 -0.9720  0.1698 -0.7148
 3072SOL    HW220676   4.066   0.853   9.080 -0.6329 -0.2012  0.6654
 3073SOL     OW20677   3.507   0.438  12.786  0.2372 -0.4948  0.3603
 3073SOL    HW120678   3.541   0.368  12.842 -0.3624 -1.3195 -0.2901
 3073SOL    HW220679   3.497   0.399  12.699 -0.6460 -1.7277  1.0043
 3074SOL     OW20680   3.189   0.430   5.635 -0.0650  0.3526 -0.1147
 3074SOL    HW120681   3.165   0.353   5.686  1.5850 -0.1105 -0.0518
 3074SOL    HW220682   3.126   0.428   5.564 -0.1233 -0.6639 -0.0308
 3075SOL     OW20683   0.553   0.035   8.516 -0.2457 -0.1059 -0.3876
 3075SOL    HW120684   0.549   0.095   8.590  0.0786 -0.5321 -0.0210
 3075SOL    HW220685   0.560   0.106   8.452 -0.1293 -1.2163 -1.6110
 3076SOL     OW20686   3.158   2.905   7.053 -0.3503  0.4105 -0.3443
 3076SOL    HW120687   3.118   2.887   7.138 -1.3863 -0.4310 -1.0029
 3076SOL    HW220688   3.156   3.001   7.057  0.8399  0.5036 -1.9767
 3077SOL     OW20689   1.762   2.527   8.661  0.0061  0.0153  0.7191
 3077SOL    HW120690   1.805   2.552   8.743 -1.6553  1.5642  1.1287
 3077SOL    HW220691   1.685   2.583   8.648  0.6683  0.5913 -0.7607
 3078SOL     OW20692   4.160   0.736   6.464  0.5672  0.3674  0.4645
 3078SOL    HW120693   4.078   0.764   6.505 -0.1927  2.8767 -2.7368
 3078SOL    HW220694   4.212   0.816   6.465 -0.2657  0.9223  0.0501
 3079SOL     OW20695   1.845   4.423   2.770 -0.9681 -0.3117 -0.0945
 3079SOL    HW120696   1.812   4.427   2.680 -1.2839  1.6406  0.1194
 3079SOL    HW220697   1.809   4.344   2.811  0.0403 -0.9487 -0.4388
 3080SOL     OW20698   4.528   4.600  14.694 -0.6429  0.0417  0.3909
 3080SOL    HW120699   4.515   4.693  14.712  1.3891  0.4550 -0.3025
 3080SOL    HW220700   4.525   4.586  14.600  0.7187  3.6284 -0.1615
 3081SOL     OW20701   0.463   0.147   9.838  0.4751  0.1751 -0.4288
 3081SOL    HW120702   0.557   0.156   9.856  0.2467  2.8795 -0.6330
 3081SOL    HW220703   0.429   0.151   9.927 -0.2702 -0.3916 -0.6970
 3082SOL     OW20704   0.386   0.800   0.092 -0.4269 -0.0572  0.2974
 3082SOL    HW120705   0.346   0.725   0.135  0.5328 -0.5110  0.3894
 3082SOL    HW220706   0.334   0.801   0.012  0.3556 -2.1600 -0.2306
 3083SOL     OW20707   4.073   4.163   2.620 -0.1441 -0.6218 -0.4917
 3083SOL    HW120708   4.038   4.075   2.610  0.6049 -1.1182  1.3757
 3083SOL    HW220709   4.006   4.192   2.682 -0.3596 -0.1926 -0.9189
 3084SOL     OW20710   0.635   1.445   3.260  0.3708 -0.3022 -0.0024
 3084SOL    HW120711   0.548   1.455   3.223 -0.2026 -2.7723  0.6434
 3084SOL    HW220712   0.692   1.516   3.230 -0.7565  0.5410 -0.1227
 3085SOL     OW20713   0.647   2.108   9.763 -0.3364  0.1762 -0.0888
 3085SOL    HW120714   0.565   2.131   9.808 -1.4832 -0.6703 -1.7216
 3085SOL    HW220715   0.630   2.014   9.750  2.1260 -0.1437 -0.9565
 3086SOL     OW20716   1.326   0.277  11.051  0.1847 -0.3336 -0.6044
 3086SOL    HW120717   1.244   0.236  11.079  1.1908 -2.5693 -0.9534
 3086SOL    HW220718   1.379   0.201  11.027 -0.4621 -1.2569  0.8757
 3087SOL     OW20719   0.512   0.044   0.228 -0.9084  0.3523 -0.7301
 3087SOL    HW120720   0.491   4.691   0.282 -0.1484  0.7064  0.0818
 3087SOL    HW220721   0.490   0.116   0.287 -2.3980  0.0406 -0.9095
 3088SOL     OW20722   1.424   4.129   9.376 -0.0355 -0.6410  0.6512
 3088SOL    HW120723   1.422   4.052   9.319 -0.7454 -0.2371  0.1374
 3088SOL    HW220724   1.402   4.205   9.323  0.1625 -0.1317  1.3095
 3089SOL     OW20725   3.710   0.552  11.888  0.1434  0.2758  0.5036
 3089SOL    HW120726   3.805   0.553  11.896  0.3376 -0.2153 -1.6114
 3089SOL    HW220727   3.687   0.645  11.884 -3.5393 -0.8212 -3.8340
 3090SOL     OW20728   2.509   4.326   2.454 -0.1529 -0.0714  0.2738
 3090SOL    HW120729   2.492   4.359   2.366  0.5106 -0.3285  0.0473
 3090SOL    HW220730   2.548   4.401   2.499  2.6485 -0.5567 -1.3837
 3091SOL     OW20731   3.947   2.338   4.224 -0.0582  0.3867  0.0579
 3091SOL    HW120732   4.038   2.355   4.198 -0.0465  0.8243  0.3832
 3091SOL    HW220733   3.912   2.291   4.149 -0.4888  0.7775  0.0120
 3092SOL     OW20734   0.075   0.030  15.863 -0.0091  0.2730 -0.4680
 3092SOL    HW120735   0.110   0.101  15.918 -3.8346  0.8496  1.2399
 3092SOL    HW220736   0.123   4.683  15.906  0.1475  1.0069  0.5605
 3093SOL     OW20737   0.461   0.546   3.410  0.2961  0.6560  0.0975
 3093SOL    HW120738   0.412   0.499   3.343  1.2620  1.3757 -1.1067
 3093SOL    HW220739   0.452   0.638   3.385  1.7171  0.7455 -0.0547
 3094SOL     OW20740   1.436   0.490   5.008 -0.2442  0.1313  0.3483
 3094SOL    HW120741   1.429   0.562   5.070 -1.8022 -0.7970  1.2279
 3094SOL    HW220742   1.505   0.440   5.052  1.5254  1.5077 -0.8712
 3095SOL     OW20743   4.632   2.003  14.728  0.1260  0.0512 -0.2656
 3095SOL    HW120744   4.576   2.028  14.654 -0.0130 -0.0389 -0.1907
 3095SOL    HW220745   4.613   1.910  14.736 -2.6083  0.3239 -3.1938
 3096SOL     OW20746   3.648   1.804   3.272 -0.1909  0.1993  0.2171
 3096SOL    HW120747   3.679   1.729   3.324 -1.4744  0.3068  1.1386
 3096SOL    HW220748   3.592   1.760   3.208 -1.9073  1.7150  0.6772
 3097SOL     OW20749   2.185   1.388   1.772 -0.2930 -0.1139 -0.2921
 3097SOL    HW120750   2.259   1.329   1.787 -0.7776 -0.3054  1.3635
 3097SOL    HW220751   2.199   1.462   1.832 -0.9129  0.2506 -0.6055
 3098SOL     OW20752   2.640   2.777  10.323 -0.0434 -0.2081 -0.4876
 3098SOL    HW120753   2.726   2.812  10.347  0.1181 -0.6582 -0.4277
 3098SOL    HW220754   2.597   2.862  10.310 -0.4740 -0.1834  1.0573
 3099SOL     OW20755   2.723   4.390   3.457 -0.0766  0.5676 -0.0568
 3099SOL    HW120756   2.811   4.355   3.446 -0.5999 -1.2980  1.6703
 3099SOL    HW220757   2.716   4.384   3.552  0.9580 -0.2270 -0.0341
 3100SOL     OW20758   1.069   2.077   2.447  0.6495  0.4291 -0.0433
 3100SOL    HW120759   1.004   2.007   2.446 -0.5107  1.4870  0.7925
 3100SOL    HW220760   1.148   2.038   2.409  0.0611 -1.5227  0.7290
 3101SOL     OW20761   2.113   1.581  11.352 -0.3954  0.3442 -0.1251
 3101SOL    HW120762   2.206   1.582  11.327 -1.0372  1.1716 -2.5155
 3101SOL    HW220763   2.121   1.584  11.447  1.8344 -1.7304 -0.2344
 3102SOL     OW20764   2.187   0.270   3.804 -0.8876  0.5439 -0.2676
 3102SOL    HW120765   2.234   0.338   3.756  0.4344 -0.7695 -0.8255
 3102SOL    HW220766   2.250   0.198   3.815 -0.0510  1.3380  0.1403
 3103SOL     OW20767   1.066   3.763   3.328  0.2510  0.0884 -0.3463
 3103SOL    HW120768   1.098   3.852   3.345  0.2514  0.2438 -1.1810
 3103SOL    HW220769   1.139   3.720   3.372 -1.1454  0.8982  2.7781
 3104SOL     OW20770   4.577   3.143  17.560  0.0759 -0.1266 -0.2813
 3104SOL    HW120771   4.504   3.205  17.562  0.5284  0.3973  0.1007
 3104SOL    HW220772   4.548   3.097  17.481 -1.0268  0.6409 -0.3307
 3105SOL     OW20773   4.165   0.830   3.051 -0.2102 -0.2611  0.1952
 3105SOL    HW120774   4.209   0.887   2.989  2.9607 -1.0036  1.7898
 3105SOL    HW220775   4.088   0.888   3.054 -0.0823 -0.0267 -1.3302
 3106SOL     OW20776   1.679   0.857   1.806 -0.0919 -0.3568 -0.5890
 3106SOL    HW120777   1.593   0.841   1.845  0.2661 -0.2968  0.2229
 3106SOL    HW220778   1.701   0.929   1.865 -2.7079  0.8719 -1.1332
 3107SOL     OW20779   1.945   3.010   3.526  0.0796  0.3664 -0.0479
 3107SOL    HW120780   1.994   3.068   3.469 -1.2300  1.0329 -0.5119
 3107SOL    HW220781   1.859   3.052   3.526  0.9533  2.1766  2.0912
 3108SOL     OW20782   2.582   2.127   4.799  0.1050  0.5896 -0.1031
 3108SOL    HW120783   2.655   2.102   4.743  0.4197  0.2173  0.4752
 3108SOL    HW220784   2.535   2.044   4.812  0.5902 -0.0744 -2.5876
 3109SOL     OW20785   1.557   1.057   5.055 -0.3721  0.0310 -0.8883
 3109SOL    HW120786   1.604   1.140   5.061 -1.6825  0.6555  0.7297
 3109SOL    HW220787   1.612   1.005   5.114  0.9749  1.5950 -0.7717
 3110SOL     OW20788   0.565   0.148   8.766  0.4119 -0.3734 -0.0655
 3110SOL    HW120789   0.560   0.236   8.729  0.1291 -0.6776 -0.7454
 3110SOL    HW220790   0.659   0.137   8.776  0.8679  4.4306  1.1426
 3111SOL     OW20791   4.146   3.383  15.267 -0.3675  0.6364  0.5011
 3111SOL    HW120792   4.192   3.360  15.187 -2.2218  2.9088 -1.2352
 3111SOL    HW220793   4.195   3.462  15.290  0.6431  0.8032 -2.2425
 3112SOL     OW20794   4.314   4.252   1.865  0.6937  0.1904  0.0980
 3112SOL    HW120795   4.281   4.243   1.954  0.5408  0.5997  0.0809
 3112SOL    HW220796   4.264   4.183   1.820 -1.2130  1.5696  0.1105
 3113SOL     OW20797   1.068   4.012   6.373  0.4012 -0.1835 -0.0025
 3113SOL    HW120798   1.135   3.985   6.311 -1.1611  0.2301 -1.8729
 3113SOL    HW220799   0.992   4.006   6.314 -0.0689 -0.3772  0.6195
 3114SOL     OW20800   2.340   0.577  17.158  0.0216  0.0683 -0.1335
 3114SOL    HW120801   2.410   0.615  17.213  0.0165 -1.3055  0.8140
 3114SOL    HW220802   2.395   0.518  17.107  2.5471  2.5659 -0.3211
 3115SOL     OW20803   2.060   0.313   4.665 -0.7953  0.5135  0.3578
 3115SOL    HW120804   2.080   0.273   4.581 -0.6299 -0.4048  0.8325
 3115SOL    HW220805   2.076   0.406   4.649  1.0426  0.4672  1.8424
 3116SOL     OW20806   2.144   4.269   1.753 -0.4899  0.1142 -0.3552
 3116SOL    HW120807   2.230   4.239   1.780 -0.3596 -0.6712 -1.6393
 3116SOL    HW220808   2.161   4.289   1.661  0.3036  2.0105  0.2097
 3117SOL     OW20809   1.440   1.306   5.879  0.8430 -0.4830  0.6751
 3117SOL    HW120810   1.381   1.233   5.864  1.0122 -0.4069 -0.3538
 3117SOL    HW220811   1.413   1.330   5.968 -0.3151 -1.0872  0.4767
 3118SOL     OW20812   2.752   3.621  11.252 -0.0123 -0.1118  0.3349
 3118SOL    HW120813   2.778   3.567  11.177 -0.0914 -2.3966  1.9403
 3118SOL    HW220814   2.694   3.689  11.218  0.0117  1.2110  2.9236
 3119SOL     OW20815   1.836   0.763   3.631 -0.5335 -0.4477 -0.1289
 3119SOL    HW120816   1.845   0.854   3.604  2.6040 -0.8973 -0.5209
 3119SOL    HW220817   1.744   0.765   3.659  0.5202  0.1017  3.3340
 3120SOL     OW20818   3.789   4.051   9.977  0.0816 -0.3865  0.7398
 3120SOL    HW120819   3.875   4.063   9.936  1.1055  1.5907  3.4349
 3120SOL    HW220820   3.777   3.956   9.973  0.9402 -0.4852  0.4470
 3121SOL     OW20821   4.653   3.808   3.995  0.2292  0.0911 -0.0655
 3121SOL    HW120822   4.596   3.874   4.035  1.1995 -0.6469  2.5396
 3121SOL    HW220823   4.675   3.759   4.074 -0.9745 -2.6957 -1.4855
 3122SOL     OW20824   4.337   2.399   6.913  0.8236 -0.0514 -0.3618
 3122SOL    HW120825   4.311   2.394   7.005 -1.4456  0.1493 -0.9735
 3122SOL    HW220826   4.432   2.395   6.920  0.6882 -1.9240  0.4099
 3123SOL     OW20827   0.377   1.769   4.040 -0.3219  0.2095 -0.0491
 3123SOL    HW120828   0.339   1.795   3.956  1.0279 -1.9461 -1.3123
 3123SOL    HW220829   0.382   1.674   4.033  1.4384  0.4284 -1.6681
 3124SOL     OW20830   1.942   0.789   2.003  0.2337  0.3390 -0.8453
 3124SOL    HW120831   1.957   0.733   1.927  3.4829 -1.8491  1.3733
 3124SOL    HW220832   1.869   0.751   2.053  0.7460 -0.9153 -1.0430
 3125SOL     OW20833   4.213   1.306   3.481 -0.8641  0.2207 -0.2889
 3125SOL    HW120834   4.308   1.317   3.480 -0.7158 -0.7913  1.7837
 3125SOL    HW220835   4.183   1.396   3.474 -1.1042  0.2854  1.3996
 3126SOL     OW20836   3.491   0.065   8.986 -0.3653  0.7914 -0.3076
 3126SOL    HW120837   3.425   0.095   9.048  0.0970  3.8651 -1.3015
 3126SOL    HW220838   3.567   0.086   9.040  1.6536 -1.2471 -2.3227
 3127SOL     OW20839   1.279   3.800   6.747  0.2216 -0.0526 -0.2273
 3127SOL    HW120840   1.306   3.889   6.769 -2.3247  0.2725  1.4229
 3127SOL    HW220841   1.291   3.754   6.830  0.3536  1.7057  0.7209
 3128SOL     OW20842   2.517   1.739  10.908  0.3475  0.5009  0.1142
 3128SOL    HW120843   2.606   1.768  10.887  0.0664 -0.9002 -2.8628
 3128SOL    HW220844   2.483   1.695  10.831 -1.7617  1.1229  0.6736
 3129SOL     OW20845   4.645   4.003   5.939  0.1741 -0.1269  0.2733
 3129SOL    HW120846   0.015   4.000   5.926  0.4089  0.1145  1.9248
 3129SOL    HW220847   4.624   4.090   5.973  0.3545 -0.1864  0.5327
 3130SOL     OW20848   2.260   2.687   4.111 -0.2684  0.0188  0.2065
 3130SOL    HW120849   2.319   2.732   4.051  2.6261 -1.2008  2.1199
 3130SOL    HW220850   2.230   2.766   4.156  1.4774  0.3027  0.8590
 3131SOL     OW20851   1.999   4.181   7.685  0.0490  0.2741 -0.6913
 3131SOL    HW120852   2.003   4.086   7.697 -1.9611  0.0472 -1.8339
 3131SOL    HW220853   2.061   4.202   7.755  0.7626  2.3757 -1.9424
 3132SOL     OW20854   3.862   4.549   3.272  0.2417  0.4172 -0.0477
 3132SOL    HW120855   3.927   4.535   3.341 -0.0652 -0.3393  0.0916
 3132SOL    HW220856   3.901   4.628   3.236  0.0545 -0.0972 -1.3877
 3133SOL     OW20857   2.206   0.708  10.307  0.2484  0.8288 -0.1506
 3133SOL    HW120858   2.181   0.627  10.264 -2.1237  1.4783  0.0001
 3133SOL    HW220859   2.277   0.683  10.366 -1.6739 -1.0905  1.3209
 3134SOL     OW20860   0.991   2.960   5.366 -0.4804  0.4316  0.0087
 3134SOL    HW120861   0.940   2.902   5.310 -1.3697  0.8951  0.3280
 3134SOL    HW220862   0.916   3.005   5.407 -0.8673  0.2682 -0.5254
 3135SOL     OW20863   1.408   0.816   1.871 -0.2933  0.4789 -0.6553
 3135SOL    HW120864   1.386   0.886   1.933  2.7831  0.0344  0.9142
 3135SOL    HW220865   1.379   0.736   1.916  1.0793 -0.1312 -0.8460
 3136SOL     OW20866   3.367   3.424   4.145  1.0180  0.1484  0.7025
 3136SOL    HW120867   3.288   3.429   4.092 -0.6982 -0.2248  3.2350
 3136SOL    HW220868   3.441   3.467   4.101 -0.5366  2.0603 -0.0266
 3137SOL     OW20869   4.611   1.774   7.236  0.5354 -0.2661 -0.0409
 3137SOL    HW120870   4.612   1.869   7.230  0.7511  0.0163  4.4999
 3137SOL    HW220871   4.567   1.757   7.153 -2.4434  4.1160  0.6205
 3138SOL     OW20872   0.407   0.880   1.173  0.0426 -0.1109 -0.5173
 3138SOL    HW120873   0.421   0.794   1.214  1.3312 -0.5547 -1.8865
 3138SOL    HW220874   0.375   0.934   1.245 -0.3047  1.3378 -1.7628
 3139SOL     OW20875   3.260   0.624  14.406  0.2550 -0.2154 -0.9361
 3139SOL    HW120876   3.302   0.554  14.456  0.2305  0.3046 -0.1889
 3139SOL    HW220877   3.271   0.699  14.464 -0.8250 -0.0217 -0.9790
 3140SOL     OW20878   2.908   0.216   3.591 -0.0245  0.2192  0.0451
 3140SOL    HW120879   2.915   0.175   3.677 -0.8323  0.0777  0.0474
 3140SOL    HW220880   2.960   0.152   3.544 -0.0835 -1.1515  1.8565
 3141SOL     OW20881   2.759   2.635   5.028 -0.3487  0.6036  1.2114
 3141SOL    HW120882   2.729   2.591   4.948 -1.6211  1.4371  1.2250
 3141SOL    HW220883   2.820   2.571   5.064 -0.5368 -0.2938 -0.0353
 3142SOL     OW20884   1.535   2.536   5.604 -0.0304  0.4753 -0.1297
 3142SOL    HW120885   1.575   2.616   5.569 -1.2372 -0.2231 -3.1303
 3142SOL    HW220886   1.483   2.512   5.527  1.8838 -0.4213 -1.1472
 3143SOL     OW20887   2.662   2.222   7.858  0.3685  0.0216  0.4967
 3143SOL    HW120888   2.593   2.220   7.792  0.4737 -1.6365  0.4602
 3143SOL    HW220889   2.619   2.183   7.934 -0.1925  0.8488  0.6125
 3144SOL     OW20890   0.113   4.523  16.597  0.3627 -0.2101  0.5210
 3144SOL    HW120891   0.034   4.574  16.615  0.5719  0.0333  0.7633
 3144SOL    HW220892   0.103   4.470  16.518  1.9852 -0.4502  0.4686
 3145SOL     OW20893   1.646   3.732  12.174 -0.1489  0.0986 -0.4677
 3145SOL    HW120894   1.695   3.765  12.250  0.3922 -0.8265 -0.4087
 3145SOL    HW220895   1.716   3.678  12.136  0.4560  1.7842 -1.6950
 3146SOL     OW20896   4.594   0.794   4.206 -0.0203 -0.5197 -0.2554
 3146SOL    HW120897   4.677   0.807   4.160 -0.3423 -0.1841 -0.7474
 3146SOL    HW220898   4.611   0.724   4.268  0.9439  1.4988  1.7595
 3147SOL     OW20899   4.401   3.588  17.688  0.1466 -0.2519 -0.1529
 3147SOL    HW120900   4.312   3.554  17.687 -0.2444  0.7682  0.2680
 3147SOL    HW220901   4.381   3.680   0.003 -1.6767 -0.8323  1.1402
 3148SOL     OW20902   0.472   4.524   4.945  0.0744  0.2957  0.4583
 3148SOL    HW120903   0.429   4.497   4.863  0.6619  3.9700 -1.0632
 3148SOL    HW220904   0.558   4.517   4.903 -0.4125 -1.9518 -0.1650
 3149SOL     OW20905   4.111   1.782   0.338 -0.3554  0.5226  0.2329
 3149SOL    HW120906   4.184   1.730   0.305  0.1961  0.7668  1.0699
 3149SOL    HW220907   4.063   1.792   0.256  1.1170 -0.9942 -0.8114
 3150SOL     OW20908   2.177   1.682  15.051  0.2503  0.3931 -0.7539
 3150SOL    HW120909   2.201   1.601  15.096 -2.7813  0.5756  1.1844
 3150SOL    HW220910   2.083   1.668  15.057  0.4728 -0.1088  1.3811
 3151SOL     OW20911   2.581   4.485   4.862 -0.1639  0.0560 -0.4063
 3151SOL    HW120912   2.537   4.483   4.777  0.1425  2.4651 -0.6311
 3151SOL    HW220913   2.659   4.431   4.845  1.1519  1.9034 -0.2532
 3152SOL     OW20914   2.053   4.534   1.513 -0.8839 -0.6190 -0.2005
 3152SOL    HW120915   2.117   4.597   1.546  0.6107 -2.3661  0.2798
 3152SOL    HW220916   1.974   4.553   1.563 -0.8475 -0.3863 -0.2301
 3153SOL     OW20917   4.530   1.147  12.872 -0.3708 -0.5442  0.2502
 3153SOL    HW120918   4.475   1.075  12.841 -1.3731  0.0717  0.6086
 3153SOL    HW220919   4.495   1.232  12.846  0.0856  0.1562  1.9148
 3154SOL     OW20920   1.679   4.506  10.206  0.3759 -0.5447  0.8348
 3154SOL    HW120921   1.652   4.419  10.238 -0.1419 -0.3100  1.0404
 3154SOL    HW220922   1.759   4.514  10.258 -0.0582  1.7495  1.1466
 3155SOL     OW20923   1.320   4.720   4.126 -0.0131 -0.1698 -0.1265
 3155SOL    HW120924   1.270   0.047   4.063  0.4567 -0.9920 -1.1682
 3155SOL    HW220925   1.412   0.016   4.104  0.0878  0.8539  1.2641
 3156SOL     OW20926   3.475   4.643   4.183 -0.0192  0.4439  0.1060
 3156SOL    HW120927   3.428   4.714   4.139  0.0836  0.4431 -0.0080
 3156SOL    HW220928   3.562   4.665   4.148  1.2519 -0.5058  2.7111
 3157SOL     OW20929   0.265   4.037  14.181  0.1336 -0.4551  0.3249
 3157SOL    HW120930   0.233   4.023  14.271 -1.1172 -1.8646 -0.3415
 3157SOL    HW220931   0.217   4.118  14.164  0.6509 -0.0189  0.9241
 3158SOL     OW20932   0.577   1.782  12.250  0.3671 -0.6730 -0.2820
 3158SOL    HW120933   0.532   1.853  12.205 -0.3900 -0.9084  0.0977
 3158SOL    HW220934   0.633   1.741  12.184 -0.5420 -0.6372 -1.0607
 3159SOL     OW20935   2.033   0.115  12.648 -0.1020  0.0248 -0.0367
 3159SOL    HW120936   2.125   0.140  12.645 -0.1055  0.3741  2.2908
 3159SOL    HW220937   2.042   0.044  12.585 -0.5272 -2.2824  2.4804
 3160SOL     OW20938   0.346   4.038   7.718  0.1516  0.3174 -0.0742
 3160SOL    HW120939   0.342   4.004   7.629 -0.4565 -2.4493  0.9851
 3160SOL    HW220940   0.290   3.985   7.775  0.0752  0.8018  0.3027
 3161SOL     OW20941   2.832   0.820  10.037  0.5409  0.2366 -0.1992
 3161SOL    HW120942   2.808   0.866  10.118  0.4736  0.3024 -0.2574
 3161SOL    HW220943   2.771   0.747  10.049  0.1160  0.1867 -2.6998
 3162SOL     OW20944   2.944   1.108   2.372  0.5155  0.3855 -0.2354
 3162SOL    HW120945   3.036   1.081   2.375 -0.1501 -1.9400 -1.4573
 3162SOL    HW220946   2.936   1.203   2.363  1.8438  0.3118 -2.1331
 3163SOL     OW20947   0.794   0.178  16.459 -0.2035 -0.0289 -0.5559
 3163SOL    HW120948   0.747   0.234  16.396 -1.5039 -0.1777  0.2762
 3163SOL    HW220949   0.750   0.198  16.541  1.2820 -0.5095  0.3520
 3164SOL     OW20950   3.329   3.846   3.328  0.7824 -0.6982 -0.6748
 3164SOL    HW120951   3.321   3.881   3.240  0.8550  1.0355  0.0188
 3164SOL    HW220952   3.400   3.783   3.318  1.1235 -0.1772 -1.4963
 3165SOL     OW20953   3.524   0.850   7.482  0.7557  0.3599  0.4957
 3165SOL    HW120954   3.542   0.944   7.471 -1.0820  0.6434  0.0323
 3165SOL    HW220955   3.457   0.839   7.415  1.4884  1.9683 -0.4994
 3166SOL     OW20956   1.451   4.068   4.622 -0.5008 -0.2405  0.2498
 3166SOL    HW120957   1.421   4.100   4.707  0.9596  1.9701 -0.0687
 3166SOL    HW220958   1.514   4.000   4.645 -1.2889 -0.9886  0.2033
 3167SOL     OW20959   0.085   2.479   8.582 -0.0531 -0.3196  0.1740
 3167SOL    HW120960   0.048   2.559   8.618 -0.6648 -0.0551 -1.0304
 3167SOL    HW220961   0.159   2.521   8.537 -1.2516  0.4799 -1.0255
 3168SOL     OW20962   1.348   0.009   4.587 -0.0116  0.2314 -0.2590
 3168SOL    HW120963   1.363   4.648   4.628 -0.2984  0.4952  0.3932
 3168SOL    HW220964   1.350   0.068   4.662 -0.1564  2.1694 -1.7849
 3169SOL     OW20965   0.052   0.474   5.666  0.4197 -0.6435  0.5941
 3169SOL    HW120966   0.051   0.523   5.748 -0.0668  1.3961 -0.6297
 3169SOL    HW220967   0.143   0.484   5.637  0.3078  0.3272  0.5852
 3170SOL     OW20968   3.635   4.170   2.685  0.2106  0.1524 -0.7044
 3170SOL    HW120969   3.668   4.149   2.597 -0.4238  1.6735 -1.3096
 3170SOL    HW220970   3.557   4.222   2.669 -0.0211 -0.5681 -1.9696
 3171SOL     OW20971   3.548   4.471   7.734  0.3533  0.1498  0.6456
 3171SOL    HW120972   3.555   4.411   7.807  1.0263  1.1876  1.4281
 3171SOL    HW220973   3.631   4.458   7.688  0.0753 -0.7780  0.4003
 3172SOL     OW20974   3.509   1.498   5.454 -0.0148  0.0059  0.5398
 3172SOL    HW120975   3.480   1.409   5.476  0.1287 -0.2146 -0.1714
 3172SOL    HW220976   3.494   1.490   5.360  2.4310  2.0405 -0.0300
 3173SOL     OW20977   0.772   0.060   7.436  0.0369 -1.1563 -0.0939
 3173SOL    HW120978   0.771   0.015   7.521  0.5206 -0.1124  0.4677
 3173SOL    HW220979   0.854   0.109   7.434 -0.9736  0.5667 -0.0782
 3174SOL     OW20980   3.412   1.106   4.714  0.0893 -0.0093 -0.7173
 3174SOL    HW120981   3.320   1.082   4.702 -0.2076  1.0285 -0.5176
 3174SOL    HW220982   3.438   1.102   4.622  0.2432  1.8174 -0.7465
 3175SOL     OW20983   2.601   2.337   9.159 -0.6130  0.0881 -0.5286
 3175SOL    HW120984   2.619   2.248   9.128  1.7806  0.5992 -0.6086
 3175SOL    HW220985   2.596   2.377   9.072 -1.1935  2.3042  0.5196
 3176SOL     OW20986   0.461   3.427   2.589 -0.1115  0.1801  0.2813
 3176SOL    HW120987   0.376   3.448   2.627 -0.4894  0.4465 -0.7109
 3176SOL    HW220988   0.439   3.433   2.496 -2.0802  2.7606  0.9164
 3177SOL     OW20989   0.729   1.868   5.421  0.8086  0.2649  0.1937
 3177SOL    HW120990   0.817   1.904   5.407  0.7200 -0.1154 -1.3341
 3177SOL    HW220991   0.679   1.948   5.438 -1.5692 -1.1242 -0.3582
 3178SOL     OW20992   3.937   4.575   5.509 -0.0327  0.0043  0.2470
 3178SOL    HW120993   4.000   4.642   5.479  0.6913  0.0372  1.8525
 3178SOL    HW220994   3.978   4.566   5.595  0.9162 -1.5283 -0.3705
 3179SOL     OW20995   2.490   1.038   7.330  0.6317  0.3152 -0.1135
 3179SOL    HW120996   2.425   0.980   7.292 -0.2298  1.6315 -0.6465
 3179SOL    HW220997   2.529   0.976   7.392  0.8369  0.8364  0.2742
 3180SOL     OW20998   3.905   1.700   4.921  0.1071  0.3150 -0.3009
 3180SOL    HW120999   3.867   1.760   4.857  1.4040  0.4929 -0.9096
 3180SOL    HW221000   3.851   1.719   4.998 -0.2462  2.7877 -1.1516
 3181SOL     OW21001   3.009   3.603  11.362 -0.0346 -0.2127  0.0528
 3181SOL    HW121002   2.924   3.606  11.319 -0.1025  2.5985  0.3629
 3181SOL    HW221003   3.017   3.511  11.388 -0.6779  0.0618  1.2367
 3182SOL     OW21004   3.892   0.444   5.430 -0.1022 -0.5950 -0.4938
 3182SOL    HW121005   3.813   0.391   5.444 -0.5228  1.0104  3.0589
 3182SOL    HW221006   3.858   0.484   5.350  0.4679  3.1089  1.1311
 3183SOL     OW21007   4.484   1.505   7.321 -0.0898 -0.1687  0.3074
 3183SOL    HW121008   4.415   1.441   7.306 -0.4738  1.0135 -3.0166
 3183SOL    HW221009   4.517   1.522   7.233  1.4914  1.1708  1.1653
 3184SOL     OW21010   1.712   4.717   5.142 -0.4396  0.4158  0.3911
 3184SOL    HW121011   1.752   0.028   5.221  1.2250  0.6308 -0.5226
 3184SOL    HW221012   1.789   0.011   5.087 -1.9303 -0.8108 -2.1171
 3185SOL     OW21013   2.841   2.805   6.102  0.8874  0.5046 -0.0197
 3185SOL    HW121014   2.934   2.792   6.088  0.5408 -0.1393 -1.7548
 3185SOL    HW221015   2.830   2.782   6.194 -0.4684  1.9936  0.1957
 3186SOL     OW21016   1.177   4.057   4.154 -0.1374  0.1837  0.5119
 3186SOL    HW121017   1.242   4.025   4.092 -0.3835  0.6458  0.0094
 3186SOL    HW221018   1.233   4.060   4.232  0.3133  0.0626  0.1890
 3187SOL     OW21019   3.489   2.473   7.727 -0.1769 -0.8934  0.7965
 3187SOL    HW121020   3.446   2.407   7.782 -1.1673 -1.9106 -1.2006
 3187SOL    HW221021   3.580   2.443   7.730 -0.7425 -2.6188  0.9040
 3188SOL     OW21022   1.703   0.484   6.899  0.4893  0.0930 -0.3814
 3188SOL    HW121023   1.792   0.510   6.877  0.4582 -1.8017 -2.6972
 3188SOL    HW221024   1.722   0.397   6.935  0.1624  0.5654  0.9503
 3189SOL     OW21025   2.399   3.783  13.260 -0.2848  0.6967  0.2829
 3189SOL    HW121026   2.395   3.835  13.340 -1.6900  2.2456 -0.7928
 3189SOL    HW221027   2.464   3.717  13.284 -2.6009 -2.4691 -2.2047
 3190SOL     OW21028   0.779   1.672   5.183  0.1589 -0.1135  0.2534
 3190SOL    HW121029   0.697   1.692   5.228 -0.4815 -0.7693 -0.6315
 3190SOL    HW221030   0.772   1.738   5.113 -0.2873 -1.1157 -0.6449
 3191SOL     OW21031   3.985   4.413  15.932  0.2022  0.8162  0.2987
 3191SOL    HW121032   4.064   4.451  15.971  0.5026 -2.3875  2.8646
 3191SOL    HW221033   3.922   4.437  16.000  0.3668 -1.1836  1.1623
 3192SOL     OW21034   0.253   1.197   8.245  0.0559 -0.0859 -0.7388
 3192SOL    HW121035   0.223   1.273   8.295 -0.3642 -0.9542  0.3210
 3192SOL    HW221036   0.284   1.240   8.166 -0.0792 -0.1246 -0.8145
 3193SOL     OW21037   1.242   4.190   3.156 -0.0176  0.0059 -0.7468
 3193SOL    HW121038   1.253   4.128   3.085  1.0967  0.6138 -1.1001
 3193SOL    HW221039   1.165   4.148   3.195 -0.0433  0.9038  0.1861
 3194SOL     OW21040   0.660   4.580   2.531  0.3153 -0.6240 -0.1329
 3194SOL    HW121041   0.660   4.615   2.442  0.7925  1.8669  0.8455
 3194SOL    HW221042   0.604   4.642   2.579  1.5316  1.5579 -1.5350
 3195SOL     OW21043   4.717   0.020   4.784 -0.4011 -0.2579  0.0410
 3195SOL    HW121044   4.672   4.661   4.771 -0.2213 -0.5201  1.1723
 3195SOL    HW221045   4.644   0.070   4.821  1.0672  2.0967 -0.2759
 3196SOL     OW21046   3.763   4.466   7.502  0.2302  0.4943 -0.3054
 3196SOL    HW121047   3.786   4.376   7.480 -0.4069  0.9463 -2.8610
 3196SOL    HW221048   3.835   4.489   7.561 -0.2289  1.5614 -0.1580
 3197SOL     OW21049   1.189   3.049   6.904  0.0935 -0.2859  0.4718
 3197SOL    HW121050   1.231   3.001   6.976  0.7727 -0.9350 -0.3611
 3197SOL    HW221051   1.255   3.034   6.836  0.6058 -3.6684  1.7298
 3198SOL     OW21052   0.668   2.842   6.572  0.1182  0.3310 -0.4761
 3198SOL    HW121053   0.730   2.914   6.582 -2.5055  2.1203  3.2041
 3198SOL    HW221054   0.596   2.873   6.628  0.6547 -0.1346  0.4661
 3199SOL     OW21055   2.672   0.220   5.199  0.0872  0.4695  0.8590
 3199SOL    HW121056   2.633   0.284   5.139 -1.1112  0.0260  1.1622
 3199SOL    HW221057   2.702   0.278   5.269  0.8686  0.6772  0.3529
 3200SOL     OW21058   0.011   2.303   6.275 -0.2070  0.2192  0.6161
 3200SOL    HW121059   0.089   2.274   6.227  1.6531  2.3816  2.2685
 3200SOL    HW221060   4.705   2.375   6.219  2.4047  2.5413  2.1385
 3201SOL     OW21061   0.981   2.005   8.135 -0.9644 -0.2980 -0.0709
 3201SOL    HW121062   0.957   1.967   8.220 -0.9590 -0.8102 -0.3020
 3201SOL    HW221063   0.964   1.931   8.077  2.3494 -1.6108  0.6182
 3202SOL     OW21064   2.279   3.196   6.691 -0.0372  0.5763  0.5207
 3202SOL    HW121065   2.349   3.234   6.743 -0.2593  0.2697  1.0439
 3202SOL    HW221066   2.208   3.257   6.707 -0.6266  0.1301 -0.3534
 3203SOL     OW21067   2.305   1.624   2.708  0.3897  0.1929  0.6112
 3203SOL    HW121068   2.336   1.546   2.664 -0.1465  1.8216 -2.6272
 3203SOL    HW221069   2.321   1.685   2.636 -1.2700  1.9448  1.7092
 3204SOL     OW21070   0.064   1.079   3.245  0.6752  0.5312 -0.6997
 3204SOL    HW121071   0.129   1.059   3.177  1.4251 -2.0467  0.7666
 3204SOL    HW221072   4.716   1.110   3.191  0.2174  0.4098 -0.1563
 3205SOL     OW21073   2.449   2.908   7.867  0.1145 -0.0516 -0.2221
 3205SOL    HW121074   2.408   2.867   7.943 -1.5579 -0.5430 -1.3871
 3205SOL    HW221075   2.540   2.912   7.895 -0.4906  0.7207  1.6109
 3206SOL     OW21076   1.194   2.360   7.117 -0.0142  0.3580 -0.6000
 3206SOL    HW121077   1.202   2.452   7.142  1.7214 -1.0622  4.0226
 3206SOL    HW221078   1.123   2.332   7.175  0.7680  1.6152  0.9516
 3207SOL     OW21079   1.571   3.602   9.245 -0.2987 -0.1682 -0.2618
 3207SOL    HW121080   1.606   3.514   9.253  1.7251  0.6239 -0.2591
 3207SOL    HW221081   1.549   3.620   9.337  0.3802  1.7844 -0.4677
 3208SOL     OW21082   0.624   0.071   6.501 -0.7230 -0.1388 -0.2360
 3208SOL    HW121083   0.689   0.011   6.467  0.2720  2.7094 -3.4279
 3208SOL    HW221084   0.538   0.030   6.489 -0.4238  0.2685 -3.8899
 3209SOL     OW21085   2.867   0.926   5.375  0.0073 -0.3138 -0.3737
 3209SOL    HW121086   2.798   0.992   5.385 -2.3423 -2.8500  0.4052
 3209SOL    HW221087   2.910   0.927   5.460 -1.2811 -0.7469  0.2922
 3210SOL     OW21088   3.752   3.821   2.277 -0.1416 -0.3165 -0.2742
 3210SOL    HW121089   3.840   3.848   2.252  0.0310  1.2949  2.0025
 3210SOL    HW221090   3.688   3.866   2.222 -0.0191  1.0282  0.6929
 3211SOL     OW21091   2.255   4.026   5.173  0.3868  0.3831 -0.1838
 3211SOL    HW121092   2.163   4.022   5.147  0.3874  0.3291 -0.1783
 3211SOL    HW221093   2.254   4.047   5.267 -1.3369 -2.1400  0.3660
 3212SOL     OW21094   0.144   2.184   9.657  0.7304  0.0201  0.2284
 3212SOL    HW121095   0.223   2.180   9.604  0.5735  0.8908 -0.0614
 3212SOL    HW221096   0.176   2.117   9.717  0.1010 -0.5757 -0.0868
 3213SOL     OW21097   4.721   3.812   7.834 -0.5110 -0.1756 -0.0725
 3213SOL    HW121098   4.666   3.736   7.856  2.0474 -2.7630 -2.6735
 3213SOL    HW221099   4.662   3.887   7.844  1.1085  1.0777 -0.1438
 3214SOL     OW21100   0.145   0.145   3.493  0.4011  0.2754  0.0833
 3214SOL    HW121101   0.198   0.153   3.413 -0.0668 -1.5668 -0.4130
 3214SOL    HW221102   0.070   0.091   3.466 -0.9053  2.7374 -1.1517
 3215SOL     OW21103   3.110   2.587   3.849  0.5651 -0.2206 -0.2308
 3215SOL    HW121104   3.048   2.574   3.920 -0.0981  1.1534 -0.5733
 3215SOL    HW221105   3.053   2.588   3.772  1.9330  0.7703 -1.2519
 3216SOL     OW21106   4.070   3.975   3.853 -0.0136  0.0294  0.2104
 3216SOL    HW121107   3.974   3.972   3.853 -0.0268  0.5263  1.1109
 3216SOL    HW221108   4.080   4.032   3.929 -1.8132  0.1319  0.3798
 3217SOL     OW21109   1.799   4.690   6.332 -0.2947  0.2924  0.2844
 3217SOL    HW121110   1.731   4.645   6.282  1.7246 -2.2405 -0.2173
 3217SOL    HW221111   1.774   0.056   6.310 -0.6072 -0.0046 -0.5728
 3218SOL     OW21112   2.360   1.636  11.104  0.1812 -0.3123  0.1816
 3218SOL    HW121113   2.407   1.666  11.026 -0.7477  2.5978  0.7450
 3218SOL    HW221114   2.288   1.596  11.056 -0.4395 -0.1898  1.0159
 3219SOL     OW21115   2.653   2.901   8.128 -0.3438  0.3694 -0.5434
 3219SOL    HW121116   2.603   2.819   8.123 -0.1929  0.1343  1.7677
 3219SOL    HW221117   2.642   2.927   8.219 -0.5199 -2.1804  0.1825
 3220SOL     OW21118   0.426   1.866   0.407 -0.0230 -0.3719 -0.3549
 3220SOL    HW121119   0.490   1.809   0.448  1.2738  2.8998  2.1619
 3220SOL    HW221120   0.397   1.825   0.325 -0.2113 -1.8307  0.4337
 3221SOL     OW21121   0.379   1.517   4.102 -0.4207  0.0326  0.0701
 3221SOL    HW121122   0.373   1.455   4.174  0.0993  0.8126  0.7921
 3221SOL    HW221123   0.421   1.468   4.031  0.4913  1.8454 -0.6444
 3222SOL     OW21124   3.381   4.262   2.496 -0.4155 -0.4039 -0.1767
 3222SOL    HW121125   3.354   4.170   2.493 -0.6501 -0.2547 -2.9120
 3222SOL    HW221126   3.339   4.289   2.578 -1.0784 -0.4439 -0.4981
 3223SOL     OW21127   1.009   0.432   9.426  0.5251 -0.4850  0.3023
 3223SOL    HW121128   0.919   0.448   9.399 -0.1127 -0.2012  2.5620
 3223SOL    HW221129   1.032   0.519   9.461 -1.0261 -0.0162  0.1532
 3224SOL     OW21130   3.163   0.453  11.042  0.3071  0.2039  0.1910
 3224SOL    HW121131   3.082   0.471  11.089 -1.0127 -2.7888 -0.9334
 3224SOL    HW221132   3.196   0.542  11.031 -0.4824  0.4481 -0.1607
 3225SOL     OW21133   3.615   3.623   9.758 -0.0295 -0.1594  0.1197
 3225SOL    HW121134   3.546   3.593   9.698 -2.0277  1.5343  1.5488
 3225SOL    HW221135   3.553   3.673   9.811  0.3249  0.8121 -0.3703
 3226SOL     OW21136   1.129   3.887   4.395  0.3805 -0.3457  0.2857
 3226SOL    HW121137   1.104   3.903   4.305  0.9234 -0.9629  0.0230
 3226SOL    HW221138   1.218   3.921   4.390  0.3753 -0.3666  0.0645
 3227SOL     OW21139   1.346   3.170  11.114  0.0935 -0.2003  0.6241
 3227SOL    HW121140   1.346   3.084  11.071 -0.9528  0.9363 -1.7044
 3227SOL    HW221141   1.432   3.187  11.076 -1.0970  3.5588 -0.4218
 3228SOL     OW21142   2.576   0.372   8.401 -0.1280 -0.3623 -0.1696
 3228SOL    HW121143   2.518   0.324   8.460 -0.1290 -0.6543 -0.4059
 3228SOL    HW221144   2.532   0.457   8.395  2.3838  0.9584  0.2070
 3229SOL     OW21145   2.781   3.104  14.057  0.1405 -0.0596 -0.1156
 3229SOL    HW121146   2.871   3.125  14.034  0.7453 -3.2313 -0.7054
 3229SOL    HW221147   2.764   3.057  13.976  0.4395 -1.0304  0.3781
 3230SOL     OW21148   0.305   1.574   3.592  0.6821  0.4207  0.2569
 3230SOL    HW121149   0.279   1.556   3.682 -0.5988  1.0357  0.0121
 3230SOL    HW221150   0.218   1.574   3.552  0.5613 -2.4859  0.5632
 3231SOL     OW21151   4.455   2.059   2.882 -0.0031  0.4421  0.2299
 3231SOL    HW121152   4.513   2.119   2.835  2.3247 -3.1459 -1.4510
 3231SOL    HW221153   4.523   1.997   2.907 -0.2573  0.1465  0.1914
 3232SOL     OW21154   1.070   1.380   5.221 -0.3339 -1.3655  0.0253
 3232SOL    HW121155   1.015   1.361   5.145  2.0300  0.1142 -2.0421
 3232SOL    HW221156   1.048   1.473   5.222  2.0411 -0.8171  1.2857
 3233SOL     OW21157   1.616   0.662   2.840  0.1086  0.2974  0.0422
 3233SOL    HW121158   1.632   0.569   2.856  1.5712  0.6572  0.7336
 3233SOL    HW221159   1.615   0.702   2.927 -0.3146  0.0515  0.1477
 3234SOL     OW21160   1.389   3.667  12.018  0.2643  0.2187 -0.1251
 3234SOL    HW121161   1.482   3.662  11.996 -0.3408 -0.7293 -2.4615
 3234SOL    HW221162   1.384   3.722  12.096  0.1463 -1.9445  1.3932
 3235SOL     OW21163   1.507   4.377   2.946  0.1423 -0.2031 -0.5591
 3235SOL    HW121164   1.424   4.417   2.972  1.6971  2.0233  0.9611
 3235SOL    HW221165   1.504   4.331   2.863 -1.4635 -0.7095 -0.2210
 3236SOL     OW21166   3.347   1.714   4.752  0.1852  0.3467  0.7394
 3236SOL    HW121167   3.389   1.639   4.709 -0.9754 -1.4821  2.7767
 3236SOL    HW221168   3.256   1.688   4.736  0.2400  0.8688 -0.4405
 3237SOL     OW21169   0.633   1.743   9.200 -0.0942 -0.0052  0.3599
 3237SOL    HW121170   0.617   1.659   9.156  2.7674 -0.7670  0.8144
 3237SOL    HW221171   0.630   1.804   9.126  0.1627  2.1609  2.1595
 3238SOL     OW21172   3.324   0.735   2.420  0.3012 -0.5039  0.1070
 3238SOL    HW121173   3.347   0.646   2.393 -3.3385 -1.2362 -0.4784
 3238SOL    HW221174   3.232   0.723   2.442  0.0367 -0.9955 -1.2768
 3239SOL     OW21175   0.812   1.345   1.178 -0.5205  0.0761 -0.2736
 3239SOL    HW121176   0.739   1.355   1.117 -0.7952  0.0642  0.0563
 3239SOL    HW221177   0.821   1.435   1.209  2.4856 -1.2260  2.6258
 3240SOL     OW21178   0.033   1.185   6.746  0.2668 -0.1700  0.4579
 3240SOL    HW121179   0.026   1.142   6.831  0.9086 -0.4054  0.3890
 3240SOL    HW221180   0.093   1.119   6.711 -0.5981 -0.7423  0.0243
 3241SOL     OW21181   1.848   4.527   4.762 -0.3778 -0.4833  0.0243
 3241SOL    HW121182   1.835   4.618   4.736 -2.7625 -0.8234  0.0113
 3241SOL    HW221183   1.942   4.519   4.777 -0.4848  1.3032  1.6029
 3242SOL     OW21184   1.534   3.482   1.732 -0.3842  0.3544  0.7704
 3242SOL    HW121185   1.515   3.492   1.639  3.0445 -0.3624 -0.0079
 3242SOL    HW221186   1.495   3.398   1.756 -0.2207  0.3854  1.1493
 3243SOL     OW21187   4.514   1.603   2.186 -0.1105  0.2048 -0.1318
 3243SOL    HW121188   4.424   1.572   2.180  0.0492 -0.0721 -1.0755
 3243SOL    HW221189   4.540   1.577   2.274 -1.6423 -0.4595  0.1099
 3244SOL     OW21190   3.725   1.989  16.732 -0.9522  0.1831 -0.0599
 3244SOL    HW121191   3.794   1.928  16.759  0.7798  2.0159 -0.2856
 3244SOL    HW221192   3.655   1.934  16.767  0.2596  0.0911  2.2238
 3245SOL     OW21193   1.017   1.230   6.709  0.8292  0.3560  0.1015
 3245SOL    HW121194   1.067   1.151   6.689 -0.4366 -1.2297  3.2854
 3245SOL    HW221195   0.952   1.192   6.767  0.2020  0.4664 -0.5263
 3246SOL     OW21196   3.990   1.159   0.155  0.0420 -0.2215 -0.2326
 3246SOL    HW121197   4.043   1.230   0.191  0.6019  0.6752 -2.8577
 3246SOL    HW221198   3.970   1.110   0.235  0.9059 -0.3453 -0.0893
 3247SOL     OW21199   0.903   0.744   3.380  0.4400  0.3769 -0.0812
 3247SOL    HW121200   0.894   0.717   3.471 -1.4237  1.2059 -0.0029
 3247SOL    HW221201   0.827   0.803   3.383 -0.7190 -1.1412  0.2249
 3248SOL     OW21202   0.452   1.909   7.186 -0.6454 -0.6693  0.1107
 3248SOL    HW121203   0.363   1.909   7.152 -0.6007 -1.4955 -0.0088
 3248SOL    HW221204   0.448   1.821   7.223  1.0548 -0.2031  1.4180
 3249SOL     OW21205   3.636   4.052   1.894  0.0394 -0.2244  0.4582
 3249SOL    HW121206   3.649   4.146   1.905  0.0015  0.1789 -2.9508
 3249SOL    HW221207   3.641   4.037   1.800 -2.8903  1.2314  0.0569
 3250SOL     OW21208   4.151   0.299   6.845  0.0327  0.0308  0.0325
 3250SOL    HW121209   4.138   0.205   6.837  1.4547 -0.3219  2.0915
 3250SOL    HW221210   4.221   0.299   6.910  1.3127  1.0922 -1.3624
 3251SOL     OW21211   0.561   4.496   5.623  0.3915 -0.1464  0.4874
 3251SOL    HW121212   0.470   4.527   5.628 -0.0054 -0.9969 -1.4143
 3251SOL    HW221213   0.549   4.403   5.604 -0.9644  0.5464 -1.9958
 3252SOL     OW21214   3.452   2.067   8.642 -0.4149 -0.0233 -0.1967
 3252SOL    HW121215   3.477   2.006   8.710 -0.5457 -0.3123 -0.4089
 3252SOL    HW221216   3.526   2.128   8.639  0.6572 -1.2839  1.2878
 3253SOL     OW21217   1.258   1.955   8.212  0.5921  0.3987 -0.8519
 3253SOL    HW121218   1.301   1.969   8.128  1.3303 -3.0510 -1.0530
 3253SOL    HW221219   1.204   2.034   8.215  1.1937  0.7136  1.3707
 3254SOL     OW21220   1.912   0.275  10.479  0.1592 -0.3675 -0.0836
 3254SOL    HW121221   1.979   0.287  10.412 -0.8161  2.1307 -0.6363
 3254SOL    HW221222   1.901   0.181  10.474 -2.0844 -0.2531  2.5209
 3255SOL     OW21223   1.125   4.368   7.675  0.0131  0.7341 -0.5502
 3255SOL    HW121224   1.186   4.312   7.627 -1.1269  0.4947 -1.7110
 3255SOL    HW221225   1.149   4.450   7.632  0.7025  1.9924  2.2320
 3256SOL     OW21226   1.028   2.995   4.468 -0.2683 -0.6987  0.0812
 3256SOL    HW121227   0.989   3.041   4.543 -2.4527 -3.1745  0.4872
 3256SOL    HW221228   1.117   3.013   4.497 -0.1647 -2.3110  0.7728
 3257SOL     OW21229   4.576   0.648  17.142 -0.1888 -0.6992 -0.1980
 3257SOL    HW121230   4.489   0.649  17.183  1.1927  3.0644  2.6888
 3257SOL    HW221231   4.623   0.606  17.214 -1.0493  2.0846  1.9958
 3258SOL     OW21232   1.749   3.926  13.297  0.0627 -0.6923 -0.0056
 3258SOL    HW121233   1.823   3.886  13.252 -0.3142  0.9100 -2.0093
 3258SOL    HW221234   1.687   3.877  13.244  0.2144 -2.3931  1.3613
 3259SOL     OW21235   1.926   0.467   2.549  0.5038  0.2593  0.1108
 3259SOL    HW121236   1.976   0.479   2.629 -1.6201  2.6147  1.0904
 3259SOL    HW221237   1.938   0.552   2.506  0.1816  0.6012  0.6950
 3260SOL     OW21238   4.418   1.510  13.865  0.4542 -0.0141  0.1847
 3260SOL    HW121239   4.424   1.488  13.772  1.4431  1.6228 -0.1539
 3260SOL    HW221240   4.329   1.485  13.886  0.3930  0.1274  0.0961
 3261SOL     OW21241   3.171   2.343   9.305  0.0731 -0.0072  0.4008
 3261SOL    HW121242   3.097   2.343   9.244 -0.0549  0.3705  0.5579
 3261SOL    HW221243   3.208   2.256   9.288 -1.1430 -0.5049  0.2642
 3262SOL     OW21244   1.762   1.947   6.383 -0.2677  0.3352  0.4107
 3262SOL    HW121245   1.761   1.949   6.479 -2.1561 -1.8620  0.4290
 3262SOL    HW221246   1.691   2.010   6.372 -0.5323 -0.0428 -0.0294
 3263SOL     OW21247   4.538   2.513   0.871  0.3271 -0.0043  0.7213
 3263SOL    HW121248   4.592   2.434   0.863  2.0732  0.9567  3.0285
 3263SOL    HW221249   4.489   2.512   0.789  1.5423 -0.5758 -0.0002
 3264SOL     OW21250   2.608   4.092   8.711  0.0910  0.3993 -0.1900
 3264SOL    HW121251   2.696   4.102   8.674 -0.3497 -0.8019 -1.5395
 3264SOL    HW221252   2.598   3.999   8.731 -1.4775  0.6029 -0.0180
 3265SOL     OW21253   0.145   3.589   4.726 -0.4029 -0.2228  0.3301
 3265SOL    HW121254   0.171   3.528   4.795  3.3028  2.4721  1.2991
 3265SOL    HW221255   0.136   3.522   4.658 -3.5747  0.4508  0.0884
 3266SOL     OW21256   3.026   2.233   7.223 -0.0488  0.0366  0.3164
 3266SOL    HW121257   3.100   2.293   7.221 -0.0663  0.1249  2.1836
 3266SOL    HW221258   2.964   2.291   7.178 -0.0001 -0.2492 -0.1215
 3267SOL     OW21259   4.481   0.109   4.890  0.0213 -0.7023 -0.2879
 3267SOL    HW121260   4.409   0.080   4.946  0.0622 -1.4537 -0.6291
 3267SOL    HW221261   4.470   0.204   4.897 -0.1962 -0.8105  0.9205
 3268SOL     OW21262   4.223   4.608   8.523 -0.2981 -0.3111 -0.1525
 3268SOL    HW121263   4.274   4.681   8.560 -1.7755 -0.3551  2.0031
 3268SOL    HW221264   4.199   4.556   8.599 -1.9602  2.2604  1.0995
 3269SOL     OW21265   3.005   2.319   2.384 -0.2409  0.2640 -0.4934
 3269SOL    HW121266   2.995   2.259   2.309 -2.5332 -0.5392  0.4601
 3269SOL    HW221267   2.926   2.294   2.431 -0.4036  0.1897 -0.8042
 3270SOL     OW21268   4.721   3.905   6.976 -0.5164 -0.0052 -1.0913
 3270SOL    HW121269   0.059   3.972   7.005 -0.6436  0.1602 -1.2046
 3270SOL    HW221270   0.041   3.871   6.898  0.9944  0.9536 -0.6614
 3271SOL     OW21271   1.285   1.690   2.090 -0.4927  0.7575  0.1327
 3271SOL    HW121272   1.359   1.747   2.071  0.7036 -0.6209  0.6186
 3271SOL    HW221273   1.277   1.645   2.006  0.7569  1.1767 -0.2225
 3272SOL     OW21274   3.170   3.244   0.293 -0.1442 -0.4594 -0.0091
 3272SOL    HW121275   3.233   3.296   0.343 -2.2068  1.4531  0.5923
 3272SOL    HW221276   3.230   3.179   0.257 -1.0378 -1.0475 -0.4346
 3273SOL     OW21277   1.090   1.932   4.302  0.0108 -0.0126  0.2384
 3273SOL    HW121278   1.002   1.921   4.264  0.0470  1.4916 -0.2910
 3273SOL    HW221279   1.141   1.901   4.227  0.4955  0.2475  0.4658
 3274SOL     OW21280   1.409   3.204   3.472 -0.2793 -0.5767 -0.3887
 3274SOL    HW121281   1.365   3.139   3.526 -0.9920 -0.5193 -0.8991
 3274SOL    HW221282   1.334   3.213   3.413 -1.6867  1.2036  1.6788
 3275SOL     OW21283   1.961   0.958  11.772  0.7181  0.4376 -0.1841
 3275SOL    HW121284   1.943   1.046  11.738 -0.1996 -0.3745 -1.7845
 3275SOL    HW221285   2.017   0.975  11.848 -0.3787 -2.1476  1.1802
 3276SOL     OW21286   4.282   0.051   5.088  0.3334 -0.0538  0.1954
 3276SOL    HW121287   4.241   4.693   5.117 -0.8238  0.5926  0.3811
 3276SOL    HW221288   4.256   0.112   5.157 -0.2217  0.0813 -0.1359
 3277SOL     OW21289   1.527   2.088   9.094  0.3216 -0.0121 -0.0344
 3277SOL    HW121290   1.565   2.001   9.081  0.6354  0.5965 -3.1480
 3277SOL    HW221291   1.560   2.114   9.181 -4.3588  2.1253  1.1598
 3278SOL     OW21292   3.238   0.415   1.014  0.2775  0.1641 -0.0905
 3278SOL    HW121293   3.227   0.488   0.953 -2.3601 -1.5352 -1.6436
 3278SOL    HW221294   3.209   0.338   0.966  1.2516  0.1626 -0.6887
 3279SOL     OW21295   3.694   0.862   5.887 -0.1272  0.5773  0.3085
 3279SOL    HW121296   3.732   0.784   5.929 -1.8515  1.1846  2.9743
 3279SOL    HW221297   3.745   0.937   5.918 -0.3161  1.3807 -1.3324
 3280SOL     OW21298   1.963   3.499   7.259  0.2306  0.5352 -0.4127
 3280SOL    HW121299   1.892   3.438   7.241  0.6708  0.0611 -0.5210
 3280SOL    HW221300   2.029   3.441   7.299  0.4310 -0.3721 -2.0958
 3281SOL     OW21301   3.124   3.431   2.603 -0.0812 -0.5383  0.1170
 3281SOL    HW121302   3.096   3.361   2.544 -0.2333 -1.0230  0.7691
 3281SOL    HW221303   3.216   3.404   2.613  0.3466  0.8325 -0.1367
 3282SOL     OW21304   1.876   0.997  16.481  0.6713  0.6082 -0.4032
 3282SOL    HW121305   1.913   0.967  16.564  1.6333  1.0968 -0.6508
 3282SOL    HW221306   1.812   1.059  16.515  1.6679  0.3778  1.9232
 3283SOL     OW21307   0.836   3.532  16.173 -0.1406  0.7799 -0.1231
 3283SOL    HW121308   0.829   3.627  16.169  1.3242  0.8610 -0.9055
 3283SOL    HW221309   0.816   3.519  16.266  2.3444  0.6006  0.3767
 3284SOL     OW21310   3.988   0.236  13.578 -0.7278  0.2465 -0.0805
 3284SOL    HW121311   3.951   0.280  13.655  1.1972 -0.2332  1.1139
 3284SOL    HW221312   3.920   0.171  13.563 -0.6934 -0.0711  1.1291
 3285SOL     OW21313   4.204   0.868  10.549 -0.1245 -0.1403 -0.3337
 3285SOL    HW121314   4.248   0.929  10.489  2.2373 -1.8585 -0.3354
 3285SOL    HW221315   4.239   0.787  10.511  2.0074  0.8176 -0.4475
 3286SOL     OW21316   0.166   4.631   7.911 -0.1660  0.6148 -0.1586
 3286SOL    HW121317   0.240   4.620   7.851  0.0387  1.1181  0.0031
 3286SOL    HW221318   0.100   4.666   7.851 -1.3620 -0.5091  0.4848
 3287SOL     OW21319   0.362   0.181   2.471  0.7560  0.4121  0.0640
 3287SOL    HW121320   0.331   0.272   2.466 -1.4732 -0.2974  0.7891
 3287SOL    HW221321   0.455   0.197   2.485  0.5203  2.4634 -0.7477
 3288SOL     OW21322   2.224   3.654  10.210  0.8455 -0.6801  0.6213
 3288SOL    HW121323   2.277   3.622  10.138  1.8430 -1.2527  1.6071
 3288SOL    HW221324   2.156   3.587  10.203 -0.9131  1.1486  0.3659
 3289SOL     OW21325   3.359   0.237   7.482  0.3504  0.2130  0.8162
 3289SOL    HW121326   3.398   0.319   7.512  0.3573  0.4068  0.2819
 3289SOL    HW221327   3.269   0.246   7.514 -0.1335 -0.9062 -0.2236
 3290SOL     OW21328   1.122   1.899   1.103  0.3927 -0.1673 -0.3965
 3290SOL    HW121329   1.108   1.932   1.192 -0.1583 -0.7086 -0.2822
 3290SOL    HW221330   1.182   1.968   1.075 -0.0159  1.0683  1.7753
 3291SOL     OW21331   2.392   3.427   4.790 -0.3859 -0.0028 -0.2440
 3291SOL    HW121332   2.374   3.520   4.775  1.3287  0.3178 -0.3394
 3291SOL    HW221333   2.464   3.420   4.727 -0.2550  2.9453 -0.4583
 3292SOL     OW21334   1.778   2.256  10.768  0.0395  0.0770 -0.2108
 3292SOL    HW121335   1.851   2.318  10.776 -2.7404  3.0421  2.1493
 3292SOL    HW221336   1.804   2.185  10.826  0.0024 -0.0999 -0.4094
 3293SOL     OW21337   4.264   0.679   5.047  0.1330  0.6495  0.3567
 3293SOL    HW121338   4.332   0.719   4.994 -0.0814 -0.2806 -0.6178
 3293SOL    HW221339   4.299   0.605   5.097  0.6352  0.2125 -0.6383
 3294SOL     OW21340   3.289   4.319  16.669 -0.2353  0.0363 -0.0073
 3294SOL    HW121341   3.358   4.254  16.658 -0.3689 -0.1658  0.3366
 3294SOL    HW221342   3.341   4.388  16.628  0.6841  0.2296  1.4954
 3295SOL     OW21343   1.963   0.721   8.960 -0.3313  0.7414 -1.1833
 3295SOL    HW121344   1.966   0.778   8.884  0.4368 -1.2962 -2.6887
 3295SOL    HW221345   2.009   0.775   9.024  1.4700 -0.4700 -1.4579
 3296SOL     OW21346   1.839   3.501  15.071 -0.3322 -0.0091  0.7718
 3296SOL    HW121347   1.868   3.427  15.018 -1.2038  0.1522  0.0762
 3296SOL    HW221348   1.834   3.568  15.003 -0.2709  2.1986  2.9323
 3297SOL     OW21349   2.049   4.271  15.445  0.1251 -0.0562 -0.4166
 3297SOL    HW121350   2.074   4.351  15.491  1.6223 -0.7532 -0.0053
 3297SOL    HW221351   1.954   4.276  15.459 -0.0283 -0.4131 -1.3209
 3298SOL     OW21352   0.696   1.653  16.883 -0.3267 -0.0731 -0.0460
 3298SOL    HW121353   0.688   1.705  16.803 -2.5376 -2.4368 -1.3671
 3298SOL    HW221354   0.790   1.633  16.880 -0.0817  1.2183 -1.3199
 3299SOL     OW21355   1.343   2.627   8.883 -0.2476  0.3382 -0.9086
 3299SOL    HW121356   1.249   2.646   8.877  0.5924  4.2291 -1.6003
 3299SOL    HW221357   1.387   2.710   8.899 -1.2927  0.9332 -1.1557
 3300SOL     OW21358   0.903   2.019   0.969  0.0918  0.1617 -0.2574
 3300SOL    HW121359   0.835   1.952   0.967  0.8782 -0.6053 -1.5600
 3300SOL    HW221360   0.975   1.976   1.014 -0.4338 -0.4892 -0.0411
 3301SOL     OW21361   4.658   1.030   0.645  0.4180 -0.0518 -0.0741
 3301SOL    HW121362   0.020   1.064   0.669  0.9409 -1.5633  0.1353
 3301SOL    HW221363   4.609   1.052   0.724  1.0010 -1.0984  0.5750
 3302SOL     OW21364   3.059   0.523  15.145  0.2684  0.2241  0.3871
 3302SOL    HW121365   3.113   0.445  15.156  1.4417  1.2190  1.6098
 3302SOL    HW221366   3.107   0.583  15.201  0.2152  1.0882 -0.4931
 3303SOL     OW21367   1.556   4.457   5.685 -0.3719 -0.4362 -0.2012
 3303SOL    HW121368   1.636   4.405   5.670  0.1409 -0.2323  1.7533
 3303SOL    HW221369   1.524   4.418   5.767  0.8029  0.1244  0.5275
 3304SOL     OW21370   3.360   4.191   1.970  0.4998  1.0197 -0.0955
 3304SOL    HW121371   3.418   4.122   1.939  0.6486  0.3466  1.6848
 3304SOL    HW221372   3.391   4.198   2.061 -0.6112 -1.6470  0.4672
 3305SOL     OW21373   2.673   4.135   5.474 -0.5456  0.1530 -0.5615
 3305SOL    HW121374   2.680   4.100   5.563  0.5791  0.2298 -0.6232
 3305SOL    HW221375   2.597   4.082   5.446 -0.1320 -0.1049 -1.1870
 3306SOL     OW21376   0.209   3.941   6.599 -0.2016  0.0688 -0.1614
 3306SOL    HW121377   0.182   3.949   6.507  0.5493  1.1184 -0.2849
 3306SOL    HW221378   0.191   4.027   6.635 -1.0620 -0.8603  1.6067
 3307SOL     OW21379   3.586   2.100   3.645 -0.2452  0.4678 -0.1148
 3307SOL    HW121380   3.678   2.120   3.629 -0.4453  0.4037 -1.3127
 3307SOL    HW221381   3.548   2.074   3.561 -0.8885  0.4883  0.1728
 3308SOL     OW21382   4.478   2.482   0.439  0.4005 -0.5132 -0.2806
 3308SOL    HW121383   4.443   2.481   0.528 -1.6475  1.0131 -1.0673
 3308SOL    HW221384   4.397   2.471   0.388  0.6045  0.9447 -0.9303
 3309SOL     OW21385   0.434   3.461   4.308  0.1901 -0.6900 -0.2434
 3309SOL    HW121386   0.342   3.442   4.327  0.0795 -0.1487 -0.2237
 3309SOL    HW221387   0.457   3.372   4.284 -0.0290 -0.7495 -0.2368
 3310SOL     OW21388   1.434   3.896   3.469 -0.4407  0.1225  0.3911
 3310SOL    HW121389   1.430   3.925   3.378  0.6621 -2.1057 -0.3577
 3310SOL    HW221390   1.466   3.974   3.514 -0.7241  1.2661 -1.4243
 3311SOL     OW21391   0.260   0.962  17.213  0.5954  0.2385  0.0586
 3311SOL    HW121392   0.193   0.971  17.281  0.2023 -1.9130 -0.0278
 3311SOL    HW221393   0.321   1.033  17.234 -0.1890  1.2939 -1.3037
 3312SOL     OW21394   0.477   3.507   8.675 -0.1254  0.1593 -0.6539
 3312SOL    HW121395   0.524   3.569   8.731  1.5407 -0.0790 -1.7808
 3312SOL    HW221396   0.397   3.530   8.721 -0.0488 -1.1506  0.1151
 3313SOL     OW21397   0.147   0.705   8.298  0.6455 -0.2019 -0.4183
 3313SOL    HW121398   0.062   0.677   8.265 -1.5915  3.2452  2.3983
 3313SOL    HW221399   0.172   0.774   8.237  0.8846  1.8327  1.9696
 3314SOL     OW21400   4.455   3.905   3.287  0.2836 -0.2149  0.0356
 3314SOL    HW121401   4.494   3.931   3.370 -0.5616  1.0315  0.0395
 3314SOL    HW221402   4.429   3.991   3.252 -1.6345 -1.6526 -2.0538
 3315SOL     OW21403   0.633   1.597   9.629 -0.0943 -0.1321 -0.1576
 3315SOL    HW121404   0.545   1.587   9.667 -0.2134  0.6241 -0.2356
 3315SOL    HW221405   0.673   1.510   9.620  0.3124 -0.2855  3.2075
 3316SOL     OW21406   2.155   3.925   6.426  0.1158 -0.1037  0.5075
 3316SOL    HW121407   2.104   3.984   6.481  1.4659 -0.6848  2.3681
 3316SOL    HW221408   2.209   3.874   6.486  1.0837  2.5100  1.8011
 3317SOL     OW21409   2.082   1.159   8.652 -0.3587 -0.4913 -0.3831
 3317SOL    HW121410   2.116   1.241   8.689 -1.5499 -0.1078 -0.1419
 3317SOL    HW221411   1.994   1.189   8.631 -0.0172  0.7310 -0.1176
 3318SOL     OW21412   3.730   3.901   7.366  0.1629 -0.5102 -0.1889
 3318SOL    HW121413   3.751   3.857   7.448  0.8953  0.4078  0.1195
 3318SOL    HW221414   3.726   3.995   7.384  0.2468 -0.5936  0.2635
 3319SOL     OW21415   0.537   2.378   3.430  0.3330  0.1234 -0.5474
 3319SOL    HW121416   0.445   2.380   3.457  1.1066  0.3406  2.0159
 3319SOL    HW221417   0.541   2.399   3.337  0.3917  0.1904 -0.5298
 3320SOL     OW21418   3.190   1.275   3.651 -0.2142  0.0150 -0.6605
 3320SOL    HW121419   3.229   1.348   3.604  0.1344  1.8845  2.5225
 3320SOL    HW221420   3.262   1.250   3.710 -0.3900 -2.1061 -1.3378
 3321SOL     OW21421   0.860   3.691   1.845 -0.3224  0.0749  0.1677
 3321SOL    HW121422   0.812   3.609   1.828 -0.3838  0.4395 -1.4526
 3321SOL    HW221423   0.876   3.675   1.938  0.0186 -0.4236  0.0262
 3322SOL     OW21424   2.689   3.094   3.058  0.1579  0.0325 -0.2295
 3322SOL    HW121425   2.731   3.045   3.130 -0.0707 -0.1382 -0.2119
 3322SOL    HW221426   2.661   3.170   3.110 -0.6927 -0.5379  0.1624
 3323SOL     OW21427   1.186   4.722   5.623  0.1464  0.5257  0.1795
 3323SOL    HW121428   1.167   4.639   5.579 -1.0263  0.0587  1.5507
 3323SOL    HW221429   1.216   4.685   5.707  0.2973 -1.4091 -0.7282
 3324SOL     OW21430   3.663   1.825   6.527 -0.0772  0.2050  0.7382
 3324SOL    HW121431   3.575   1.817   6.489  0.4323  0.6048 -0.5212
 3324SOL    HW221432   3.654   1.768   6.603 -0.2782 -0.0836  0.5015
 3325SOL     OW21433   1.509   4.082   6.352 -0.4638  0.5770  0.1362
 3325SOL    HW121434   1.501   4.065   6.446  0.8458  2.2917  0.5468
 3325SOL    HW221435   1.459   4.013   6.308 -0.6625  0.1386  1.0456
 3326SOL     OW21436   1.275   4.352   8.399  0.3753  0.2748  0.1122
 3326SOL    HW121437   1.331   4.407   8.454  2.6991 -2.9764  1.0427
 3326SOL    HW221438   1.189   4.348   8.442 -0.3465 -2.1632 -1.5216
 3327SOL     OW21439   2.099   1.450  14.245  0.2897  0.6882  0.0168
 3327SOL    HW121440   2.076   1.406  14.327  2.0682 -0.1282  0.0904
 3327SOL    HW221441   2.070   1.539  14.262  2.6773  1.2951  1.0275
 3328SOL     OW21442   4.108   3.671   7.979  0.2109 -0.2030 -0.0643
 3328SOL    HW121443   4.097   3.576   7.984  1.3087 -0.2827  0.9918
 3328SOL    HW221444   4.198   3.669   8.013  0.0286 -1.1795  0.3635
 3329SOL     OW21445   2.315   3.120   3.036 -0.2868  0.1859 -0.1193
 3329SOL    HW121446   2.307   3.147   3.127  2.9843  2.4474 -0.4627
 3329SOL    HW221447   2.353   3.197   2.992 -0.2838  0.6019  0.6120
 3330SOL     OW21448   1.036   3.164   8.703 -0.5180  0.3275 -0.1310
 3330SOL    HW121449   0.943   3.164   8.727 -0.3107 -0.4302  0.6342
 3330SOL    HW221450   1.060   3.251   8.671  0.4607  0.9865  2.4254
 3331SOL     OW21451   1.406   2.917  10.318 -0.6976 -0.2923 -0.1910
 3331SOL    HW121452   1.406   2.950  10.408  0.1078  0.4887 -0.4806
 3331SOL    HW221453   1.391   2.992  10.261 -2.1366 -1.0474 -0.8031
 3332SOL     OW21454   2.276   0.690   3.188 -0.2346  0.3129 -0.5694
 3332SOL    HW121455   2.208   0.729   3.132  0.9892  1.3481 -1.3236
 3332SOL    HW221456   2.354   0.727   3.148 -0.3706  0.5341 -0.6332
 3333SOL     OW21457   1.906   0.443  12.298 -0.2382  0.0649  0.4371
 3333SOL    HW121458   1.937   0.531  12.319 -1.6864  0.9269 -1.1058
 3333SOL    HW221459   1.892   0.406  12.385  0.4681 -2.5749 -0.5810
 3334SOL     OW21460   1.955   0.448   8.857 -0.4149 -0.1263 -0.1162
 3334SOL    HW121461   1.864   0.426   8.836 -0.8108  2.2604 -0.9008
 3334SOL    HW221462   1.952   0.541   8.880 -0.8739  0.3652 -2.1921
 3335SOL     OW21463   0.650   0.825   4.918  0.2770 -1.1649  0.2705
 3335SOL    HW121464   0.691   0.911   4.915 -1.3389 -0.4131 -0.1204
 3335SOL    HW221465   0.569   0.851   4.960 -1.5021 -2.7710 -2.1708
 3336SOL     OW21466   3.878   2.518   6.685 -0.5448  0.5553 -0.2860
 3336SOL    HW121467   3.971   2.498   6.693 -0.1392  3.2151  1.8410
 3336SOL    HW221468   3.869   2.498   6.592 -0.2363 -2.3213  0.3070
 3337SOL     OW21469   0.230   4.657   1.271  0.0851 -0.2641  0.0561
 3337SOL    HW121470   0.189   4.605   1.340 -1.5464 -1.0347 -1.4975
 3337SOL    HW221471   0.299   4.694   1.327 -0.3108 -0.6955  0.8308
 3338SOL     OW21472   3.802   0.384   2.344 -0.1062 -0.4346 -0.2110
 3338SOL    HW121473   3.850   0.465   2.359  0.6576 -1.2373  1.5333
 3338SOL    HW221474   3.736   0.393   2.413 -0.9945 -1.2488 -0.9488
 3339SOL     OW21475   1.728   1.875  15.699  0.2908  0.1873  0.1596
 3339SOL    HW121476   1.658   1.844  15.757 -1.9142  1.6795 -1.6647
 3339SOL    HW221477   1.793   1.813  15.730  1.3740  0.0384 -2.4305
 3340SOL     OW21478   3.900   3.269   6.205  0.1521  0.1934  0.1861
 3340SOL    HW121479   3.897   3.183   6.247  0.5737  0.2786  0.3954
 3340SOL    HW221480   3.992   3.296   6.211  0.1530  0.1104  0.5723
 3341SOL     OW21481   4.454   3.904   2.887 -0.0590 -0.5126 -0.6735
 3341SOL    HW121482   4.486   3.942   2.805 -0.8233 -0.3675 -0.9092
 3341SOL    HW221483   4.422   3.982   2.932  0.4885 -1.7219  1.7924
 3342SOL     OW21484   2.551   1.326  15.542  0.4031 -0.3933  0.1516
 3342SOL    HW121485   2.487   1.365  15.602  2.9664  4.2484 -0.2004
 3342SOL    HW221486   2.520   1.236  15.526 -1.6792  0.3376  0.0393
 3343SOL     OW21487   1.087   0.992   3.575  0.0998  0.3807  0.4278
 3343SOL    HW121488   1.170   0.949   3.597  0.5687  0.2943 -1.4327
 3343SOL    HW221489   1.067   1.029   3.660 -1.0021 -2.0591  1.2396
 3344SOL     OW21490   4.088   3.147   5.919 -0.0356 -0.3365  0.2101
 3344SOL    HW121491   4.063   3.111   6.004 -2.2526 -0.6767 -0.5596
 3344SOL    HW221492   4.182   3.147   5.906  0.0351  1.6367  0.7592
 3345SOL     OW21493   3.182   3.623  12.215  0.4099 -0.6373  0.2877
 3345SOL    HW121494   3.119   3.671  12.160  2.2771  2.8392  1.1881
 3345SOL    HW221495   3.118   3.601  12.282 -1.5797  0.2572 -1.2993
 3346SOL     OW21496   2.795   2.322   8.598 -0.5664  0.2495 -0.2648
 3346SOL    HW121497   2.704   2.352   8.596 -0.7260 -0.2124  0.1192
 3346SOL    HW221498   2.793   2.285   8.510  0.1036 -2.2874  0.7842
 3347SOL     OW21499   1.250   4.360   4.488  0.1045  0.2142  0.3283
 3347SOL    HW121500   1.271   4.438   4.436  0.4271 -1.3178 -1.8445
 3347SOL    HW221501   1.285   4.372   4.576  1.2077 -0.4000 -0.0372
 3348SOL     OW21502   4.040   3.442   4.941 -0.1140  0.5041  0.8217
 3348SOL    HW121503   4.062   3.498   4.867 -1.7133  0.3049  0.1835
 3348SOL    HW221504   3.945   3.452   4.939 -0.4073 -2.2273  0.9277
 3349SOL     OW21505   1.909   3.752   5.304  0.2246 -0.5616  0.1363
 3349SOL    HW121506   1.832   3.808   5.313 -0.5897 -1.3719 -1.8063
 3349SOL    HW221507   1.863   3.670   5.320 -1.2755  0.3525  0.5075
 3350SOL     OW21508   1.331   1.130   9.549  0.5553  0.0121  0.0300
 3350SOL    HW121509   1.404   1.186   9.523  1.7900 -2.3927 -1.6097
 3350SOL    HW221510   1.301   1.093   9.466  1.0904 -2.6785  1.0583
 3351SOL     OW21511   2.190   2.891   9.242 -0.0007  0.2853 -0.5341
 3351SOL    HW121512   2.167   2.828   9.309 -1.4897  1.7892  0.3787
 3351SOL    HW221513   2.270   2.859   9.200 -0.2961 -1.1197 -0.0064
 3352SOL     OW21514   3.433   3.491   1.171  0.0048 -0.4350  0.4197
 3352SOL    HW121515   3.517   3.457   1.200  1.0724  1.7805 -0.1109
 3352SOL    HW221516   3.369   3.430   1.209  1.0153 -0.9311  1.3344
 3353SOL     OW21517   3.592   1.867   5.800  0.1099 -0.8869  0.0899
 3353SOL    HW121518   3.541   1.909   5.869  1.4375 -0.9868  1.1175
 3353SOL    HW221519   3.678   1.866   5.842 -0.7235 -1.2126  1.7644
 3354SOL     OW21520   0.339   4.342  16.341 -0.0535 -0.0706  0.3940
 3354SOL    HW121521   0.381   4.401  16.279 -0.8159 -0.9981 -0.9995
 3354SOL    HW221522   0.259   4.386  16.371 -1.3985 -0.8609 -2.0686
 3355SOL     OW21523   0.836   2.836  12.214 -0.5262 -0.1255 -0.1528
 3355SOL    HW121524   0.866   2.903  12.153 -0.9203 -0.1026 -0.3184
 3355SOL    HW221525   0.746   2.829  12.182 -1.3306  2.4547  1.5363
 3356SOL     OW21526   4.645   1.921  10.860  0.5238 -0.1265  0.2564
 3356SOL    HW121527   4.676   1.945  10.947 -1.1803  0.8134  0.5929
 3356SOL    HW221528   4.595   1.999  10.835  1.1239 -0.3259 -1.5968
 3357SOL     OW21529   0.992   0.416   6.712  0.2589 -0.1006 -0.1342
 3357SOL    HW121530   0.909   0.464   6.712  0.4906  0.2889  0.5471
 3357SOL    HW221531   1.054   0.485   6.687 -0.8856  1.2839  0.8541
 3358SOL     OW21532   2.622   3.940  11.530 -0.5907 -0.7221 -0.3725
 3358SOL    HW121533   2.544   3.886  11.545 -1.3297  0.1060 -1.1770
 3358SOL    HW221534   2.597   3.987  11.450  0.1325 -1.1512 -0.8513
 3359SOL     OW21535   3.486   0.734   6.848 -0.0163 -0.0604 -0.3327
 3359SOL    HW121536   3.402   0.698   6.877 -0.4750  0.8985 -0.4745
 3359SOL    HW221537   3.495   0.803   6.913 -0.2645  0.1159 -0.4875
 3360SOL     OW21538   4.371   4.154  10.834 -0.1074  0.4268  0.1480
 3360SOL    HW121539   4.326   4.080  10.793 -0.5179 -0.6196  2.4644
 3360SOL    HW221540   4.298   4.191  10.884  0.7156  1.4861  0.5548
 3361SOL     OW21541   1.562   0.011  16.588 -0.6837 -0.1617  0.2547
 3361SOL    HW121542   1.548   4.650  16.545  1.8033 -0.7453  0.5540
 3361SOL    HW221543   1.504   0.013  16.665 -2.7098 -0.1749 -1.2896
 3362SOL     OW21544   4.438   2.562  15.421 -0.3958  0.4376 -0.1775
 3362SOL    HW121545   4.368   2.590  15.361 -0.3327  2.0479  0.4946
 3362SOL    HW221546   4.384   2.518  15.487  0.9557 -2.6951 -1.2100
 3363SOL     OW21547   3.174   2.286   8.973 -0.3390  0.5969 -0.8855
 3363SOL    HW121548   3.092   2.276   9.021 -0.2233  1.6040 -0.4723
 3363SOL    HW221549   3.182   2.382   8.972 -0.2156  0.6341  2.0891
 3364SOL     OW21550   2.550   3.373  17.148 -0.1162  0.1212  0.1716
 3364SOL    HW121551   2.497   3.431  17.094 -2.4321 -1.8938  0.2853
 3364SOL    HW221552   2.483   3.324  17.197 -1.8857  3.1486  0.7796
 3365SOL     OW21553   3.083   0.960  17.503  0.2902  0.0977 -0.2156
 3365SOL    HW121554   3.041   0.873  17.510  0.3941 -0.1048 -2.0962
 3365SOL    HW221555   3.079   0.992  17.593  0.9435 -3.1672  0.9789
 3366SOL     OW21556   2.820   0.483   3.484 -0.0571 -0.1284  0.7708
 3366SOL    HW121557   2.850   0.399   3.520 -3.7946 -2.1406 -0.9461
 3366SOL    HW221558   2.856   0.535   3.556  0.3934 -1.7077  1.6954
 3367SOL     OW21559   3.626   3.173  16.849 -0.5301 -0.0417  0.1401
 3367SOL    HW121560   3.697   3.109  16.855  0.0137  0.4442 -1.1016
 3367SOL    HW221561   3.611   3.190  16.942  0.0625  0.0668  0.2142
 3368SOL     OW21562   1.647   2.425   0.159  0.2876 -0.6711 -0.3877
 3368SOL    HW121563   1.721   2.437   0.099  0.1030  0.8255 -0.3341
 3368SOL    HW221564   1.575   2.413   0.098  1.7429  0.5355 -2.3627
 3369SOL     OW21565   3.429   0.892  14.514 -0.5367  0.2779  0.6296
 3369SOL    HW121566   3.483   0.887  14.435 -1.5068 -0.7663  0.0341
 3369SOL    HW221567   3.495   0.855  14.573 -0.3327  0.7880  0.7237
 3370SOL     OW21568   3.246   3.115   3.030 -0.1788  0.1459  0.3487
 3370SOL    HW121569   3.162   3.080   3.001 -0.5222  0.3477  1.0838
 3370SOL    HW221570   3.249   3.196   2.980  0.9134  0.1875  0.4688
 3371SOL     OW21571   2.535   3.711   6.331 -0.0138  0.5282  0.1158
 3371SOL    HW121572   2.443   3.696   6.310  0.7770 -0.4016 -2.7407
 3371SOL    HW221573   2.567   3.683   6.245 -0.4927  4.7504 -1.4545
 3372SOL     OW21574   3.133   4.494   5.939 -0.5277 -0.1945  0.4618
 3372SOL    HW121575   3.207   4.451   5.896  0.0639 -0.4213  1.7051
 3372SOL    HW221576   3.072   4.492   5.866 -0.6486  4.2870  0.4850
 3373SOL     OW21577   0.574   4.204   6.388  0.1062 -0.4869 -0.4329
 3373SOL    HW121578   0.496   4.191   6.442  0.3420 -1.1817 -0.2545
 3373SOL    HW221579   0.543   4.169   6.305  0.6652 -0.9387 -0.4536
 3374SOL     OW21580   2.274   1.252  14.220  0.1363 -0.5403  0.4927
 3374SOL    HW121581   2.252   1.190  14.151 -0.0608  0.3576 -0.2445
 3374SOL    HW221582   2.197   1.308  14.210 -1.1484 -2.2491  0.8337
 3375SOL     OW21583   1.317   1.621  11.894 -0.4988  0.0277 -0.7156
 3375SOL    HW121584   1.382   1.665  11.840 -2.8247  1.0124 -2.7015
 3375SOL    HW221585   1.239   1.667  11.861 -0.7249 -0.1444 -0.4202
 3376SOL     OW21586   0.056   4.431   2.944  0.0315 -0.5284 -0.6196
 3376SOL    HW121587   0.001   4.386   3.008 -2.1213  2.1727 -0.5797
 3376SOL    HW221588   0.143   4.427   2.982 -0.6024  3.3411  1.2364
 3377SOL     OW21589   1.635   2.319  16.879  0.6675  0.0947  0.0932
 3377SOL    HW121590   1.583   2.329  16.960 -0.8655 -0.2538 -0.8461
 3377SOL    HW221591   1.675   2.405  16.867  0.8621 -0.2065 -1.3466
 3378SOL     OW21592   2.785   4.386  17.317  0.0949 -0.1270  0.3210
 3378SOL    HW121593   2.699   4.347  17.332  0.3691 -0.5460  0.7874
 3378SOL    HW221594   2.780   4.458  17.379  0.5125 -0.1221  0.3492
 3379SOL     OW21595   2.797   1.568  15.332 -0.6436  0.0291 -0.1103
 3379SOL    HW121596   2.820   1.560  15.424  0.7204  1.2844 -0.3478
 3379SOL    HW221597   2.702   1.577  15.340 -0.4445 -0.7016  3.0717
 3380SOL     OW21598   2.278   3.979   0.274 -0.1911  0.1271  0.1845
 3380SOL    HW121599   2.246   3.916   0.209  1.1864  1.7998 -2.1047
 3380SOL    HW221600   2.231   3.947   0.351 -1.3188  0.5776 -0.3044
 3381SOL     OW21601   1.850   3.820   2.661 -0.3573 -0.3893  0.1155
 3381SOL    HW121602   1.886   3.876   2.592 -0.1933 -2.4396 -1.4383
 3381SOL    HW221603   1.760   3.806   2.631 -0.3587  0.3260 -0.2052
 3382SOL     OW21604   3.497   0.296   6.233  1.0401  0.1170 -0.7835
 3382SOL    HW121605   3.552   0.286   6.311  0.0795  0.4173 -0.0682
 3382SOL    HW221606   3.414   0.255   6.257  1.6496 -0.5864  0.1104
 3383SOL     OW21607   3.236   1.555   5.027  0.0721  0.2648  0.0336
 3383SOL    HW121608   3.274   1.608   4.957 -0.7477  0.4847 -0.2533
 3383SOL    HW221609   3.158   1.520   4.984 -0.0886 -1.0274  1.3475
 3384SOL     OW21610   1.314   4.410   5.044  0.1197 -0.1605 -0.0211
 3384SOL    HW121611   1.257   4.375   5.112 -0.6202  0.0317 -0.5487
 3384SOL    HW221612   1.397   4.427   5.088 -0.5043  1.2992  0.5688
 3385SOL     OW21613   4.294   2.552   4.420 -0.2670 -0.3319 -0.3069
 3385SOL    HW121614   4.335   2.565   4.506 -0.7566  0.2622 -0.1631
 3385SOL    HW221615   4.204   2.579   4.438 -0.1568  0.2584 -0.6557
 3386SOL     OW21616   4.270   1.121   6.714  0.0946 -0.4916  0.0970
 3386SOL    HW121617   4.240   1.212   6.718 -0.7703 -0.7042 -1.4734
 3386SOL    HW221618   4.217   1.079   6.781  0.2008 -0.0869  0.4324
 3387SOL     OW21619   3.992   1.943   0.955  0.4284 -0.6598 -0.5706
 3387SOL    HW121620   4.086   1.934   0.939  0.4499 -2.8923  0.6428
 3387SOL    HW221621   3.966   2.005   0.888  1.6840  1.2954  0.7548
 3388SOL     OW21622   4.170   1.754  12.850 -0.4728  0.8543 -0.0281
 3388SOL    HW121623   4.223   1.718  12.779 -1.1257  0.4517 -0.3011
 3388SOL    HW221624   4.233   1.815  12.888  1.1716  0.2144 -1.7084
 3389SOL     OW21625   1.350   1.393  16.720  0.0361  0.0178  0.4920
 3389SOL    HW121626   1.354   1.336  16.644  1.1140  0.4509  0.2195
 3389SOL    HW221627   1.395   1.469  16.683  0.3663 -0.7634 -0.7213
 3390SOL     OW21628   4.092   3.295   6.870 -0.3255  0.2089  0.1633
 3390SOL    HW121629   4.079   3.213   6.917  0.6845  1.1819  2.1565
 3390SOL    HW221630   4.033   3.354   6.917  0.2599  1.5783 -0.8252
 3391SOL     OW21631   4.600   0.088  15.480 -0.7612  0.0710 -0.4771
 3391SOL    HW121632   4.593   0.115  15.389  0.4052 -1.1012 -0.8935
 3391SOL    HW221633   4.516   0.042  15.486  0.8480 -2.7739  0.0364
 3392SOL     OW21634   3.012   4.498  15.123 -0.1150 -0.4564  0.2284
 3392SOL    HW121635   3.060   4.442  15.062 -0.0708  2.2597 -2.2112
 3392SOL    HW221636   2.924   4.467  15.104 -0.8603  0.6867  1.8565
 3393SOL     OW21637   3.680   3.302  14.908 -0.4365  0.8719  0.3009
 3393SOL    HW121638   3.723   3.264  14.831 -0.0979  0.1972  0.8278
 3393SOL    HW221639   3.603   3.332  14.859  0.1202  0.2155 -0.9968
 3394SOL     OW21640   2.242   0.902  15.564 -0.2110  0.7473 -0.3226
 3394SOL    HW121641   2.217   0.930  15.476  1.6660 -1.1563 -1.4537
 3394SOL    HW221642   2.190   0.825  15.585  2.0912 -0.5078  0.8471
 3395SOL     OW21643   1.345   2.087   3.000  0.5313 -0.0718 -0.2795
 3395SOL    HW121644   1.254   2.107   3.020  0.1010 -0.6588 -1.6759
 3395SOL    HW221645   1.359   2.126   2.914  1.6728  0.9259  0.3597
 3396SOL     OW21646   1.845   3.509   1.771  0.6416 -0.4332  0.5534
 3396SOL    HW121647   1.751   3.517   1.759  0.8184 -0.6057 -0.9936
 3396SOL    HW221648   1.870   3.601   1.762 -0.4721 -0.2325 -0.4672
 3397SOL     OW21649   4.704   0.836   8.498  0.2156  0.1789 -0.1084
 3397SOL    HW121650   0.016   0.787   8.572 -0.9833  1.3055  1.2210
 3397SOL    HW221651   0.007   0.772   8.433  0.3056  1.1326 -1.0025
 3398SOL     OW21652   1.687   0.613   7.609  0.6305  0.4277  0.3346
 3398SOL    HW121653   1.698   0.547   7.541 -1.3326  0.9926 -0.5342
 3398SOL    HW221654   1.692   0.557   7.687  2.8102  2.0882  1.3520
 3399SOL     OW21655   2.578   3.415   8.208  0.2607 -0.0640 -0.1942
 3399SOL    HW121656   2.488   3.447   8.206 -0.0762 -1.0486 -0.3203
 3399SOL    HW221657   2.631   3.492   8.188  2.6875 -1.6182  0.2987
 3400SOL     OW21658   4.083   4.089  17.122 -0.3195 -0.0871 -0.0264
 3400SOL    HW121659   3.991   4.091  17.095 -0.2435  1.9151 -0.0877
 3400SOL    HW221660   4.089   3.996  17.146 -0.2675 -0.3674 -1.1032
 3401SOL     OW21661   1.992   4.095   0.985  0.2479  0.5920 -0.2426
 3401SOL    HW121662   1.991   4.169   0.924 -1.2975  1.4505  0.8230
 3401SOL    HW221663   1.929   4.121   1.053 -0.1148 -0.5795 -0.1177
 3402SOL     OW21664   4.647   2.609   3.650  0.7253  0.3592 -0.0390
 3402SOL    HW121665   4.627   2.587   3.741 -0.8244  1.0179 -0.2164
 3402SOL    HW221666   4.654   2.704   3.659  1.5073  0.1654  1.3188
 3403SOL     OW21667   2.536   1.511  15.353  0.2597 -0.3366  0.2569
 3403SOL    HW121668   2.442   1.524  15.365  0.2833 -0.7423  0.9438
 3403SOL    HW221669   2.552   1.440  15.415  1.5147  2.6324  3.3147
 3404SOL     OW21670   1.748   3.155   6.424 -0.0377  0.0891 -0.1941
 3404SOL    HW121671   1.688   3.215   6.469 -2.1896 -2.7868  0.7575
 3404SOL    HW221672   1.700   3.114   6.352  1.5513  1.5872 -2.0981
 3405SOL     OW21673   0.345   2.910  12.000  0.6319 -0.6017  0.1981
 3405SOL    HW121674   0.329   2.928  11.907 -1.2154  0.7657  0.7850
 3405SOL    HW221675   0.430   2.867  11.989  1.6584  1.3725  0.4373
 3406SOL     OW21676   4.691   0.016  16.367  0.3198 -0.3145 -0.2699
 3406SOL    HW121677   4.608   4.704  16.398 -1.4693  2.6817 -1.6148
 3406SOL    HW221678   4.704   0.091  16.425  3.0339 -0.2236 -0.9875
 3407SOL     OW21679   1.465   1.139   2.809 -0.4145  0.4705 -0.3455
 3407SOL    HW121680   1.426   1.172   2.889  0.8880 -0.6752  0.7610
 3407SOL    HW221681   1.470   1.045   2.827 -0.2067  0.5153 -0.1718
 3408SOL     OW21682   2.762   1.213   3.406 -0.3243 -0.1814 -0.5475
 3408SOL    HW121683   2.709   1.293   3.407 -2.0620 -1.3428  0.6128
 3408SOL    HW221684   2.826   1.225   3.336 -0.6324 -2.0192 -1.1638
 3409SOL     OW21685   3.612   0.100   6.048 -0.0645 -0.2710  0.0454
 3409SOL    HW121686   3.593   0.151   6.127  1.5843  0.0691  0.2040
 3409SOL    HW221687   3.561   0.020   6.063 -0.8797  0.1110 -0.6622
 3410SOL     OW21688   2.928   0.677   4.538 -0.4138 -0.4173  0.4114
 3410SOL    HW121689   2.975   0.695   4.456 -1.7710  2.8858  0.3646
 3410SOL    HW221690   2.924   0.581   4.539  1.2357 -0.4723  1.7510
 3411SOL     OW21691   2.985   4.418   6.523 -0.4298 -0.5108 -0.2937
 3411SOL    HW121692   2.942   4.497   6.489 -2.1486 -0.3383  2.3540
 3411SOL    HW221693   2.916   4.355   6.503 -0.2427 -0.1235 -2.2062
 3412SOL     OW21694   1.125   3.812   1.839  0.3919 -0.2060  0.1800
 3412SOL    HW121695   1.142   3.729   1.794 -0.5682 -0.5218  0.3899
 3412SOL    HW221696   1.032   3.790   1.847  1.0542 -2.8131  0.7879
 3413SOL     OW21697   2.328   4.366   6.375  0.3209  0.8847  0.0770
 3413SOL    HW121698   2.327   4.457   6.346 -5.0702  0.9114  0.2755
 3413SOL    HW221699   2.319   4.322   6.290  0.4450  2.1334 -0.5739
 3414SOL     OW21700   2.615   1.899   3.001  0.2430 -0.4787  0.3512
 3414SOL    HW121701   2.549   1.843   2.959  0.7989 -0.2291 -0.8362
 3414SOL    HW221702   2.563   1.978   2.988 -0.4103 -1.4657 -2.9484
 3415SOL     OW21703   2.345   2.659   9.612 -0.1318 -0.3778 -0.2251
 3415SOL    HW121704   2.311   2.606   9.684 -0.2513 -0.5302 -0.3941
 3415SOL    HW221705   2.434   2.622   9.611 -0.4608 -1.0890 -3.0464
 3416SOL     OW21706   3.284   2.291   3.664 -0.4211 -0.2549 -0.2124
 3416SOL    HW121707   3.338   2.358   3.706 -0.8979  0.4762 -0.7849
 3416SOL    HW221708   3.318   2.287   3.575 -1.7150 -1.0427 -0.6613
 3417SOL     OW21709   2.366   1.738   1.325 -0.1076 -0.0352  0.5774
 3417SOL    HW121710   2.434   1.670   1.327 -1.6847 -1.4507  3.7247
 3417SOL    HW221711   2.320   1.711   1.245  0.5539 -2.2783  0.9642
 3418SOL     OW21712   4.685   3.161   8.401  0.2372 -0.6829 -0.2790
 3418SOL    HW121713   0.034   3.222   8.393 -0.4910  0.2317  0.0950
 3418SOL    HW221714   4.628   3.219   8.452 -1.2716  0.3929 -3.1588
 3419SOL     OW21715   0.373   4.081   5.387 -0.2286  0.4369 -0.0744
 3419SOL    HW121716   0.417   4.022   5.326 -1.0837  0.0223 -0.2945
 3419SOL    HW221717   0.323   4.137   5.327  1.2510  2.0269  0.1714
 3420SOL     OW21718   0.237   0.095   0.516 -0.0313  0.1774 -0.1669
 3420SOL    HW121719   0.276   0.010   0.493 -0.9796  0.4839 -2.8531
 3420SOL    HW221720   0.311   0.132   0.565  0.8851  0.7962 -2.0376
 3421SOL     OW21721   3.959   4.073  11.706 -0.3655  0.1368  0.0834
 3421SOL    HW121722   3.877   4.117  11.726  0.4014  1.0009  1.3690
 3421SOL    HW221723   3.927   3.991  11.669 -2.2238  0.9247 -0.0144
 3422SOL     OW21724   2.334   0.427   5.864  0.1146  0.2719  0.1543
 3422SOL    HW121725   2.346   0.334   5.879 -1.4095 -0.0796 -0.8078
 3422SOL    HW221726   2.343   0.469   5.950  0.2986 -1.4149  0.9575
 3423SOL     OW21727   1.065   0.493   6.407  0.5015 -0.1915 -0.6627
 3423SOL    HW121728   0.972   0.473   6.392  0.5544 -0.1608 -1.0170
 3423SOL    HW221729   1.061   0.566   6.468 -0.4295 -1.4921  0.8436
 3424SOL     OW21730   3.493   3.385   0.625  0.3865  0.2387  0.0826
 3424SOL    HW121731   3.534   3.357   0.707  2.7189 -0.7748 -1.4328
 3424SOL    HW221732   3.433   3.312   0.612  0.3628 -0.1015  2.0509
 3425SOL     OW21733   0.049   0.120   3.221 -0.0035  0.6640  0.1478
 3425SOL    HW121734   4.695   0.165   3.189 -0.4705 -0.3948 -0.1928
 3425SOL    HW221735   0.014   0.075   3.297 -2.2223  2.9411  0.4715
 3426SOL     OW21736   4.349   1.165  12.521  0.1163 -0.3384  0.2855
 3426SOL    HW121737   4.418   1.109  12.557  0.3827  0.1425  0.5317
 3426SOL    HW221738   4.290   1.161  12.597 -0.6949  2.7309 -0.1809
 3427SOL     OW21739   3.359   4.698   2.311  0.0618 -0.1234  0.3924
 3427SOL    HW121740   3.304   4.693   2.389 -1.2021  0.9618 -0.4365
 3427SOL    HW221741   3.414   0.052   2.308 -0.2162  0.1267  1.8876
 3428SOL     OW21742   2.843   3.179  11.307 -0.7683 -0.2396 -0.0830
 3428SOL    HW121743   2.871   3.180  11.215 -0.7095  1.9797 -0.0504
 3428SOL    HW221744   2.897   3.111  11.347  2.7006  2.8978  0.6084
 3429SOL     OW21745   3.394   3.659  17.515  0.0265 -0.3924 -0.2163
 3429SOL    HW121746   3.435   3.693  17.435  0.7983 -0.1324  0.2940
 3429SOL    HW221747   3.346   3.737  17.542 -1.5486 -0.9893 -1.2619
 3430SOL     OW21748   2.635   0.332   1.878 -0.6905 -0.3673 -0.0870
 3430SOL    HW121749   2.632   0.283   1.796  0.8564 -0.1752 -0.2712
 3430SOL    HW221750   2.689   0.402   1.842 -1.5479  0.8176  0.9407
 3431SOL     OW21751   1.618   3.772   6.055  0.3472 -0.0102 -0.0399
 3431SOL    HW121752   1.660   3.741   5.975 -0.9293  0.1822 -0.7950
 3431SOL    HW221753   1.525   3.763   6.034  0.1859  1.1484  0.1790
 3432SOL     OW21754   0.535   1.813  15.784  0.8111  0.7691  0.1731
 3432SOL    HW121755   0.518   1.811  15.690 -0.1912  0.2642  0.3602
 3432SOL    HW221756   0.624   1.781  15.797  0.0586 -1.6367 -0.4805
 3433SOL     OW21757   1.574   1.122   9.390 -0.6052  0.4011 -0.0061
 3433SOL    HW121758   1.525   1.143   9.311 -0.8605  2.8836  0.7919
 3433SOL    HW221759   1.644   1.068   9.354 -0.5778  1.2417 -1.2080
 3434SOL     OW21760   3.564   0.931   2.818 -0.4655  0.0781 -0.1125
 3434SOL    HW121761   3.613   0.977   2.886 -2.2393 -0.1996  1.3584
 3434SOL    HW221762   3.481   0.935   2.867  2.2883 -0.1984  4.5957
 3435SOL     OW21763   4.246   2.194  16.691 -0.3718  0.2096  0.6074
 3435SOL    HW121764   4.297   2.182  16.771  1.6869  1.5682 -0.5093
 3435SOL    HW221765   4.294   2.266  16.650 -1.7924 -0.4202 -2.1227
 3436SOL     OW21766   0.593   3.077  11.320  0.1171  0.2205  0.0981
 3436SOL    HW121767   0.628   2.998  11.279 -0.8630  0.3484 -0.9941
 3436SOL    HW221768   0.533   3.113  11.254 -0.5396 -1.1117 -0.0285
 3437SOL     OW21769   0.982   0.271   3.453 -0.4130  0.2038  0.1594
 3437SOL    HW121770   1.047   0.282   3.522 -0.7752 -1.7556  0.8190
 3437SOL    HW221771   1.022   0.190   3.419  2.2907  1.1885  0.9888
 3438SOL     OW21772   0.026   3.473   8.625  0.4046 -0.7199 -0.1072
 3438SOL    HW121773   0.039   3.521   8.543 -1.7118  1.2155  0.6915
 3438SOL    HW221774   4.657   3.456   8.636  0.0372  0.9007 -0.7198
 3439SOL     OW21775   2.642   1.795  15.631 -0.1647 -0.3142  0.0967
 3439SOL    HW121776   2.569   1.790  15.569 -0.7267  0.8456  0.6634
 3439SOL    HW221777   2.684   1.875  15.597 -1.8131  0.7103  0.4642
 3440SOL     OW21778   3.692   4.447  11.894 -0.2055  0.8474 -0.2058
 3440SOL    HW121779   3.689   4.519  11.832 -0.4537  0.3446 -0.7788
 3440SOL    HW221780   3.767   4.469  11.950 -2.3291  2.3210  2.0405
 3441SOL     OW21781   3.710   1.334   4.202 -0.9651  0.1687  0.1933
 3441SOL    HW121782   3.736   1.245   4.178 -0.1926  1.0012 -2.0300
 3441SOL    HW221783   3.758   1.381   4.134  1.1356  0.6939  2.0362
 3442SOL     OW21784   4.291   0.122   2.462  0.1353  0.5101 -0.2144
 3442SOL    HW121785   4.380   0.106   2.431  0.1250  2.2639 -1.1503
 3442SOL    HW221786   4.255   0.185   2.399 -1.3516  1.3951  1.4951
 3443SOL     OW21787   3.442   0.104   5.194  0.2900 -0.5663  0.5280
 3443SOL    HW121788   3.366   0.046   5.187 -1.0940  0.9696  2.9118
 3443SOL    HW221789   3.495   0.077   5.119  0.2326  0.8931 -0.0240
 3444SOL     OW21790   1.637   0.810   4.902  0.8477  0.2053 -0.4662
 3444SOL    HW121791   1.665   0.818   4.994 -3.8841 -1.4404  1.1264
 3444SOL    HW221792   1.578   0.886   4.904  1.5747  0.7872 -1.6107
 3445SOL     OW21793   0.364   3.263   7.246  0.2773  0.3312 -0.8744
 3445SOL    HW121794   0.437   3.308   7.205 -0.5682  0.6682 -2.0182
 3445SOL    HW221795   0.398   3.259   7.335 -0.7554 -0.9778 -0.5297
 3446SOL     OW21796   2.786   2.752  16.838 -0.6408 -0.0086 -0.5678
 3446SOL    HW121797   2.825   2.734  16.753  2.3385  1.0006  0.5996
 3446SOL    HW221798   2.840   2.691  16.889 -0.9772  0.9516  0.9517
 3447SOL     OW21799   3.449   3.741   6.244  0.2420 -0.3095  1.0355
 3447SOL    HW121800   3.475   3.721   6.154 -1.1902  0.1579  0.5112
 3447SOL    HW221801   3.524   3.703   6.289  1.0949  0.1307 -0.0266
 3448SOL     OW21802   0.738   1.275   7.332  0.7047 -0.4311 -0.1321
 3448SOL    HW121803   0.810   1.213   7.347  0.4689 -0.5029  0.7217
 3448SOL    HW221804   0.781   1.357   7.354 -0.6665  0.2629 -0.0701
 3449SOL     OW21805   2.810   2.212   5.685  0.6173  0.5917  0.1785
 3449SOL    HW121806   2.792   2.173   5.600  2.0819 -0.4910  0.3650
 3449SOL    HW221807   2.756   2.289   5.668 -0.2836  0.0180  0.4326
 3450SOL     OW21808   1.736   0.040   8.105  0.3131  0.0296  0.1108
 3450SOL    HW121809   1.804   0.039   8.173  3.3668 -3.5037 -2.9771
 3450SOL    HW221810   1.664   0.081   8.153 -0.5827 -1.3667 -0.0319
 3451SOL     OW21811   1.840   2.753   3.495  0.0111  0.9231  0.0702
 3451SOL    HW121812   1.760   2.765   3.444 -0.0417 -0.1113 -0.1020
 3451SOL    HW221813   1.882   2.838   3.508  3.4920 -0.7267 -0.4682
 3452SOL     OW21814   0.129   1.124   1.079  0.2497  0.6383 -0.6238
 3452SOL    HW121815   0.052   1.162   1.038  2.4907  3.0432 -2.5496
 3452SOL    HW221816   0.140   1.050   1.019  2.3430 -0.3597  0.9444
 3453SOL     OW21817   1.176   2.688   6.729 -0.2633  0.2846  0.1740
 3453SOL    HW121818   1.153   2.746   6.656 -2.3110  1.3063  1.6353
 3453SOL    HW221819   1.102   2.628   6.730 -1.8662  2.1200 -4.8066
 3454SOL     OW21820   3.465   0.610   4.175 -0.7266  0.4247 -0.7489
 3454SOL    HW121821   3.408   0.686   4.182 -0.5748  0.4801 -0.0533
 3454SOL    HW221822   3.488   0.614   4.082  1.6499  1.8277 -0.0994
 3455SOL     OW21823   4.207   4.252   2.135  0.1113 -0.2458  0.0372
 3455SOL    HW121824   4.126   4.212   2.166  0.1015  1.6405  2.4567
 3455SOL    HW221825   4.247   4.265   2.221 -0.3132  0.0478  0.1904
 3456SOL     OW21826   2.674   2.553   3.755 -0.0225  0.0317 -0.2720
 3456SOL    HW121827   2.585   2.519   3.744 -0.6435  2.3835 -2.3964
 3456SOL    HW221828   2.703   2.541   3.665 -0.9721 -0.3075 -0.5243
 3457SOL     OW21829   1.039   4.641  10.539  0.0180  0.1939  0.3742
 3457SOL    HW121830   0.968   4.660  10.600 -1.3233 -1.7958 -0.5746
 3457SOL    HW221831   1.107   4.608  10.597 -0.4727 -2.0666 -0.3313
 3458SOL     OW21832   2.598   2.239   3.850 -0.1743  0.6828  0.3812
 3458SOL    HW121833   2.657   2.172   3.884 -0.5577  0.2535  0.1943
 3458SOL    HW221834   2.511   2.204   3.869  0.0350 -0.0024  0.0774
 3459SOL     OW21835   4.359   4.250   3.712 -0.3186  0.1674 -0.0479
 3459SOL    HW121836   4.423   4.312   3.678  0.6686  0.1336  1.7418
 3459SOL    HW221837   4.315   4.310   3.773 -0.2209 -0.0580  0.2462
 3460SOL     OW21838   1.236   4.432   8.800  0.3841  0.0732 -0.2615
 3460SOL    HW121839   1.153   4.436   8.846 -0.2434 -1.0217 -1.3201
 3460SOL    HW221840   1.212   4.376   8.726 -0.7553  2.0406 -1.3689
 3461SOL     OW21841   3.737   3.242   7.403  0.5004 -0.1134  0.0320
 3461SOL    HW121842   3.828   3.234   7.375  0.0393 -0.2412 -1.4477
 3461SOL    HW221843   3.721   3.336   7.412  0.0662 -0.0431 -1.3509
 3462SOL     OW21844   0.838   1.807   7.255  0.7062 -0.4612 -0.5134
 3462SOL    HW121845   0.830   1.835   7.346  0.6555  3.0779 -1.5963
 3462SOL    HW221846   0.788   1.868   7.200 -1.9876 -1.3683  0.9453
 3463SOL     OW21847   4.265   1.489   0.749  0.2961  0.3205  0.1731
 3463SOL    HW121848   4.239   1.530   0.666  1.4669  0.6449 -0.0398
 3463SOL    HW221849   4.185   1.442   0.772 -1.0032  1.0480 -2.8368
 3464SOL     OW21850   1.465   1.222  10.877 -0.4843 -0.8288  0.4121
 3464SOL    HW121851   1.519   1.217  10.798  1.1243  1.5146  1.3552
 3464SOL    HW221852   1.432   1.312  10.869 -1.3789 -1.4590 -2.9437
 3465SOL     OW21853   1.061   1.821   2.313  0.1462  0.2829  0.0263
 3465SOL    HW121854   1.149   1.859   2.313  0.6014 -0.7899 -0.1980
 3465SOL    HW221855   1.059   1.765   2.236  0.1091 -1.3198  1.2068
 3466SOL     OW21856   1.219   1.284   9.041 -0.1805 -0.0651  0.1731
 3466SOL    HW121857   1.129   1.263   9.064 -0.8289  2.6766  0.0749
 3466SOL    HW221858   1.218   1.374   9.073 -1.0510 -1.0567  3.0083
 3467SOL     OW21859   4.364   2.521   2.066  0.1767 -0.0463  0.2369
 3467SOL    HW121860   4.456   2.524   2.041 -0.2984  0.7246 -1.3994
 3467SOL    HW221861   4.326   2.519   1.978 -0.9085 -2.8102  0.7734
 3468SOL     OW21862   0.380   2.921   5.134 -0.2079  0.0890 -0.4695
 3468SOL    HW121863   0.466   2.888   5.157 -0.6780 -1.4394 -0.8852
 3468SOL    HW221864   0.384   2.903   5.040 -1.6789 -0.5439 -0.4226
 3469SOL     OW21865   3.054   3.248   5.453 -0.3903  0.3375  0.2089
 3469SOL    HW121866   2.985   3.182   5.455  0.5142 -0.5320  2.0761
 3469SOL    HW221867   3.018   3.331   5.484  0.4104  0.4053  0.9408
 3470SOL     OW21868   3.361   2.812   8.702  0.0570 -0.2745 -0.5901
 3470SOL    HW121869   3.388   2.880   8.641 -0.7215  0.1588 -0.4535
 3470SOL    HW221870   3.270   2.840   8.716  0.3131  1.6512 -2.9368
 3471SOL     OW21871   1.662   1.641   0.842 -0.5080  0.5182 -0.2041
 3471SOL    HW121872   1.650   1.644   0.937 -0.0943  0.8163 -0.1592
 3471SOL    HW221873   1.583   1.600   0.807 -0.2700  0.7936 -1.0618
 3472SOL     OW21874   4.722   0.128   5.900 -0.3614  0.2124  0.3072
 3472SOL    HW121875   4.702   0.173   5.982 -0.2328  0.8966 -0.0371
 3472SOL    HW221876   4.648   0.154   5.846  1.1109 -3.4265 -3.4842
 3473SOL     OW21877   1.167   4.499   1.388 -0.1891 -0.8577  0.0357
 3473SOL    HW121878   1.236   4.449   1.344  0.5516  1.3044 -1.2805
 3473SOL    HW221879   1.093   4.479   1.331  0.5159  0.2689 -1.2637
 3474SOL     OW21880   1.341   3.132   8.238  0.2790 -0.4285  0.1873
 3474SOL    HW121881   1.281   3.191   8.284  0.8550  0.5446 -0.3119
 3474SOL    HW221882   1.294   3.057   8.275 -0.1118 -1.5042 -2.4621
 3475SOL     OW21883   2.202   1.596   0.294 -0.2837  1.2123 -0.1689
 3475SOL    HW121884   2.220   1.589   0.387 -1.2915 -0.0589 -0.0664
 3475SOL    HW221885   2.134   1.662   0.284 -1.2572  0.3318  0.6488
 3476SOL     OW21886   2.726   0.937   7.706 -0.2376 -0.3904  0.0040
 3476SOL    HW121887   2.729   0.843   7.723 -0.0389 -0.6713 -1.5786
 3476SOL    HW221888   2.718   0.981   7.791 -0.1162 -1.1624  0.4168
 3477SOL     OW21889   1.300   0.557   8.679  0.3746  0.4348 -0.0789
 3477SOL    HW121890   1.324   0.473   8.639 -0.5251  1.1724 -2.1841
 3477SOL    HW221891   1.382   0.605   8.667  0.5927  0.3413  1.0713
 3478SOL     OW21892   2.685   0.080   2.004 -0.5770 -0.3894  0.0153
 3478SOL    HW121893   2.679   0.154   1.944 -0.8033  1.2114  1.9860
 3478SOL    HW221894   2.692   0.121   2.091  1.4083  1.2500 -0.9215
 3479SOL     OW21895   2.613   0.887   1.664  0.3451  0.2605  0.1563
 3479SOL    HW121896   2.601   0.982   1.666 -0.7129  0.1695 -1.6093
 3479SOL    HW221897   2.706   0.880   1.640  0.3005 -2.4406  0.7220
 3480SOL     OW21898   3.962   2.257   7.255  0.3054  0.3600  0.3346
 3480SOL    HW121899   4.038   2.251   7.313 -0.1684  1.9888  1.1385
 3480SOL    HW221900   3.884   2.259   7.310 -1.1309  1.5252 -1.7510
 3481SOL     OW21901   0.924   2.394   2.986 -0.1270 -0.6480 -0.0516
 3481SOL    HW121902   0.861   2.462   3.007  0.2128  0.5419 -2.8873
 3481SOL    HW221903   0.903   2.328   3.052  1.6015 -1.2138 -0.0798
 3482SOL     OW21904   2.564   1.076   0.462  0.6017  0.2026  0.0271
 3482SOL    HW121905   2.560   0.998   0.407 -0.8573  1.2225 -1.2921
 3482SOL    HW221906   2.470   1.093   0.462  0.4554 -0.5541  4.5326
 3483SOL     OW21907   4.330   4.454   6.961  0.0582 -0.0539  0.0870
 3483SOL    HW121908   4.258   4.436   7.021 -0.5089 -0.2384 -0.6447
 3483SOL    HW221909   4.338   4.549   6.966 -2.6972  0.1276  0.6469
 3484SOL     OW21910   0.427   3.516   7.604 -0.0819  0.9611  0.4690
 3484SOL    HW121911   0.395   3.560   7.683 -3.5591 -0.0646 -0.3720
 3484SOL    HW221912   0.344   3.510   7.557 -1.5340 -0.3993  3.1974
 3485SOL     OW21913   0.544   2.888   7.045  0.0511  0.2708 -0.4168
 3485SOL    HW121914   0.585   2.968   7.012 -1.5150  0.2803 -2.2772
 3485SOL    HW221915   0.482   2.873   6.974 -1.0413  0.5231  0.4874
 3486SOL     OW21916   0.971   0.527  11.590 -0.1565  0.1760  0.4700
 3486SOL    HW121917   0.904   0.567  11.534 -0.4452  0.1446  0.7947
 3486SOL    HW221918   1.040   0.516  11.524 -0.6699 -1.0208  0.1274
 3487SOL     OW21919   1.428   1.033   3.477 -0.4701  0.6860  0.1866
 3487SOL    HW121920   1.363   1.100   3.495 -0.7605  0.4950 -0.1549
 3487SOL    HW221921   1.451   1.006   3.566  0.9776 -1.3464 -0.7850
 3488SOL     OW21922   0.132   2.334   5.851  0.2506  0.2611 -0.5333
 3488SOL    HW121923   0.071   2.299   5.787  0.4325  1.4526 -1.3584
 3488SOL    HW221924   0.115   2.429   5.851  0.4205  0.3000  0.4957
 3489SOL     OW21925   3.203   3.508   4.532  0.4840  0.1713 -0.1618
 3489SOL    HW121926   3.188   3.556   4.451 -1.5134  1.0568  0.7439
 3489SOL    HW221927   3.141   3.544   4.594  0.0331 -0.0315 -0.4985
 3490SOL     OW21928   1.695   3.952   3.010 -0.1433  0.4716 -0.2217
 3490SOL    HW121929   1.767   3.929   2.952 -0.1555 -1.7301  0.6397
 3490SOL    HW221930   1.718   3.905   3.090 -0.1381 -2.3416 -1.8580
 3491SOL     OW21931   0.908   3.113   2.541  0.5431  0.1485  0.4360
 3491SOL    HW121932   0.949   3.035   2.502  0.9907 -0.3072  1.8047
 3491SOL    HW221933   0.874   3.155   2.461  0.5081 -0.1513  0.2927
 3492SOL     OW21934   4.313   2.388   3.600  0.9716  0.0010  0.0643
 3492SOL    HW121935   4.290   2.431   3.518  0.4043 -2.2926 -0.9589
 3492SOL    HW221936   4.307   2.295   3.582 -0.1257  0.1797 -0.4842
 3493SOL     OW21937   2.952   2.369   9.108 -0.0411  0.3800 -0.3342
 3493SOL    HW121938   2.897   2.423   9.163 -0.8918  0.9598 -1.7463
 3493SOL    HW221939   2.908   2.360   9.023 -0.5146  1.2956 -0.1827
 3494SOL     OW21940   2.906   4.676   7.375 -0.7020  0.5854  0.0245
 3494SOL    HW121941   2.832   4.711   7.327 -1.9375 -0.8222  0.9034
 3494SOL    HW221942   2.879   4.586   7.395  1.1240  0.1222  0.4058
 3495SOL     OW21943   1.389   0.764  17.553 -0.1883 -0.1291 -0.2747
 3495SOL    HW121944   1.458   0.772  17.487  0.3828  2.2313  0.6091
 3495SOL    HW221945   1.331   0.840  17.547  0.1434  0.4013  3.5840
 3496SOL     OW21946   0.278   1.637  16.246  0.2749 -0.2530 -0.0613
 3496SOL    HW121947   0.317   1.693  16.178  0.4260 -1.1630 -0.7307
 3496SOL    HW221948   0.232   1.569  16.196 -0.1839 -1.6317  2.2639
 3497SOL     OW21949   0.151   0.180   5.207  0.5747 -0.2088  0.0484
 3497SOL    HW121950   0.226   0.119   5.204  2.0304  1.5331  0.8528
 3497SOL    HW221951   0.182   0.244   5.143 -0.3847  1.4103  1.2100
 3498SOL     OW21952   3.786   4.408   6.479 -0.0389 -0.0280 -0.1669
 3498SOL    HW121953   3.807   4.419   6.386 -0.4679  1.3177 -0.0982
 3498SOL    HW221954   3.766   4.499   6.499  0.6219  0.0594  0.0971
 3499SOL     OW21955   2.582   3.447   3.921 -0.0606 -0.1070  0.3431
 3499SOL    HW121956   2.558   3.435   3.829 -0.8744  0.9469  0.4201
 3499SOL    HW221957   2.589   3.541   3.937 -0.2872 -0.1493  0.6806
 3500SOL     OW21958   0.660   2.898   8.695 -0.2535  0.0867  0.2532
 3500SOL    HW121959   0.580   2.861   8.657 -0.4573  2.9582 -2.1026
 3500SOL    HW221960   0.621   2.980   8.725 -0.3996  1.0207 -2.4611
 3501SOL     OW21961   4.545   1.494   0.041 -0.0030 -0.8009 -0.8287
 3501SOL    HW121962   4.450   1.487   0.047  0.1521 -1.3913  0.8009
 3501SOL    HW221963   4.570   1.533   0.125  1.3705 -0.7428 -1.2629
 3502SOL     OW21964   1.175   0.419   0.763 -0.0022  0.1589 -0.2564
 3502SOL    HW121965   1.248   0.419   0.701  0.9758 -1.1557  0.8973
 3502SOL    HW221966   1.210   0.361   0.831 -1.3700 -0.9067 -0.4593
 3503SOL     OW21967   4.327   0.099   8.712  0.1870 -0.1298  0.3696
 3503SOL    HW121968   4.328   0.194   8.715  1.5139 -0.1656  1.2460
 3503SOL    HW221969   4.274   0.081   8.790 -1.0125 -2.2538 -0.9217
 3504SOL     OW21970   2.668   1.041   3.585 -0.4110  0.1318  0.3610
 3504SOL    HW121971   2.726   1.086   3.524 -1.5026  1.0504  0.0090
 3504SOL    HW221972   2.640   1.118   3.635  0.4509  1.4419 -1.2090
 3505SOL     OW21973   0.450   2.610   8.272 -0.7528  0.4027  0.2862
 3505SOL    HW121974   0.409   2.536   8.228 -1.6962  0.2805  1.3714
 3505SOL    HW221975   0.544   2.592   8.265 -1.2532 -1.6387 -1.1047
 3506SOL     OW21976   1.762   0.058   3.541 -0.4889  0.4195 -0.0289
 3506SOL    HW121977   1.744   0.050   3.635 -1.8226 -0.5873 -0.3728
 3506SOL    HW221978   1.717   4.709   3.499 -1.1684  1.1793 -0.6326
 3507SOL     OW21979   3.666   2.185   8.014 -0.3768 -0.2425  0.6500
 3507SOL    HW121980   3.685   2.221   7.927  1.4847 -2.3431  0.1848
 3507SOL    HW221981   3.745   2.202   8.065  0.0431 -1.8737  0.5557
 3508SOL     OW21982   3.682   2.333  13.028  0.3413  0.2419 -0.2041
 3508SOL    HW121983   3.666   2.239  13.040 -0.4960  0.4454  0.3463
 3508SOL    HW221984   3.592   2.355  13.004 -0.7598  0.5984  4.2322
 3509SOL     OW21985   0.576   2.392   2.242  0.5668 -0.5434 -0.2271
 3509SOL    HW121986   0.526   2.437   2.174  0.2472 -1.9626 -0.9352
 3509SOL    HW221987   0.588   2.309   2.196  0.9123 -1.2370  1.1003
 3510SOL     OW21988   1.713   4.271   4.813 -0.7704  0.6053  0.4537
 3510SOL    HW121989   1.770   4.346   4.797 -0.0932  0.2775  1.3537
 3510SOL    HW221990   1.760   4.229   4.884  0.3379 -1.9929 -1.8261
 3511SOL     OW21991   3.785   1.088  16.902 -0.0977  0.3190 -0.7382
 3511SOL    HW121992   3.876   1.070  16.928 -0.1446 -0.8896 -1.3970
 3511SOL    HW221993   3.729   1.051  16.971  1.8152 -2.0877 -0.4578
 3512SOL     OW21994   1.750   0.294   6.640 -0.2084 -0.3549 -0.1055
 3512SOL    HW121995   1.772   0.288   6.733 -1.0279  0.7013  0.1558
 3512SOL    HW221996   1.832   0.268   6.597  0.0330 -0.2688  0.3000
 3513SOL     OW21997   3.174   1.050   2.610  0.3707 -0.1817 -0.5751
 3513SOL    HW121998   3.267   1.056   2.591  0.6396 -0.4990  0.6238
 3513SOL    HW221999   3.157   0.961   2.639  1.4578 -0.3751 -0.5481
 3514SOL     OW22000   3.735   2.302   6.144  0.0334  0.8404 -0.3273
 3514SOL    HW122001   3.660   2.315   6.202 -0.1678  1.7040 -0.7800
 3514SOL    HW222002   3.688   2.237   6.091  0.6350 -0.6693  0.9967
 3515SOL     OW22003   1.856   1.197   0.599  0.5273  0.4283  0.0970
 3515SOL    HW122004   1.795   1.270   0.603 -0.6621 -0.5720  0.0706
 3515SOL    HW222005   1.942   1.239   0.591  0.8827  0.1073  2.1675
 3516SOL     OW22006   0.037   2.677   6.782 -0.3331  0.7583  0.0195
 3516SOL    HW122007   0.100   2.742   6.813 -0.9406  0.4272  1.9846
 3516SOL    HW222008   0.082   2.629   6.712 -0.5234 -1.8735  1.7008
 3517SOL     OW22009   3.032   3.463   9.137  0.0839  1.0317  0.0077
 3517SOL    HW122010   3.084   3.442   9.060 -1.2050 -0.6233 -0.4125
 3517SOL    HW222011   3.092   3.531   9.169  1.0065  0.4547 -0.4903
 3518SOL     OW22012   4.149   1.571   3.430  0.1605 -0.7028  0.2900
 3518SOL    HW122013   4.159   1.643   3.493 -2.3003  1.0295 -1.3168
 3518SOL    HW222014   4.158   1.625   3.352 -0.7385 -2.1008 -0.7835
 3519SOL     OW22015   0.479   0.058   3.520  0.0303 -0.3609 -0.6531
 3519SOL    HW122016   0.449   0.103   3.441 -1.8222 -3.5146 -1.7474
 3519SOL    HW222017   0.528   0.120   3.574  0.7889 -3.2914  2.0181
 3520SOL     OW22018   3.649   4.328  13.602  0.3661  0.0918 -0.7276
 3520SOL    HW122019   3.619   4.269  13.533 -1.6305 -0.0113  0.2591
 3520SOL    HW222020   3.621   4.414  13.569 -0.6135 -0.8761 -2.4101
 3521SOL     OW22021   2.402   0.441   2.720  0.6723  0.4798 -0.8886
 3521SOL    HW122022   2.389   0.346   2.726 -0.9739  0.6491 -1.6038
 3521SOL    HW222023   2.446   0.442   2.635  0.3074 -1.4520 -1.1024
 3522SOL     OW22024   3.495   2.137  16.666  0.8077 -0.7409  0.0745
 3522SOL    HW122025   3.463   2.097  16.585  0.3347  0.1400 -0.1691
 3522SOL    HW222026   3.579   2.093  16.677  0.1456 -2.1402 -0.4450
 3523SOL     OW22027   2.385   2.880  12.465  0.2984 -0.7690  0.1652
 3523SOL    HW122028   2.423   2.800  12.502 -2.2442 -1.7298  0.6798
 3523SOL    HW222029   2.456   2.944  12.456  2.2514 -3.1343 -1.3478
 3524SOL     OW22030   1.571   0.752   8.150  0.1698  0.0494 -1.0089
 3524SOL    HW122031   1.477   0.745   8.130 -0.3532 -1.6986  2.0467
 3524SOL    HW222032   1.561   0.840   8.186  2.0436  0.0175 -0.4531
 3525SOL     OW22033   0.908   1.694   1.113  0.5116 -0.1093 -0.1451
 3525SOL    HW122034   0.840   1.687   1.046  0.8537 -2.9677 -0.2119
 3525SOL    HW222035   0.967   1.761   1.080  2.9303 -1.3940  1.5475
 3526SOL     OW22036   0.963   4.009  15.838 -0.4395  0.0734  0.0388
 3526SOL    HW122037   0.972   4.096  15.801 -1.5229  0.1603 -0.0316
 3526SOL    HW222038   0.890   3.969  15.790 -0.3838  2.4420 -1.9607
 3527SOL     OW22039   0.543   1.223   4.140 -0.1598 -0.2110  0.5622
 3527SOL    HW122040   0.510   1.283   4.207  1.3782  0.7385  0.4663
 3527SOL    HW222041   0.469   1.223   4.079  1.9303 -0.2950 -1.9630
 3528SOL     OW22042   3.238   3.895   2.228 -0.1615  0.3937  0.1427
 3528SOL    HW122043   3.250   3.810   2.270 -0.0577 -0.3463 -1.3727
 3528SOL    HW222044   3.227   3.879   2.134  1.5292 -0.2448  0.0455
 3529SOL     OW22045   4.232   3.259  14.991  0.0969  0.5263 -0.2041
 3529SOL    HW122046   4.242   3.319  14.917  1.0768 -0.1450 -0.6182
 3529SOL    HW222047   4.323   3.229  14.994 -0.3322 -0.3242  4.4939
 3530SOL     OW22048   3.142   3.911   8.472  0.2894 -0.1793  0.8269
 3530SOL    HW122049   3.074   3.921   8.538 -2.2218  2.5978 -2.1587
 3530SOL    HW222050   3.200   3.975   8.513  0.4481  0.8854 -1.0750
 3531SOL     OW22051   3.346   4.084   8.604  0.1821  0.5520  0.4242
 3531SOL    HW122052   3.379   4.117   8.520 -0.9760  0.4127 -0.0796
 3531SOL    HW222053   3.295   4.161   8.629 -0.2182  0.0418  1.1725
 3532SOL     OW22054   1.602   0.485  17.164  0.5811  0.1185 -0.0062
 3532SOL    HW122055   1.539   0.438  17.220  0.1082 -0.8337 -1.3247
 3532SOL    HW222056   1.599   0.422  17.091  0.2053 -1.3581  1.2827
 3533SOL     OW22057   3.824   2.424   5.482 -0.0162  0.1192 -0.0148
 3533SOL    HW122058   3.860   2.336   5.489  0.2505  0.0371 -2.4196
 3533SOL    HW222059   3.857   2.472   5.558 -0.9028  0.4575  0.1554
 3534SOL     OW22060   2.525   2.483   6.746 -0.4429 -0.2767 -0.4170
 3534SOL    HW122061   2.476   2.563   6.725  1.7038  1.0770 -0.1881
 3534SOL    HW222062   2.539   2.493   6.840 -1.0887 -1.1195 -0.2293
 3535SOL     OW22063   4.691   0.241  16.541 -0.4130  0.1483 -0.4283
 3535SOL    HW122064   0.032   0.285  16.595 -0.7314  1.5452 -1.1922
 3535SOL    HW222065   4.630   0.223  16.613  3.1491 -3.2354  1.7553
 3536SOL     OW22066   0.391   0.544   6.642 -0.2413 -0.2447 -0.2773
 3536SOL    HW122067   0.301   0.565   6.665 -1.0146 -1.1699 -2.4343
 3536SOL    HW222068   0.388   0.457   6.603 -0.4350 -0.1275 -0.5234
 3537SOL     OW22069   4.703   3.320   6.999 -0.4331 -0.1982 -0.1696
 3537SOL    HW122070   4.709   3.242   7.054  2.6845 -0.3337 -0.6584
 3537SOL    HW222071   0.073   3.337   6.990 -0.4245 -0.8482 -1.2678
 3538SOL     OW22072   2.661   4.705   3.352 -0.1024  0.1258  0.0465
 3538SOL    HW122073   2.591   4.649   3.319 -0.4150 -0.1098  1.1156
 3538SOL    HW222074   2.650   4.702   3.447  0.6209 -0.5677  0.1140
 3539SOL     OW22075   3.285   3.626   9.151 -0.5009 -0.7057 -0.2326
 3539SOL    HW122076   3.358   3.572   9.122  0.0453  0.3291 -0.8038
 3539SOL    HW222077   3.307   3.716   9.124 -0.4406 -0.4777  0.5753
 3540SOL     OW22078   2.800   2.663   0.824  0.2112  0.0165 -0.1656
 3540SOL    HW122079   2.805   2.637   0.732  1.2880 -0.0602 -0.0861
 3540SOL    HW222080   2.891   2.644   0.848 -0.1764  1.2776  2.2473
 3541SOL     OW22081   2.189   1.350   7.790 -0.2714 -0.7777  0.3782
 3541SOL    HW122082   2.230   1.264   7.781  0.9716 -0.2733  1.2793
 3541SOL    HW222083   2.255   1.418   7.784 -2.1868  0.7858 -2.6631
 3542SOL     OW22084   0.343   0.406   8.496 -0.2496 -0.4773  0.4095
 3542SOL    HW122085   0.358   0.403   8.590  1.1702  0.9522  0.2157
 3542SOL    HW222086   0.268   0.351   8.474 -0.0989  0.1181 -1.6219
 3543SOL     OW22087   2.036   3.006   6.326  0.7512  0.1503 -0.5448
 3543SOL    HW122088   2.035   3.088   6.275  0.0087 -0.2157 -1.1114
 3543SOL    HW222089   2.064   2.944   6.259  0.4021 -0.6779  0.0796
 3544SOL     OW22090   2.618   1.567   7.852 -0.0069 -0.1716  0.1296
 3544SOL    HW122091   2.559   1.539   7.922 -0.7170 -2.2992 -1.3299
 3544SOL    HW222092   2.638   1.486   7.805 -0.0931  0.3332 -0.7728
 3545SOL     OW22093   1.950   4.529   0.359  0.1903 -0.1284 -0.0897
 3545SOL    HW122094   1.937   4.461   0.292  0.4292 -0.4003  0.1428
 3545SOL    HW222095   1.956   4.479   0.440 -0.4636 -0.7691 -0.4356
 3546SOL     OW22096   1.035   2.473   6.368  0.2696 -0.5787 -0.1104
 3546SOL    HW122097   1.060   2.480   6.276 -4.1911  0.1959 -1.2754
 3546SOL    HW222098   1.019   2.564   6.391  1.7674 -0.2107 -0.5747
 3547SOL     OW22099   3.522   3.709  17.278  0.3936  0.2125 -0.4220
 3547SOL    HW122100   3.493   3.700  17.187 -0.3941 -2.2991  0.0759
 3547SOL    HW222101   3.552   3.620  17.299 -0.5594 -0.2513 -1.0016
 3548SOL     OW22102   1.167   0.946  14.301  0.3970  0.4727  0.2340
 3548SOL    HW122103   1.073   0.959  14.292  0.5494  0.1724 -1.8879
 3548SOL    HW222104   1.188   0.929  14.209 -2.0841  1.4516 -0.5089
 3549SOL     OW22105   0.090   1.728   4.769 -0.2817 -0.1329  0.6453
 3549SOL    HW122106   0.182   1.753   4.756  0.1922 -2.3746 -0.2261
 3549SOL    HW222107   0.082   1.636   4.745  0.1963  0.2681 -1.0940
 3550SOL     OW22108   2.455   0.781   4.039 -0.4145 -0.1576 -0.6545
 3550SOL    HW122109   2.434   0.869   4.009  0.9653  0.5960  0.6185
 3550SOL    HW222110   2.367   0.762   4.073 -0.6694  0.7207 -0.8178
 3551SOL     OW22111   0.731   3.113   6.986 -0.2165 -0.2500  0.9791
 3551SOL    HW122112   0.806   3.066   6.948 -1.5016 -0.9176 -0.6938
 3551SOL    HW222113   0.776   3.143   7.064 -0.3079 -0.7539  1.2246
 3552SOL     OW22114   1.643   2.073   2.479  0.0422  0.3327 -0.1865
 3552SOL    HW122115   1.613   1.987   2.448  2.2189 -0.5816  0.2345
 3552SOL    HW222116   1.564   2.123   2.503  0.2836  1.2426 -1.3031
 3553SOL     OW22117   4.104   3.924   3.593  0.7558  0.1809  0.5158
 3553SOL    HW122118   4.083   4.017   3.585  0.5361  0.2510  1.8290
 3553SOL    HW222119   4.122   3.921   3.687  0.9633 -1.3288  0.4307
 3554SOL     OW22120   1.268   3.599   1.704  0.3748 -0.7315 -0.0696
 3554SOL    HW122121   1.255   3.519   1.655 -0.2043 -0.2712 -0.6640
 3554SOL    HW222122   1.312   3.561   1.781 -0.6446  0.6370  1.2040
 3555SOL     OW22123   3.704   4.246   4.295  0.6619  0.1764  0.3406
 3555SOL    HW122124   3.748   4.182   4.238  1.7733  0.5239  0.8095
 3555SOL    HW222125   3.769   4.260   4.364  1.1242  0.4523 -0.1463
 3556SOL     OW22126   0.201   3.026   1.585 -0.3537 -0.4083 -0.1829
 3556SOL    HW122127   0.186   3.068   1.669 -3.3754  0.5403 -1.1815
 3556SOL    HW222128   0.282   2.978   1.595  0.0660  0.2035 -0.6225
 3557SOL     OW22129   2.639   2.535   0.352  0.1247  0.1260  0.1056
 3557SOL    HW122130   2.602   2.447   0.359 -2.2096  1.2070  1.4250
 3557SOL    HW222131   2.559   2.575   0.318 -0.0805  0.1363  0.6029
 3558SOL     OW22132   0.186   3.454   5.241 -0.6260  0.4556 -0.2164
 3558SOL    HW122133   0.236   3.382   5.202  3.5231  3.6255 -0.7158
 3558SOL    HW222134   0.194   3.426   5.332  0.3826 -2.1551 -1.0895
 3559SOL     OW22135   1.784   2.355   7.283 -0.0422 -0.1593  0.3351
 3559SOL    HW122136   1.868   2.400   7.273  0.0137 -0.2823  0.2424
 3559SOL    HW222137   1.772   2.341   7.189 -0.5257  3.0716 -0.0694
 3560SOL     OW22138   2.533   0.689   3.791 -0.4536 -0.0347 -0.4972
 3560SOL    HW122139   2.601   0.622   3.807 -0.0087  1.2766  3.1179
 3560SOL    HW222140   2.497   0.699   3.879 -2.0678 -0.3315 -1.1287
 3561SOL     OW22141   0.609   0.418   6.923  0.2760 -0.2734 -0.1743
 3561SOL    HW122142   0.604   0.485   6.855  0.4641  1.9496  1.9885
 3561SOL    HW222143   0.694   0.381   6.897  0.2960  1.3650 -2.4729
 3562SOL     OW22144   0.463   2.685   4.711 -0.0459 -0.0175 -0.5134
 3562SOL    HW122145   0.446   2.756   4.649 -0.9180 -0.6422 -0.9821
 3562SOL    HW222146   0.521   2.620   4.671  0.7828 -0.2097  1.0184
 3563SOL     OW22147   2.228   3.541   1.185  0.3291 -0.3938  0.0653
 3563SOL    HW122148   2.306   3.487   1.188 -0.8722 -2.2264 -1.3987
 3563SOL    HW222149   2.199   3.497   1.106 -0.4098  0.8523 -0.3579
 3564SOL     OW22150   4.364   4.514  11.470 -0.1888  0.0879 -0.2703
 3564SOL    HW122151   4.355   4.507  11.375  1.1816  1.9034 -0.5181
 3564SOL    HW222152   4.277   4.481  11.494 -0.2649  0.6606  0.2416
 3565SOL     OW22153   0.041   2.047  11.083  0.3021 -0.3021  0.0868
 3565SOL    HW122154   0.031   2.141  11.068  0.7308  0.0895  2.1812
 3565SOL    HW222155   0.047   2.044  11.179  0.7776 -2.4290 -0.0129
 3566SOL     OW22156   2.309   2.334   3.655  0.3015 -0.3714 -0.3080
 3566SOL    HW122157   2.376   2.388   3.613  0.6160 -0.9094 -0.4956
 3566SOL    HW222158   2.243   2.392   3.618  1.0310  0.0707 -0.9113
 3567SOL     OW22159   0.886   1.242   7.961  0.2421  0.2433 -0.1846
 3567SOL    HW122160   0.802   1.196   7.967 -0.9239  2.3505 -0.5336
 3567SOL    HW222161   0.874   1.275   7.872  1.5936  1.2800  0.0138
 3568SOL     OW22162   4.619   0.175   1.687 -0.4095  0.2657  0.1899
 3568SOL    HW122163   4.546   0.123   1.654  1.3892 -2.7290  0.9584
 3568SOL    HW222164   4.562   0.250   1.701  2.2286  2.5144 -0.9839
 3569SOL     OW22165   2.027   0.733   3.349  0.4752  0.0377 -0.3568
 3569SOL    HW122166   2.078   0.799   3.395 -1.8986  0.5325  1.6168
 3569SOL    HW222167   2.092   0.665   3.334  0.5707 -0.1419  0.8849
 3570SOL     OW22168   4.272   3.066   9.436  0.3524  0.3992  0.7924
 3570SOL    HW122169   4.237   2.978   9.420 -2.5317  1.7200 -0.2203
 3570SOL    HW222170   4.204   3.108   9.488 -1.9396 -1.2832 -0.7908
 3571SOL     OW22171   3.230   3.298   0.799 -0.0437  0.0761  0.3010
 3571SOL    HW122172   3.302   3.342   0.844 -0.4263  1.1723 -0.1777
 3571SOL    HW222173   3.147   3.320   0.841  0.0644  2.0671 -0.5695
 3572SOL     OW22174   2.638   4.599  12.523  0.4559  0.4129 -0.0909
 3572SOL    HW122175   2.568   4.625  12.463  1.0024  2.2096  0.0238
 3572SOL    HW222176   2.717   4.624  12.476 -0.6496  1.3375 -1.4703
 3573SOL     OW22177   0.954   1.619   8.411  0.4158 -0.2944  0.2874
 3573SOL    HW122178   0.891   1.692   8.410  0.2622 -0.4203  0.6918
 3573SOL    HW222179   1.033   1.671   8.396 -0.3163  0.7421  0.0178
 3574SOL     OW22180   0.314   0.956   7.895  0.2766  0.9354 -0.2200
 3574SOL    HW122181   0.350   1.044   7.884  0.8218  0.9801  1.7946
 3574SOL    HW222182   0.247   0.957   7.828 -0.3988 -1.8211  0.4348
 3575SOL     OW22183   1.102   3.118   2.740  0.7278  0.6193 -0.1977
 3575SOL    HW122184   1.068   3.031   2.762  1.1710  0.4783 -0.0746
 3575SOL    HW222185   1.035   3.154   2.682 -1.9330 -0.6474  2.0817
 3576SOL     OW22186   0.962   2.783   3.326 -0.6233 -0.4083  0.4405
 3576SOL    HW122187   1.026   2.832   3.378 -0.3177 -0.0898 -0.2317
 3576SOL    HW222188   1.026   2.736   3.272  0.3187  1.7773 -0.3433
 3577SOL     OW22189   3.367   4.009   1.747  0.1898  0.0025  0.0823
 3577SOL    HW122190   3.454   4.029   1.711 -0.4983  1.5657 -0.7111
 3577SOL    HW222191   3.366   3.917   1.771 -0.1050  0.0907  0.4104
 3578SOL     OW22192   0.445   1.645   0.686 -0.2999  0.2392  0.1246
 3578SOL    HW122193   0.390   1.712   0.727 -1.1426 -1.2537  1.4877
 3578SOL    HW222194   0.527   1.688   0.665 -0.4079  1.6102  2.4077
 3579SOL     OW22195   3.379   0.610  15.030 -0.3275 -0.1808 -0.6038
 3579SOL    HW122196   3.388   0.526  14.986  0.8959 -0.1428 -0.4232
 3579SOL    HW222197   3.406   0.677  14.967  1.4889  0.5636  0.9638
 3580SOL     OW22198   2.035   4.190  11.311 -0.2231  0.5607  0.5727
 3580SOL    HW122199   2.045   4.111  11.365 -2.5762 -1.7655 -2.4151
 3580SOL    HW222200   2.026   4.158  11.222  3.0347  2.0356 -0.2870
 3581SOL     OW22201   4.034   2.455   3.047 -0.6813 -0.7409 -0.4102
 3581SOL    HW122202   3.950   2.475   3.088  0.0526  1.5134 -0.0098
 3581SOL    HW222203   4.073   2.542   3.051  0.0996 -0.9978 -2.4578
 3582SOL     OW22204   3.939   0.669   2.009 -0.0908  0.2017 -0.5659
 3582SOL    HW122205   3.852   0.642   2.035 -1.2021  3.2948 -1.0393
 3582SOL    HW222206   3.953   0.744   2.067 -0.0366 -0.0581 -0.2453
 3583SOL     OW22207   3.185   1.667   4.155  0.1911 -0.0858  0.2583
 3583SOL    HW122208   3.097   1.704   4.159  0.7659  1.4738 -1.3109
 3583SOL    HW222209   3.240   1.741   4.181 -0.7343  0.0020  1.9304
 3584SOL     OW22210   2.806   3.653   0.062  0.7231  0.3985 -0.5614
 3584SOL    HW122211   2.725   3.672   0.109  0.8227 -2.3002  0.7036
 3584SOL    HW222212   2.797   3.724  17.696 -0.3773  0.0068 -0.8501
 3585SOL     OW22213   3.734   4.139   9.074  0.2064  0.0164  0.1734
 3585SOL    HW122214   3.647   4.175   9.057 -0.0034 -0.9596 -0.8412
 3585SOL    HW222215   3.752   4.099   8.989  0.6285 -0.7860  0.6401
 3586SOL     OW22216   2.259   4.690  12.545  0.1427 -0.0782  0.1118
 3586SOL    HW122217   2.312   4.683  12.465  2.0945  0.5786  1.3544
 3586SOL    HW222218   2.289   4.621  12.605  0.8879 -0.3971 -0.6244
 3587SOL     OW22219   4.644   2.912   0.190 -0.6022  0.2210  0.0240
 3587SOL    HW122220   4.636   2.927   0.284 -0.6337  2.8829 -0.3864
 3587SOL    HW222221   4.572   2.852   0.174 -1.1885  1.3913 -1.7086
 3588SOL     OW22222   3.374   1.587   2.853 -0.5227 -0.5350  1.0989
 3588SOL    HW122223   3.396   1.497   2.828 -2.3092 -0.8155  0.5749
 3588SOL    HW222224   3.366   1.623   2.764 -1.7868 -0.7661  1.1173
 3589SOL     OW22225   1.435   2.372   8.721  0.3784  0.0595 -0.0380
 3589SOL    HW122226   1.420   2.402   8.810  1.4968 -1.4112  0.6428
 3589SOL    HW222227   1.514   2.320   8.735  1.6756  2.1720  0.4794
 3590SOL     OW22228   2.221   1.186   1.357  0.6276  0.0008  0.0369
 3590SOL    HW122229   2.127   1.207   1.353  1.1010  2.6434  2.0655
 3590SOL    HW222230   2.238   1.162   1.448  0.6764  4.2162  1.1548
 3591SOL     OW22231   2.012   2.997  13.100 -0.1158  0.2265  0.0158
 3591SOL    HW122232   1.921   3.008  13.073 -0.1462  0.9230  0.4035
 3591SOL    HW222233   2.043   2.934  13.035 -0.6060 -0.2991  0.2937
 3592SOL     OW22234   1.285   2.731  15.729 -0.1164 -0.0264 -0.0906
 3592SOL    HW122235   1.321   2.751  15.642 -0.5171 -0.1286 -0.2800
 3592SOL    HW222236   1.280   2.637  15.713  0.4892  0.1580 -1.4074
 3593SOL     OW22237   1.020   2.735   6.377 -0.1123 -0.6677 -0.4858
 3593SOL    HW122238   0.951   2.780   6.328  0.3622 -0.4368 -0.9443
 3593SOL    HW222239   1.007   2.773   6.464 -0.8264  0.2297 -0.9871
 3594SOL     OW22240   4.438   4.144  11.128 -0.0941 -0.2037  0.0224
 3594SOL    HW122241   4.416   4.175  11.039 -1.1503  0.1413  0.4006
 3594SOL    HW222242   4.530   4.168  11.125  0.4654 -2.3553  0.9674
 3595SOL     OW22243   4.057   0.102   0.138  0.1092  0.0849 -0.7433
 3595SOL    HW122244   4.128   0.092   0.201 -0.9553 -0.1662  0.4209
 3595SOL    HW222245   3.999   0.033   0.171 -0.8211  0.1957 -2.1416
 3596SOL     OW22246   1.144   2.483   8.570 -0.2614 -0.1323  0.9475
 3596SOL    HW122247   1.197   2.403   8.571 -1.0891 -0.7278 -2.2543
 3596SOL    HW222248   1.206   2.549   8.601 -0.3183  0.1170  0.5443
 3597SOL     OW22249   1.715   1.420   0.615  0.2754  0.3667  0.4428
 3597SOL    HW122250   1.700   1.407   0.521 -1.3566  0.6003  0.6640
 3597SOL    HW222251   1.630   1.447   0.651  0.9824  1.2698  1.4254
 3598SOL     OW22252   0.806   2.072   1.249  0.7371  0.8564  0.7188
 3598SOL    HW122253   0.831   2.069   1.157 -0.3566 -1.4538  0.5126
 3598SOL    HW222254   0.894   2.066   1.285  0.7840  1.0765  0.6435
 3599SOL     OW22255   4.325   1.805  15.685 -0.2992 -0.1419 -0.0743
 3599SOL    HW122256   4.244   1.834  15.642  0.2267 -1.5741 -2.0702
 3599SOL    HW222257   4.389   1.866  15.648  0.7666  0.4082  2.7430
 3600SOL     OW22258   2.666   3.809   8.849  0.4054  0.8454  0.7486
 3600SOL    HW122259   2.586   3.757   8.842  2.0187 -1.1775 -2.4186
 3600SOL    HW222260   2.709   3.762   8.778 -1.3412 -0.5415  0.6042
 3601SOL     OW22261   3.734   1.805   9.502  0.5540  0.2820 -0.7280
 3601SOL    HW122262   3.774   1.720   9.522 -1.0776 -1.1631 -3.5911
 3601SOL    HW222263   3.722   1.834   9.593  0.6743  0.6311 -0.8263
 3602SOL     OW22264   1.465   1.920   3.472 -0.2274 -0.2452  0.0928
 3602SOL    HW122265   1.385   1.950   3.515 -1.0878  3.0956 -3.8165
 3602SOL    HW222266   1.441   1.913   3.380 -3.0684  1.3463  0.7215
 3603SOL     OW22267   2.073   4.456   9.039 -0.7468  0.1404  0.3486
 3603SOL    HW122268   2.015   4.415   8.974 -0.7894 -0.1370  0.5599
 3603SOL    HW222269   2.062   4.410   9.122 -0.8092 -3.2311 -1.5328
 3604SOL     OW22270   0.967   3.236   0.873 -0.4139 -0.1483 -0.2621
 3604SOL    HW122271   1.034   3.272   0.815  0.9664  0.5875  1.8122
 3604SOL    HW222272   0.923   3.319   0.894  0.6195  0.5063 -0.6692
 3605SOL     OW22273   0.353   3.596   1.409  0.3521  0.3719  0.5466
 3605SOL    HW122274   0.404   3.598   1.490  2.2267 -1.3056 -0.6049
 3605SOL    HW222275   0.430   3.607   1.353  0.1620 -0.4636  0.1260
 3606SOL     OW22276   4.410   2.571   8.379 -0.0757  0.6174  0.1904
 3606SOL    HW122277   4.489   2.546   8.331  0.1807 -0.8955  1.4117
 3606SOL    HW222278   4.361   2.490   8.371 -1.6037  1.7570 -1.9574
 3607SOL     OW22279   3.880   1.108   8.517  0.3847 -0.0271 -0.3465
 3607SOL    HW122280   3.844   1.176   8.573  0.4119 -0.3690  0.0821
 3607SOL    HW222281   3.849   1.138   8.432  1.7215 -0.7610 -1.1087
 3608SOL     OW22282   0.404   2.003   5.248  0.2382 -0.3314  0.3252
 3608SOL    HW122283   0.482   2.044   5.286  0.8129 -0.4444 -0.7284
 3608SOL    HW222284   0.439   1.974   5.164 -0.8538  2.3414 -1.0544
 3609SOL     OW22285   0.313   3.792  14.066  0.8314  0.7831 -0.4877
 3609SOL    HW122286   0.355   3.781  13.981 -1.5816 -0.3367 -1.5131
 3609SOL    HW222287   0.294   3.885  14.074  1.8189  0.9221  0.3650
 3610SOL     OW22288   1.321   0.776   8.083 -0.8444 -0.5521 -0.3944
 3610SOL    HW122289   1.337   0.855   8.031 -0.4062 -0.4109 -0.0432
 3610SOL    HW222290   1.241   0.752   8.036 -1.3853 -0.0804  0.2855
 3611SOL     OW22291   3.137   2.376  15.153 -0.5566 -0.0026 -0.3780
 3611SOL    HW122292   3.074   2.438  15.118  0.2456  1.0458  0.0433
 3611SOL    HW222293   3.102   2.291  15.124  0.9714 -0.0206 -2.2564
 3612SOL     OW22294   0.758   1.742   6.962 -0.9372  0.1108  0.3296
 3612SOL    HW122295   0.848   1.712   6.969 -0.5550  1.1413 -0.2182
 3612SOL    HW222296   0.713   1.686   7.025 -0.8076  2.2544  2.3309
 3613SOL     OW22297   2.852   2.354  10.990  0.4106 -0.1425 -0.2711
 3613SOL    HW122298   2.928   2.411  11.000 -0.3452  0.6636  0.8195
 3613SOL    HW222299   2.795   2.413  10.939  1.0359 -0.4121 -1.2779
 3614SOL     OW22300   3.247   2.494   2.181 -0.4697  0.7853 -0.3215
 3614SOL    HW122301   3.157   2.526   2.174 -0.5395  0.6555 -0.0248
 3614SOL    HW222302   3.286   2.555   2.118  0.3080 -1.4305 -1.9617
 3615SOL     OW22303   2.162   2.895   4.275  0.4944  0.2090  0.0339
 3615SOL    HW122304   2.131   2.873   4.363  1.1045 -1.6657 -0.2149
 3615SOL    HW222305   2.084   2.929   4.231  0.3258 -3.4649 -2.5216
 3616SOL     OW22306   4.629   2.394   2.513 -0.2302 -0.0822  0.0013
 3616SOL    HW122307   4.682   2.455   2.462 -2.1873  0.3614 -1.4697
 3616SOL    HW222308   4.558   2.449   2.544  1.0492  1.3134  0.4583
 3617SOL     OW22309   2.124   4.267   8.703  0.2317 -0.1200  0.1278
 3617SOL    HW122310   2.201   4.210   8.708  0.2060 -0.2676 -1.1974
 3617SOL    HW222311   2.126   4.298   8.613  0.4149 -0.8436 -0.1232
 3618SOL     OW22312   0.131   1.888   8.949 -0.0410 -0.2743 -0.5670
 3618SOL    HW122313   0.044   1.887   8.907 -0.2937 -2.1132  0.0131
 3618SOL    HW222314   0.144   1.980   8.973 -0.4539 -0.2127 -0.5725
 3619SOL     OW22315   1.205   0.269   6.443 -0.2432 -0.3032 -0.1840
 3619SOL    HW122316   1.197   0.240   6.534  0.1583  1.3076  0.3577
 3619SOL    HW222317   1.135   0.335   6.438  0.3051  0.1058 -2.2467
 3620SOL     OW22318   1.683   1.316  15.396  0.0789  0.3327  0.8882
 3620SOL    HW122319   1.650   1.313  15.306 -2.0805 -1.4222  1.7258
 3620SOL    HW222320   1.660   1.229  15.428 -1.1861  0.8852  1.5167
 3621SOL     OW22321   1.168   2.262   7.404 -0.3783 -0.1098  0.1160
 3621SOL    HW122322   1.132   2.226   7.485 -2.1635  1.5571  0.0437
 3621SOL    HW222323   1.183   2.183   7.352 -2.4924  0.6512 -1.6618
 3622SOL     OW22324   4.379   0.427  13.860 -0.4755 -0.4214 -0.3923
 3622SOL    HW122325   4.451   0.438  13.799  0.0180 -3.0935 -0.2879
 3622SOL    HW222326   4.341   0.348  13.823 -0.6046 -0.0185 -1.1116
 3623SOL     OW22327   0.129   1.932   0.154  0.1546 -0.5030 -0.5104
 3623SOL    HW122328   0.215   1.890   0.152  0.3100 -0.0893 -2.1544
 3623SOL    HW222329   0.132   1.992   0.228  1.1461 -0.0568 -0.9234
 3624SOL     OW22330   2.045   2.433   1.949 -0.1825  0.2493  0.0727
 3624SOL    HW122331   2.103   2.356   1.951  0.4358  0.7158 -0.0607
 3624SOL    HW222332   2.025   2.441   2.042 -0.5210 -2.5045  0.2468
 3625SOL     OW22333   0.282   3.696   5.089 -0.2694 -0.7505 -0.2180
 3625SOL    HW122334   0.350   3.653   5.036  0.4379  1.4723 -1.0828
 3625SOL    HW222335   0.238   3.618   5.124 -0.7519 -0.1103  0.5855
 3626SOL     OW22336   1.892   3.313   3.383  0.2155  0.4018  0.6674
 3626SOL    HW122337   1.943   3.322   3.463  0.7508  2.7747  0.0624
 3626SOL    HW222338   1.805   3.285   3.413 -0.3713  1.0505 -0.4366
 3627SOL     OW22339   0.322   3.127  15.197 -0.5703 -0.0755 -0.0886
 3627SOL    HW122340   0.403   3.104  15.152 -1.3603 -1.6768 -0.6802
 3627SOL    HW222341   0.292   3.209  15.159 -3.7046 -1.6887 -1.1851
 3628SOL     OW22342   3.112   0.618   0.930  0.2544 -0.1375  0.0675
 3628SOL    HW122343   3.046   0.626   0.999 -0.6076 -2.2060 -0.5284
 3628SOL    HW222344   3.134   0.711   0.930 -1.5633  0.2762  0.1256
 3629SOL     OW22345   2.276   1.783  10.585 -0.2054 -0.1422 -0.2450
 3629SOL    HW122346   2.199   1.767  10.531 -0.5015  0.2513  0.0518
 3629SOL    HW222347   2.266   1.878  10.595  2.1110  0.0366  0.4927
 3630SOL     OW22348   2.556   2.811  11.784  0.0400  0.1406  0.4904
 3630SOL    HW122349   2.648   2.785  11.795  1.1616  3.2082 -1.9506
 3630SOL    HW222350   2.574   2.900  11.756  1.5775 -0.6876 -1.1741
 3631SOL     OW22351   0.096   3.522  13.207 -0.2498 -0.2340  0.5347
 3631SOL    HW122352   0.042   3.595  13.177 -1.0565 -0.3216  1.7514
 3631SOL    HW222353   0.066   3.450  13.152 -0.4102 -0.5056  0.9750
 3632SOL     OW22354   3.590   3.734   5.658  0.0294  0.4058  0.2270
 3632SOL    HW122355   3.664   3.766   5.606  0.3795 -0.5111  0.1750
 3632SOL    HW222356   3.627   3.647   5.672  1.6759  1.2396  1.2160
 3633SOL     OW22357   1.066   0.027  10.982 -0.5337 -0.2344  0.5060
 3633SOL    HW122358   0.984   4.717  11.018 -0.9830  0.4747  0.1467
 3633SOL    HW222359   1.029   0.111  10.955  0.6219  0.6678  1.7128
 3634SOL     OW22360   2.014   1.848   4.551  0.4222 -0.1811 -0.2787
 3634SOL    HW122361   2.077   1.790   4.594 -0.2414  0.5711  1.6813
 3634SOL    HW222362   1.966   1.787   4.494 -0.2495  0.3667 -0.3075
 3635SOL     OW22363   2.463   2.984   6.236  0.0178 -0.0090  0.1327
 3635SOL    HW122364   2.485   2.891   6.233  0.3481  0.0280  1.5600
 3635SOL    HW222365   2.401   2.995   6.308 -1.5722  3.6176 -1.7941
 3636SOL     OW22366   1.009   4.272   8.226 -0.0308  0.1937 -0.6329
 3636SOL    HW122367   1.066   4.347   8.208 -0.8091  0.9103 -0.0901
 3636SOL    HW222368   0.991   4.287   8.319  0.7011 -2.3256 -0.1059
 3637SOL     OW22369   2.670   0.597   6.899 -0.1246  0.1877  0.3755
 3637SOL    HW122370   2.599   0.550   6.856  0.0354 -0.3144  0.6624
 3637SOL    HW222371   2.631   0.650   6.968  1.0047  0.6179  0.6729
 3638SOL     OW22372   2.769   2.433   3.258  0.1683 -0.2704  0.6297
 3638SOL    HW122373   2.759   2.370   3.187 -3.3399  0.5567  0.4107
 3638SOL    HW222374   2.677   2.427   3.285 -0.5626  1.7692 -1.3993
 3639SOL     OW22375   2.643   0.450   8.122 -0.1947  0.4226  0.0965
 3639SOL    HW122376   2.628   0.428   8.214  0.6588 -1.2802 -0.1791
 3639SOL    HW222377   2.577   0.407   8.068 -0.9361  0.9007  0.6167
 3640SOL     OW22378   0.687   1.914  12.452 -0.0829  0.7315 -0.2490
 3640SOL    HW122379   0.763   1.936  12.397 -0.6465  1.3569 -0.7693
 3640SOL    HW222380   0.619   1.882  12.393  0.2756 -1.1775  0.3930
 3641SOL     OW22381   1.788   0.487  11.404  0.6333  0.0397 -0.3166
 3641SOL    HW122382   1.717   0.543  11.373  0.9837  0.2594 -0.7235
 3641SOL    HW222383   1.841   0.546  11.458  0.9430  0.6516 -1.2785
 3642SOL     OW22384   1.451   3.649   0.321 -0.4314  0.0849 -0.3502
 3642SOL    HW122385   1.501   3.590   0.266  1.2855 -2.6872  4.1918
 3642SOL    HW222386   1.465   3.616   0.410  0.3008 -2.7994 -1.5434
 3643SOL     OW22387   2.405   1.538   3.591  0.2404  0.9231 -0.3428
 3643SOL    HW122388   2.318   1.573   3.571 -0.8494 -1.2168  0.6049
 3643SOL    HW222389   2.392   1.484   3.669  1.0877  1.7532  0.3731
 3644SOL     OW22390   0.229   0.081  11.658 -0.0531  0.0203 -0.5670
 3644SOL    HW122391   0.193   0.113  11.741 -1.2979  0.4976 -1.2952
 3644SOL    HW222392   0.319   0.111  11.664 -0.0681  0.1126 -0.7865
 3645SOL     OW22393   2.719   2.514   0.092  0.0266 -0.3364  0.3150
 3645SOL    HW122394   2.624   2.513   0.076 -0.2877  1.4688  2.0804
 3645SOL    HW222395   2.711   2.524   0.187  1.8671 -1.0375  0.5280
 3646SOL     OW22396   4.544   0.082   8.100  0.1659 -0.2262  0.1648
 3646SOL    HW122397   4.514   0.064   8.189  0.3076  2.0747  0.6560
 3646SOL    HW222398   4.525   0.175   8.109 -1.0001 -0.6577  2.2089
 3647SOL     OW22399   2.781   3.932   2.728  0.5548  0.3730  0.6479
 3647SOL    HW122400   2.700   3.883   2.717  1.2198 -0.5972 -0.0192
 3647SOL    HW222401   2.740   4.017   2.713 -0.8691 -0.4545 -0.0940
 3648SOL     OW22402   4.549   2.297   2.777 -0.6215  0.3681 -0.9533
 3648SOL    HW122403   4.458   2.319   2.757 -0.1026  2.1511 -1.3873
 3648SOL    HW222404   4.598   2.322   2.699  0.1489  1.0839 -0.2317
 3649SOL     OW22405   2.308   0.365   0.700  0.3143 -0.1597  0.0854
 3649SOL    HW122406   2.268   0.337   0.617 -0.4399 -0.6515  0.6140
 3649SOL    HW222407   2.271   0.453   0.698  0.9833  0.0809 -2.5735
 3650SOL     OW22408   0.718   4.543   8.052  0.5180 -0.0053 -0.0552
 3650SOL    HW122409   0.747   4.503   7.970  1.0704 -0.7751  0.5224
 3650SOL    HW222410   0.629   4.507   8.056  0.1109  0.8596 -1.1856
 3651SOL     OW22411   1.998   2.054   8.550 -0.2944  0.0806 -0.4570
 3651SOL    HW122412   1.942   2.122   8.588  0.4476 -0.0878  0.9299
 3651SOL    HW222413   1.949   1.973   8.562  0.0765  0.0502  0.8294
 3652SOL     OW22414   3.362   2.545   8.706  0.0816  0.5715  0.1316
 3652SOL    HW122415   3.367   2.638   8.684 -0.2443  0.5835  0.1041
 3652SOL    HW222416   3.338   2.538   8.798 -0.6385 -2.4070 -0.2889
 3653SOL     OW22417   4.391   4.190   3.222 -0.4794  0.1657  0.0025
 3653SOL    HW122418   4.350   4.211   3.306 -0.7778 -0.9082  0.1231
 3653SOL    HW222419   4.321   4.195   3.157 -1.6332  0.5363  1.2679
 3654SOL     OW22420   3.127   1.510   2.502 -0.0785 -0.9512  0.4143
 3654SOL    HW122421   3.150   1.517   2.594 -1.9307  1.2302  0.6811
 3654SOL    HW222422   3.213   1.529   2.463 -1.1198  0.5439 -1.1244
 3655SOL     OW22423   1.325   1.801   9.111  0.2843 -0.0752 -0.2081
 3655SOL    HW122424   1.247   1.805   9.056  1.4629  0.9293 -1.7664
 3655SOL    HW222425   1.278   1.799   9.195 -2.0793  1.4695 -1.5078
 3656SOL     OW22426   2.485   3.232  14.882 -0.2313  0.1353  0.1263
 3656SOL    HW122427   2.530   3.244  14.799 -0.0209 -0.6499  0.1176
 3656SOL    HW222428   2.558   3.196  14.934  0.0921  0.3673 -0.1675
 3657SOL     OW22429   4.125   3.826  10.100 -0.7304  0.2905 -0.1139
 3657SOL    HW122430   4.089   3.884  10.033  0.8227  2.2808  0.7777
 3657SOL    HW222431   4.190   3.771  10.056  0.3438  1.7337 -0.3307
 3658SOL     OW22432   1.999   1.262   8.948 -0.4734  0.0650  0.2400
 3658SOL    HW122433   2.073   1.313   8.914 -0.8960  0.6730  0.2473
 3658SOL    HW222434   1.968   1.329   9.008  0.9076 -1.0701  2.2333
 3659SOL     OW22435   1.555   3.362   3.130  0.0567 -0.2258  0.8976
 3659SOL    HW122436   1.574   3.373   3.037  0.8565 -0.7179  1.0068
 3659SOL    HW222437   1.464   3.394   3.128 -0.7983 -2.7688 -0.7292
 3660SOL     OW22438   0.406   3.632   6.109 -0.5387  0.7872  0.0938
 3660SOL    HW122439   0.491   3.606   6.145 -0.1274  0.1877 -1.2886
 3660SOL    HW222440   0.426   3.650   6.017 -0.9243  0.5315 -0.0406
 3661SOL     OW22441   4.089   2.945   8.580  0.1861 -0.4135 -0.0789
 3661SOL    HW122442   4.095   2.955   8.675 -0.1909  0.8342 -0.1760
 3661SOL    HW222443   3.998   2.975   8.571  0.5018  0.6416  0.1749
 3662SOL     OW22444   4.137   2.248   3.188 -0.7462  0.1257 -0.0454
 3662SOL    HW122445   4.171   2.290   3.267  3.2162 -1.9567 -0.6600
 3662SOL    HW222446   4.110   2.324   3.136 -0.5701 -1.1874 -2.0633
 3663SOL     OW22447   4.636   1.103  10.837  0.5898 -0.0732  0.1294
 3663SOL    HW122448   4.561   1.059  10.878 -1.9761  2.4139 -1.8593
 3663SOL    HW222449   4.710   1.072  10.889 -1.3056 -1.1112  2.2458
 3664SOL     OW22450   2.502   0.270  14.951 -0.0451 -0.0254  0.1660
 3664SOL    HW122451   2.595   0.265  14.932 -0.2113  0.9209 -0.8699
 3664SOL    HW222452   2.512   0.323  15.030  0.4890 -3.6157  2.5091
 3665SOL     OW22453   1.727   4.318   7.977  0.1925 -0.3798 -0.2984
 3665SOL    HW122454   1.668   4.327   8.053  0.7061 -2.2885  0.3400
 3665SOL    HW222455   1.675   4.317   7.897 -0.0698  0.5427 -0.1364
 3666SOL     OW22456   1.331   0.414   4.645  0.1893  0.0309 -0.4082
 3666SOL    HW122457   1.238   0.432   4.632  0.2862  0.2959 -0.7123
 3666SOL    HW222458   1.330   0.410   4.741 -1.3657 -1.5762 -0.4830
 3667SOL     OW22459   0.623   4.331   5.207  0.3249 -0.2830  0.0996
 3667SOL    HW122460   0.572   4.259   5.245  0.6800 -1.2780 -1.2710
 3667SOL    HW222461   0.624   4.389   5.282  2.1329  0.1674 -0.2926
 3668SOL     OW22462   4.631   1.923   4.736 -0.1909  0.5608  0.1423
 3668SOL    HW122463   4.661   1.976   4.662 -0.1160 -0.0523 -0.2586
 3668SOL    HW222464   4.700   1.857   4.741 -0.9891 -0.2664  0.1318
 3669SOL     OW22465   0.810   0.044  15.032 -0.7966  0.2475 -0.4643
 3669SOL    HW122466   0.826   4.687  15.081 -0.3864  0.8915  0.4703
 3669SOL    HW222467   0.859   0.032  14.951 -0.3762 -1.2771  0.0184
 3670SOL     OW22468   1.198   0.535  11.427 -0.4404  0.5433  0.4875
 3670SOL    HW122469   1.213   0.620  11.387  1.1541  0.4748  0.9518
 3670SOL    HW222470   1.288   0.503  11.432 -0.3327  0.6822 -0.5818
 3671SOL     OW22471   2.849   2.864   2.436  0.2399  0.4296 -0.3435
 3671SOL    HW122472   2.818   2.815   2.512 -0.6228 -0.7001 -1.4220
 3671SOL    HW222473   2.939   2.891   2.457  1.0596 -3.2344  0.8008
 3672SOL     OW22474   2.831   0.293   3.950 -0.3224 -0.3733 -0.3642
 3672SOL    HW122475   2.853   0.214   3.901 -0.2479  0.7464 -2.1307
 3672SOL    HW222476   2.914   0.300   3.997  1.2059 -1.2909 -2.9374
 3673SOL     OW22477   0.746   2.856   5.653  0.0816  0.2141 -0.2722
 3673SOL    HW122478   0.747   2.879   5.746  0.6956  0.1364 -0.2605
 3673SOL    HW222479   0.777   2.941   5.624  1.5425 -0.1629  0.1861
 3674SOL     OW22480   2.858   3.442   6.300  0.6755  0.0078 -0.2746
 3674SOL    HW122481   2.894   3.517   6.254 -0.9533  1.5551  0.9871
 3674SOL    HW222482   2.938   3.392   6.319  0.7124  0.4993  0.8615
 3675SOL     OW22483   0.397   4.546   4.698  0.3522 -0.1893  0.4055
 3675SOL    HW122484   0.460   4.478   4.676  1.8389  1.4496 -0.4120
 3675SOL    HW222485   0.319   4.514   4.652  0.8527  0.7856 -1.1407
 3676SOL     OW22486   2.521   2.574   1.134  0.4429 -0.7188 -0.3411
 3676SOL    HW122487   2.548   2.485   1.111 -0.5106 -1.2883  0.7484
 3676SOL    HW222488   2.588   2.616   1.081  0.6393 -0.8124 -0.1663
 3677SOL     OW22489   0.063   0.489  15.967  0.0050  0.3951  0.7912
 3677SOL    HW122490   4.721   0.509  16.033 -0.7995 -1.6413  0.5987
 3677SOL    HW222491   0.029   0.545  15.897  3.3946  0.5003 -0.7665
 3678SOL     OW22492   1.085   0.828  10.581 -0.3883  0.0767 -0.1642
 3678SOL    HW122493   1.150   0.771  10.541 -0.6628 -0.2702 -0.1167
 3678SOL    HW222494   1.017   0.840  10.515 -0.6146 -2.9525 -0.4602
 3679SOL     OW22495   0.428   3.839   8.625 -0.1322 -0.6311  0.0467
 3679SOL    HW122496   0.500   3.896   8.651 -0.9468  1.4535 -2.3376
 3679SOL    HW222497   0.407   3.794   8.707 -1.1353  0.0371  0.1591
 3680SOL     OW22498   0.566   1.380  13.742 -0.0758  0.3216 -0.1016
 3680SOL    HW122499   0.484   1.355  13.700 -1.6804 -0.2380  3.3986
 3680SOL    HW222500   0.533   1.454  13.793  0.4867  0.4450  0.0862
 3681SOL     OW22501   1.578   3.120   2.749  0.1853 -0.2921 -0.6330
 3681SOL    HW122502   1.528   3.041   2.769 -0.0607  0.2697  0.9919
 3681SOL    HW222503   1.645   3.099   2.814  1.0586 -0.6052 -1.6372
 3682SOL     OW22504   1.179   1.801   6.915  0.2827 -0.0625 -0.5717
 3682SOL    HW122505   1.154   1.890   6.940 -0.8860  0.1013 -2.3259
 3682SOL    HW222506   1.163   1.752   6.996  2.9155  0.3666  0.2085
 3683SOL     OW22507   0.691   2.570   6.448 -0.1688  0.5153 -0.0314
 3683SOL    HW122508   0.656   2.588   6.360 -0.9042  1.2079  0.4065
 3683SOL    HW222509   0.703   2.656   6.489  1.6193  1.6031 -2.7913
 3684SOL     OW22510   1.206   1.567   5.999  0.3339  0.0609  0.4549
 3684SOL    HW122511   1.149   1.586   5.925  0.6885  0.1520  0.2059
 3684SOL    HW222512   1.217   1.658   6.026 -3.7033  0.6184  0.2578
 3685SOL     OW22513   0.839   2.961  17.449 -0.3579  0.5325  0.4046
 3685SOL    HW122514   0.759   2.998  17.486 -0.0134 -1.6590  3.3019
 3685SOL    HW222515   0.854   2.907  17.526 -2.8282 -1.6994 -0.6507
 3686SOL     OW22516   3.527   3.000   2.390 -0.2565  0.0615 -0.0744
 3686SOL    HW122517   3.578   2.942   2.447 -0.2366  2.5709  2.4544
 3686SOL    HW222518   3.588   2.999   2.316 -1.0298  0.5593 -0.7191
 3687SOL     OW22519   3.001   1.699   0.526 -0.2004 -0.6484 -0.6230
 3687SOL    HW122520   2.947   1.698   0.606  0.9950 -1.6202  0.1643
 3687SOL    HW222521   3.014   1.605   0.516 -0.5904 -1.0918  2.7863
 3688SOL     OW22522   4.145   0.142   3.517  0.1400  0.3707  0.1048
 3688SOL    HW122523   4.182   0.200   3.583 -0.0369  0.5049  0.0869
 3688SOL    HW222524   4.225   0.096   3.491  0.7968  3.3266 -3.0345
 3689SOL     OW22525   4.380   4.118  16.189 -0.0817  0.0333  0.0416
 3689SOL    HW122526   4.301   4.171  16.184  1.1701  1.9615  0.2956
 3689SOL    HW222527   4.377   4.066  16.109 -3.3333  0.0280  0.1663
 3690SOL     OW22528   3.056   4.079   8.138  0.0674 -0.4797 -0.0017
 3690SOL    HW122529   2.962   4.064   8.148  0.0144 -0.5818 -0.6636
 3690SOL    HW222530   3.054   4.099   8.044  2.4369  1.9403  0.4422
 3691SOL     OW22531   3.725   4.642  10.889  0.0592 -0.7609  0.2953
 3691SOL    HW122532   3.719   4.622  10.982  2.2181 -0.2248  0.5361
 3691SOL    HW222533   3.655   4.704  10.867  0.3170 -0.1776  1.1255
 3692SOL     OW22534   0.106   3.481  16.601  0.1696  0.2473  0.9010
 3692SOL    HW122535   0.068   3.393  16.611  0.1595 -0.0194 -1.6089
 3692SOL    HW222536   0.195   3.471  16.634  0.3086  1.7847  0.9492
 3693SOL     OW22537   1.641   1.926   1.433 -0.5054  0.4599  0.1469
 3693SOL    HW122538   1.656   1.877   1.352  2.9020 -0.4861  1.3561
 3693SOL    HW222539   1.629   2.017   1.405  1.3341  0.7148  0.2313
 3694SOL     OW22540   4.416   1.356   5.346  0.0389 -0.5899  0.1186
 3694SOL    HW122541   4.398   1.359   5.252  1.9463  0.3449 -0.2284
 3694SOL    HW222542   4.486   1.420   5.359 -0.1733 -0.0519 -1.3266
 3695SOL     OW22543   4.405   1.433   0.450 -0.6467  0.0881  0.0005
 3695SOL    HW122544   4.469   1.365   0.430 -0.3305 -0.0981  1.6110
 3695SOL    HW222545   4.328   1.384   0.481  0.0379  0.2427  1.9867
 3696SOL     OW22546   1.083   1.082   7.822 -0.0616  0.0483 -0.0655
 3696SOL    HW122547   1.006   1.091   7.765  0.2007 -0.7708 -0.5482
 3696SOL    HW222548   1.095   1.168   7.863 -1.1005  0.6021 -0.9009
 3697SOL     OW22549   0.931   0.927   5.886  0.1046  0.5549 -0.0653
 3697SOL    HW122550   0.977   0.846   5.909 -2.6053 -1.5507 -1.8747
 3697SOL    HW222551   0.864   0.928   5.955 -1.0251  0.9311 -1.1577
 3698SOL     OW22552   1.001   1.695   2.048  0.1157  0.0834 -0.0601
 3698SOL    HW122553   1.006   1.626   2.115 -0.8932  0.2108  0.1491
 3698SOL    HW222554   0.971   1.641   1.974 -1.4183  0.9728 -0.0896
 3699SOL     OW22555   1.206   0.171   2.487  0.3087 -0.2049  0.3297
 3699SOL    HW122556   1.148   0.246   2.499  0.4588  0.3175 -2.2091
 3699SOL    HW222557   1.237   0.147   2.574 -2.9987  1.8776  2.0357
 3700SOL     OW22558   2.596   4.675   7.476  0.4078  0.5849 -0.2430
 3700SOL    HW122559   2.583   4.631   7.392  0.0301  0.1488  0.0454
 3700SOL    HW222560   2.535   4.626   7.532  2.1603  0.3616  1.4696
 3701SOL     OW22561   0.446   2.509   2.018  0.2198  0.4421  0.3315
 3701SOL    HW122562   0.385   2.443   1.984  1.8262 -1.1369  0.5530
 3701SOL    HW222563   0.486   2.534   1.934 -0.0860  1.7411  0.5644
 3702SOL     OW22564   4.577   3.975   5.097  0.4516 -0.4994 -0.0765
 3702SOL    HW122565   4.519   3.934   5.033 -0.0927 -0.5672  0.4565
 3702SOL    HW222566   4.660   3.937   5.067  1.1577 -0.6540  2.0636
 3703SOL     OW22567   4.569   1.357  11.290  0.3223  0.3679 -0.2446
 3703SOL    HW122568   4.545   1.398  11.207  0.1801 -0.5180 -0.6414
 3703SOL    HW222569   4.538   1.425  11.350  0.5304 -0.1499  0.4621
 3704SOL     OW22570   2.430   2.142   8.051 -0.5265 -0.3474  0.6486
 3704SOL    HW122571   2.350   2.194   8.045 -1.0540 -1.1727  0.5510
 3704SOL    HW222572   2.399   2.057   8.019  1.0482  0.4500 -3.0214
 3705SOL     OW22573   2.631   3.555  10.205  0.4231  0.4539  0.3054
 3705SOL    HW122574   2.675   3.530  10.287  1.3141  0.4670 -0.1662
 3705SOL    HW222575   2.675   3.639  10.194 -2.2547  1.7346 -0.6958
 3706SOL     OW22576   2.883   1.824   5.356  0.5040 -0.2219  0.3203
 3706SOL    HW122577   2.820   1.752   5.348  0.7277 -0.3579 -0.2293
 3706SOL    HW222578   2.939   1.809   5.280  1.0609 -1.8648  1.0507
 3707SOL     OW22579   1.825   0.979   0.754 -0.7249 -0.5214 -0.2876
 3707SOL    HW122580   1.843   1.065   0.716  0.1690 -1.4828 -2.0555
 3707SOL    HW222581   1.734   0.997   0.779 -0.4516  0.4922 -0.0284
 3708SOL     OW22582   0.154   1.562   2.415  0.4038 -0.1588  0.7014
 3708SOL    HW122583   0.124   1.576   2.325  0.4543  0.3979  0.7695
 3708SOL    HW222584   0.111   1.478   2.433 -0.9247  0.4027  0.1707
 3709SOL     OW22585   0.420   2.811   5.899  0.2470 -0.2932 -0.2543
 3709SOL    HW122586   0.373   2.758   5.964  0.8301 -0.8521 -0.2922
 3709SOL    HW222587   0.355   2.874   5.868 -0.1152  1.2140  3.4939
 3710SOL     OW22588   1.264   2.275  14.843 -0.3581  0.2450  0.4350
 3710SOL    HW122589   1.259   2.365  14.875 -0.2484  0.3705  0.1051
 3710SOL    HW222590   1.329   2.239  14.903 -1.3913 -0.0088  1.4215
 3711SOL     OW22591   0.794   3.519   7.698  0.3116  0.0842 -0.2129
 3711SOL    HW122592   0.794   3.571   7.618  0.7452  1.7622  0.8739
 3711SOL    HW222593   0.749   3.444   7.660  1.3660  0.8719 -3.0628
 3712SOL     OW22594   1.471   1.210   9.109  0.5528  0.1162 -0.3521
 3712SOL    HW122595   1.503   1.146   9.046 -0.3349  0.1668 -0.8539
 3712SOL    HW222596   1.389   1.237   9.068  0.7964 -0.2156 -1.0519
 3713SOL     OW22597   3.610   3.492  15.418 -1.0927 -0.6665 -0.1199
 3713SOL    HW122598   3.698   3.462  15.439 -1.0991 -0.6219 -0.0257
 3713SOL    HW222599   3.606   3.481  15.324  1.2916 -0.3127 -0.2612
 3714SOL     OW22600   0.908   2.427   9.509  0.1098  0.2590 -0.0128
 3714SOL    HW122601   0.840   2.368   9.475  1.0102 -1.7930  1.7185
 3714SOL    HW222602   0.844   2.489   9.543  1.9347  0.0135  3.9086
 3715SOL     OW22603   0.731   2.254   3.600 -0.1749 -0.5737 -0.3916
 3715SOL    HW122604   0.658   2.284   3.546  0.4823 -0.0289 -0.9796
 3715SOL    HW222605   0.748   2.324   3.664 -0.0859 -1.5149  0.6146
 3716SOL     OW22606   4.184   2.110   4.139 -0.1327  0.2112  0.2082
 3716SOL    HW122607   4.204   2.188   4.190  2.2152  0.7741 -1.5365
 3716SOL    HW222608   4.263   2.058   4.158  1.1260  2.6213  1.6171
 3717SOL     OW22609   4.190   2.686  15.994  0.5669 -0.5724  0.0919
 3717SOL    HW122610   4.247   2.697  15.918 -0.9189  3.7387 -0.4429
 3717SOL    HW222611   4.255   2.666  16.061  0.3559 -1.9690 -0.1187
 3718SOL     OW22612   4.016   4.492   4.339 -0.1814  0.3082  0.1209
 3718SOL    HW122613   4.111   4.487   4.325 -0.3133  0.1255 -0.7048
 3718SOL    HW222614   3.990   4.555   4.272  0.0985 -1.3660 -1.5222
 3719SOL     OW22615   3.201   2.101   4.589 -0.0009  0.0675  0.3036
 3719SOL    HW122616   3.240   2.105   4.677 -1.8217 -0.0554  1.1136
 3719SOL    HW222617   3.221   2.187   4.553  1.8924 -0.4951  0.0264
 3720SOL     OW22618   1.424   1.882  10.249 -0.4367  0.5922 -0.1109
 3720SOL    HW122619   1.480   1.959  10.256  0.0133  0.5484 -2.8800
 3720SOL    HW222620   1.354   1.921  10.196 -0.2634  1.0124 -0.0260
 3721SOL     OW22621   1.492   1.785   1.620 -0.2902  0.4314  0.4269
 3721SOL    HW122622   1.400   1.810   1.630  0.3170  2.3788  1.1839
 3721SOL    HW222623   1.525   1.845   1.553  0.9067  0.8455  1.3917
 3722SOL     OW22624   3.022   3.350   8.479 -0.4461  0.0102  0.2016
 3722SOL    HW122625   3.021   3.268   8.430 -1.0111  0.9487 -1.3713
 3722SOL    HW222626   3.102   3.339   8.531 -1.0207 -0.3973  0.9937
 3723SOL     OW22627   3.156   2.526   4.385 -0.1181  0.6667  0.3215
 3723SOL    HW122628   3.065   2.529   4.353  0.1420 -0.6746 -0.5362
 3723SOL    HW222629   3.185   2.606   4.341  2.7294  0.5077  1.9236
 3724SOL     OW22630   3.903   1.986   8.250 -0.0311  0.5911 -0.2678
 3724SOL    HW122631   3.858   1.912   8.292  1.8096 -0.5790 -0.4007
 3724SOL    HW222632   3.842   1.997   8.177  0.2132 -0.0631 -0.5660
 3725SOL     OW22633   0.989   1.830   7.597  0.5027  0.4821  0.2229
 3725SOL    HW122634   1.028   1.751   7.561 -0.6964  0.4325 -0.9872
 3725SOL    HW222635   0.998   1.829   7.692 -0.1930  1.2056  0.2988
 3726SOL     OW22636   4.689   1.988   6.217  0.4094 -0.4773  0.0213
 3726SOL    HW122637   4.681   2.016   6.125 -2.4868 -0.4417  0.2980
 3726SOL    HW222638   0.058   1.985   6.238  0.6866  0.2393 -1.1199
 3727SOL     OW22639   2.267   0.939   4.425  0.5851  0.2811 -0.2871
 3727SOL    HW122640   2.327   0.999   4.470  1.6691 -0.6542 -0.4796
 3727SOL    HW222641   2.283   0.950   4.331 -1.3321 -1.7367 -0.8306
 3728SOL     OW22642   4.492   2.870   7.091  0.6187  0.2250  0.2353
 3728SOL    HW122643   4.546   2.809   7.141  1.9419  0.7781 -0.5368
 3728SOL    HW222644   4.471   2.810   7.019  4.6019 -0.3845 -0.3918
 3729SOL     OW22645   1.511   1.596  16.627 -1.1966  0.4070 -0.1224
 3729SOL    HW122646   1.589   1.634  16.667 -1.8371  1.0084  0.5540
 3729SOL    HW222647   1.445   1.663  16.643 -3.2985 -2.2119  2.2044
 3730SOL     OW22648   3.018   2.557   8.083 -0.4152  0.2690 -0.0104
 3730SOL    HW122649   3.045   2.471   8.114 -0.1432  1.4744  3.0298
 3730SOL    HW222650   3.027   2.606   8.164 -1.1730 -0.1150  0.3047
 3731SOL     OW22651   3.481   4.702   1.721  0.5612  0.4997  1.0012
 3731SOL    HW122652   3.570   4.673   1.701 -0.0145  0.4061 -1.3521
 3731SOL    HW222653   3.448   4.618   1.753  1.8610  0.1109  1.2940
 3732SOL     OW22654   2.669   3.729   5.698 -1.1920 -0.5774  0.4286
 3732SOL    HW122655   2.684   3.712   5.605 -1.1645 -3.9807  1.0440
 3732SOL    HW222656   2.748   3.685   5.730 -1.3121  0.3289  1.9342
 3733SOL     OW22657   0.777   3.716   9.526 -0.1367  0.7818  0.1477
 3733SOL    HW122658   0.686   3.717   9.497 -0.1744  3.7584  0.3390
 3733SOL    HW222659   0.792   3.623   9.509 -0.0421  1.1558 -1.7968
 3734SOL     OW22660   1.738   1.048  15.552 -0.4183 -0.3202 -0.0392
 3734SOL    HW122661   1.741   0.959  15.516 -0.3898  0.1742 -1.2396
 3734SOL    HW222662   1.833   1.058  15.562 -0.5600 -1.4100  2.2967
 3735SOL     OW22663   2.055   0.305   5.310 -0.3553 -0.0137 -0.1650
 3735SOL    HW122664   2.105   0.387   5.319  2.5092 -1.7161 -0.3594
 3735SOL    HW222665   2.125   0.255   5.267 -1.4434  0.3449 -2.3170
 3736SOL     OW22666   1.650   0.405   4.554 -0.2292  0.8886  0.1648
 3736SOL    HW122667   1.571   0.354   4.571 -0.0572 -0.2696 -2.5451
 3736SOL    HW222668   1.639   0.456   4.635 -0.5572 -0.8410  1.2120
 3737SOL     OW22669   0.759   1.676   8.821  0.1177  0.3031  0.1582
 3737SOL    HW122670   0.695   1.727   8.871 -1.1028 -0.6036 -0.5037
 3737SOL    HW222671   0.705   1.659   8.745 -1.9487 -0.4814  1.8156
 3738SOL     OW22672   4.161   1.462   6.653 -0.0194 -0.0454 -1.1277
 3738SOL    HW122673   4.146   1.434   6.563 -0.2847  1.1385 -1.4586
 3738SOL    HW222674   4.137   1.554   6.640 -1.3326 -0.2156  0.1104
 3739SOL     OW22675   0.496   0.453   3.879 -0.0063  0.5325 -0.0347
 3739SOL    HW122676   0.427   0.425   3.819  0.3086 -1.9097  0.7703
 3739SOL    HW222677   0.533   0.529   3.835 -0.3261 -0.8691 -2.7338
 3740SOL     OW22678   0.322   0.671   2.834  0.1617 -0.1903 -0.5814
 3740SOL    HW122679   0.229   0.683   2.855  0.6988 -0.9477  2.2676
 3740SOL    HW222680   0.311   0.597   2.774 -1.0193 -1.4756  1.2280
 3741SOL     OW22681   3.658   2.679  13.539  0.0366 -0.3096  0.7173
 3741SOL    HW122682   3.566   2.690  13.516  0.4762 -0.0878 -0.9768
 3741SOL    HW222683   3.687   2.769  13.551  0.0731 -0.1947 -0.2103
 3742SOL     OW22684   0.567   4.005   5.200 -0.0644  0.2500 -0.1032
 3742SOL    HW122685   0.644   3.986   5.253  0.9749  2.8879 -0.6798
 3742SOL    HW222686   0.605   4.040   5.119 -0.3759 -0.8886 -0.7490
 3743SOL     OW22687   2.220   1.320  13.632 -0.2835  1.2973 -0.8211
 3743SOL    HW122688   2.146   1.353  13.683  0.2584  2.1464 -0.6087
 3743SOL    HW222689   2.171   1.266  13.569  1.5322  0.8841 -1.8647
 3744SOL     OW22690   1.228   2.954   0.625 -0.2857  0.1787  0.2797
 3744SOL    HW122691   1.153   2.937   0.569  2.1180 -0.5845 -2.7060
 3744SOL    HW222692   1.297   2.903   0.583 -1.3057 -1.0383  0.0768
 3745SOL     OW22693   3.957   0.679   9.354  0.0049  0.4424  0.1056
 3745SOL    HW122694   3.976   0.710   9.443  1.6187 -1.0607  0.2826
 3745SOL    HW222695   4.020   0.731   9.303  0.0893 -0.0895 -0.3320
 3746SOL     OW22696   0.904   4.430   6.412  0.3010 -0.0872 -0.0887
 3746SOL    HW122697   0.878   4.511   6.457  0.7454 -0.6271  1.1260
 3746SOL    HW222698   0.911   4.453   6.319 -1.6895  0.5269 -0.0922
 3747SOL     OW22699   2.162   0.746   8.646 -0.5287 -0.0552 -0.2768
 3747SOL    HW122700   2.202   0.690   8.713  0.2063  1.4564  0.5446
 3747SOL    HW222701   2.087   0.778   8.696 -1.4150 -3.3888  0.5207
 3748SOL     OW22702   3.796   3.816   3.458 -1.0013 -0.3241 -0.2733
 3748SOL    HW122703   3.867   3.867   3.498  0.6350 -2.9398  0.1900
 3748SOL    HW222704   3.802   3.839   3.365  0.4706 -2.2687 -0.6803
 3749SOL     OW22705   0.259   0.460   5.979  0.1274  0.2211 -0.0886
 3749SOL    HW122706   0.284   0.540   6.026  0.6083 -0.0711  0.1575
 3749SOL    HW222707   0.188   0.488   5.922  1.2056  0.6078 -1.2606
 3750SOL     OW22708   2.919   1.933  13.114 -0.7743  0.0027  0.4284
 3750SOL    HW122709   2.827   1.947  13.136 -0.7136  0.2973  0.5058
 3750SOL    HW222710   2.905   1.861  13.053 -1.6110  0.9815 -0.5389
 3751SOL     OW22711   1.348   0.743  10.045  0.2635  0.4312  0.2934
 3751SOL    HW122712   1.395   0.809  10.095  1.3931  2.3417 -3.3281
 3751SOL    HW222713   1.415   0.706   9.988 -0.2207  1.5189 -0.9619
 3752SOL     OW22714   2.034   3.211   7.289 -0.4285 -0.2004  0.2909
 3752SOL    HW122715   2.064   3.139   7.345  2.2225 -0.2739 -1.2217
 3752SOL    HW222716   1.977   3.166   7.226 -0.0412  0.5154 -0.5652
 3753SOL     OW22717   4.450   3.640   4.638  0.4795 -0.1156 -0.2666
 3753SOL    HW122718   4.433   3.546   4.652  1.0881 -0.5702 -2.5999
 3753SOL    HW222719   4.416   3.652   4.549  1.4772  1.1493 -0.4700
 3754SOL     OW22720   3.582   3.876   3.982  0.1759  0.1122  0.3248
 3754SOL    HW122721   3.496   3.896   4.019 -0.6448 -0.2254 -1.4188
 3754SOL    HW222722   3.631   3.867   4.064  0.1774 -0.3430  0.2742
 3755SOL     OW22723   2.315   3.683   4.958 -0.2150 -0.2058  0.2998
 3755SOL    HW122724   2.346   3.690   5.048  1.6288 -1.6827 -0.2083
 3755SOL    HW222725   2.245   3.619   4.970  0.4035 -0.8143  0.6741
 3756SOL     OW22726   3.564   3.838   2.609  0.2558 -0.3765 -0.1451
 3756SOL    HW122727   3.572   3.863   2.701 -0.3489  0.3125 -0.2823
 3756SOL    HW222728   3.481   3.880   2.586  1.2168  0.6660 -1.7023
 3757SOL     OW22729   4.086   0.686   7.484  0.2411  0.2606 -0.2246
 3757SOL    HW122730   4.133   0.689   7.400  2.4418 -1.3631  0.9284
 3757SOL    HW222731   4.142   0.753   7.523 -0.0336 -0.0584  0.6984
 3758SOL     OW22732   2.789   3.040   3.345 -0.0447 -0.1139  0.3061
 3758SOL    HW122733   2.822   2.968   3.400 -0.2348 -0.5044 -0.0942
 3758SOL    HW222734   2.771   3.105   3.414  0.3500 -2.0245  2.2071
 3759SOL     OW22735   0.227   3.879  16.635  0.2519 -0.0119  0.2812
 3759SOL    HW122736   0.184   3.963  16.617  0.5590 -0.6359 -3.3187
 3759SOL    HW222737   0.156   3.817  16.651  1.0541 -0.6737  1.2854
 3760SOL     OW22738   1.503   3.135   7.742 -0.0255  0.0532 -0.3867
 3760SOL    HW122739   1.571   3.175   7.796 -0.0390  1.0662 -1.1350
 3760SOL    HW222740   1.557   3.077   7.689 -2.6180 -1.2543 -1.5755
 3761SOL     OW22741   0.779   1.257  14.770  0.5630 -0.0590  0.1230
 3761SOL    HW122742   0.813   1.168  14.766  1.1426  0.1504  0.3122
 3761SOL    HW222743   0.685   1.241  14.776  0.7951 -1.3137  0.3108
 3762SOL     OW22744   2.604   2.491  14.951 -0.4139  0.1975  0.2212
 3762SOL    HW122745   2.622   2.553  14.880 -0.6282  0.7688  0.6609
 3762SOL    HW222746   2.520   2.529  14.978 -0.9477 -1.1094  0.3747
 3763SOL     OW22747   0.101   1.095   7.415 -0.2854 -0.3990 -0.1092
 3763SOL    HW122748   0.099   1.191   7.416  1.0699 -0.3838  0.6728
 3763SOL    HW222749   0.037   1.080   7.344 -0.5691 -2.8365  0.6629
 3764SOL     OW22750   1.529   3.650  14.479 -0.1565 -0.1438 -0.4841
 3764SOL    HW122751   1.591   3.614  14.543  0.5406  0.9909 -0.5147
 3764SOL    HW222752   1.447   3.645  14.528 -0.2915 -1.1764 -0.8287
 3765SOL     OW22753   0.266   1.177   2.546 -0.1617 -0.5374  0.4102
 3765SOL    HW122754   0.347   1.127   2.560 -0.4086 -0.5031  2.0686
 3765SOL    HW222755   0.277   1.187   2.452  3.1935 -0.5282  0.8202
 3766SOL     OW22756   0.262   4.359  10.349 -0.0601  0.0538  0.3733
 3766SOL    HW122757   0.250   4.367  10.254  3.1951  0.3998 -0.0314
 3766SOL    HW222758   0.357   4.370  10.354  0.0187 -0.9100  0.8516
 3767SOL     OW22759   3.282   1.424   8.000  0.3894 -0.0046 -0.0887
 3767SOL    HW122760   3.289   1.451   7.909  0.9202  0.6844  0.1551
 3767SOL    HW222761   3.216   1.480   8.040  0.4683  0.1092 -0.1166
 3768SOL     OW22762   3.531   3.480   9.152  0.1034  0.5867 -0.1194
 3768SOL    HW122763   3.590   3.418   9.108  1.6326  2.2491 -0.4098
 3768SOL    HW222764   3.556   3.497   9.242 -1.6379  1.5652  0.1771
 3769SOL     OW22765   2.365   4.286   9.083  0.1313  0.1637  0.9428
 3769SOL    HW122766   2.395   4.353   9.145  0.5946 -1.1193  2.0996
 3769SOL    HW222767   2.453   4.251   9.066 -0.4332 -0.1654 -1.2896
 3770SOL     OW22768   0.087   4.611   5.876 -0.5409 -0.0465 -0.2803
 3770SOL    HW122769   0.052   4.699   5.883 -0.9960 -0.2773  0.3691
 3770SOL    HW222770   0.014   4.569   5.922 -1.6310 -1.2247 -3.0362
 3771SOL     OW22771   4.268   1.560   3.901  0.0570  0.3400  0.1252
 3771SOL    HW122772   4.233   1.520   3.821  0.0845 -0.6209  0.6038
 3771SOL    HW222773   4.225   1.527   3.979  0.7513 -0.5719  0.1224
 3772SOL     OW22774   0.159   4.010   9.532  0.0697  0.0546 -0.1143
 3772SOL    HW122775   0.077   4.035   9.491  0.6654  0.0173 -1.3403
 3772SOL    HW222776   0.147   3.923   9.571  2.7593 -0.7230 -0.9779
 3773SOL     OW22777   3.193   1.965  15.657  0.5962 -0.0602  0.1906
 3773SOL    HW122778   3.160   1.925  15.737  0.6281  0.7626  0.6173
 3773SOL    HW222779   3.252   1.900  15.619  0.7740  0.7959 -0.9858
 3774SOL     OW22780   4.383   4.105   4.260 -0.1807 -0.0209  0.3815
 3774SOL    HW122781   4.478   4.113   4.271 -0.0709  0.4321 -0.9456
 3774SOL    HW222782   4.353   4.136   4.346  2.3795 -1.3391  1.7249
 3775SOL     OW22783   4.073   0.400   4.105  0.3267  0.3476 -0.4249
 3775SOL    HW122784   3.988   0.425   4.142 -1.0092 -2.3588 -1.6719
 3775SOL    HW222785   4.049   0.409   4.012 -1.0247 -1.0101 -0.2220
 3776SOL     OW22786   2.641   0.529  16.921 -0.6720  0.3201 -0.2531
 3776SOL    HW122787   2.572   0.465  16.937 -2.3264  2.2734  0.2955
 3776SOL    HW222788   2.598   0.599  16.873 -1.4125  1.0930  1.5679
 3777SOL     OW22789   1.231   4.454   3.022 -0.1478 -0.3596 -0.3237
 3777SOL    HW122790   1.217   4.374   3.073  0.3586 -1.1300 -1.3887
 3777SOL    HW222791   1.144   4.493   3.026  0.9194  2.1328 -2.2907
 3778SOL     OW22792   3.565   4.481   3.238 -0.0631 -0.8383  0.1746
 3778SOL    HW122793   3.595   4.481   3.147 -0.0868  1.6795  0.1580
 3778SOL    HW222794   3.557   4.576   3.251  1.1438 -0.7867  0.5474
 3779SOL     OW22795   3.635   4.301   4.693 -0.4408 -0.1086 -0.6833
 3779SOL    HW122796   3.719   4.293   4.648  0.5018  2.5269  0.6117
 3779SOL    HW222797   3.663   4.336   4.777  0.9496 -0.5902 -0.9481
 3780SOL     OW22798   2.156   3.409   6.248  0.4959  0.3362  0.0138
 3780SOL    HW122799   2.120   3.385   6.163  2.6386 -0.6539 -0.6290
 3780SOL    HW222800   2.084   3.441   6.303 -0.7048 -0.0280 -1.3684
 3781SOL     OW22801   3.295   3.933   8.146  0.0425  0.3564 -0.1879
 3781SOL    HW122802   3.243   3.993   8.200 -1.5379 -0.1880 -1.1058
 3781SOL    HW222803   3.245   3.928   8.065 -1.6030 -0.7310  0.8959
 3782SOL     OW22804   4.373   3.691   8.045  0.0546  0.1042 -0.3983
 3782SOL    HW122805   4.426   3.754   8.093 -2.0333  0.8953  0.9033
 3782SOL    HW222806   4.436   3.642   7.992  0.2663  1.1802 -1.1450
 3783SOL     OW22807   1.729   1.718   6.577 -0.4718 -0.2972  0.5380
 3783SOL    HW122808   1.642   1.718   6.536  1.4889 -0.0612 -3.5323
 3783SOL    HW222809   1.784   1.700   6.501 -1.2045 -1.7599  0.3443
 3784SOL     OW22810   4.600   2.411   4.328 -0.6964 -0.0452 -0.1511
 3784SOL    HW122811   4.677   2.368   4.290 -1.1078 -1.4305  0.5819
 3784SOL    HW222812   4.566   2.464   4.256 -1.2134 -0.7400 -0.4071
 3785SOL     OW22813   4.627   4.474  14.929  0.4551 -0.2574  0.1224
 3785SOL    HW122814   4.596   4.554  14.971 -1.1050 -0.4009 -0.7468
 3785SOL    HW222815   4.603   4.495  14.839  2.4170  1.9066  0.1194
 3786SOL     OW22816   4.130   4.024   1.810 -0.0420 -0.1312 -0.1382
 3786SOL    HW122817   4.208   3.970   1.813 -0.8738 -1.3454 -0.2229
 3786SOL    HW222818   4.058   3.975   1.849  1.3248  0.4842  3.1141
 3787SOL     OW22819   2.177   2.884   0.293  0.2449  0.3068  0.0451
 3787SOL    HW122820   2.164   2.978   0.303  0.6552  0.2259  1.3678
 3787SOL    HW222821   2.090   2.847   0.308  0.1646  0.1519 -0.8051
 3788SOL     OW22822   2.251   1.925   8.015  0.2323 -0.1270 -0.0011
 3788SOL    HW122823   2.245   1.869   7.938 -0.3806 -0.1380  0.0552
 3788SOL    HW222824   2.161   1.958   8.018 -0.0253 -1.0339  1.8850
 3789SOL     OW22825   0.164   2.800  10.320 -0.1716  0.1984  0.4319
 3789SOL    HW122826   0.213   2.800  10.402 -0.6434 -0.4910  0.7082
 3789SOL    HW222827   0.164   2.709  10.290  0.3442 -0.2281  1.7433
 3790SOL     OW22828   4.523   4.562   5.443 -0.1628 -0.3465  0.0788
 3790SOL    HW122829   4.511   4.643   5.493 -0.2772 -0.1400 -0.2840
 3790SOL    HW222830   4.528   4.592   5.352  0.8349 -1.8712 -0.3720
 3791SOL     OW22831   4.113   3.484   3.842  0.0137 -0.6491  0.3927
 3791SOL    HW122832   4.090   3.557   3.900 -2.4240 -1.5942  0.6201
 3791SOL    HW222833   4.121   3.538   3.763  3.5635 -0.5317  0.8419
 3792SOL     OW22834   0.316   4.297  16.957 -0.4281  0.6979 -0.3348
 3792SOL    HW122835   0.391   4.292  17.016  0.4138 -0.2846 -1.4875
 3792SOL    HW222836   0.359   4.272  16.875 -1.1316  1.2590 -0.8733
 3793SOL     OW22837   3.725   1.124  14.867 -0.7248 -0.2068 -0.3640
 3793SOL    HW122838   3.637   1.124  14.905  0.1054 -1.4553  1.6012
 3793SOL    HW222839   3.727   1.215  14.838  0.0666  0.1276  0.7295
 3794SOL     OW22840   1.874   3.054   8.806 -0.7608 -0.1174  0.1822
 3794SOL    HW122841   1.903   3.144   8.815 -0.2192 -0.4367  1.7237
 3794SOL    HW222842   1.854   3.039   8.898 -0.8539 -2.0268 -0.1480
 3795SOL     OW22843   0.621   3.177   2.173 -0.0437  0.2035 -0.4275
 3795SOL    HW122844   0.559   3.140   2.235 -0.6103  2.1819  0.1943
 3795SOL    HW222845   0.674   3.098   2.160 -1.2539 -0.4517 -1.4059
 3796SOL     OW22846   3.378   1.365   5.708  0.3337  1.5277 -0.1749
 3796SOL    HW122847   3.424   1.439   5.748 -2.4324  0.3918  5.0869
 3796SOL    HW222848   3.450   1.306   5.684  0.9214  1.9780  0.4761
 3797SOL     OW22849   0.113   1.888   3.557  0.2309  0.0932 -0.2530
 3797SOL    HW122850   0.103   1.864   3.465 -0.2264  1.6722 -0.6051
 3797SOL    HW222851   0.048   1.957   3.567  0.8144  0.2996  2.2033
 3798SOL     OW22852   1.402   2.778   0.484  0.0539 -0.5300  0.3321
 3798SOL    HW122853   1.382   2.832   0.407 -2.3996 -0.7402  0.8218
 3798SOL    HW222854   1.386   2.689   0.453 -1.1292 -0.2864  0.2406
 3799SOL     OW22855   1.749   0.651  10.097 -0.9546  0.1607  0.2304
 3799SOL    HW122856   1.690   0.677  10.026  0.2156 -1.8723 -1.4848
 3799SOL    HW222857   1.759   0.734  10.143  0.6133  0.8111 -1.2599
 3800SOL     OW22858   0.298   0.871   7.023  0.1122 -0.2215  0.1303
 3800SOL    HW122859   0.345   0.948   6.993 -0.8976 -0.0724 -1.0919
 3800SOL    HW222860   0.374   0.814   7.038 -0.3814 -1.4754 -2.0555
 3801SOL     OW22861   3.491   3.483  15.129  0.2263  0.2114 -0.8041
 3801SOL    HW122862   3.527   3.394  15.130  0.9563  0.5168  0.2990
 3801SOL    HW222863   3.486   3.492  15.034 -1.5296  1.6591 -0.5749
 3802SOL     OW22864   2.501   4.318   8.571 -0.2133 -0.1859 -0.0150
 3802SOL    HW122865   2.463   4.364   8.646 -2.0345 -1.1078 -0.3739
 3802SOL    HW222866   2.555   4.255   8.618  0.8831 -0.3253 -1.4691
 3803SOL     OW22867   0.237   4.201   8.584  0.0296 -0.4514 -0.0776
 3803SOL    HW122868   0.243   4.215   8.678  0.8246 -0.7991 -0.0772
 3803SOL    HW222869   0.233   4.288   8.545  0.6266  0.0291  0.9345
 3804SOL     OW22870   3.908   1.054   0.605  0.3430  0.6662  0.3101
 3804SOL    HW122871   3.885   1.135   0.650 -0.0406  0.7347 -0.0180
 3804SOL    HW222872   3.968   1.016   0.669  0.1472 -0.0291  0.0769
 3805SOL     OW22873   1.633   4.143   9.570 -0.0172  0.3553  0.1811
 3805SOL    HW122874   1.647   4.237   9.583  1.0513  0.4392 -1.5038
 3805SOL    HW222875   1.547   4.132   9.530 -0.4365  0.7358  0.9755
 3806SOL     OW22876   2.444   3.889   2.475 -0.3153  0.0441  0.6192
 3806SOL    HW122877   2.428   3.888   2.569  2.0738  0.9972  1.0487
 3806SOL    HW222878   2.398   3.969   2.453 -1.6164 -0.5908  1.0276
 3807SOL     OW22879   1.336   2.365   5.866  0.4119 -0.0189  0.5785
 3807SOL    HW122880   1.409   2.341   5.809 -2.0616 -1.8527 -1.8238
 3807SOL    HW222881   1.317   2.446   5.818 -1.3204 -0.6309  0.2174
 3808SOL     OW22882   0.866   2.233   3.170  0.0302  0.2231 -0.3313
 3808SOL    HW122883   0.780   2.199   3.198  0.0959 -0.8223 -1.3939
 3808SOL    HW222884   0.919   2.203   3.244  0.7843  2.4773  0.0296
 3809SOL     OW22885   2.996   0.790   6.859 -0.1934 -0.2355  0.1955
 3809SOL    HW122886   2.967   0.880   6.873 -0.3255 -0.4371  1.2165
 3809SOL    HW222887   2.955   0.739   6.929  0.8944 -1.4920 -0.0928
 3810SOL     OW22888   2.431   3.325   2.909  0.4576 -0.0349  0.4633
 3810SOL    HW122889   2.431   3.303   2.816  0.4990 -1.2386  0.7532
 3810SOL    HW222890   2.506   3.384   2.908  1.3896 -1.2412 -0.1169
 3811SOL     OW22891   0.245   4.452   1.733  0.6164 -0.0031  0.5113
 3811SOL    HW122892   0.299   4.451   1.811  1.6212  0.9834 -0.1770
 3811SOL    HW222893   0.205   4.365   1.738 -1.5292  0.8288 -2.0811
 3812SOL     OW22894   1.377   0.506   9.361 -0.4277 -0.0258 -0.2862
 3812SOL    HW122895   1.385   0.499   9.457  0.7350 -2.3695 -0.5471
 3812SOL    HW222896   1.424   0.586   9.338  1.6012 -1.5920 -1.6037
 3813SOL     OW22897   3.245   2.052  12.995 -0.6975  0.1075  0.0488
 3813SOL    HW122898   3.305   1.982  13.021 -0.4809 -0.1358 -1.1169
 3813SOL    HW222899   3.310   2.120  12.975  0.1838 -0.6598  0.2797
 3814SOL     OW22900   0.590   3.075   8.947 -0.2515  0.7729 -0.0148
 3814SOL    HW122901   0.511   3.071   9.000 -0.4507 -1.8992 -0.4939
 3814SOL    HW222902   0.619   3.164   8.968 -0.6058  0.8502  0.1395
 3815SOL     OW22903   1.258   2.550  12.965 -0.2928 -0.2666  0.6453
 3815SOL    HW122904   1.352   2.560  12.952  0.0151 -1.6507  1.7647
 3815SOL    HW222905   1.260   2.466  13.011 -1.0503 -0.7800 -0.2436
 3816SOL     OW22906   3.944   2.221   8.040 -0.3421  0.3842  0.3209
 3816SOL    HW122907   4.035   2.228   8.012 -0.6157 -1.2236 -0.9117
 3816SOL    HW222908   3.945   2.126   8.028 -2.5351  0.4282 -0.2928
 3817SOL     OW22909   2.800   0.821   2.482 -0.1520  0.3636 -0.0438
 3817SOL    HW122910   2.777   0.856   2.568  1.1555  0.1991  0.3765
 3817SOL    HW222911   2.802   0.897   2.424 -0.3066 -0.7964 -1.5579
 3818SOL     OW22912   0.642   2.411   9.834 -0.4258  0.2416  0.1644
 3818SOL    HW122913   0.634   2.325   9.793 -0.4020  0.5503 -0.4984
 3818SOL    HW222914   0.695   2.395   9.912 -0.2709 -0.3000 -0.0531
 3819SOL     OW22915   3.889   4.006   7.871 -0.4043 -0.6453  0.1919
 3819SOL    HW122916   3.826   3.980   7.805  0.9366  0.5734 -1.5536
 3819SOL    HW222917   3.833   4.041   7.941  1.5688  0.0262  1.4481
 3820SOL     OW22918   4.035   4.519   3.465  0.4250  0.4339  0.4883
 3820SOL    HW122919   4.028   4.445   3.526  2.2276 -1.1694 -1.2539
 3820SOL    HW222920   4.129   4.536   3.463  0.2177  1.5132  0.4070
 3821SOL     OW22921   4.439   1.556   7.682  0.4140  0.0061 -0.4291
 3821SOL    HW122922   4.381   1.481   7.667  1.4195 -0.7568 -0.4349
 3821SOL    HW222923   4.514   1.536   7.626  0.6067 -2.3520  0.6811
 3822SOL     OW22924   3.408   0.456   9.793 -0.4715  0.5914 -0.3184
 3822SOL    HW122925   3.401   0.418   9.706  0.1945  1.3578 -0.7061
 3822SOL    HW222926   3.340   0.521   9.810 -1.8902 -0.8822 -0.3530
 3823SOL     OW22927   4.304   1.295   2.471  0.2073 -0.4154 -0.1126
 3823SOL    HW122928   4.261   1.334   2.547  0.5275  0.1463 -0.2219
 3823SOL    HW222929   4.239   1.298   2.401  0.0323  1.6722  0.1478
 3824SOL     OW22930   2.401   4.163   1.818  0.1679 -0.0681 -0.2450
 3824SOL    HW122931   2.469   4.230   1.812 -0.3806  0.3950 -1.1813
 3824SOL    HW222932   2.459   4.104   1.866 -0.1764  0.3858  0.7511
 3825SOL     OW22933   4.255   2.093   5.781  0.2562  0.2793  0.3591
 3825SOL    HW122934   4.204   2.167   5.814  2.9823  3.0090 -1.5469
 3825SOL    HW222935   4.194   2.049   5.722  1.0497  0.0952 -0.3214
 3826SOL     OW22936   3.437   3.956  13.686  0.6541 -0.4910 -0.0840
 3826SOL    HW122937   3.361   3.955  13.628 -0.6130 -0.1746  1.5792
 3826SOL    HW222938   3.428   3.870  13.728 -1.5260 -0.9414 -1.4730
 3827SOL     OW22939   0.568   1.680  12.658 -0.1524  0.6401  0.3973
 3827SOL    HW122940   0.570   1.696  12.752  0.8723 -1.7837  0.7700
 3827SOL    HW222941   0.501   1.741  12.627 -0.4405  0.2509  0.2629
 3828SOL     OW22942   3.983   2.758  15.534  0.0330  0.0547  0.5085
 3828SOL    HW122943   4.075   2.778  15.551  0.1489 -2.0974  2.2715
 3828SOL    HW222944   3.967   2.665  15.545 -1.7898  0.1626 -1.1870
 3829SOL     OW22945   4.367   0.001   4.195 -0.3920  0.4659 -0.2349
 3829SOL    HW122946   4.456   4.690   4.193 -0.0210  1.3824  0.2278
 3829SOL    HW222947   4.372   0.055   4.274  2.2494  0.9473 -0.7143
 3830SOL     OW22948   1.343   3.929  15.383 -0.4501  0.6498 -0.3334
 3830SOL    HW122949   1.370   3.858  15.441  0.1139  1.4045  0.3156
 3830SOL    HW222950   1.249   3.930  15.398 -0.2928  0.8803  0.6071
 3831SOL     OW22951   4.031   3.308  14.666  0.2948 -0.5156  0.1868
 3831SOL    HW122952   4.061   3.314  14.757  0.7744  0.6459 -0.0508
 3831SOL    HW222953   3.943   3.272  14.675 -0.2483  0.6796 -0.4687
 3832SOL     OW22954   3.974   1.379   3.633  0.1163  0.1206 -0.0006
 3832SOL    HW122955   4.032   1.354   3.704 -0.9682 -0.6791  0.6133
 3832SOL    HW222956   4.027   1.360   3.555 -1.1863  1.4804 -1.2198
 3833SOL     OW22957   3.046   0.708   7.721  0.3346  0.9057 -1.0273
 3833SOL    HW122958   3.095   0.653   7.660  0.2553  0.0924 -0.3571
 3833SOL    HW222959   3.080   0.687   7.808  0.2567 -0.7161 -1.3984
 3834SOL     OW22960   3.556   3.705   4.996 -0.3503  0.1111  0.2685
 3834SOL    HW122961   3.529   3.648   5.068 -1.1895  0.2598  0.0692
 3834SOL    HW222962   3.648   3.686   4.977 -0.6542 -0.3593 -0.7127
 3835SOL     OW22963   0.149   0.650  17.616 -0.0198  0.1964 -1.0793
 3835SOL    HW122964   0.106   0.683  17.695 -0.7750 -0.5424 -1.1773
 3835SOL    HW222965   0.173   0.559  17.632 -0.8866 -0.0219 -1.0529
 3836SOL     OW22966   2.301   0.018  10.040  0.4755 -0.5353 -0.1261
 3836SOL    HW122967   2.351   0.026  10.121  3.7682 -1.9062 -2.0343
 3836SOL    HW222968   2.372   0.018   9.976  1.9764 -0.4669  1.5148
 3837SOL     OW22969   2.545   0.449   5.130 -0.1855 -0.3043 -0.0844
 3837SOL    HW122970   2.604   0.516   5.095 -1.7405  0.9431 -0.3439
 3837SOL    HW222971   2.479   0.499   5.177  0.4171  0.6854 -0.2850
 3838SOL     OW22972   0.103   4.522  12.894  0.6158  0.3138 -0.2014
 3838SOL    HW122973   0.102   4.510  12.989 -0.0374  0.6156 -0.1681
 3838SOL    HW222974   0.034   4.461  12.869 -0.3906 -1.0027  5.6542
 3839SOL     OW22975   0.791   3.081   5.502 -0.1435  0.0460  0.2151
 3839SOL    HW122976   0.711   3.135   5.499 -2.1067 -2.7091  2.6331
 3839SOL    HW222977   0.863   3.140   5.522 -1.2137  0.9738  1.3312
 3840SOL     OW22978   0.483   0.511  13.010  0.0378  0.0717 -0.3856
 3840SOL    HW122979   0.442   0.548  12.932 -0.0866 -1.6456 -1.1328
 3840SOL    HW222980   0.472   0.581  13.075  0.2216  0.9912 -1.3585
 3841SOL     OW22981   4.656   0.774   5.582 -0.1543 -0.0824  0.3306
 3841SOL    HW122982   4.587   0.754   5.646 -1.7410 -0.4618 -1.5136
 3841SOL    HW222983   0.009   0.777   5.640  0.0757  2.4962 -0.0911
 3842SOL     OW22984   3.317   2.243   4.025  0.2155  0.1403  0.8713
 3842SOL    HW122985   3.364   2.220   4.105  0.3846 -2.0189  0.1627
 3842SOL    HW222986   3.380   2.294   3.973 -0.4022 -0.3736 -0.3882
 3843SOL     OW22987   4.244   3.565   6.155  0.0778  0.3703  0.2405
 3843SOL    HW122988   4.259   3.655   6.128 -2.8835  0.7862 -0.0558
 3843SOL    HW222989   4.189   3.537   6.081 -0.5104 -1.4780  1.3750
 3844SOL     OW22990   2.648   2.021  13.128  0.5843  0.7403  0.1318
 3844SOL    HW122991   2.630   2.108  13.094 -1.5356  0.4787  0.5686
 3844SOL    HW222992   2.569   1.972  13.103  0.8371 -0.8256  2.3404
 3845SOL     OW22993   1.157   2.617   1.786 -1.1507  0.1674 -0.2112
 3845SOL    HW122994   1.196   2.581   1.866 -1.1358 -0.2550 -0.4086
 3845SOL    HW222995   1.172   2.554   1.716  2.3030  0.2674  0.4360
 3846SOL     OW22996   2.497   3.567   2.683 -0.0743 -0.0231 -0.5051
 3846SOL    HW122997   2.461   3.479   2.692 -0.6785  0.2587 -0.1248
 3846SOL    HW222998   2.464   3.585   2.595 -0.6870  1.0546 -0.0557
 3847SOL     OW22999   3.862   4.544  17.354  0.3016  0.3345 -0.1300
 3847SOL    HW123000   3.923   4.615  17.338 -1.6276  2.3365  1.3300
 3847SOL    HW223001   3.926   4.473  17.357 -1.8767 -1.6422  0.4302
 3848SOL     OW23002   3.693   1.754  10.858  0.1555  0.4557 -0.4680
 3848SOL    HW123003   3.682   1.831  10.802 -0.6202  1.3608  0.9326
 3848SOL    HW223004   3.730   1.690  10.798 -1.7512 -0.3009 -0.8266
 3849SOL     OW23005   2.553   4.424  15.361  0.3931 -0.2932  0.2203
 3849SOL    HW123006   2.470   4.423  15.409 -0.6908  0.9710 -1.6328
 3849SOL    HW223007   2.612   4.461  15.427 -0.9974 -0.1723  1.4179
 3850SOL     OW23008   1.416   3.982   5.026  0.4005  0.1615 -0.2459
 3850SOL    HW123009   1.324   3.959   5.037  0.6069  0.0927  1.4931
 3850SOL    HW223010   1.420   4.050   4.960 -0.2316  1.7267  1.3205
 3851SOL     OW23011   0.459   2.063  13.128 -0.1569  0.0621 -0.1448
 3851SOL    HW123012   0.458   2.103  13.215 -0.6848 -1.4921  0.5674
 3851SOL    HW223013   0.426   2.146  13.094 -1.0352 -0.0542  0.4172
 3852SOL     OW23014   3.255   3.817  15.276  0.6782  0.0925  0.2851
 3852SOL    HW123015   3.177   3.858  15.240  1.6591 -0.8246 -2.8614
 3852SOL    HW223016   3.233   3.812  15.369  0.9649  0.0922  0.3542
 3853SOL     OW23017   0.013   0.036  14.493  0.4003  0.0875 -0.1687
 3853SOL    HW123018   4.669   4.702  14.459  1.2149 -0.7397 -0.3824
 3853SOL    HW223019   0.088   4.703  14.480  1.5595  1.4241  0.5921
 3854SOL     OW23020   0.782   0.346   7.199  0.1052 -0.2812 -0.5119
 3854SOL    HW123021   0.758   0.288   7.127  2.6417 -1.3099 -0.5262
 3854SOL    HW223022   0.791   0.285   7.272 -2.9259 -2.5441 -2.0822
 3855SOL     OW23023   1.606   3.130   2.007 -0.2935 -0.0068 -0.2302
 3855SOL    HW123024   1.608   3.065   2.078 -0.0192  1.4017  1.0556
 3855SOL    HW223025   1.694   3.167   2.011  0.1956 -1.0220 -1.7550
 3856SOL     OW23026   0.574   2.614  11.969 -0.5198 -0.2397  0.1685
 3856SOL    HW123027   0.598   2.600  12.060  1.4700 -1.6630 -0.5855
 3856SOL    HW223028   0.614   2.537  11.928 -0.5671 -1.5516  2.5795
 3857SOL     OW23029   2.992   0.282   6.464 -0.7257  0.1273  0.5864
 3857SOL    HW123030   2.987   0.352   6.399 -1.9817 -1.3477 -0.8922
 3857SOL    HW223031   2.992   0.335   6.544  0.2319  0.4428  0.3783
 3858SOL     OW23032   4.271   0.156   4.638 -0.0573 -0.8002  0.2081
 3858SOL    HW123033   4.362   0.127   4.647  0.3212  0.4264  0.3052
 3858SOL    HW223034   4.245   0.154   4.730  0.0851  1.7572  0.3142
 3859SOL     OW23035   2.729   4.608   7.927 -0.8819 -0.0648  0.0212
 3859SOL    HW123036   2.653   4.573   7.881  0.9848 -1.0902 -2.3150
 3859SOL    HW223037   2.790   4.625   7.855  1.8067 -0.0183  2.3205
 3860SOL     OW23038   2.504   0.107   7.956  0.6321 -0.5530 -0.0960
 3860SOL    HW123039   2.588   0.149   7.935  0.9347 -1.2835 -0.3644
 3860SOL    HW223040   2.437   0.161   7.915 -1.4666 -1.4510  2.1322
 3861SOL     OW23041   1.435   0.146  15.220 -0.0343  0.7326  0.1174
 3861SOL    HW123042   1.452   0.148  15.314  0.0406 -0.4704  0.1263
 3861SOL    HW223043   1.354   0.098  15.206  0.0638  0.8423 -0.8526
 3862SOL     OW23044   1.021   1.573   6.642 -0.4874 -0.1215 -0.2561
 3862SOL    HW123045   0.935   1.568   6.601 -0.4827  2.2512 -0.5288
 3862SOL    HW223046   1.072   1.527   6.575 -1.9969 -2.6571  0.3148
 3863SOL     OW23047   4.349   4.259   6.614  0.5021 -0.0941 -1.2965
 3863SOL    HW123048   4.259   4.291   6.623  0.1188 -1.7966  0.9810
 3863SOL    HW223049   4.398   4.340   6.603 -2.8020  1.8386 -1.9078
 3864SOL     OW23050   0.340   0.455  15.960 -0.2059  0.2538 -0.1807
 3864SOL    HW123051   0.371   0.524  15.901  0.8697  0.3341  0.4716
 3864SOL    HW223052   0.250   0.476  15.935 -1.0196  2.0499  4.1511
 3865SOL     OW23053   3.253   4.363   3.513  0.0014 -0.2397 -0.2903
 3865SOL    HW123054   3.296   4.380   3.597 -2.3470  0.3778  0.7926
 3865SOL    HW223055   3.210   4.280   3.536 -0.6450 -0.2299 -1.4529
 3866SOL     OW23056   2.024   2.296   9.186  0.0425 -0.0172 -0.7306
 3866SOL    HW123057   1.987   2.257   9.106 -3.8555  3.4105 -0.5585
 3866SOL    HW223058   2.114   2.264   9.178 -1.0240 -3.6059  1.6478
 3867SOL     OW23059   0.443   1.213   3.431 -0.2766  0.2814 -0.4268
 3867SOL    HW123060   0.350   1.234   3.432  0.0273  1.4864  1.3234
 3867SOL    HW223061   0.474   1.266   3.357 -1.2382  0.4735 -0.6953
 3868SOL     OW23062   1.816   2.896  17.215 -0.1085  0.1106  0.6779
 3868SOL    HW123063   1.745   2.837  17.240 -0.4376  0.7670  1.3129
 3868SOL    HW223064   1.761   2.971  17.193  1.9942  1.4834  0.0991
 3869SOL     OW23065   0.433   3.914   9.634  0.6334 -0.8664  0.1601
 3869SOL    HW123066   0.383   3.932   9.714 -0.1758 -1.8922 -0.1082
 3869SOL    HW223067   0.448   3.820   9.631  0.8698 -0.7790 -1.5693
 3870SOL     OW23068   2.166   3.998   1.299 -0.2906 -0.2244  1.0032
 3870SOL    HW123069   2.072   4.012   1.303  0.0479  2.0537  1.3210
 3870SOL    HW223070   2.191   4.071   1.356  0.4339  0.2097  0.1315
 3871SOL     OW23071   2.768   2.195  17.280 -0.0226 -0.5862  0.0645
 3871SOL    HW123072   2.691   2.201  17.336  1.8396  2.6939  2.2632
 3871SOL    HW223073   2.751   2.268  17.220  0.4779 -0.5076  0.0184
 3872SOL     OW23074   2.279   1.333   8.300 -0.2859 -0.1070 -0.6532
 3872SOL    HW123075   2.316   1.344   8.387 -1.2442  3.1002 -0.6511
 3872SOL    HW223076   2.347   1.359   8.238  0.1671  0.2171 -0.0152
 3873SOL     OW23077   1.161   2.930   8.816  0.0287 -0.0902 -0.0418
 3873SOL    HW123078   1.112   3.008   8.790 -0.0461  0.2010  1.0120
 3873SOL    HW223079   1.242   2.947   8.768 -1.6637  1.4754 -2.3663
 3874SOL     OW23080   1.102   1.642   8.992 -0.2433  0.1012 -0.0752
 3874SOL    HW123081   1.061   1.716   8.946 -1.3050 -0.0191  0.6637
 3874SOL    HW223082   1.157   1.603   8.925 -3.3620 -1.8785 -1.4612
 3875SOL     OW23083   2.179   0.393  13.413 -0.0604 -0.6630  0.1361
 3875SOL    HW123084   2.133   0.323  13.368 -0.5831  0.5702 -1.2422
 3875SOL    HW223085   2.162   0.361  13.502  2.7635  0.0676  0.9628
 3876SOL     OW23086   1.891   1.234   9.311  0.0316 -0.3191  0.0168
 3876SOL    HW123087   1.937   1.314   9.338  0.0460 -0.1730 -0.4469
 3876SOL    HW223088   1.964   1.174   9.300  0.1745 -0.1878  0.2606
 3877SOL     OW23089   1.544   3.685   6.617  0.4816  0.3246  0.1752
 3877SOL    HW123090   1.580   3.698   6.529 -1.6954  2.8248 -0.3614
 3877SOL    HW223091   1.449   3.672   6.611  0.7473 -0.6808 -2.1347
 3878SOL     OW23092   0.573   0.801  12.096  0.3124 -0.1038  0.1250
 3878SOL    HW123093   0.506   0.732  12.096  2.3815 -2.1287  0.1156
 3878SOL    HW223094   0.608   0.765  12.177  3.0122  0.3630 -0.8446
 3879SOL     OW23095   2.694   2.793   4.532  0.6567 -0.2920  0.2912
 3879SOL    HW123096   2.776   2.820   4.490  0.3567 -2.8419 -1.9295
 3879SOL    HW223097   2.714   2.798   4.625  1.1437 -0.7778  0.2154
 3880SOL     OW23098   3.091   0.826   9.956  0.5014  0.1880  0.0115
 3880SOL    HW123099   3.102   0.906  10.007  1.8397  0.9485 -1.4934
 3880SOL    HW223100   2.996   0.833   9.966  0.2858 -0.3962 -1.7345
 3881SOL     OW23101   3.895   4.369  17.601  0.4365  0.0421  0.5520
 3881SOL    HW123102   3.948   4.369  17.521  1.0320  1.3463  0.9442
 3881SOL    HW223103   3.825   4.307  17.580  0.5294  0.1147  0.0071
 3882SOL     OW23104   2.997   0.302   5.440  0.4808  0.0775  0.7388
 3882SOL    HW123105   2.914   0.350   5.448  1.0921  1.2067  0.2738
 3882SOL    HW223106   3.016   0.320   5.348  2.0102 -1.7183  0.7041
 3883SOL     OW23107   0.601   1.231   6.043  0.2685  0.5191 -0.1026
 3883SOL    HW123108   0.616   1.222   5.948  2.3638  0.3552  0.2300
 3883SOL    HW223109   0.610   1.139   6.069 -0.7948  1.0367  2.0743
 3884SOL     OW23110   1.030   1.917   5.360 -0.5680  0.7207  0.5191
 3884SOL    HW123111   1.031   1.936   5.454  3.1302  1.3574  0.3731
 3884SOL    HW223112   1.104   1.974   5.337 -1.1267  0.7838 -1.1368
 3885SOL     OW23113   0.229   2.447  15.036  0.2159  0.3059  0.6957
 3885SOL    HW123114   0.293   2.469  15.104 -0.3469 -0.2545  1.3970
 3885SOL    HW223115   0.266   2.361  15.014 -0.5125  0.0951  0.3094
 3886SOL     OW23116   0.974   4.601   3.266 -0.9589  0.5295 -0.6758
 3886SOL    HW123117   0.964   4.588   3.172 -1.4231 -0.5344 -0.4763
 3886SOL    HW223118   0.884   4.574   3.284 -1.0247 -0.1206 -2.0181
 3887SOL     OW23119   1.318   0.343   6.885 -0.7952 -0.2385  0.0328
 3887SOL    HW123120   1.284   0.295   6.809  0.5517  0.3064 -0.9112
 3887SOL    HW223121   1.242   0.359   6.941 -0.7067 -0.1148  0.1166
 3888SOL     OW23122   0.433   4.515   3.537 -0.5989  0.1004 -0.1792
 3888SOL    HW123123   0.459   4.607   3.530  0.2935  0.0608  2.5382
 3888SOL    HW223124   0.446   4.480   3.448 -2.2791 -0.0053 -0.3856
 3889SOL     OW23125   3.835   2.230   1.966  0.0428  0.1689  0.1589
 3889SOL    HW123126   3.865   2.283   1.892 -2.6062  1.2413 -0.1393
 3889SOL    HW223127   3.911   2.173   1.980  0.4118  0.5138 -0.4493
 3890SOL     OW23128   1.846   1.951   7.111  0.1097  0.4849  0.6401
 3890SOL    HW123129   1.926   2.004   7.108 -0.5124  1.1794 -2.7343
 3890SOL    HW223130   1.777   2.015   7.099  0.0431 -0.0797 -2.0418
 3891SOL     OW23131   2.775   2.030   6.498 -0.1448  0.1121 -0.6304
 3891SOL    HW123132   2.709   2.008   6.432 -0.4328 -2.1594  0.4459
 3891SOL    HW223133   2.723   2.027   6.579 -0.8596 -0.1972 -1.1045
 3892SOL     OW23134   4.638   1.974  12.532 -0.1047  0.5089 -0.1421
 3892SOL    HW123135   4.615   2.043  12.470  0.2895  0.8831  0.1221
 3892SOL    HW223136   4.681   2.022  12.603 -0.9945  0.4458  0.4310
 3893SOL     OW23137   0.194   0.201   0.273  0.2702 -0.7413  0.2098
 3893SOL    HW123138   0.120   0.141   0.266 -0.8982  0.9714 -2.0729
 3893SOL    HW223139   0.216   0.198   0.366 -0.1179 -1.7795  0.2636
 3894SOL     OW23140   2.322   0.816   5.361 -0.6918 -0.3128  0.1697
 3894SOL    HW123141   2.401   0.773   5.395  0.9468  1.6055 -1.2317
 3894SOL    HW223142   2.262   0.743   5.344 -1.1874  0.5799 -1.8854
 3895SOL     OW23143   3.777   2.600  12.785  0.2826  0.7000 -0.5159
 3895SOL    HW123144   3.858   2.574  12.828 -0.3989 -3.4092 -1.7106
 3895SOL    HW223145   3.822   2.629  12.706  1.4092  1.2322  0.3307
 3896SOL     OW23146   0.324   4.475   9.745 -0.3551 -0.3428  0.0706
 3896SOL    HW123147   0.340   4.439   9.832  1.6341  2.3972  0.8237
 3896SOL    HW223148   0.308   4.395   9.695 -0.6031 -0.1553 -0.1575
 3897SOL     OW23149   2.900   2.445  14.856  0.0700  0.1619  0.3040
 3897SOL    HW123150   2.937   2.360  14.830  0.9210  0.7605 -0.4397
 3897SOL    HW223151   2.808   2.417  14.851 -0.2104  1.1279  0.0710
 3898SOL     OW23152   3.509   1.667   7.871  0.3730 -0.1497  0.1161
 3898SOL    HW123153   3.459   1.589   7.847  2.6272 -0.6687 -2.8805
 3898SOL    HW223154   3.484   1.720   7.796  1.2315  0.0574 -0.0205
 3899SOL     OW23155   1.599   2.258  15.193 -0.0581 -0.0099 -0.2069
 3899SOL    HW123156   1.631   2.269  15.282 -1.8495  0.8109  0.3511
 3899SOL    HW223157   1.654   2.321  15.146 -1.7432  1.5767 -0.0788
 3900SOL     OW23158   2.419   2.597   4.444 -0.6924 -0.5995 -0.4209
 3900SOL    HW123159   2.375   2.639   4.370  2.7885  1.6434 -1.2573
 3900SOL    HW223160   2.414   2.669   4.507  0.5915  1.1935 -2.3600
 3901SOL     OW23161   3.369   3.039   0.241  0.2829  0.1643  0.3055
 3901SOL    HW123162   3.444   3.076   0.288  0.1555 -0.3823  0.9281
 3901SOL    HW223163   3.399   2.948   0.238  0.1126  0.1410 -0.8664
 3902SOL     OW23164   4.601   1.061   4.302  0.3956 -0.9362  0.1184
 3902SOL    HW123165   4.598   0.974   4.263 -2.0997 -1.3758  1.2804
 3902SOL    HW223166   4.511   1.086   4.282  0.7377 -1.3137 -1.9033
 3903SOL     OW23167   1.446   3.943   3.192  0.2278  0.0021  0.5369
 3903SOL    HW123168   1.363   3.955   3.147  0.8642 -0.0419 -0.6335
 3903SOL    HW223169   1.505   3.987   3.132  0.4097 -2.7212 -1.3019
 3904SOL     OW23170   4.246   0.913   3.772 -0.0288  0.5769  0.0906
 3904SOL    HW123171   4.258   0.901   3.678 -0.7389 -2.6884  0.3974
 3904SOL    HW223172   4.319   0.968   3.799  0.0940  1.7591 -2.6902
 3905SOL     OW23173   2.602   0.905   3.308 -0.1116  0.5131  1.0670
 3905SOL    HW123174   2.573   0.996   3.296  2.0682  0.7688 -2.3218
 3905SOL    HW223175   2.537   0.877   3.372 -0.8240  1.8673  0.9387
 3906SOL     OW23176   0.176   4.374   7.538  0.0099  0.5175 -0.2555
 3906SOL    HW123177   0.102   4.434   7.532  2.2209  3.0435 -2.5344
 3906SOL    HW223178   0.131   4.300   7.578  3.0301 -0.8879  0.5454
 3907SOL     OW23179   3.490   4.618   4.941 -0.4677 -0.1818 -0.2194
 3907SOL    HW123180   3.536   4.593   5.021  0.7079 -0.2010 -0.8914
 3907SOL    HW223181   3.552   4.609   4.868 -0.2666 -0.8891  0.0378
 3908SOL     OW23182   4.559   2.709   6.515  0.0972  0.4916 -0.3506
 3908SOL    HW123183   4.647   2.672   6.515 -0.7788 -1.6229 -1.1353
 3908SOL    HW223184   4.570   2.783   6.575  2.3550 -0.6891  0.6960
 3909SOL     OW23185   3.854   1.208  16.658  0.5102  0.8336  0.7750
 3909SOL    HW123186   3.775   1.241  16.702 -0.0791 -0.4120  0.6605
 3909SOL    HW223187   3.864   1.131  16.714 -1.8804 -0.5147 -0.6441
 3910SOL     OW23188   0.971   1.696   5.580 -0.1893  0.2074  0.4484
 3910SOL    HW123189   0.971   1.633   5.507 -1.0801 -0.6256  1.1631
 3910SOL    HW223190   0.902   1.760   5.565 -0.0637  0.4867  1.0845
 3911SOL     OW23191   2.456   2.773   9.146  0.6254 -0.3291  0.4446
 3911SOL    HW123192   2.508   2.733   9.217 -1.4912  0.1688  2.2582
 3911SOL    HW223193   2.523   2.753   9.080 -0.0738 -0.2239 -0.2891
 3912SOL     OW23194   1.065   3.847   8.281  0.0070  0.4807 -0.3109
 3912SOL    HW123195   1.135   3.784   8.296 -0.4343 -0.1191 -0.8308
 3912SOL    HW223196   1.027   3.823   8.197 -0.7348  0.2656  0.0845
 3913SOL     OW23197   2.033   3.873   7.596 -0.2923 -0.2821  0.0211
 3913SOL    HW123198   2.129   3.873   7.591 -0.3003 -0.3273 -0.1347
 3913SOL    HW223199   2.015   3.867   7.502 -1.0944 -0.5774  0.1916
 3914SOL     OW23200   3.527   2.535  14.417 -0.3530 -0.6414  0.3603
 3914SOL    HW123201   3.572   2.618  14.432 -0.7103 -0.2244 -0.9293
 3914SOL    HW223202   3.545   2.490  14.500 -0.7103 -0.7535  0.3772
 3915SOL     OW23203   2.616   3.199  14.268 -0.2780 -0.0732  0.4374
 3915SOL    HW123204   2.523   3.196  14.247 -0.2681  1.6343  0.1061
 3915SOL    HW223205   2.653   3.154  14.192 -1.2156 -1.3970  0.7820
 3916SOL     OW23206   0.949   1.225  15.107 -0.0043 -0.2328 -0.2874
 3916SOL    HW123207   0.950   1.191  15.196  0.1092 -0.8128 -0.5127
 3916SOL    HW223208   0.918   1.148  15.060 -0.8485  0.7529 -1.3537
 3917SOL     OW23209   0.860   3.426   8.280 -0.0859  0.5889  0.4708
 3917SOL    HW123210   0.801   3.399   8.210  1.6052  1.1888 -1.1527
 3917SOL    HW223211   0.945   3.387   8.262 -0.2389  0.0961  0.8124
 3918SOL     OW23212   3.002   1.199   6.114 -0.5212  0.3017 -0.9265
 3918SOL    HW123213   3.080   1.146   6.095 -1.6571 -1.1856 -1.3827
 3918SOL    HW223214   2.973   1.146   6.188 -0.8061  0.5789 -0.8382
 3919SOL     OW23215   4.475   0.523   8.459 -0.3131 -0.8505  0.1602
 3919SOL    HW123216   4.425   0.449   8.424 -0.2814 -1.1501  0.7637
 3919SOL    HW223217   4.430   0.541   8.541 -0.8204  1.5158 -0.6188
 3920SOL     OW23218   3.683   1.844   8.449 -0.3891  0.6444 -0.0955
 3920SOL    HW123219   3.618   1.776   8.432  0.5426 -0.2250 -0.1972
 3920SOL    HW223220   3.634   1.919   8.483 -1.1157  0.0379  0.2207
 3921SOL     OW23221   3.323   1.921  14.747 -0.1176 -0.4636 -0.1811
 3921SOL    HW123222   3.399   1.978  14.739 -0.0394 -0.5892 -0.3449
 3921SOL    HW223223   3.266   1.963  14.811 -0.4121  0.9535 -1.3622
 3922SOL     OW23224   3.434   1.675   6.518 -0.1187 -0.1638 -0.0717
 3922SOL    HW123225   3.494   1.607   6.548 -1.0298 -1.1873 -0.6058
 3922SOL    HW223226   3.387   1.628   6.450  0.0879  1.2135 -1.1645
 3923SOL     OW23227   3.078   0.847   4.763 -0.4115 -0.0591  1.0013
 3923SOL    HW123228   3.023   0.893   4.827 -0.4436  1.7889 -0.3589
 3923SOL    HW223229   3.012   0.807   4.706  2.1390 -0.6646 -1.5206
 3924SOL     OW23230   1.445   2.449   5.323  0.0431  0.6753 -0.1841
 3924SOL    HW123231   1.360   2.492   5.332 -1.4485 -2.0358 -1.3679
 3924SOL    HW223232   1.488   2.514   5.268 -1.2435  0.5228 -1.3651
 3925SOL     OW23233   0.278   4.244   6.994 -0.1038  0.6199 -0.2819
 3925SOL    HW123234   0.246   4.177   7.055 -0.0664  0.7076 -0.1664
 3925SOL    HW223235   0.303   4.310   7.058  1.0090 -1.2851  1.2425
 3926SOL     OW23236   0.673   4.426  10.948  0.8185  0.4375  0.2157
 3926SOL    HW123237   0.670   4.354  10.885  0.9668  1.9130 -1.4904
 3926SOL    HW223238   0.710   4.385  11.026 -1.6573 -1.8938  0.1863
 3927SOL     OW23239   0.531   3.631   4.052 -0.2684 -0.1036 -0.4434
 3927SOL    HW123240   0.561   3.566   4.115  1.4004  1.1097  0.0144
 3927SOL    HW223241   0.441   3.600   4.053  0.3515 -1.8716  1.0614
 3928SOL     OW23242   2.382   1.743   8.385 -0.0899  0.0579 -0.2340
 3928SOL    HW123243   2.367   1.829   8.423 -4.0853 -0.7254  0.0308
 3928SOL    HW223244   2.294   1.704   8.392 -0.0110  0.4194  3.0056
 3929SOL     OW23245   4.505   2.954   7.913  0.1272  0.0405  0.1851
 3929SOL    HW123246   4.417   2.965   7.879  0.3738  0.1668 -0.4031
 3929SOL    HW223247   4.517   3.023   7.978  0.4109  1.2173 -1.1302
 3930SOL     OW23248   3.520   0.777   4.501 -0.0048  0.8204  0.2224
 3930SOL    HW123249   3.467   0.700   4.480  3.5146 -1.3407 -0.8857
 3930SOL    HW223250   3.459   0.847   4.479 -0.6367 -0.1561 -1.1883
 3931SOL     OW23251   2.580   1.985   6.295  0.3218 -0.1320  0.2345
 3931SOL    HW123252   2.496   1.998   6.250  1.0811 -0.1271 -1.1817
 3931SOL    HW223253   2.568   1.896   6.329 -0.4863  0.2865  1.0421
 3932SOL     OW23254   2.393   1.257   0.156  0.5166  0.2780 -0.8456
 3932SOL    HW123255   2.353   1.184   0.109 -0.3088  1.8086 -2.5454
 3932SOL    HW223256   2.319   1.317   0.152 -0.6506 -0.8726  4.3676
 3933SOL     OW23257   1.882   0.492   7.861  0.3522 -0.3055 -0.3939
 3933SOL    HW123258   1.828   0.423   7.899  0.3861 -0.0819  0.0620
 3933SOL    HW223259   1.947   0.499   7.930 -1.0007 -1.5551  0.9848
 3934SOL     OW23260   2.050   4.463  10.629 -0.0330  0.0312  0.3581
 3934SOL    HW123261   2.086   4.537  10.581 -0.6188  0.0210 -0.1039
 3934SOL    HW223262   2.117   4.440  10.693  1.9307  2.7576 -0.7045
 3935SOL     OW23263   2.038   4.336   9.290 -0.6031 -0.8343  0.6080
 3935SOL    HW123264   2.102   4.285   9.339  0.4104  1.6120  1.7900
 3935SOL    HW223265   1.959   4.284   9.304 -1.1880 -0.3666 -0.9259
 3936SOL     OW23266   0.270   4.450  11.744  0.1846 -0.6108 -0.2803
 3936SOL    HW123267   0.179   4.474  11.760 -0.9820 -5.0790 -0.2035
 3936SOL    HW223268   0.319   4.520  11.787 -0.2211 -0.8047  0.4997
 3937SOL     OW23269   0.561   0.222   8.305 -0.4858 -0.3001 -0.3274
 3937SOL    HW123270   0.586   0.266   8.224 -0.1222 -1.5518 -0.8770
 3937SOL    HW223271   0.487   0.282   8.321 -0.6815 -0.0579 -2.1288
 3938SOL     OW23272   0.735   4.198   5.000 -0.2038  0.1542 -0.2712
 3938SOL    HW123273   0.703   4.259   5.066 -0.5261 -0.8835  0.5365
 3938SOL    HW223274   0.830   4.209   5.007  0.0335 -2.4660  0.6937
 3939SOL     OW23275   3.121   4.535   4.038  0.2592  0.6891 -0.4344
 3939SOL    HW123276   3.138   4.532   4.132  2.3148  1.5300 -0.7974
 3939SOL    HW223277   3.175   4.459   4.017 -0.3315  0.1939 -0.1572
 3940SOL     OW23278   3.657   3.363   7.105 -0.5790 -0.1616 -0.3387
 3940SOL    HW123279   3.630   3.277   7.072 -1.0824 -0.6163  1.2707
 3940SOL    HW223280   3.598   3.380   7.179 -1.2494  1.2740 -1.2025
 3941SOL     OW23281   2.166   0.423  16.862  0.3056  0.5949 -0.3861
 3941SOL    HW123282   2.154   0.372  16.781  3.2075 -0.6669 -0.0413
 3941SOL    HW223283   2.225   0.490  16.827  1.4505 -0.8863 -1.3400
 3942SOL     OW23284   4.615   3.053   3.075  0.1590 -0.4220 -0.2360
 3942SOL    HW123285   4.565   2.974   3.094 -1.8062  1.3310  1.8058
 3942SOL    HW223286   4.544   3.109   3.044  0.6986 -0.1454 -0.9578
 3943SOL     OW23287   3.192   0.542   1.610  0.6000  0.0990  0.6494
 3943SOL    HW123288   3.190   0.620   1.554  2.3483  1.6270  2.7307
 3943SOL    HW223289   3.250   0.483   1.562 -1.9207 -0.7497 -1.4004
 3944SOL     OW23290   4.633   1.509   9.365 -0.5671  0.0609 -0.3819
 3944SOL    HW123291   4.701   1.541   9.425 -1.9234 -1.2897  1.8829
 3944SOL    HW223292   4.570   1.581   9.359  0.7411  1.5001  2.7699
 3945SOL     OW23293   0.651   3.243  17.459  0.5375  0.0716  0.6421
 3945SOL    HW123294   0.709   3.235  17.534 -0.4037  1.6522  1.5150
 3945SOL    HW223295   0.581   3.182  17.482  0.1431 -1.1502 -3.6848
 3946SOL     OW23296   2.086   1.354   0.586 -0.4593  0.3849  0.1010
 3946SOL    HW123297   2.026   1.369   0.514 -1.0062 -1.0139  0.2551
 3946SOL    HW223298   2.093   1.446   0.609  0.7676  0.1647  0.6457
 3947SOL     OW23299   0.858   2.992  15.945  0.0367 -0.0624 -0.1875
 3947SOL    HW123300   0.930   2.934  15.920  1.9026  2.6264 -1.0153
 3947SOL    HW223301   0.859   3.057  15.875 -0.9529  0.2141  0.0500
 3948SOL     OW23302   2.177   0.603   9.317 -0.2261  0.0955 -0.7197
 3948SOL    HW123303   2.217   0.541   9.377 -1.9356 -0.3932 -0.0897
 3948SOL    HW223304   2.235   0.605   9.240 -1.0738  0.6180 -1.3422
 3949SOL     OW23305   1.814   4.517   7.274 -0.3087  0.1683 -0.2890
 3949SOL    HW123306   1.792   4.439   7.325  1.0750 -1.1914 -1.7512
 3949SOL    HW223307   1.909   4.510   7.266 -0.4398 -2.0360  0.2027
 3950SOL     OW23308   4.319   0.835   5.571  0.1713  0.3910 -0.1491
 3950SOL    HW123309   4.337   0.812   5.662 -0.3017  0.7625  0.0423
 3950SOL    HW223310   4.325   0.930   5.567  0.3543  0.4618  1.8200
 3951SOL     OW23311   3.366   0.364   4.155 -0.2642  0.1613 -0.0181
 3951SOL    HW123312   3.445   0.318   4.124 -1.0157 -0.8948 -0.3657
 3951SOL    HW223313   3.395   0.455   4.147 -0.2236  0.1802  0.3436
 3952SOL     OW23314   0.816   3.601   5.875 -0.1906 -0.0350 -0.1091
 3952SOL    HW123315   0.843   3.611   5.966  1.7582 -2.9448 -0.3610
 3952SOL    HW223316   0.882   3.643   5.820  1.4776 -1.5711  0.7083
 3953SOL     OW23317   4.399   3.973   9.936  0.3052 -0.0578  0.0759
 3953SOL    HW123318   4.476   4.010   9.893  0.3928 -0.4811 -0.1332
 3953SOL    HW223319   4.361   4.059   9.949  0.8670 -0.1591  2.4780
 3954SOL     OW23320   4.405   0.887  13.658 -0.0267 -0.1226 -0.3610
 3954SOL    HW123321   4.491   0.920  13.682  0.1801  0.8873 -2.4114
 3954SOL    HW223322   4.376   0.839  13.735 -2.3275  0.1944 -1.0332
 3955SOL     OW23323   4.699   1.651  15.990  0.2683  0.4247 -0.4861
 3955SOL    HW123324   0.035   1.713  15.947 -1.4965  2.9667  0.6857
 3955SOL    HW223325   0.033   1.596  16.041 -0.9501 -0.1668  0.2572
 3956SOL     OW23326   3.376   0.121   4.728 -0.4362 -0.1856 -0.6491
 3956SOL    HW123327   3.420   0.038   4.749 -2.6367 -0.9589  0.9307
 3956SOL    HW223328   3.361   0.105   4.635  1.2035 -1.5718 -0.6862
 3957SOL     OW23329   2.710   1.831   0.423  0.0306 -0.4429  0.3258
 3957SOL    HW123330   2.740   1.913   0.462 -1.2071 -0.3118  1.0084
 3957SOL    HW223331   2.787   1.778   0.442  2.1666  1.5491 -2.8591
 3958SOL     OW23332   1.652   4.349   3.192 -0.3413  0.3489 -0.4751
 3958SOL    HW123333   1.557   4.349   3.208  0.3493 -3.0145  3.4754
 3958SOL    HW223334   1.682   4.282   3.253  1.4679  2.6722  1.1112
 3959SOL     OW23335   2.592   2.993   5.460  0.5765 -0.3090  0.3169
 3959SOL    HW123336   2.582   2.898   5.467  0.5157 -0.3282 -0.0688
 3959SOL    HW223337   2.505   3.033   5.460  0.4468 -0.5888  0.2632
 3960SOL     OW23338   3.764   2.738   3.514 -0.2429  0.3237  0.0452
 3960SOL    HW123339   3.815   2.740   3.595 -3.3133 -1.1663  2.0464
 3960SOL    HW223340   3.715   2.656   3.520 -2.4304  1.5034 -1.4885
 3961SOL     OW23341   1.189   3.166   5.261  0.2456 -0.1251  0.7000
 3961SOL    HW123342   1.196   3.257   5.287 -0.4981  0.8595 -2.5756
 3961SOL    HW223343   1.124   3.138   5.326  0.3474 -1.7665  0.1050
 3962SOL     OW23344   3.208   2.988   1.884 -0.2828 -0.3506 -0.2447
 3962SOL    HW123345   3.298   3.014   1.863 -0.1563  0.0358  0.7686
 3962SOL    HW223346   3.199   2.904   1.839 -0.2923 -0.2857 -0.3638
 3963SOL     OW23347   1.672   2.079   3.036 -0.2877 -0.4514  0.2749
 3963SOL    HW123348   1.649   2.014   2.969 -0.2206  0.2309 -0.4136
 3963SOL    HW223349   1.583   2.113   3.040 -0.1312  0.2624 -1.9683
 3964SOL     OW23350   1.349   0.304   8.645 -0.0665  0.4621  0.1023
 3964SOL    HW123351   1.322   0.292   8.737  3.3501 -1.5611  0.8397
 3964SOL    HW223352   1.420   0.241   8.635  0.3543  0.9674 -0.0825
 3965SOL     OW23353   2.884   1.767   1.816 -0.4841  0.4647 -0.1762
 3965SOL    HW123354   2.849   1.855   1.800  1.3977  1.1606 -0.4791
 3965SOL    HW223355   2.977   1.786   1.827 -0.5073 -0.3645  1.4215
 3966SOL     OW23356   0.118   3.486   9.115 -0.1766 -0.0035  0.1362
 3966SOL    HW123357   0.084   3.528   9.036 -1.8060  0.4015  1.0576
 3966SOL    HW223358   0.036   3.495   9.162 -0.6408 -0.8954 -0.5084
 3967SOL     OW23359   1.788   2.819  10.971  0.5511  0.1481 -0.4791
 3967SOL    HW123360   1.756   2.837  10.883  0.1489 -2.4714 -0.8496
 3967SOL    HW223361   1.711   2.794  11.021  0.2257  1.5726 -0.2675
 3968SOL     OW23362   3.456   2.072   6.460  0.0748  0.3731 -0.7577
 3968SOL    HW123363   3.411   2.061   6.377  0.4471  2.0106 -1.1729
 3968SOL    HW223364   3.386   2.044   6.520  0.7114 -0.4536 -0.4045
 3969SOL     OW23365   4.296   1.441  17.040 -0.7908 -0.2070 -0.5377
 3969SOL    HW123366   4.378   1.405  17.073 -0.0069  1.6735 -0.4414
 3969SOL    HW223367   4.324   1.524  17.002  0.2147  0.4130  1.5529
 3970SOL     OW23368   1.295   0.505   3.263 -0.1352 -0.6332  0.0305
 3970SOL    HW123369   1.224   0.526   3.203  0.5823  1.3262 -0.1265
 3970SOL    HW223370   1.277   0.561   3.338  1.6118  0.6886 -0.5273
 3971SOL     OW23371   1.647   0.895   3.787 -0.1239  0.6240 -0.0615
 3971SOL    HW123372   1.690   0.861   3.866  0.2636 -0.3486 -0.6891
 3971SOL    HW223373   1.553   0.888   3.802 -0.0787  1.7303  0.7195
 3972SOL     OW23374   2.133   1.685   2.123  0.2563 -0.3814 -0.2096
 3972SOL    HW123375   2.192   1.760   2.114  0.4965 -0.1794  2.7918
 3972SOL    HW223376   2.167   1.636   2.199 -1.7155 -0.7551  0.4237
 3973SOL     OW23377   0.821   1.497  14.144  0.0636 -0.8474 -0.2316
 3973SOL    HW123378   0.868   1.480  14.225 -0.1989  1.8810  0.4927
 3973SOL    HW223379   0.732   1.518  14.172 -0.9140 -1.5502 -2.7485
 3974SOL     OW23380   4.048   1.929   5.218  0.9079 -0.5037 -0.0171
 3974SOL    HW123381   4.114   1.879   5.169  1.1886  0.0106 -0.1605
 3974SOL    HW223382   4.057   1.887   5.304 -2.0026  1.1659  1.0920
 3975SOL     OW23383   1.621   1.526   6.089 -0.6793 -0.2134 -0.0069
 3975SOL    HW123384   1.614   1.618   6.113 -0.1924 -0.4875  1.2089
 3975SOL    HW223385   1.715   1.512   6.082 -0.5094  0.7172  0.4616
 3976SOL     OW23386   1.336   1.207   3.052 -0.1846 -0.2969 -0.2338
 3976SOL    HW123387   1.270   1.222   2.984 -0.2748 -0.2342 -0.1337
 3976SOL    HW223388   1.299   1.124   3.082 -0.3638 -0.0513  0.2258
 3977SOL     OW23389   0.995   3.172   4.685  0.5612  0.1172 -0.0689
 3977SOL    HW123390   1.046   3.205   4.758  0.6417  1.1041 -0.5786
 3977SOL    HW223391   0.989   3.246   4.625 -2.8315 -0.1655 -0.0460
 3978SOL     OW23392   2.710   0.485  14.875  0.5822  0.0144  0.0977
 3978SOL    HW123393   2.626   0.530  14.889  0.0343 -0.9587 -0.0436
 3978SOL    HW223394   2.701   0.462  14.782  0.1718  2.0458 -0.3705
 3979SOL     OW23395   3.906   1.802  16.837  0.0315  0.2548 -0.5353
 3979SOL    HW123396   3.984   1.776  16.789  0.5591  0.7217  0.0595
 3979SOL    HW223397   3.875   1.714  16.860  1.0679 -0.1529 -0.6990
 3980SOL     OW23398   2.394   1.200   7.137  0.9663  0.1545 -0.0482
 3980SOL    HW123399   2.380   1.132   7.071  0.0688  0.4846 -0.2030
 3980SOL    HW223400   2.405   1.144   7.213 -0.8415 -3.4599 -2.4389
 3981SOL     OW23401   2.157   1.860   7.181  0.0133  0.1364  0.2373
 3981SOL    HW123402   2.155   1.948   7.144  0.3373 -0.8453 -2.0783
 3981SOL    HW223403   2.066   1.834   7.164 -0.0644  0.4327  0.1870
 3982SOL     OW23404   1.569   3.135   4.021  0.4064 -0.2750  0.8121
 3982SOL    HW123405   1.663   3.153   4.029  0.5054 -1.0021  1.3254
 3982SOL    HW223406   1.561   3.039   4.025  0.9357 -0.5318 -3.9773
 3983SOL     OW23407   2.865   4.135   7.215  0.2154 -0.4652  0.1717
 3983SOL    HW123408   2.898   4.150   7.303  0.6466  0.4600 -0.1423
 3983SOL    HW223409   2.851   4.220   7.172  1.6742 -0.7154 -0.8047
 3984SOL     OW23410   4.040   1.374  16.987  0.6633  0.1222 -0.4772
 3984SOL    HW123411   4.125   1.389  17.030  0.3430 -0.4602  0.3774
 3984SOL    HW223412   4.033   1.279  16.994 -1.4555  0.4076  1.2559
 3985SOL     OW23413   0.074   0.876   5.787 -0.2412 -0.3396  0.0923
 3985SOL    HW123414   4.723   0.887   5.845 -0.6061 -1.0447 -0.2441
 3985SOL    HW223415   0.099   0.967   5.773 -1.0025  0.1105  1.5983
 3986SOL     OW23416   1.278   1.710  10.679 -0.5083  0.1143 -0.0310
 3986SOL    HW123417   1.335   1.763  10.624  0.2847 -3.1061 -2.3251
 3986SOL    HW223418   1.221   1.684  10.607  0.4585  0.0057 -0.7693
 3987SOL     OW23419   1.927   4.299   0.528  0.5809  0.6988 -0.5595
 3987SOL    HW123420   1.843   4.280   0.569  0.1754 -3.4255 -3.2511
 3987SOL    HW223421   1.921   4.234   0.458 -2.3910  0.4611 -0.1083
 3988SOL     OW23422   0.226   0.920   8.145  0.2199 -0.3369 -0.3117
 3988SOL    HW123423   0.224   1.011   8.175  0.8857 -0.6140  0.5624
 3988SOL    HW223424   0.278   0.936   8.067  0.1233  1.6301  0.0116
 3989SOL     OW23425   0.923   2.236  13.769  0.1776  0.0312  0.1721
 3989SOL    HW123426   0.880   2.320  13.782  0.5196  0.0635  1.1323
 3989SOL    HW223427   0.864   2.171  13.807 -0.3245  1.1370  1.2858
 3990SOL     OW23428   0.031   0.238   7.444 -0.0380 -0.1577  0.1710
 3990SOL    HW123429   0.107   0.187   7.472  0.5305  2.0168  2.5791
 3990SOL    HW223430   4.699   0.162   7.465  3.0327 -2.2125  0.9331
 3991SOL     OW23431   1.742   3.353   6.188  0.2184  0.8784 -0.5051
 3991SOL    HW123432   1.797   3.430   6.199  0.1798  0.7595  0.5774
 3991SOL    HW223433   1.762   3.318   6.275  0.6285  0.3744 -0.8020
 3992SOL     OW23434   1.554   1.720   9.929  0.3071 -0.4848 -0.0577
 3992SOL    HW123435   1.533   1.628   9.913 -1.1638  0.1007 -1.5007
 3992SOL    HW223436   1.599   1.719  10.013  2.0849  3.5076 -0.9550
 3993SOL     OW23437   2.087   3.499   4.939  0.2341  0.2898 -0.2136
 3993SOL    HW123438   2.020   3.540   4.994 -1.0175 -1.5244 -0.3796
 3993SOL    HW223439   2.062   3.409   4.962  0.7762  0.4541  1.0006
 3994SOL     OW23440   1.986   3.257   1.470  0.4445 -0.5203 -0.3468
 3994SOL    HW123441   1.997   3.352   1.474 -0.8995 -0.3861 -0.1073
 3994SOL    HW223442   2.029   3.248   1.385 -2.6911  0.7170 -2.0835
 3995SOL     OW23443   1.924   0.015   4.949 -0.1609 -0.2917  0.1532
 3995SOL    HW123444   1.865   0.033   4.877 -1.7312  0.2547  1.5843
 3995SOL    HW223445   1.988   0.085   4.937 -0.8442  0.0886 -1.2042
 3996SOL     OW23446   0.279   2.369   5.163 -0.0539  0.0421  0.1804
 3996SOL    HW123447   0.337   2.294   5.149 -0.3389  0.2393 -2.1798
 3996SOL    HW223448   0.282   2.413   5.078  1.1070 -0.0252  0.1765
 3997SOL     OW23449   1.873   1.146  10.903 -0.1985 -0.0598  0.8259
 3997SOL    HW123450   1.836   1.083  10.965 -0.0129  1.3950  2.4028
 3997SOL    HW223451   1.922   1.087  10.846  0.9314  1.4591  0.2511
 3998SOL     OW23452   1.147   0.827   2.468 -0.0533  0.2543 -0.1083
 3998SOL    HW123453   1.140   0.886   2.543 -0.6343  1.6199 -1.2281
 3998SOL    HW223454   1.220   0.868   2.422  1.7589 -2.0281  0.7789
 3999SOL     OW23455   3.507   3.022  14.783  0.6281  0.2553 -0.0251
 3999SOL    HW123456   3.538   3.053  14.697  1.5501  0.6893  0.4684
 3999SOL    HW223457   3.481   3.100  14.831  2.8203  0.7863  0.3024
 4000SOL     OW23458   3.168   3.007  15.160  1.1255  0.4953 -0.1943
 4000SOL    HW123459   3.134   2.940  15.220  0.6066 -0.6352 -1.7520
 4000SOL    HW223460   3.116   2.993  15.081  0.6593  0.6669  0.0752
 4001SOL     OW23461   1.010   1.326   5.958  0.1418  0.1319 -0.5600
 4001SOL    HW123462   1.052   1.287   5.881 -0.2345 -0.6942 -0.3446
 4001SOL    HW223463   1.056   1.410   5.957 -1.0050  0.7432 -1.3928
 4002SOL     OW23464   1.555   1.734   5.643  0.3535  0.2587  0.0031
 4002SOL    HW123465   1.531   1.643   5.662 -0.8657  0.6077  0.1794
 4002SOL    HW223466   1.468   1.773   5.634 -0.0576 -0.7750 -0.4798
 4003SOL     OW23467   2.537   0.162   6.560  0.0816  0.4695 -0.0416
 4003SOL    HW123468   2.442   0.167   6.562  0.0421  0.3198 -1.6983
 4003SOL    HW223469   2.544   0.086   6.618  5.3554 -0.1019 -1.3872
 4004SOL     OW23470   3.197   0.708   3.588 -0.5375  0.4680 -0.4392
 4004SOL    HW123471   3.168   0.682   3.501  1.5343 -0.9917 -0.7072
 4004SOL    HW223472   3.158   0.795   3.595  0.1971  0.8145 -0.6750
 4005SOL     OW23473   1.650   1.641   2.193 -0.4543  0.4840 -0.4737
 4005SOL    HW123474   1.740   1.619   2.172  0.4260  1.3971  2.2986
 4005SOL    HW223475   1.621   1.551   2.213 -1.4670  0.9674  0.2363
 4006SOL     OW23476   3.567   2.753   9.272  0.2468  0.0447 -0.1779
 4006SOL    HW123477   3.616   2.834   9.260  1.1090 -0.3589  0.6289
 4006SOL    HW223478   3.631   2.682   9.270 -1.3486 -1.3814 -0.7795
 4007SOL     OW23479   3.099   1.376   4.487 -0.6492  0.2608  0.0544
 4007SOL    HW123480   3.054   1.391   4.403  1.0288  0.7976 -0.7476
 4007SOL    HW223481   3.183   1.418   4.470  0.1619 -1.1526  0.5564
 4008SOL     OW23482   4.448   2.736   0.293  0.1702 -0.2332  0.0132
 4008SOL    HW123483   4.490   2.663   0.340 -1.8512 -1.1727  0.3834
 4008SOL    HW223484   4.376   2.777   0.342 -0.3997 -2.1021  0.7609
 4009SOL     OW23485   0.466   3.485   2.941 -0.0686 -0.3167  0.6286
 4009SOL    HW123486   0.450   3.579   2.951 -2.3958 -0.5086 -1.4704
 4009SOL    HW223487   0.387   3.447   2.903 -0.9147  0.5261  1.5285
 4010SOL     OW23488   4.115   0.385   9.935 -0.2735 -0.2076 -0.2107
 4010SOL    HW123489   4.098   0.453  10.000 -3.8620 -2.0691  0.8318
 4010SOL    HW223490   4.026   0.356   9.914 -0.1700 -0.4176 -0.3701
 4011SOL     OW23491   4.406   2.702   4.183  0.6862 -0.0555 -0.1407
 4011SOL    HW123492   4.389   2.690   4.277  0.3198  1.4804 -0.0115
 4011SOL    HW223493   4.348   2.636   4.146  0.5469  0.9302 -1.6505
 4012SOL     OW23494   0.481   4.158   3.253 -0.0128 -0.1457  0.2236
 4012SOL    HW123495   0.393   4.164   3.291 -0.0974 -0.7036  0.1130
 4012SOL    HW223496   0.519   4.084   3.299  1.7653  1.9748  2.1660
 4013SOL     OW23497   0.855   0.583  11.973  0.2856 -0.4539  0.5601
 4013SOL    HW123498   0.790   0.537  12.027 -2.0764  1.0014 -1.0208
 4013SOL    HW223499   0.796   0.605  11.901  1.1474  0.5984  0.1772
 4014SOL     OW23500   1.604   1.399   2.377  0.5544 -0.6113  0.2174
 4014SOL    HW123501   1.576   1.339   2.446  1.0267 -0.7247  0.3115
 4014SOL    HW223502   1.565   1.356   2.301  0.5051 -0.6921  0.2883
 4015SOL     OW23503   0.222   2.629   7.661  0.2136 -0.4689  0.4704
 4015SOL    HW123504   0.279   2.553   7.659 -0.8768 -1.2949  0.4470
 4015SOL    HW223505   0.194   2.625   7.570  1.6974  0.8557 -0.0526
 4016SOL     OW23506   0.013   2.180   0.385 -0.5497 -0.2982 -0.5943
 4016SOL    HW123507   0.064   2.105   0.413  0.6746 -0.4918 -3.4038
 4016SOL    HW223508   4.654   2.159   0.428  0.3727  1.9637  2.3029
 4017SOL     OW23509   1.461   3.004   5.649  0.1454 -0.3110  0.0317
 4017SOL    HW123510   1.521   2.982   5.577 -0.0396  0.6641 -0.4230
 4017SOL    HW223511   1.376   2.980   5.614  0.6725 -0.5347 -1.0964
 4018SOL     OW23512   4.405   2.645   2.533 -0.1750 -0.2269 -0.0164
 4018SOL    HW123513   4.491   2.684   2.524 -0.2151 -0.2889 -0.6910
 4018SOL    HW223514   4.364   2.671   2.450  1.0169  0.2177 -0.4626
 4019SOL     OW23515   1.464   0.853  11.154  0.4441 -0.0859 -0.5028
 4019SOL    HW123516   1.419   0.825  11.074  1.3533 -0.9077 -0.7243
 4019SOL    HW223517   1.503   0.933  11.119  0.0134  0.7431  0.9249
 4020SOL     OW23518   2.676   3.417   2.226  0.0021 -0.1876 -0.0205
 4020SOL    HW123519   2.718   3.398   2.142 -0.9547  0.1556 -0.5794
 4020SOL    HW223520   2.736   3.485   2.256 -1.1883  0.0351  1.9004
 4021SOL     OW23521   1.115   1.287   9.359 -0.5790  0.1200 -0.1819
 4021SOL    HW123522   1.037   1.298   9.306 -1.8666 -0.2143  1.6213
 4021SOL    HW223523   1.077   1.261   9.443 -0.1676 -1.4946 -0.5002
 4022SOL     OW23524   0.934   1.156   9.545 -0.3957  0.0295 -0.0465
 4022SOL    HW123525   0.883   1.075   9.531  0.4343 -0.7773  1.5739
 4022SOL    HW223526   0.985   1.138   9.624 -1.3602  1.3920  0.8886
 4023SOL     OW23527   2.166   2.969   6.804  0.2463  0.3715  0.6334
 4023SOL    HW123528   2.085   2.953   6.755  1.3151  0.2250 -1.0961
 4023SOL    HW223529   2.207   3.044   6.760  3.8643 -1.6430  0.5213
 4024SOL     OW23530   3.537   4.165   9.833 -0.7352  0.2674  0.4669
 4024SOL    HW123531   3.445   4.186   9.848 -1.7829 -2.7058 -1.8713
 4024SOL    HW223532   3.577   4.187   9.917 -0.5272 -0.8895  0.6681
 4025SOL     OW23533   3.624   1.208  15.606  0.0250 -0.2861 -0.2306
 4025SOL    HW123534   3.608   1.116  15.628  0.4047 -0.4283 -0.5549
 4025SOL    HW223535   3.715   1.216  15.634  0.9847 -1.2704 -3.0638
 4026SOL     OW23536   3.738   2.705   6.300 -0.3052 -0.2969  0.4252
 4026SOL    HW123537   3.805   2.649   6.338  0.2705 -0.3761 -0.7019
 4026SOL    HW223538   3.757   2.791   6.337  3.5708 -1.8623  2.0827
 4027SOL     OW23539   3.193   1.034   6.615 -0.1572  0.0060  0.0909
 4027SOL    HW123540   3.211   1.127   6.599 -1.0191  0.1105 -0.2598
 4027SOL    HW223541   3.098   1.033   6.607 -0.1713 -1.2638  0.4242
 4028SOL     OW23542   4.198   1.108   7.062 -0.1788  0.1393  0.0782
 4028SOL    HW123543   4.226   1.034   7.008 -2.0791 -0.5534  0.0300
 4028SOL    HW223544   4.159   1.167   6.997  0.0724  0.3487  0.1216
 4029SOL     OW23545   1.054   1.146  16.123  0.0601  0.0587  0.3003
 4029SOL    HW123546   1.144   1.133  16.094 -0.0264  0.3193 -0.0808
 4029SOL    HW223547   1.063   1.218  16.186  0.5252  0.4654 -0.2351
 4030SOL     OW23548   4.204   0.701   5.370 -0.6944  0.2365  0.4669
 4030SOL    HW123549   4.243   0.726   5.286 -1.8670  1.2135  0.2150
 4030SOL    HW223550   4.254   0.757   5.430 -0.2863  2.1296 -1.6455
 4031SOL     OW23551   0.961   1.720   2.758 -0.1126  0.2466  0.4513
 4031SOL    HW123552   0.947   1.671   2.677 -3.0946  1.8234  0.0293
 4031SOL    HW223553   0.918   1.654   2.812  2.4725 -1.0238  0.9768
 4032SOL     OW23554   1.869   1.823   2.891 -0.5439  0.5459  0.1045
 4032SOL    HW123555   1.932   1.879   2.936 -1.8858  2.4145 -0.3167
 4032SOL    HW223556   1.825   1.892   2.841 -1.7828 -0.7592 -0.6044
 4033SOL     OW23557   1.023   1.858   6.183  0.5778 -0.1729  0.4259
 4033SOL    HW123558   1.010   1.910   6.104 -0.1939  0.6783  1.1025
 4033SOL    HW223559   1.070   1.919   6.241  0.6650  0.7426 -0.5964
 4034SOL     OW23560   2.957   4.036  10.169  0.5108  0.0538  0.0045
 4034SOL    HW123561   2.890   3.994  10.113 -0.3583  1.6335 -0.1395
 4034SOL    HW223562   2.921   4.123  10.186 -0.1346 -0.1241 -0.4279
 4035SOL     OW23563   3.397   2.981   5.525  0.6689 -0.2346 -0.5993
 4035SOL    HW123564   3.470   3.018   5.575  2.1073  0.2646 -3.0836
 4035SOL    HW223565   3.328   3.045   5.544 -0.2952 -1.1256 -1.0879
 4036SOL     OW23566   1.570   0.262   6.022  0.6161  0.6207  0.3434
 4036SOL    HW123567   1.589   0.254   5.929 -1.3905 -0.0727 -0.0213
 4036SOL    HW223568   1.591   0.353   6.040  0.8428  0.4450  0.9716
 4037SOL     OW23569   4.472   2.568   9.380  0.0030 -0.3545  0.1025
 4037SOL    HW123570   4.496   2.640   9.439  0.4190 -0.9831  0.7097
 4037SOL    HW223571   4.560   2.546   9.348 -0.5764 -1.1660 -0.9069
 4038SOL     OW23572   3.480   2.625   2.297 -0.9770 -0.2294 -0.4187
 4038SOL    HW123573   3.503   2.591   2.383 -1.8936  0.9742  0.2928
 4038SOL    HW223574   3.397   2.673   2.298 -1.4598 -1.0167 -1.9054
 4039SOL     OW23575   3.995   4.458   7.725 -0.1955  0.3882 -0.1127
 4039SOL    HW123576   4.053   4.528   7.697 -0.8581  1.5038  1.2861
 4039SOL    HW223577   3.989   4.466   7.820  3.8897  1.6147  0.0401
 4040SOL     OW23578   1.707   4.150  12.339 -0.1072 -0.0136 -0.4066
 4040SOL    HW123579   1.719   4.104  12.257  0.7305  0.8857 -0.7860
 4040SOL    HW223580   1.788   4.200  12.333 -1.3519  2.2223  1.3042
 4041SOL     OW23581   0.481   3.177   6.278  0.1755  0.0010  0.2478
 4041SOL    HW123582   0.427   3.145   6.206 -1.2730 -2.1992  2.3274
 4041SOL    HW223583   0.458   3.113   6.345 -1.5371  0.4701  0.0993
 4042SOL     OW23584   4.527   1.501   2.427 -0.7957  0.4950 -0.2061
 4042SOL    HW123585   4.558   1.561   2.495  1.4851 -1.1834  0.2268
 4042SOL    HW223586   4.578   1.421   2.442 -0.6242  0.4916 -0.8214
 4043SOL     OW23587   2.215   0.614   7.233  0.2636 -0.7024  0.1837
 4043SOL    HW123588   2.119   0.613   7.226  0.2010 -1.6742  1.1131
 4043SOL    HW223589   2.211   0.557   7.310 -1.1183  1.5912  1.8224
 4044SOL     OW23590   0.706   0.309   5.676 -0.2887 -0.1368  0.6346
 4044SOL    HW123591   0.616   0.295   5.647  0.2522  0.1023 -1.1506
 4044SOL    HW223592   0.687   0.329   5.768 -1.2499 -3.1191  1.0790
 4045SOL     OW23593   1.552   0.192   4.750  0.2962 -0.7976 -0.0898
 4045SOL    HW123594   1.597   0.242   4.818 -0.0866  0.6455 -0.8954
 4045SOL    HW223595   1.464   0.171   4.782 -0.2226 -2.6392 -2.6848
 4046SOL     OW23596   1.195   4.413   5.910  0.1929 -0.7313 -0.1862
 4046SOL    HW123597   1.278   4.374   5.883  0.5101 -1.9098  2.4736
 4046SOL    HW223598   1.215   4.507   5.912 -0.2877 -0.5437 -4.5602
 4047SOL     OW23599   2.072   3.587   4.409 -0.0631 -0.0757 -0.6403
 4047SOL    HW123600   2.164   3.576   4.382  0.5382 -0.2094  1.4818
 4047SOL    HW223601   2.079   3.554   4.498 -0.5404  2.1578  0.2148
 4048SOL     OW23602   3.884   0.890   3.027  0.3425  0.3862 -0.2346
 4048SOL    HW123603   3.873   0.846   2.943  1.8682  2.5534 -1.5501
 4048SOL    HW223604   3.803   0.941   3.020  0.6571  0.6575 -1.8341
 4049SOL     OW23605   3.243   0.493   2.644  0.2017  0.4220  0.0116
 4049SOL    HW123606   3.244   0.430   2.717  2.4509 -1.5824 -1.7587
 4049SOL    HW223607   3.151   0.508   2.622  0.5403  1.8907 -0.4250
 4050SOL     OW23608   0.466   1.089   2.010  0.3526 -0.4037 -0.1729
 4050SOL    HW123609   0.435   1.105   1.921  0.4838  1.5957  0.1300
 4050SOL    HW223610   0.477   0.994   2.004 -0.9169 -0.5650  0.0472
 4051SOL     OW23611   1.857   0.092   6.841  0.2084  0.3516  0.8023
 4051SOL    HW123612   1.809   0.038   6.779  0.8614  0.2277  0.4004
 4051SOL    HW223613   1.946   0.092   6.805 -0.3675  1.9649 -0.6004
 4052SOL     OW23614   2.230   2.709  12.284  0.2426  0.3565 -0.0986
 4052SOL    HW123615   2.279   2.727  12.364 -1.5928 -0.9279  1.3085
 4052SOL    HW223616   2.185   2.793  12.272  0.7230  0.8242  1.4222
 4053SOL     OW23617   3.530   4.037   6.976  0.1252  0.5350  0.3505
 4053SOL    HW123618   3.470   4.110   6.961 -1.0750 -0.8394 -1.5580
 4053SOL    HW223619   3.595   4.082   7.030  1.7797 -1.6446  0.2192
 4054SOL     OW23620   1.104   3.643   0.997 -0.0446 -0.1618 -0.4496
 4054SOL    HW123621   1.104   3.732   0.964 -1.4149 -0.1427 -0.3715
 4054SOL    HW223622   1.032   3.611   0.943 -1.1629  0.5323  0.6270
 4055SOL     OW23623   4.680   3.693   7.116 -0.4843 -0.1356  0.7045
 4055SOL    HW123624   4.597   3.701   7.069  0.5249  2.4865 -0.6935
 4055SOL    HW223625   4.708   3.780   7.087 -1.4989  0.1500  0.5744
 4056SOL     OW23626   1.832   4.674   3.251  0.1307  0.2049 -0.2857
 4056SOL    HW123627   1.848   4.638   3.163  1.8161  1.2004 -0.3877
 4056SOL    HW223628   1.773   4.613   3.296 -0.9880  1.1246 -0.4936
 4057SOL     OW23629   3.022   4.274   9.161  0.0980  0.7931 -0.5407
 4057SOL    HW123630   2.976   4.190   9.161 -3.0522  2.5129 -0.5234
 4057SOL    HW223631   3.114   4.258   9.183 -0.9402 -2.6816  1.3423
 4058SOL     OW23632   1.287   2.899   9.758  0.4942 -0.5161  0.5426
 4058SOL    HW123633   1.233   2.959   9.708  0.7942 -0.6589  0.0447
 4058SOL    HW223634   1.222   2.837   9.789 -0.5778  1.3712  2.0921
 4059SOL     OW23635   2.381   2.242  10.840  0.0571 -0.4974 -0.5634
 4059SOL    HW123636   2.297   2.225  10.796 -0.9262  1.3528  0.6039
 4059SOL    HW223637   2.411   2.312  10.782  1.4748  0.1777  0.9908
 4060SOL     OW23638   4.078   4.681   7.451  0.1089  0.4895  0.3651
 4060SOL    HW123639   4.125   4.661   7.532  0.8946  2.1051  0.3002
 4060SOL    HW223640   3.993   4.704   7.489  0.4544  0.1752  1.3375
 4061SOL     OW23641   4.412   0.641   1.493  0.1551  0.1689 -0.6385
 4061SOL    HW123642   4.423   0.656   1.587 -0.8054  3.4960 -1.0642
 4061SOL    HW223643   4.412   0.546   1.503 -1.2143  0.4553  2.1297
 4062SOL     OW23644   0.664   3.619   8.865 -0.1001  0.1127  0.3935
 4062SOL    HW123645   0.710   3.535   8.875  0.9701  0.7509  0.8861
 4062SOL    HW223646   0.713   3.682   8.919  0.9688 -0.9164  0.6334
 4063SOL     OW23647   4.238   3.450  14.810  0.2881 -0.4568  0.1285
 4063SOL    HW123648   4.195   3.499  14.741  1.0304  1.7472  1.2252
 4063SOL    HW223649   4.295   3.517  14.848 -0.1782  0.3280 -0.5770
 4064SOL     OW23650   1.609   0.986   9.066 -0.3373  0.2757  0.5792
 4064SOL    HW123651   1.663   1.039   9.008 -0.4184 -1.3083 -0.9344
 4064SOL    HW223652   1.675   0.950   9.125  0.6552  0.7608 -0.2478
 4065SOL     OW23653   3.085   1.888  14.019 -0.5592  0.4749  0.2720
 4065SOL    HW123654   3.011   1.850  13.971  0.8789 -2.6993  0.5316
 4065SOL    HW223655   3.078   1.824  14.091  1.2723  0.1159  0.1372
 4066SOL     OW23656   3.623   3.600   0.858  0.0556  0.4151 -0.0995
 4066SOL    HW123657   3.584   3.606   0.771  1.3571 -0.9803 -0.7941
 4066SOL    HW223658   3.584   3.517   0.886  1.3266  0.8678  2.9703
 4067SOL     OW23659   1.624   1.834   8.413  0.6136 -0.0501  0.8006
 4067SOL    HW123660   1.684   1.782   8.467  0.3090 -0.3123  0.8835
 4067SOL    HW223661   1.541   1.840   8.461 -0.0331 -1.1713 -0.1744
 4068SOL     OW23662   1.575   0.650   8.904  0.3563 -0.1857 -0.6460
 4068SOL    HW123663   1.636   0.646   8.978 -2.7704 -0.0937  1.9635
 4068SOL    HW223664   1.632   0.636   8.829 -0.3322 -0.7401 -1.0593
 4069SOL     OW23665   4.284   4.372   7.279 -0.1799  0.1432  0.2906
 4069SOL    HW123666   4.231   4.298   7.248  0.2246 -0.2907  0.6256
 4069SOL    HW223667   4.362   4.324   7.309  0.0363  0.4446  0.2040
 4070SOL     OW23668   0.476   0.041   9.015 -0.1690 -0.1158 -0.0672
 4070SOL    HW123669   0.382   0.024   9.021 -0.5858  1.5379 -1.8728
 4070SOL    HW223670   0.490   0.078   8.928 -0.6937  0.3713  0.0553
 4071SOL     OW23671   3.339   2.733   9.901 -0.1810  0.0005 -0.6869
 4071SOL    HW123672   3.425   2.719   9.941 -0.1358 -2.2653 -1.5973
 4071SOL    HW223673   3.329   2.653   9.850  1.9059 -0.7231  0.0397
 4072SOL     OW23674   3.370   3.014   3.814  0.1121  0.1266  0.6268
 4072SOL    HW123675   3.428   2.940   3.795 -2.5382 -1.5044 -1.1708
 4072SOL    HW223676   3.426   3.048   3.884 -1.1456  1.2647  1.0892
 4073SOL     OW23677   2.826   3.083  10.157  0.2680  0.0155 -0.6301
 4073SOL    HW123678   2.757   3.024  10.128  0.1921  0.2359 -0.8946
 4073SOL    HW223679   2.783   3.165  10.133 -2.0149 -0.4962  1.6561
 4074SOL     OW23680   1.311   2.105  14.414 -0.1099  0.4091  0.1960
 4074SOL    HW123681   1.363   2.124  14.336 -0.9358 -1.5630 -0.8356
 4074SOL    HW223682   1.233   2.157  14.394  0.9440  1.2745 -1.6968
 4075SOL     OW23683   0.406   2.335   2.466  0.4565 -0.2309 -0.3351
 4075SOL    HW123684   0.351   2.414   2.462  0.6768 -0.0905 -0.5766
 4075SOL    HW223685   0.467   2.347   2.393  2.2134 -2.6146  0.7765
 4076SOL     OW23686   0.593   0.852   1.010 -0.3684  0.3581  0.0675
 4076SOL    HW123687   0.606   0.936   0.968  0.8240  0.3948  0.5221
 4076SOL    HW223688   0.525   0.876   1.073  0.1240  3.2296 -0.5235
 4077SOL     OW23689   1.711   4.019   9.308 -0.7215 -0.3262 -0.1711
 4077SOL    HW123690   1.620   3.996   9.287 -0.8262 -0.9053  0.9367
 4077SOL    HW223691   1.759   4.014   9.225  2.1420 -4.4794  1.7710
 4078SOL     OW23692   0.792   2.068  17.670 -0.0382  0.2866 -0.1953
 4078SOL    HW123693   0.704   2.034  17.653 -0.6879  1.8519  0.0152
 4078SOL    HW223694   0.778   2.160  17.647 -4.2552 -0.8896 -2.4866
 4079SOL     OW23695   4.183   3.909  14.400  1.5409  0.4854  0.7476
 4079SOL    HW123696   4.276   3.894  14.386  1.7702  1.2655  1.5052
 4079SOL    HW223697   4.175   3.922  14.494 -0.8402  4.4434  0.0213
 4080SOL     OW23698   0.854   2.665   4.011 -0.1395 -0.1830  0.4115
 4080SOL    HW123699   0.800   2.729   4.058 -1.0085  0.2797 -1.2063
 4080SOL    HW223700   0.821   2.678   3.922  0.4361 -2.0974 -0.0663
 4081SOL     OW23701   3.491   3.209  16.598 -0.0483  0.0584 -0.8025
 4081SOL    HW123702   3.509   3.211  16.692 -3.5287 -1.5672 -0.0882
 4081SOL    HW223703   3.541   3.288  16.579  1.2082 -0.1250  1.7415
 4082SOL     OW23704   2.296   3.926   7.535  0.8665  0.0755 -0.1150
 4082SOL    HW123705   2.373   3.975   7.504  1.3487 -2.4254 -2.8972
 4082SOL    HW223706   2.323   3.840   7.503 -0.9636 -0.8140  0.7291
 4083SOL     OW23707   1.543   0.063   2.265  0.6940 -0.0419  0.2542
 4083SOL    HW123708   1.509   0.115   2.338 -0.3555 -1.6482  0.8974
 4083SOL    HW223709   1.625   0.104   2.238  2.1607 -0.7973  3.5799
 4084SOL     OW23710   4.556   0.259   9.135  0.1607  0.2174  0.1414
 4084SOL    HW123711   4.520   0.336   9.180  0.5458  0.6515 -0.2931
 4084SOL    HW223712   4.532   0.290   9.047  0.8776 -1.3204 -0.5964
 4085SOL     OW23713   3.979   2.269   6.350 -0.0504 -0.0949  0.3465
 4085SOL    HW123714   3.919   2.233   6.284 -2.6897  2.6756  1.2656
 4085SOL    HW223715   4.039   2.195   6.363  1.3475  0.8032 -0.8881
 4086SOL     OW23716   3.452   3.271  15.727 -0.0962  0.4960  0.5852
 4086SOL    HW123717   3.449   3.255  15.821 -0.1357 -0.2529  0.4574
 4086SOL    HW223718   3.519   3.206  15.705  0.4905  1.2000  0.2775
 4087SOL     OW23719   1.333   3.293   2.699  0.5708 -0.1240 -0.4183
 4087SOL    HW123720   1.265   3.229   2.718 -0.6913  1.3385 -0.0704
 4087SOL    HW223721   1.341   3.294   2.604  0.5335  1.9854 -0.4001
 4088SOL     OW23722   0.374   1.253   1.041 -0.1286  0.1039 -0.7168
 4088SOL    HW123723   0.296   1.199   1.056  1.2352 -1.9228 -0.8299
 4088SOL    HW223724   0.338   1.299   0.965 -1.0809  0.9626  0.2703
 4089SOL     OW23725   3.418   3.955   3.060 -0.1503 -0.0707 -0.2324
 4089SOL    HW123726   3.455   3.958   2.972 -2.1292  1.5348 -1.0203
 4089SOL    HW223727   3.494   3.991   3.105  1.8718 -2.9312 -1.4203
 4090SOL     OW23728   3.842   3.372  11.761  0.3074 -0.2134  0.3784
 4090SOL    HW123729   3.796   3.288  11.755  0.9996 -0.6179  0.7517
 4090SOL    HW223730   3.772   3.416  11.809  0.0383 -0.5284  0.2763
 4091SOL     OW23731   4.026   2.895   2.022  0.3977  0.5241 -0.4113
 4091SOL    HW123732   4.038   2.973   2.077 -1.9600 -1.1837  2.5564
 4091SOL    HW223733   4.105   2.893   1.968 -0.1629 -2.2987 -1.1296
 4092SOL     OW23734   3.323   4.228  12.487 -0.1106  0.0037  0.3815
 4092SOL    HW123735   3.288   4.144  12.455  0.6170  0.6852 -2.2099
 4092SOL    HW223736   3.362   4.188  12.564  0.7052 -0.2425 -0.1635
 4093SOL     OW23737   2.786   3.544   7.260  0.2530 -0.6960  0.5046
 4093SOL    HW123738   2.837   3.504   7.330  0.0641  0.5154  1.3464
 4093SOL    HW223739   2.781   3.636   7.288 -0.9175 -0.2362 -1.1460
 4094SOL     OW23740   1.656   2.451   1.668 -0.3470  0.3230  0.1658
 4094SOL    HW123741   1.580   2.494   1.629 -1.4699 -1.5571  0.2804
 4094SOL    HW223742   1.634   2.457   1.761 -0.0799 -0.7605  0.2947
 4095SOL     OW23743   0.798   2.371   4.453  0.5333  0.3296  0.0359
 4095SOL    HW123744   0.790   2.346   4.361  0.6761 -3.2222  0.9993
 4095SOL    HW223745   0.859   2.299   4.469 -0.3051 -1.0108 -2.8635
 4096SOL     OW23746   2.133   3.540   9.334  0.0272 -0.1134 -0.0333
 4096SOL    HW123747   2.091   3.454   9.342  1.3903 -0.8449 -0.6895
 4096SOL    HW223748   2.168   3.543   9.424 -0.3392 -0.2484  0.1147
 4097SOL     OW23749   4.197   0.804  13.361 -0.5352 -0.0089 -0.2024
 4097SOL    HW123750   4.190   0.850  13.277  1.0721 -0.1716 -0.4179
 4097SOL    HW223751   4.118   0.755  13.384  0.6772 -1.2463  1.2906
 4098SOL     OW23752   3.681   0.377  12.492  0.3443  0.2052  0.3319
 4098SOL    HW123753   3.673   0.431  12.414  0.8154 -1.3870 -0.8293
 4098SOL    HW223754   3.587   0.368  12.504  0.1441  1.9815 -0.0250
 4099SOL     OW23755   1.864   2.283  13.736  0.1219 -0.0565 -0.7934
 4099SOL    HW123756   1.790   2.230  13.764 -0.0761 -0.0516 -1.3076
 4099SOL    HW223757   1.857   2.260  13.644  2.3532  1.7478 -1.4192
 4100SOL     OW23758   2.018   1.159   4.664  0.1649  0.5805  0.0903
 4100SOL    HW123759   2.052   1.151   4.575 -2.5724 -2.3839 -0.6787
 4100SOL    HW223760   2.056   1.241   4.695  2.3569 -1.1950  2.1093
 4101SOL     OW23761   1.030   4.698  17.569 -0.1319 -0.5492 -0.5809
 4101SOL    HW123762   0.995   4.611  17.588  1.4516 -0.8310  1.0440
 4101SOL    HW223763   1.113   4.677  17.525 -0.7045 -0.6944 -1.5907
 4102SOL     OW23764   0.002   4.236   1.320 -0.2152  0.7230 -0.2360
 4102SOL    HW123765   0.009   4.168   1.388  0.2665  0.4046 -0.6077
 4102SOL    HW223766   0.064   4.299   1.358  2.0509 -1.5402 -0.2115
 4103SOL     OW23767   3.154   4.142   1.486  0.0089 -0.0837  1.0740
 4103SOL    HW123768   3.201   4.068   1.448  0.0326 -0.4852  1.8955
 4103SOL    HW223769   3.186   4.211   1.429  0.4847 -0.3368  1.0363
 4104SOL     OW23770   2.886   4.269   2.632 -0.0768  0.1066 -0.0846
 4104SOL    HW123771   2.935   4.274   2.714  1.1198  3.6508 -1.0538
 4104SOL    HW223772   2.930   4.329   2.573 -2.2249  2.0356  0.2570
 4105SOL     OW23773   2.500   4.487   7.797 -0.0691  0.5956  0.6875
 4105SOL    HW123774   2.537   4.404   7.768 -0.6334  0.7906 -0.5759
 4105SOL    HW223775   2.450   4.513   7.720  0.9187  0.8091  0.1246
 4106SOL     OW23776   2.646   3.571   7.618  0.2552 -0.2690  0.8420
 4106SOL    HW123777   2.629   3.478   7.605  1.7937 -0.4594  0.2777
 4106SOL    HW223778   2.721   3.566   7.676 -0.0685  0.2626  1.3102
 4107SOL     OW23779   0.219   3.551   7.391  0.2237  0.3231 -0.1390
 4107SOL    HW123780   0.164   3.487   7.346  0.1619 -0.1193  0.5727
 4107SOL    HW223781   0.145   3.590   7.438  1.7665  0.9515  1.7451
 4108SOL     OW23782   3.241   1.671   6.055 -0.3133  0.1840  0.3120
 4108SOL    HW123783   3.173   1.725   6.096 -1.1958 -0.2893 -0.5125
 4108SOL    HW223784   3.188   1.596   6.027 -1.7798  1.5398 -0.5691
 4109SOL     OW23785   2.028   1.609   0.718  0.0298 -0.0472  0.2133
 4109SOL    HW123786   1.985   1.633   0.636  1.5046 -3.3106 -1.5031
 4109SOL    HW223787   2.103   1.666   0.701 -0.5420 -0.1311 -2.5280
 4110SOL     OW23788   2.079   0.167   3.226 -0.1228 -0.7380  0.3875
 4110SOL    HW123789   2.067   0.167   3.131 -0.1500  0.7936  0.3817
 4110SOL    HW223790   2.174   0.178   3.224 -0.1364 -0.5796  0.7518
 4111SOL     OW23791   2.230   3.055  12.331  0.4901  0.2466  0.5253
 4111SOL    HW123792   2.267   3.001  12.401 -1.9898  2.9154  3.8826
 4111SOL    HW223793   2.170   2.991  12.291  0.6958 -0.2686  1.0350
 4112SOL     OW23794   2.836   0.229   2.643  0.0756 -0.1667 -0.7835
 4112SOL    HW123795   2.928   0.255   2.652 -0.4283  0.9713  0.8915
 4112SOL    HW223796   2.831   0.187   2.729 -1.5052 -0.8446 -1.2139
 4113SOL     OW23797   0.395   4.637   6.405  0.3845  0.0159 -0.0058
 4113SOL    HW123798   0.336   4.680   6.342 -1.7744  0.4787  2.3189
 4113SOL    HW223799   0.446   4.577   6.350  0.8606  0.6765 -0.2718
 4114SOL     OW23800   0.267   3.984   3.678 -0.4529  0.5403 -0.0747
 4114SOL    HW123801   0.311   4.057   3.635 -0.2948  0.6625  0.2985
 4114SOL    HW223802   0.231   4.031   3.754  0.8202 -1.3593  1.7084
 4115SOL     OW23803   0.723   4.158  10.245 -0.1145 -0.1898  0.7752
 4115SOL    HW123804   0.803   4.198  10.213 -0.7471  1.2522  1.0111
 4115SOL    HW223805   0.757   4.113  10.323 -1.1893 -0.4761  1.0763
 4116SOL     OW23806   1.200   1.658   7.457 -0.4589  0.4588 -0.6897
 4116SOL    HW123807   1.235   1.581   7.502 -1.1172  1.9891  2.4364
 4116SOL    HW223808   1.276   1.686   7.405 -0.8657  0.3790 -1.3229
 4117SOL     OW23809   3.158   1.102  10.985  0.0477 -0.6938 -0.0606
 4117SOL    HW123810   3.101   1.131  11.055 -0.4062 -3.3237  0.6518
 4117SOL    HW223811   3.119   1.015  10.976 -2.0722  0.1188  1.4825
 4118SOL     OW23812   0.123   0.126   1.527  0.3609 -0.0719 -0.3312
 4118SOL    HW123813   0.050   0.167   1.573  2.3576  1.5899  1.3522
 4118SOL    HW223814   0.171   0.095   1.603  0.0574 -2.3821 -1.0862
 4119SOL     OW23815   1.156   4.499   6.565 -0.4672  0.3111  0.3431
 4119SOL    HW123816   1.083   4.559   6.549  0.1997  0.9855 -0.1984
 4119SOL    HW223817   1.215   4.510   6.490  4.2885 -0.5638  4.0273
 4120SOL     OW23818   0.652   3.189   2.977  0.8810 -0.4344  0.1833
 4120SOL    HW123819   0.640   3.254   2.908  0.7995 -0.8810 -0.2262
 4120SOL    HW223820   0.580   3.129   2.960  0.8168  0.0732 -1.4096
 4121SOL     OW23821   0.119   1.513   7.864  0.2453 -0.3893  0.3505
 4121SOL    HW123822   0.087   1.451   7.930 -3.2847  2.7706  1.6392
 4121SOL    HW223823   0.116   1.461   7.784  1.4473 -0.6544  0.4796
 4122SOL     OW23824   2.393   3.965  12.845  0.0611  0.4751  0.3957
 4122SOL    HW123825   2.400   3.884  12.896 -2.4669 -0.2177 -0.3425
 4122SOL    HW223826   2.472   4.002  12.885 -0.4613  1.4244  0.5682
 4123SOL     OW23827   2.843   4.375   0.568  0.3063  0.3752 -0.5594
 4123SOL    HW123828   2.928   4.407   0.597  0.6847  0.7675 -2.0842
 4123SOL    HW223829   2.866   4.282   0.567  0.9516  0.5228  0.4992
 4124SOL     OW23830   2.466   0.359   3.422  0.0430 -0.0402 -0.3454
 4124SOL    HW123831   2.438   0.450   3.437  1.4905 -0.3134  3.9146
 4124SOL    HW223832   2.469   0.355   3.326 -0.3994 -1.2953 -0.3079
 4125SOL     OW23833   4.103   2.518  11.077  0.3911  0.0776  0.5190
 4125SOL    HW123834   4.186   2.500  11.121  0.9689 -0.6544 -0.8698
 4125SOL    HW223835   4.038   2.492  11.142  0.8076 -0.8421  0.5716
 4126SOL     OW23836   0.415   4.437   0.186  0.3629  0.2965 -0.5456
 4126SOL    HW123837   0.484   4.431   0.252 -0.2396  0.7240  0.1133
 4126SOL    HW223838   0.355   4.366   0.208  0.6404  0.2439  0.0453
 4127SOL     OW23839   4.058   3.206   7.639 -0.1908 -1.0248 -0.0564
 4127SOL    HW123840   4.129   3.159   7.683 -1.1144 -0.8192  1.6580
 4127SOL    HW223841   4.036   3.153   7.562 -1.7891  0.6787 -0.7474
 4128SOL     OW23842   2.541   3.801   2.772  0.0303 -0.3085  0.3609
 4128SOL    HW123843   2.555   3.712   2.740  0.7292 -1.0069  2.5737
 4128SOL    HW223844   2.450   3.816   2.797 -0.0383  0.2192 -0.2243
 4129SOL     OW23845   2.747   4.708  14.311 -0.1858  0.1100 -0.2899
 4129SOL    HW123846   2.655   4.683  14.302  0.1922 -0.4476 -2.6459
 4129SOL    HW223847   2.755   0.068  14.265  0.1774  0.4945  0.4745
 4130SOL     OW23848   3.179   2.994  15.462  0.1144  0.1236 -0.3980
 4130SOL    HW123849   3.109   3.053  15.434 -0.2862 -0.3793 -0.4638
 4130SOL    HW223850   3.146   2.973  15.549 -1.4008 -0.4478 -1.1093
 4131SOL     OW23851   0.993   4.224   6.135 -0.3442 -0.3906  0.0352
 4131SOL    HW123852   0.986   4.227   6.230 -0.4275  1.3087 -0.0251
 4131SOL    HW223853   0.956   4.307   6.104  0.5490  0.7413  1.9689
 4132SOL     OW23854   3.253   4.330  16.946  0.4776 -0.1800  0.8760
 4132SOL    HW123855   3.308   4.300  16.874  1.2401  2.4664  0.3448
 4132SOL    HW223856   3.179   4.364  16.895  0.3128  0.9903  1.9088
 4133SOL     OW23857   0.567   0.069  15.160  0.2421 -0.1339 -0.6443
 4133SOL    HW123858   0.640   0.051  15.100  0.6097  3.1529 -1.2405
 4133SOL    HW223859   0.618   0.069  15.241  0.5602  0.2351 -0.8379
 4134SOL     OW23860   3.793   4.245   7.697  0.1267 -0.3682 -0.2350
 4134SOL    HW123861   3.866   4.304   7.713  1.2225 -2.1860  1.4271
 4134SOL    HW223862   3.746   4.246   7.780  2.4324 -0.2172  1.0575
 4135SOL     OW23863   1.308   1.837   9.462  0.3049 -0.2909  0.0098
 4135SOL    HW123864   1.316   1.830   9.557  2.6010  1.1384 -0.0618
 4135SOL    HW223865   1.393   1.800   9.435  1.1630  2.3461 -0.9048
 4136SOL     OW23866   3.089   2.682   9.326 -0.3830  0.0824 -0.0125
 4136SOL    HW123867   3.145   2.717   9.257  0.6416 -1.9115 -0.1962
 4136SOL    HW223868   3.007   2.658   9.283 -2.1250  3.0318  1.6652
 4137SOL     OW23869   1.391   2.882  15.958 -0.0022 -0.5308 -0.2122
 4137SOL    HW123870   1.301   2.854  15.940  0.6051 -2.1548 -0.7084
 4137SOL    HW223871   1.433   2.893  15.873 -0.0955 -2.3875 -0.4909
 4138SOL     OW23872   0.513   3.889   7.059  0.2445  0.0527  0.0215
 4138SOL    HW123873   0.459   3.877   7.136  0.9572 -1.1891  0.3351
 4138SOL    HW223874   0.591   3.843   7.092 -0.8402 -2.3164 -0.7258
 4139SOL     OW23875   2.902   1.071   2.888  0.0925 -0.2530  0.1477
 4139SOL    HW123876   2.945   1.099   2.970  0.3763  1.5283 -0.6113
 4139SOL    HW223877   2.874   0.988   2.926 -0.4079  0.2916  0.9756
 4140SOL     OW23878   4.442   2.502   3.860 -0.4671 -0.4852 -0.0187
 4140SOL    HW123879   4.390   2.466   3.788  0.3896  0.2070 -0.9769
 4140SOL    HW223880   4.374   2.563   3.890  0.8450  1.0214 -0.0956
 4141SOL     OW23881   4.135   3.678   4.278  0.3100  1.0268 -0.2305
 4141SOL    HW123882   4.119   3.743   4.347 -0.9656  1.3572 -0.8294
 4141SOL    HW223883   4.227   3.664   4.299 -0.2573 -2.8174 -0.4166
 4142SOL     OW23884   0.677   1.100   4.978 -0.8231 -0.2294  0.9928
 4142SOL    HW123885   0.584   1.099   5.002 -0.7311 -0.5345  1.3460
 4142SOL    HW223886   0.722   1.136   5.055  2.7755 -0.1343 -1.1968
 4143SOL     OW23887   3.072   1.675   8.299  0.2359  0.3327  0.4682
 4143SOL    HW123888   3.042   1.730   8.227 -5.5762 -2.3990  0.7936
 4143SOL    HW223889   3.059   1.586   8.266  3.5456 -0.5299  1.4671
 4144SOL     OW23890   1.629   1.008  11.533 -0.2864 -0.9642  0.0569
 4144SOL    HW123891   1.542   0.977  11.558  0.1319 -2.5088 -0.4352
 4144SOL    HW223892   1.669   0.921  11.530 -0.8655 -1.1792 -1.4013
 4145SOL     OW23893   2.770   4.701  13.549  0.0762 -0.2716 -0.3208
 4145SOL    HW123894   2.748   0.027  13.628 -0.4047 -0.6234 -0.2317
 4145SOL    HW223895   2.705   4.631  13.555  3.0841 -3.0552 -0.4078
 4146SOL     OW23896   1.117   1.309   1.926 -0.0636 -0.6443  0.0968
 4146SOL    HW123897   1.066   1.387   1.905  0.9980  0.0788  0.1814
 4146SOL    HW223898   1.190   1.310   1.865  0.7884 -0.6723  1.1061
 4147SOL     OW23899   2.384   2.961  12.752 -0.0343 -1.0990  0.2213
 4147SOL    HW123900   2.446   2.912  12.698  1.0822  2.3731 -1.6284
 4147SOL    HW223901   2.431   2.984  12.832 -0.6721 -0.0933  0.2997
 4148SOL     OW23902   3.890   2.796   5.765 -0.2926  0.0112 -0.2045
 4148SOL    HW123903   3.818   2.742   5.734 -0.0158 -0.2314 -0.4195
 4148SOL    HW223904   3.869   2.803   5.858  1.9927 -0.2209  0.3392
 4149SOL     OW23905   2.447   1.311   1.473  0.1462  0.3329  0.3694
 4149SOL    HW123906   2.359   1.339   1.450  0.8297  1.1260 -1.2693
 4149SOL    HW223907   2.475   1.377   1.537  1.5751 -1.4464  1.6030
 4150SOL     OW23908   1.772   3.458   6.517  0.2424 -0.5648 -0.4668
 4150SOL    HW123909   1.679   3.482   6.523  0.4234  0.0642 -0.1979
 4150SOL    HW223910   1.770   3.365   6.542  1.5101  0.2422  2.5957
 4151SOL     OW23911   2.203   3.530   3.621  0.5198 -0.1681  0.6261
 4151SOL    HW123912   2.123   3.536   3.673 -0.1491  0.7252 -0.4975
 4151SOL    HW223913   2.162   3.544   3.535 -0.1394 -0.2977  0.9222
 4152SOL     OW23914   0.285   1.082   6.192 -0.4864 -0.4037 -0.0755
 4152SOL    HW123915   0.269   1.139   6.118  0.9074  0.0290 -0.0399
 4152SOL    HW223916   0.264   1.135   6.269 -2.2295 -1.2630  0.0498
 4153SOL     OW23917   1.911   2.501  16.639 -1.1187 -0.5400  0.1537
 4153SOL    HW123918   1.907   2.463  16.552  0.9925 -0.6355  0.0959
 4153SOL    HW223919   1.999   2.489  16.675 -0.8496  1.1207  0.0346
 4154SOL     OW23920   1.900   3.573   9.561 -0.9033  0.2700 -0.3111
 4154SOL    HW123921   1.903   3.651   9.505 -1.3564  1.8558  1.8917
 4154SOL    HW223922   1.974   3.519   9.533 -0.3828  2.4816 -3.2727
 4155SOL     OW23923   1.237   0.319  15.013  0.1947  0.3309 -0.1232
 4155SOL    HW123924   1.308   0.365  14.969 -0.8692  2.5799  0.5149
 4155SOL    HW223925   1.291   0.277  15.079 -1.2781 -0.7688  0.4020
 4156SOL     OW23926   2.939   2.958  13.173 -0.1988  0.3638 -0.0072
 4156SOL    HW123927   2.903   3.027  13.117  1.1666 -0.1806 -1.5491
 4156SOL    HW223928   3.030   2.949  13.145  0.2854  0.5690  1.4726
 4157SOL     OW23929   3.744   3.379   3.223  0.2466  0.1835  0.2044
 4157SOL    HW123930   3.753   3.429   3.304  1.3822 -1.4749  1.1057
 4157SOL    HW223931   3.681   3.437   3.181  1.3108  2.2290  1.4739
 4158SOL     OW23932   3.904   3.944   0.295  0.1750 -0.0050  0.1862
 4158SOL    HW123933   3.894   3.983   0.382  2.5651 -3.3832  1.9669
 4158SOL    HW223934   3.974   3.883   0.314  0.4831  0.3979  0.3399
 4159SOL     OW23935   0.004   4.117   5.489 -0.0175 -0.0453  0.1809
 4159SOL    HW123936   0.051   4.041   5.454 -0.1253  0.3626 -0.8614
 4159SOL    HW223937   4.640   4.088   5.464  0.3638  0.0116 -1.2308
 4160SOL     OW23938   1.436   2.844   7.523  0.0243 -0.0258  0.3093
 4160SOL    HW123939   1.390   2.783   7.581  0.7044  0.5053  1.4004
 4160SOL    HW223940   1.371   2.890   7.470 -0.5596  0.2939  1.3020
 4161SOL     OW23941   2.825   1.005  10.259 -0.4662 -0.0391 -0.4499
 4161SOL    HW123942   2.918   1.001  10.235  0.1887  3.2369  1.6563
 4161SOL    HW223943   2.794   1.049  10.180 -1.7865  2.3590  1.4431
 4162SOL     OW23944   2.310   4.663  15.780  0.5006  1.0955 -0.3475
 4162SOL    HW123945   2.240   4.681  15.843  1.3930  0.8138  0.7241
 4162SOL    HW223946   2.362   0.020  15.776  2.1732 -0.0865 -2.8926
 4163SOL     OW23947   1.083   1.993   7.356 -0.1289 -0.7637 -0.1080
 4163SOL    HW123948   0.996   2.010   7.319 -0.2124 -2.7344 -0.8314
 4163SOL    HW223949   1.057   1.948   7.436 -0.6080 -1.2825 -0.5540
 4164SOL     OW23950   1.475   1.227   2.200  0.4228  0.2505 -0.3378
 4164SOL    HW123951   1.529   1.149   2.187 -1.2369 -1.2660  1.7274
 4164SOL    HW223952   1.476   1.258   2.110  0.2612  0.4401 -0.2741
 4165SOL     OW23953   0.829   3.178  13.310 -0.0707  0.0486 -0.1423
 4165SOL    HW123954   0.836   3.272  13.295  0.8475  0.2096  1.2642
 4165SOL    HW223955   0.860   3.158  13.399 -0.6744 -1.8478 -0.3547
 4166SOL     OW23956   3.091   4.194   0.781 -0.3543 -0.2391  0.2921
 4166SOL    HW123957   3.179   4.177   0.815 -0.8798 -1.0446  1.2538
 4166SOL    HW223958   3.079   4.133   0.708  0.9314 -1.3074  0.9726
 4167SOL     OW23959   4.316   3.627   6.537 -0.1306  0.5473  0.2518
 4167SOL    HW123960   4.373   3.563   6.493  0.8869  2.2777 -0.9410
 4167SOL    HW223961   4.234   3.577   6.530 -0.1372  0.3473  1.7931
 4168SOL     OW23962   1.295   1.346  16.264  0.3654  0.1641  0.0158
 4168SOL    HW123963   1.324   1.436  16.279 -1.3530  0.1366  3.6202
 4168SOL    HW223964   1.199   1.352  16.262  0.4339  1.1760 -0.2726
 4169SOL     OW23965   3.857   2.723  12.272 -0.4463  0.0796  0.2581
 4169SOL    HW123966   3.838   2.637  12.235  0.9571  1.3829 -3.4702
 4169SOL    HW223967   3.940   2.742  12.230 -0.5611 -1.4301 -0.6288
 4170SOL     OW23968   0.962   2.802   6.016  0.1620  0.1684 -0.1954
 4170SOL    HW123969   1.016   2.734   5.977  0.1550 -0.8415  1.5558
 4170SOL    HW223970   0.960   2.783   6.110 -0.2784 -1.3572 -0.5032
 4171SOL     OW23971   0.290   4.433   7.164 -0.1098 -0.0088  0.3436
 4171SOL    HW123972   0.234   4.507   7.185  1.1966  0.3499  2.5392
 4171SOL    HW223973   0.274   4.389   7.248 -0.6190  0.3255  0.4197
 4172SOL     OW23974   0.950   1.232   3.325 -0.0675 -0.2399  0.4820
 4172SOL    HW123975   1.014   1.165   3.302  2.3808  2.0698  0.4264
 4172SOL    HW223976   0.956   1.234   3.420 -1.9614  2.2321  0.5593
 4173SOL     OW23977   4.190   1.495   6.104  0.0614 -0.3688 -0.5522
 4173SOL    HW123978   4.209   1.558   6.035 -1.7320  2.0370  1.1318
 4173SOL    HW223979   4.161   1.553   6.175 -1.0886 -1.1848 -0.3583
 4174SOL     OW23980   4.558   1.626   4.171 -0.0653 -0.5041 -0.0430
 4174SOL    HW123981   4.535   1.718   4.184 -0.6378 -0.1088 -3.8885
 4174SOL    HW223982   4.652   1.629   4.156  0.1311 -0.2436  1.2634
 4175SOL     OW23983   1.034   1.595   2.511  0.2957  0.2703 -0.0280
 4175SOL    HW123984   1.053   1.602   2.417  1.4855  1.2593  0.2837
 4175SOL    HW223985   0.939   1.584   2.509  0.4276 -0.7672 -0.4538
 4176SOL     OW23986   3.301   3.976   6.278 -0.3998 -0.0576  0.3033
 4176SOL    HW123987   3.283   3.967   6.371  0.4425 -1.2968  0.3561
 4176SOL    HW223988   3.360   3.901   6.266 -1.3861 -1.0077  1.3184
 4177SOL     OW23989   0.736   0.304   1.593 -0.1214  0.2078 -0.0709
 4177SOL    HW123990   0.781   0.324   1.511 -0.1067  0.8300  0.0842
 4177SOL    HW223991   0.723   0.210   1.586 -0.4974  0.2987 -0.5611
 4178SOL     OW23992   0.088   0.830   6.529  1.0681  0.0734 -0.5101
 4178SOL    HW123993   0.078   0.786   6.445 -0.6659 -0.9850  0.2560
 4178SOL    HW223994   4.723   0.821   6.563  0.0824  1.4265 -2.7139
 4179SOL     OW23995   2.168   3.187   8.964  0.1789  0.1400  0.3559
 4179SOL    HW123996   2.230   3.116   8.947  2.2841  2.5944 -2.2052
 4179SOL    HW223997   2.185   3.218   9.053 -3.2193  0.3065  0.9662
 4180SOL     OW23998   1.726   3.498  10.290 -0.2064 -0.2461 -0.0304
 4180SOL    HW123999   1.742   3.411  10.253 -2.0775 -0.6732  0.1857
 4180SOL    HW224000   1.650   3.480  10.345  1.0373 -3.7960  0.4622
 4181SOL     OW24001   3.891   3.898   2.708  1.2502 -0.7860 -0.4161
 4181SOL    HW124002   3.810   3.891   2.658  0.8945 -2.1372  0.3498
 4181SOL    HW224003   3.954   3.869   2.643  2.1500  1.1262 -0.4023
 4182SOL     OW24004   2.092   2.107   6.711  0.4852 -0.6880 -0.0438
 4182SOL    HW124005   2.125   2.021   6.734 -2.2993 -1.7378 -0.0070
 4182SOL    HW224006   1.999   2.107   6.730  1.1483  2.2016  3.2986
 4183SOL     OW24007   3.111   1.115   7.302 -0.7171 -0.0962  0.1306
 4183SOL    HW124008   3.116   1.020   7.309  0.0056 -0.2178 -1.8283
 4183SOL    HW224009   3.197   1.142   7.334 -0.0330 -1.0458 -0.8990
 4184SOL     OW24010   2.468   4.373  17.233  0.0589  0.2111 -0.3231
 4184SOL    HW124011   2.385   4.327  17.226 -0.0943  0.3922  0.3634
 4184SOL    HW224012   2.455   4.432  17.159 -2.2358  0.5515  0.3447
 4185SOL     OW24013   1.043   2.481   6.047  0.0842 -0.1540  0.1452
 4185SOL    HW124014   0.953   2.484   6.080  0.6345  0.5496  1.5711
 4185SOL    HW224015   1.048   2.395   6.005 -4.8535 -1.0621  1.4234
 4186SOL     OW24016   0.023   2.420   8.893  0.1138 -0.1880 -0.1403
 4186SOL    HW124017   4.677   2.402   8.956  0.7582 -0.2435  0.5553
 4186SOL    HW224018   4.701   2.432   8.810 -0.0160  0.9329  0.0999
 4187SOL     OW24019   1.579   0.539   4.302  0.6996  0.6001 -0.1666
 4187SOL    HW124020   1.603   0.466   4.359 -1.3973  0.1214  0.0876
 4187SOL    HW224021   1.490   0.564   4.326  0.3460  0.4578 -1.3384
 4188SOL     OW24022   0.192   4.292   6.048  0.4232  0.1185  0.2038
 4188SOL    HW124023   0.201   4.197   6.038 -2.4866 -0.1322 -0.1254
 4188SOL    HW224024   0.139   4.311   5.971 -3.4179 -2.4560  2.2143
 4189SOL     OW24025   0.575   2.340   8.302 -0.3640  0.3400  0.4803
 4189SOL    HW124026   0.609   2.331   8.391  1.5160 -1.4314 -0.4177
 4189SOL    HW224027   0.661   2.326   8.262 -2.0335 -2.8839 -2.0372
 4190SOL     OW24028   0.342   2.208   3.011 -0.2937  0.4732 -0.2074
 4190SOL    HW124029   0.399   2.131   3.007  0.6084  1.2358 -1.9418
 4190SOL    HW224030   0.342   2.220   2.916 -0.0098  0.9209 -0.1491
 4191SOL     OW24031   3.718   1.905   4.886  0.5404  0.5388  0.1278
 4191SOL    HW124032   3.662   1.934   4.958 -0.5723 -1.0593 -0.1124
 4191SOL    HW224033   3.764   1.989   4.879  1.1302  0.4407  2.8386
 4192SOL     OW24034   1.376   3.813  11.470 -0.3620  0.0537  0.2495
 4192SOL    HW124035   1.440   3.875  11.503 -0.1700 -0.7694  1.4003
 4192SOL    HW224036   1.364   3.853  11.384 -3.7931 -0.8201  0.2927
 4193SOL     OW24037   4.269   0.566  13.569  0.3895 -0.1271 -0.0527
 4193SOL    HW124038   4.179   0.542  13.593  0.9608 -1.3454  0.8767
 4193SOL    HW224039   4.310   0.480  13.564 -1.2010 -0.7437 -2.2093
 4194SOL     OW24040   3.998   2.665   9.480  0.4108 -0.1406 -0.4690
 4194SOL    HW124041   4.076   2.647   9.532 -0.3681 -0.9647  0.4266
 4194SOL    HW224042   3.939   2.696   9.549  0.4459 -0.6987 -0.1851
 4195SOL     OW24043   0.327   4.270   6.514 -0.4396 -0.3260 -0.1013
 4195SOL    HW124044   0.273   4.337   6.473 -1.0823 -0.1925  0.9539
 4195SOL    HW224045   0.266   4.237   6.580 -2.6152 -0.2299 -2.0534
 4196SOL     OW24046   0.848   3.478   0.953 -0.3874 -0.3332 -0.1098
 4196SOL    HW124047   0.817   3.498   0.865  0.3625 -0.4454 -0.4034
 4196SOL    HW224048   0.779   3.413   0.968 -0.5286 -0.9481 -3.4498
 4197SOL     OW24049   3.088   0.182   7.610 -0.2860  0.1061  0.1187
 4197SOL    HW124050   3.018   0.172   7.674 -1.0983 -0.6099 -0.8907
 4197SOL    HW224051   3.074   0.271   7.579 -0.6091  0.1141  0.2903
 4198SOL     OW24052   0.946   3.882  14.260  0.9951 -0.3015 -0.6869
 4198SOL    HW124053   0.902   3.910  14.181 -1.3629  0.0879  0.7647
 4198SOL    HW224054   0.942   3.789  14.239 -1.0609 -0.4613  0.4346
 4199SOL     OW24055   1.877   1.843   8.679 -0.0354  0.2295 -0.3004
 4199SOL    HW124056   1.804   1.885   8.725  0.8082  0.2287  1.0323
 4199SOL    HW224057   1.931   1.802   8.746 -1.3081  1.2316  1.3309
 4200SOL     OW24058   2.810   2.769   3.102 -0.4750 -0.6816 -0.2208
 4200SOL    HW124059   2.883   2.778   3.164 -0.1088 -0.2203 -0.7200
 4200SOL    HW224060   2.852   2.763   3.017  0.0102 -0.5967  0.0160
 4201SOL     OW24061   3.250   1.053   8.864  0.3875 -0.0432  0.0936
 4201SOL    HW124062   3.174   1.022   8.914 -0.4938  2.5102  0.3591
 4201SOL    HW224063   3.240   0.998   8.787  1.1806 -0.1059  0.0323
 4202SOL     OW24064   1.951   1.114   6.884 -0.0017 -0.8587  0.4949
 4202SOL    HW124065   1.923   1.169   6.811 -1.6619  0.3058  1.9969
 4202SOL    HW224066   1.961   1.179   6.954  3.7757  0.4610 -1.2683
 4203SOL     OW24067   0.144   1.133   5.748  0.5421 -0.2163 -0.4500
 4203SOL    HW124068   0.120   1.177   5.829 -0.4784  0.0403 -0.8980
 4203SOL    HW224069   0.225   1.176   5.718  0.4379 -0.7209 -1.4596
 4204SOL     OW24070   0.016   1.351   3.812 -0.2318  0.6063 -0.2360
 4204SOL    HW124071   4.687   1.423   3.779  0.5749  1.6504  0.7305
 4204SOL    HW224072   4.670   1.289   3.830  0.3570  0.2897  0.9983
 4205SOL     OW24073   4.068   3.040   6.987  0.1930 -0.6478 -0.5433
 4205SOL    HW124074   4.098   2.961   6.944  0.6538 -1.6556  1.6372
 4205SOL    HW224075   3.982   3.015   7.021 -0.0686 -1.0599 -1.5050
 4206SOL     OW24076   0.968   2.595   4.469  0.3167 -0.8689 -0.0901
 4206SOL    HW124077   0.916   2.516   4.482 -2.3167  0.9969  0.7995
 4206SOL    HW224078   1.049   2.580   4.517 -0.5238 -0.9483  1.2994
 4207SOL     OW24079   4.252   2.968   9.054 -0.1226  0.0325 -0.1581
 4207SOL    HW124080   4.340   2.930   9.048  0.2072  0.5887  1.0768
 4207SOL    HW224081   4.274   3.060   9.068  2.1434 -0.3560 -1.1690
 4208SOL     OW24082   1.114   4.589   7.509 -0.3757 -0.0148 -0.0116
 4208SOL    HW124083   1.203   4.622   7.502 -0.6332  0.7631  0.4432
 4208SOL    HW224084   1.093   4.600   7.417 -1.3827 -0.6445  0.1389
 4209SOL     OW24085   3.525   2.324   3.851 -0.1137 -0.0275 -0.0349
 4209SOL    HW124086   3.530   2.261   3.779  0.0173 -0.4584  0.3508
 4209SOL    HW224087   3.581   2.394   3.818 -1.2584 -0.0689 -2.0442
 4210SOL     OW24088   2.982   0.570   0.164  0.2102 -0.4207  0.1924
 4210SOL    HW124089   2.951   0.480   0.177  1.3279 -0.6629  1.1642
 4210SOL    HW224090   3.048   0.577   0.233  0.6781  1.7430 -0.4550
 4211SOL     OW24091   3.810   3.054   2.427  0.3874 -0.4592  0.4563
 4211SOL    HW124092   3.895   3.009   2.435 -0.1985 -1.8572 -1.0751
 4211SOL    HW224093   3.817   3.089   2.338  1.0192  3.3731  2.0093
 4212SOL     OW24094   2.275   1.557   6.346 -0.1265  0.3274 -0.1870
 4212SOL    HW124095   2.256   1.548   6.253  1.3124  0.6325 -0.5105
 4212SOL    HW224096   2.317   1.476   6.377 -1.6464 -0.6785 -0.7971
 4213SOL     OW24097   2.722   4.503  15.557 -0.0225  0.2664 -0.1034
 4213SOL    HW124098   2.698   4.560  15.630  3.1480  2.0289 -0.4246
 4213SOL    HW224099   2.818   4.507  15.560 -0.0367 -0.5350  1.1557
 4214SOL     OW24100   0.138   0.648  14.390 -0.4498 -0.1780 -0.6480
 4214SOL    HW124101   0.134   0.741  14.367 -0.2733  0.2972  1.2695
 4214SOL    HW224102   0.144   0.598  14.308 -1.2512 -0.8342 -0.2994
 4215SOL     OW24103   1.263   1.938   4.990 -0.5124 -0.4738  0.0415
 4215SOL    HW124104   1.316   1.993   4.932  0.7403 -1.8033 -0.0780
 4215SOL    HW224105   1.208   1.896   4.924  1.3001  0.8150 -2.3052
 4216SOL     OW24106   4.141   2.103   3.867  0.1948  0.2479  0.3070
 4216SOL    HW124107   4.227   2.078   3.833 -0.3695 -0.9483 -0.2452
 4216SOL    HW224108   4.166   2.108   3.959 -1.1476  0.1473  0.6641
 4217SOL     OW24109   1.525   1.257  16.892 -0.3881 -0.6874 -0.3693
 4217SOL    HW124110   1.548   1.184  16.835  0.4275 -0.4717 -0.3268
 4217SOL    HW224111   1.465   1.309  16.838  0.2662 -1.2129 -1.5967
 4218SOL     OW24112   2.766   2.156   2.423 -0.1046  0.3934 -0.2516
 4218SOL    HW124113   2.827   2.128   2.354 -1.6337 -1.4726 -0.8589
 4218SOL    HW224114   2.706   2.212   2.375 -0.0377  0.5422 -0.1602
 4219SOL     OW24115   3.561   0.065   7.498 -0.2414  0.0240 -0.4346
 4219SOL    HW124116   3.488   0.120   7.470 -0.5800 -0.0547  0.2912
 4219SOL    HW224117   3.503   4.718   7.524  1.1637 -1.9214 -2.6468
 4220SOL     OW24118   0.487   3.467   8.413 -0.2713 -0.1143 -0.5192
 4220SOL    HW124119   0.447   3.551   8.391  0.2457  1.2866  3.7763
 4220SOL    HW224120   0.528   3.482   8.498 -3.8182 -1.1284  1.3473
 4221SOL     OW24121   3.367   3.503   5.188 -0.0405 -0.3246  0.1357
 4221SOL    HW124122   3.288   3.460   5.156 -0.3372 -0.6077  1.2511
 4221SOL    HW224123   3.408   3.428   5.231  0.8486  0.4880  0.7160
 4222SOL     OW24124   2.666   0.688   4.245  0.4205  0.6475 -0.1227
 4222SOL    HW124125   2.628   0.738   4.174  1.4456  0.3227 -0.9018
 4222SOL    HW224126   2.694   0.607   4.203 -3.3847  0.1514 -1.6553
 4223SOL     OW24127   1.719   4.431   8.349  0.2832 -0.2691  0.3130
 4223SOL    HW124128   1.713   4.514   8.394 -1.0411 -0.9247  1.3374
 4223SOL    HW224129   1.707   4.383   8.431  0.6312 -0.2723  0.3630
 4224SOL     OW24130   4.054   4.693   6.126 -0.0375 -0.2999  0.3390
 4224SOL    HW124131   4.031   0.034   6.059 -0.1329 -1.8027 -1.0862
 4224SOL    HW224132   4.013   0.006   6.204  0.2647 -0.8855  0.7678
 4225SOL     OW24133   3.415   1.586  13.404 -0.5678  0.2264 -0.2367
 4225SOL    HW124134   3.488   1.615  13.458 -1.6925  0.9747  0.8752
 4225SOL    HW224135   3.339   1.603  13.459  0.0805 -0.9778  1.0378
 4226SOL     OW24136   0.565   0.679   6.798  0.7077 -0.0723 -0.7613
 4226SOL    HW124137   0.491   0.629   6.763  0.9926 -0.1899 -1.1911
 4226SOL    HW224138   0.595   0.722   6.718 -1.0355 -0.3871 -1.5945
 4227SOL     OW24139   2.058   4.294   6.069 -0.5764 -0.7391  0.1569
 4227SOL    HW124140   2.150   4.275   6.050 -1.0853 -1.2256 -1.8376
 4227SOL    HW224141   2.073   4.372   6.122 -3.0341 -1.1888  1.4695
 4228SOL     OW24142   4.639   1.152   5.587 -0.3698  0.1430 -0.0017
 4228SOL    HW124143   4.582   1.197   5.650  0.4274  2.0242 -0.6170
 4228SOL    HW224144   4.705   1.127   5.652 -0.9847  0.7316  0.8442
 4229SOL     OW24145   4.662   3.691  11.781 -0.0543 -0.1465  0.2614
 4229SOL    HW124146   4.633   3.641  11.705  1.2161  0.7236 -0.7926
 4229SOL    HW224147   0.029   3.714  11.760  0.2676 -0.0654  1.6945
 4230SOL     OW24148   1.106   3.292   9.529 -0.2689  0.4531  0.5297
 4230SOL    HW124149   1.178   3.289   9.592 -0.5639 -0.3555  0.8213
 4230SOL    HW224150   1.049   3.223   9.562  0.5459 -1.6855 -2.5014
 4231SOL     OW24151   0.912   2.479   2.463 -0.6507  0.2468 -0.8706
 4231SOL    HW124152   0.960   2.474   2.546  2.3293 -0.2491 -2.6014
 4231SOL    HW224153   0.895   2.386   2.445 -0.4162  0.3531 -1.6716
 4232SOL     OW24154   2.343   2.375  16.088  0.1701  0.1661  0.7508
 4232SOL    HW124155   2.415   2.359  16.149  1.5807  2.2994 -0.3708
 4232SOL    HW224156   2.386   2.387  16.003 -0.3653  0.0516  0.4649
 4233SOL     OW24157   2.963   4.555   2.504  0.1164 -0.3499  0.1280
 4233SOL    HW124158   3.021   4.534   2.577  0.2619  2.2412  0.7612
 4233SOL    HW224159   3.014   4.627   2.468  0.8050 -0.2760  1.2678
 4234SOL     OW24160   2.185   1.403   8.753 -0.4256  0.0257 -0.3033
 4234SOL    HW124161   2.262   1.431   8.704 -1.1385  3.3034  0.4398
 4234SOL    HW224162   2.122   1.476   8.753 -1.0372 -0.5083  0.1152
 4235SOL     OW24163   1.836   3.583   6.871  0.4939  0.1612  0.3574
 4235SOL    HW124164   1.913   3.601   6.924 -0.3976  0.4337  1.5554
 4235SOL    HW224165   1.858   3.642   6.798  0.6281  0.2606  0.4779
 4236SOL     OW24166   3.200   1.229   1.861 -0.0287 -0.5404  0.3997
 4236SOL    HW124167   3.240   1.152   1.900  0.8456 -0.3896 -0.2153
 4236SOL    HW224168   3.226   1.215   1.770  1.0138 -1.0086  0.7794
 4237SOL     OW24169   0.372   2.581   6.225  0.1714 -0.5150 -0.6194
 4237SOL    HW124170   0.311   2.650   6.199  2.2782  0.9232 -1.8235
 4237SOL    HW224171   0.328   2.538   6.298 -1.2855  0.3077 -1.0130
 4238SOL     OW24172   3.289   3.959   7.172 -0.3828  0.7095  0.0853
 4238SOL    HW124173   3.377   3.995   7.180  0.4664 -1.5528  0.7709
 4238SOL    HW224174   3.300   3.885   7.231 -1.4836 -0.2770 -0.9375
 4239SOL     OW24175   2.489   0.874   4.713 -0.1849 -0.2340  0.4880
 4239SOL    HW124176   2.573   0.906   4.683  0.5730 -1.1396  1.6342
 4239SOL    HW224177   2.423   0.931   4.672 -1.3405 -2.4803 -0.7819
 4240SOL     OW24178   3.336   2.102   7.685  0.6068 -0.2119 -0.3118
 4240SOL    HW124179   3.379   2.185   7.662 -0.2400 -0.0557 -1.3005
 4240SOL    HW224180   3.264   2.137   7.737 -0.5744 -0.8086 -1.5616
 4241SOL     OW24181   1.338   1.874   9.966 -0.2835 -0.1939 -0.1224
 4241SOL    HW124182   1.410   1.814   9.949  0.5276  0.7618 -0.0943
 4241SOL    HW224183   1.387   1.956   9.975  1.2364 -1.2755  1.3591
 4242SOL     OW24184   2.548   0.916   0.270 -0.3576  0.1015 -0.3427
 4242SOL    HW124185   2.554   0.823   0.292 -1.3504 -0.2267 -1.4732
 4242SOL    HW224186   2.634   0.919   0.230  0.2757  0.6918  1.0583
 4243SOL     OW24187   2.174   1.392   0.105  0.0725  0.3699  0.4047
 4243SOL    HW124188   2.160   1.443   0.185  1.4227  0.2940  0.6768
 4243SOL    HW224189   2.146   1.455   0.039 -0.6460 -0.5253 -0.1519
 4244SOL     OW24190   0.667   0.343   4.097 -0.1378 -0.0119 -0.1326
 4244SOL    HW124191   0.597   0.343   4.032 -0.9770 -0.7218  0.7901
 4244SOL    HW224192   0.722   0.410   4.056  0.8003 -1.0776 -0.5926
 4245SOL     OW24193   4.109   2.007  15.518  0.0782 -0.0450 -0.2957
 4245SOL    HW124194   4.120   2.004  15.423  2.5645 -0.9624  0.0156
 4245SOL    HW224195   4.021   2.041  15.531  0.3694  0.7433 -0.4072
 4246SOL     OW24196   3.897   0.195   5.648  0.0028  0.0968 -0.3102
 4246SOL    HW124197   3.877   0.136   5.575 -1.9600  2.3269 -1.5922
 4246SOL    HW224198   3.841   0.270   5.628 -1.3864 -0.7530  0.4687
 4247SOL     OW24199   1.235   0.517   2.743 -0.0660  0.2697  0.0849
 4247SOL    HW124200   1.302   0.459   2.779  0.9691 -0.5899 -3.1788
 4247SOL    HW224201   1.283   0.546   2.665 -2.3222 -0.3156 -1.5476
 4248SOL     OW24202   3.319   4.169   4.145 -0.8105  0.1929 -0.2901
 4248SOL    HW124203   3.315   4.090   4.092 -1.8927  0.8566 -1.2026
 4248SOL    HW224204   3.367   4.231   4.090 -0.8134  1.6503  1.3598
 4249SOL     OW24205   0.072   2.944   4.594 -0.2637 -0.2903  0.1103
 4249SOL    HW124206   0.027   2.944   4.509 -1.1483 -1.0974  0.5860
 4249SOL    HW224207   0.020   2.882   4.644  0.0194 -0.4732  0.1745
 4250SOL     OW24208   4.391   4.123  11.384  0.0344  0.0103 -0.5500
 4250SOL    HW124209   4.416   4.143  11.294  0.3257  1.4686 -0.1367
 4250SOL    HW224210   4.449   4.188  11.424 -0.2929 -0.7048  1.0898
 4251SOL     OW24211   1.609   0.032   3.786 -0.0193  0.6204 -0.1402
 4251SOL    HW124212   1.539   0.034   3.851  1.1536 -2.0209  1.2077
 4251SOL    HW224213   1.686   0.029   3.843 -0.9151  1.0155  1.0959
 4252SOL     OW24214   2.269   1.628  16.464  0.5799 -0.2534 -0.1719
 4252SOL    HW124215   2.360   1.619  16.489  0.4208  1.9165  1.2351
 4252SOL    HW224216   2.242   1.536  16.456  1.3744 -0.4424 -0.5990
 4253SOL     OW24217   3.325   0.160   1.998  0.1478 -0.0261 -0.1234
 4253SOL    HW124218   3.408   0.169   2.045 -1.0208 -0.0157  1.9440
 4253SOL    HW224219   3.292   0.082   2.041 -0.4361  0.0802 -0.3709
 4254SOL     OW24220   0.659   1.590   8.585 -0.2777  0.4625  0.0143
 4254SOL    HW124221   0.722   1.519   8.575  2.7629  2.9112  1.8577
 4254SOL    HW224222   0.587   1.545   8.541  0.4119  0.7324 -1.3893
 4255SOL     OW24223   3.170   0.582   9.884  0.2647 -0.8312  0.2866
 4255SOL    HW124224   3.100   0.551   9.826 -0.6397 -0.9236  1.4441
 4255SOL    HW224225   3.149   0.671   9.909  0.2375 -0.2163 -1.8751
 4256SOL     OW24226   2.160   3.563   2.187 -0.2691 -0.3100 -0.1516
 4256SOL    HW124227   2.228   3.522   2.134 -0.2369 -1.9051  1.1533
 4256SOL    HW224228   2.209   3.640   2.218  0.8501 -0.6223 -1.1560
 4257SOL     OW24229   2.139   1.144   3.477 -0.4046 -0.6913  0.8484
 4257SOL    HW124230   2.171   1.183   3.395  0.4121  0.4410  1.7106
 4257SOL    HW224231   2.046   1.166   3.476 -0.2962 -0.1590  2.7494
 4258SOL     OW24232   0.963   4.497   6.145  0.3437 -0.0425  0.0852
 4258SOL    HW124233   0.907   4.561   6.103  0.2600  0.2951  0.7136
 4258SOL    HW224234   1.045   4.510   6.098 -0.6071 -0.3638 -1.6415
 4259SOL     OW24235   3.281   2.431   0.961  0.3112  0.2779 -0.4129
 4259SOL    HW124236   3.223   2.449   1.034  0.0801  0.0886 -0.5488
 4259SOL    HW224237   3.296   2.517   0.921  2.5304 -0.3684 -1.0030
 4260SOL     OW24238   1.942   3.256   1.750  0.5002 -0.4512  0.9873
 4260SOL    HW124239   1.993   3.245   1.670 -1.9081 -0.4716 -0.5241
 4260SOL    HW224240   1.942   3.350   1.766 -0.4946 -0.7313  2.6074
 4261SOL     OW24241   2.796   4.629  15.790  0.5610  0.1221  0.1617
 4261SOL    HW124242   2.816   4.607  15.881  0.4997  3.3682  0.9583
 4261SOL    HW224243   2.882   4.627  15.746 -0.6267  1.0291 -2.2240
 4262SOL     OW24244   3.342   0.603  14.029 -0.1558  0.5290  0.2168
 4262SOL    HW124245   3.302   0.618  13.943  2.3440  1.7921 -0.7232
 4262SOL    HW224246   3.426   0.578  13.988 -0.4350 -1.3803  0.8013
 4263SOL     OW24247   2.133   1.044   1.600  0.0134  0.5231  0.1794
 4263SOL    HW124248   2.201   1.005   1.655 -0.6683  0.1567  0.7667
 4263SOL    HW224249   2.082   0.967   1.574  0.4151 -0.2839  1.7865
 4264SOL     OW24250   1.392   1.780   6.005  0.3452 -0.5379 -0.7947
 4264SOL    HW124251   1.468   1.829   6.038 -0.6664  0.9966 -0.7306
 4264SOL    HW224252   1.372   1.811   5.917  2.4301  2.4376 -0.2460
 4265SOL     OW24253   4.124   0.840  16.205 -0.5277  0.6034  0.1976
 4265SOL    HW124254   4.179   0.761  16.198 -0.2238  1.0324 -2.1782
 4265SOL    HW224255   4.095   0.845  16.114 -0.2425 -0.3386  0.0548
 4266SOL     OW24256   4.429   0.838   4.876 -0.3029  0.2500 -0.3525
 4266SOL    HW124257   4.408   0.909   4.936 -1.3409 -0.8421  0.5743
 4266SOL    HW224258   4.507   0.879   4.839  0.2323  0.2109  0.7645
 4267SOL     OW24259   3.129   3.482  17.442 -0.8132  0.2298  0.8316
 4267SOL    HW124260   3.138   3.432  17.524 -1.4422 -0.4736  0.4727
 4267SOL    HW224261   3.223   3.483  17.425 -0.5422  0.3463  2.2930
 4268SOL     OW24262   2.129   2.067   0.815 -0.4446  0.5132 -0.2619
 4268SOL    HW124263   2.208   2.022   0.785  0.0059  0.5250  0.9165
 4268SOL    HW224264   2.170   2.138   0.865 -0.6385 -0.4287  1.2186
 4269SOL     OW24265   0.588   2.902   6.086 -0.5133  0.0078 -0.4621
 4269SOL    HW124266   0.549   2.883   6.000 -0.2601  4.6908 -1.6567
 4269SOL    HW224267   0.523   2.962   6.124  2.1037  3.0179 -0.6976
 4270SOL     OW24268   3.095   4.492   2.758  0.2858  0.6182 -0.3244
 4270SOL    HW124269   3.108   4.570   2.812 -0.0337  0.1329  0.4511
 4270SOL    HW224270   3.053   4.432   2.820 -1.5399  1.5005 -0.6993
 4271SOL     OW24271   0.181   0.499  12.142 -0.7384  0.2545  0.5805
 4271SOL    HW124272   0.145   0.422  12.187  0.1951  0.0374  0.9630
 4271SOL    HW224273   0.113   0.515  12.077 -0.7618 -1.3493  0.2079
 4272SOL     OW24274   1.190   0.571   7.246 -0.1095 -0.2280  0.3593
 4272SOL    HW124275   1.190   0.516   7.325 -1.6076  2.5784  2.3444
 4272SOL    HW224276   1.164   0.513   7.175 -1.9098  1.1525 -0.1001
 4273SOL     OW24277   3.131   2.350   1.901  0.5289 -0.2189  0.2236
 4273SOL    HW124278   3.046   2.355   1.857  1.4952  0.1450 -1.5950
 4273SOL    HW224279   3.113   2.273   1.954  1.0529  0.0225  0.7434
 4274SOL     OW24280   2.081   2.161   5.338  0.3567  0.0607  0.2302
 4274SOL    HW124281   2.021   2.186   5.268  0.6590  2.1807  0.7150
 4274SOL    HW224282   2.093   2.237   5.395  2.0249 -0.9833  1.2727
 4275SOL     OW24283   2.329   2.817   8.666 -0.3111 -0.8558 -0.1985
 4275SOL    HW124284   2.267   2.890   8.673  0.1241 -0.7078  2.3035
 4275SOL    HW224285   2.402   2.854   8.716 -1.8478  0.5704  0.9797
 4276SOL     OW24286   1.449   0.546   5.498  0.4390 -0.7646 -0.4013
 4276SOL    HW124287   1.492   0.568   5.416  1.1730  1.4353  0.5900
 4276SOL    HW224288   1.358   0.570   5.481  1.0568  0.0745 -2.4731
 4277SOL     OW24289   3.960   3.009  12.344  0.6642  0.2045  0.4640
 4277SOL    HW124290   3.986   2.941  12.282 -1.8386 -2.3516  2.2065
 4277SOL    HW224291   3.966   3.090  12.293  0.0993 -0.2372 -0.3158
 4278SOL     OW24292   1.609   0.728   6.913  0.0352  0.2936 -0.0312
 4278SOL    HW124293   1.647   0.644   6.889  0.5973  0.0496  1.7071
 4278SOL    HW224294   1.681   0.790   6.904  0.8982 -0.8590 -0.8287
 4279SOL     OW24295   0.870   0.042   1.368 -0.0540  0.0411  0.4863
 4279SOL    HW124296   0.849   0.129   1.332 -3.4881 -0.3966  1.4596
 4279SOL    HW224297   0.964   0.048   1.351  0.1192  0.6238  1.7162
 4280SOL     OW24298   1.498   0.196   6.698  0.2057  0.6615 -0.3798
 4280SOL    HW124299   1.458   0.261   6.756 -0.5540 -0.6830  0.5881
 4280SOL    HW224300   1.587   0.229   6.683  0.2023  0.9133  0.1484
 4281SOL     OW24301   1.277   1.835   5.547  0.3544 -0.5063 -0.3369
 4281SOL    HW124302   1.290   1.909   5.488  1.0661 -0.4992 -0.1673
 4281SOL    HW224303   1.199   1.798   5.505 -0.6147  2.1895 -0.8869
 4282SOL     OW24304   1.681   3.750   4.225  0.1762 -0.3765 -0.5976
 4282SOL    HW124305   1.709   3.804   4.299 -1.2647 -2.4169  1.4393
 4282SOL    HW224306   1.708   3.804   4.150  0.7825  0.8208  0.4975
 4283SOL     OW24307   3.105   0.376   6.024 -0.2361  0.1289  0.0898
 4283SOL    HW124308   3.168   0.353   5.956  1.2313  0.3621  1.3748
 4283SOL    HW224309   3.129   0.324   6.101 -1.0017  1.2148  1.0664
 4284SOL     OW24310   3.967   1.075  16.333 -1.0173  0.2505 -0.1711
 4284SOL    HW124311   3.899   1.142  16.344 -1.1239 -0.4200  3.0922
 4284SOL    HW224312   3.931   1.048  16.248 -3.5975  0.7984  0.7459
 4285SOL     OW24313   1.386   2.283   5.072 -0.0791  0.5255 -0.2236
 4285SOL    HW124314   1.403   2.192   5.096 -1.1806  0.7569  1.4757
 4285SOL    HW224315   1.447   2.337   5.123 -0.0539  0.8500 -0.5984
 4286SOL     OW24316   1.382   3.165   4.939  0.0838 -0.6098  0.6728
 4286SOL    HW124317   1.292   3.196   4.926  0.9221  0.8140 -1.8543
 4286SOL    HW224318   1.426   3.244   4.970  0.0203 -0.9125  1.5200
 4287SOL     OW24319   0.977   1.768   3.650  0.2907  0.1549 -0.5247
 4287SOL    HW124320   0.946   1.858   3.640  1.6615  0.8445  1.5727
 4287SOL    HW224321   0.972   1.746   3.743  0.0626 -1.8320 -0.9990
 4288SOL     OW24322   2.228   1.928  12.763 -0.0073  0.5153 -0.0754
 4288SOL    HW124323   2.208   1.973  12.845  5.1348  3.4823 -0.4697
 4288SOL    HW224324   2.283   1.863  12.806  1.7095  1.6749 -0.5280
 4289SOL     OW24325   1.615   4.069   6.079  0.3072 -0.0226 -0.0859
 4289SOL    HW124326   1.610   4.078   6.174  0.6211  1.4539 -0.2149
 4289SOL    HW224327   1.633   3.975   6.077  0.1910 -0.0629  0.6366
 4290SOL     OW24328   0.446   4.362   7.454 -0.2075  0.4103 -0.2358
 4290SOL    HW124329   0.359   4.374   7.493  0.2932 -1.4466  1.5115
 4290SOL    HW224330   0.500   4.366   7.533 -0.9611  1.1641  0.2437
 4291SOL     OW24331   3.238   2.371   7.003  0.1334  0.0869 -0.5711
 4291SOL    HW124332   3.180   2.304   6.967 -1.0037  0.9421 -0.3425
 4291SOL    HW224333   3.179   2.444   7.019  0.6478 -0.2256  2.7615
 4292SOL     OW24334   2.205   2.165   6.474 -0.1239 -0.6529 -0.5258
 4292SOL    HW124335   2.268   2.213   6.528  0.7002 -1.9409 -0.3465
 4292SOL    HW224336   2.136   2.139   6.534  0.4500  0.6413  0.6881
 4293SOL     OW24337   0.542   3.685   9.385 -0.0771  0.0047  0.2917
 4293SOL    HW124338   0.459   3.673   9.338 -0.5940  3.0653  0.4707
 4293SOL    HW224339   0.513   3.668   9.475 -1.7179  0.3916 -0.1558
 4294SOL     OW24340   1.905   0.127   8.918 -0.6325 -0.2853  0.2227
 4294SOL    HW124341   2.000   0.117   8.918 -0.6099 -0.1208 -0.4258
 4294SOL    HW224342   1.900   0.193   8.987 -0.6147 -2.2072  2.0620
 4295SOL     OW24343   1.615   2.039   4.920  0.0673  0.2704  0.3104
 4295SOL    HW124344   1.687   2.039   4.983  0.4927  1.5241 -0.1816
 4295SOL    HW224345   1.670   2.070   4.848  0.2570 -0.6480  0.0592
 4296SOL     OW24346   4.091   1.692   3.172  0.5445  0.4865  0.3015
 4296SOL    HW124347   4.087   1.642   3.090  1.7605  0.2126  0.4065
 4296SOL    HW224348   4.013   1.747   3.175  0.1180 -0.0583 -0.7252
 4297SOL     OW24349   1.350   2.373   3.167  0.1298  0.5652 -0.5833
 4297SOL    HW124350   1.416   2.353   3.101 -1.1416 -1.6414 -1.1940
 4297SOL    HW224351   1.360   2.306   3.235  4.1325 -0.9402 -2.6940
 4298SOL     OW24352   1.581   2.098   4.472 -0.5415 -0.0927  0.4296
 4298SOL    HW124353   1.501   2.080   4.423  0.8123  0.2547 -1.9515
 4298SOL    HW224354   1.633   2.153   4.412  0.9350 -0.1547  1.6378
 4299SOL     OW24355   3.139   0.813   2.708 -0.0852 -0.5746  0.2929
 4299SOL    HW124356   3.054   0.790   2.748 -0.6133 -0.2341 -0.6378
 4299SOL    HW224357   3.172   0.726   2.686 -1.0262 -0.8849  0.0983
 4300SOL     OW24358   3.676   1.819   9.025  0.5445 -0.0673  0.1373
 4300SOL    HW124359   3.721   1.882   9.082  2.5051 -0.8312 -0.5336
 4300SOL    HW224360   3.661   1.751   9.090  0.0919  0.4830  0.6066
 4301SOL     OW24361   2.088   3.176   2.034 -0.1350  0.5538 -0.1977
 4301SOL    HW124362   2.158   3.187   1.970 -0.6794 -0.3800 -0.9519
 4301SOL    HW224363   2.127   3.217   2.111 -0.1033  1.6971 -0.8298
 4302SOL     OW24364   2.396   3.742   4.706 -0.6594  0.2410  0.5093
 4302SOL    HW124365   2.334   3.798   4.660 -0.3660  1.0294  1.0772
 4302SOL    HW224366   2.342   3.730   4.785 -0.2192  0.9311  0.9156
 4303SOL     OW24367   1.780   3.827   8.658  0.3659  0.2790  0.0451
 4303SOL    HW124368   1.833   3.819   8.579  0.7436 -2.7564  0.5969
 4303SOL    HW224369   1.718   3.766   8.618  0.6392  0.2233 -0.2859
 4304SOL     OW24370   0.909   1.892   2.994  0.4830  0.2945 -0.2265
 4304SOL    HW124371   0.823   1.896   3.037  1.6433  2.7528  1.8833
 4304SOL    HW224372   0.895   1.845   2.912 -1.9314  1.3073 -0.3857
 4305SOL     OW24373   1.711   2.135   1.710  0.1026  0.0281  0.2591
 4305SOL    HW124374   1.740   2.194   1.780  1.7939 -2.7164  1.8525
 4305SOL    HW224375   1.674   2.205   1.655 -0.0643  2.7740  3.8856
 4306SOL     OW24376   4.518   3.453   3.532  0.1392  0.3703 -0.2437
 4306SOL    HW124377   4.458   3.472   3.604 -2.2073  0.8471 -2.3434
 4306SOL    HW224378   4.469   3.480   3.454  1.5300 -0.1706 -1.3039
 4307SOL     OW24379   3.123   2.388   6.290 -0.2334  0.0846 -0.4989
 4307SOL    HW124380   3.169   2.409   6.371  2.7985  0.6949 -2.3893
 4307SOL    HW224381   3.177   2.438   6.229 -2.6686  0.6843 -2.1598
 4308SOL     OW24382   4.126   1.221   4.952  0.0170 -0.7221  0.0621
 4308SOL    HW124383   4.125   1.144   4.894 -3.2239  0.7928 -1.8786
 4308SOL    HW224384   4.084   1.187   5.031  0.7169 -2.9217 -0.5091
 4309SOL     OW24385   3.138   1.022   8.293 -0.7574  0.1693  0.4358
 4309SOL    HW124386   3.059   1.076   8.283 -1.6121 -0.9267  1.3229
 4309SOL    HW224387   3.208   1.087   8.292 -1.4091  0.9129  2.1475
 4310SOL     OW24388   0.524   1.418   2.740 -0.6698 -0.0799  0.0945
 4310SOL    HW124389   0.530   1.475   2.816  0.8253  0.3912 -0.3676
 4310SOL    HW224390   0.456   1.459   2.686  1.1437  2.7008 -0.0728
 4311SOL     OW24391   0.881   1.888   8.413  0.0321 -0.1106 -0.7083
 4311SOL    HW124392   0.792   1.905   8.382 -0.4439 -2.3240 -0.5755
 4311SOL    HW224393   0.896   1.974   8.451 -0.4524 -0.9277  1.3640
 4312SOL     OW24394   3.459   3.488   4.549 -0.3390 -0.1418  0.2948
 4312SOL    HW124395   3.470   3.428   4.475 -1.8134 -1.3433  1.0492
 4312SOL    HW224396   3.363   3.487   4.549 -0.3603  1.2410 -0.7266
 4313SOL     OW24397   0.510   3.641   5.375 -0.0611  0.3281  0.5807
 4313SOL    HW124398   0.456   3.695   5.317  1.0559  0.5695 -0.2449
 4313SOL    HW224399   0.549   3.590   5.304 -0.4387  2.5817 -1.2571
 4314SOL     OW24400   2.073   1.972   9.404 -0.0348  0.1870  0.1690
 4314SOL    HW124401   2.026   2.010   9.478 -2.4421 -1.4986 -0.4764
 4314SOL    HW224402   2.111   1.889   9.436 -2.3848 -1.2856 -0.8720
 4315SOL     OW24403   4.695   1.597   2.002 -0.0851 -0.3050 -0.4872
 4315SOL    HW124404   4.633   1.608   2.074  0.5165  1.3765 -0.2232
 4315SOL    HW224405   4.643   1.588   1.922 -0.2224  0.7084 -0.5142
 4316SOL     OW24406   4.114   3.031   5.466  0.3112  0.4437  0.1049
 4316SOL    HW124407   4.210   3.033   5.460  0.3872  0.5990  1.4759
 4316SOL    HW224408   4.088   3.004   5.378  3.3060 -0.2848 -0.5847
 4317SOL     OW24409   3.761   1.236   9.588  0.7222  0.0953 -0.0094
 4317SOL    HW124410   3.722   1.163   9.636 -0.5274  1.2266  0.7052
 4317SOL    HW224411   3.839   1.195   9.552 -0.0330 -0.6561 -0.7931
 4318SOL     OW24412   2.564   0.969  17.452  0.0053 -0.6729 -0.4187
 4318SOL    HW124413   2.556   1.026  17.375 -0.5280  2.1394  1.7304
 4318SOL    HW224414   2.592   1.034  17.516 -0.6089  0.6590 -1.5039
 4319SOL     OW24415   4.561   4.241  16.362  0.4679  0.5204 -0.5908
 4319SOL    HW124416   4.503   4.215  16.290 -1.2883 -0.6848  1.2449
 4319SOL    HW224417   4.529   4.181  16.429  1.2542 -2.5313 -2.9625
 4320SOL     OW24418   3.582   4.170   5.109 -0.1341  0.4806  0.2734
 4320SOL    HW124419   3.571   4.075   5.110  0.1598  0.4495  0.5137
 4320SOL    HW224420   3.560   4.185   5.201  0.3420 -0.1718  0.4934
 4321SOL     OW24421   1.679   0.353  12.690 -0.3631  0.0540  0.2006
 4321SOL    HW124422   1.586   0.373  12.682 -0.9362 -1.7868  2.3190
 4321SOL    HW224423   1.703   0.443  12.715  0.3817  0.0665 -0.5571
 4322SOL     OW24424   3.761   1.464   4.448  0.2530  0.4825 -0.2853
 4322SOL    HW124425   3.678   1.506   4.470 -0.3280 -1.3372  0.9136
 4322SOL    HW224426   3.735   1.421   4.367 -0.5921 -0.5126  0.5225
 4323SOL     OW24427   1.617   2.194   8.817 -0.3429 -0.4266 -0.2474
 4323SOL    HW124428   1.676   2.210   8.890 -0.3769  0.9543 -0.5075
 4323SOL    HW224429   1.634   2.101   8.809 -0.8310 -0.5250 -0.1495
 4324SOL     OW24430   3.158   4.654  15.971 -0.1361 -0.0350 -0.0464
 4324SOL    HW124431   3.066   4.681  15.979 -0.0629  0.0353  0.5412
 4324SOL    HW224432   3.190   4.720  15.910 -0.2401 -0.0927 -0.1642
 4325SOL     OW24433   1.992   3.946   5.115 -0.2312  0.0062 -0.4487
 4325SOL    HW124434   1.898   3.951   5.099 -0.7796  0.1881  2.7608
 4325SOL    HW224435   1.989   3.868   5.172  2.2004 -0.0913 -0.4693
 4326SOL     OW24436   4.266   1.243   5.994 -0.3703  0.2547 -0.0556
 4326SOL    HW124437   4.221   1.326   6.008  1.0868  1.1598 -0.6958
 4326SOL    HW224438   4.202   1.178   5.965 -1.8128  1.0293  1.4296
 4327SOL     OW24439   3.337   4.065   3.854  0.1431 -0.0926  0.6994
 4327SOL    HW124440   3.325   3.975   3.886  2.2333  0.0762  1.9580
 4327SOL    HW224441   3.391   4.062   3.776  0.3496  2.4002  0.7416
 4328SOL     OW24442   1.504   4.629   1.825  0.5279 -0.5398  0.4456
 4328SOL    HW124443   1.522   4.723   1.825 -1.7476 -0.0877 -1.6313
 4328SOL    HW224444   1.473   4.620   1.735 -1.0385 -0.4997  0.9857
 4329SOL     OW24445   1.634   4.347   1.816  0.0739  0.3244  0.0527
 4329SOL    HW124446   1.711   4.292   1.804 -0.1300  0.1681 -0.5789
 4329SOL    HW224447   1.567   4.291   1.775  0.9021 -0.3741 -0.3568
 4330SOL     OW24448   2.492   4.397  12.651  0.4229  0.4224  0.2535
 4330SOL    HW124449   2.559   4.331  12.668 -0.5751 -0.3311  1.2247
 4330SOL    HW224450   2.541   4.465  12.603 -0.4057  1.7130  1.2214
 4331SOL     OW24451   1.657   4.533   3.452 -0.0560 -0.1488 -0.1764
 4331SOL    HW124452   1.717   4.461   3.470  0.2860  0.5335  1.4174
 4331SOL    HW224453   1.585   4.486   3.410 -0.9201  0.2568  0.8470
 4332SOL     OW24454   0.806   4.649   2.787 -0.1400 -0.1463  0.4012
 4332SOL    HW124455   0.754   4.713   2.738 -1.9049  0.0755  2.5996
 4332SOL    HW224456   0.834   4.595   2.713  0.0727  1.1439 -0.4785
 4333SOL     OW24457   0.954   3.350   6.682  0.4266  0.5119 -0.1380
 4333SOL    HW124458   0.907   3.425   6.647 -0.1421 -0.7120 -1.9831
 4333SOL    HW224459   0.942   3.371   6.775  0.3365 -0.3263  0.0426
 4334SOL     OW24460   0.767   2.916   2.127  0.1072  0.0964  0.1626
 4334SOL    HW124461   0.679   2.882   2.114 -0.8493  2.3778  0.5709
 4334SOL    HW224462   0.777   2.892   2.219 -2.5090  0.5741  0.5731
 4335SOL     OW24463   0.940   4.328  10.165  0.3186 -0.0842  0.0663
 4335SOL    HW124464   0.979   4.354  10.249  2.0515 -0.6943 -0.5478
 4335SOL    HW224465   1.000   4.371  10.104 -2.1550 -0.0996 -2.3877
 4336SOL     OW24466   3.478   4.401   4.008  0.3173  0.4412 -0.1454
 4336SOL    HW124467   3.573   4.391   4.010  0.0642 -1.3054  2.4698
 4336SOL    HW224468   3.461   4.457   4.084 -2.4458 -0.3365 -0.1787
 4337SOL     OW24469   2.915   3.465  13.932  0.5473  0.5214 -0.1216
 4337SOL    HW124470   2.888   3.449  13.842 -0.7378 -0.1589  0.3708
 4337SOL    HW224471   2.903   3.560  13.933 -1.1272  0.3109  0.0093
 4338SOL     OW24472   3.695   2.206  13.748 -0.4986 -0.2082  0.2363
 4338SOL    HW124473   3.684   2.222  13.841  0.9539 -2.7949  0.8517
 4338SOL    HW224474   3.665   2.290  13.713  1.3434  1.1585  1.9252
 4339SOL     OW24475   1.174   1.121  10.453 -0.6703 -0.3615  0.0957
 4339SOL    HW124476   1.162   1.039  10.405  3.0734 -1.8087  1.5691
 4339SOL    HW224477   1.269   1.128  10.446 -0.7312  1.7623  1.1830
 4340SOL     OW24478   3.087   4.336   6.762 -0.6921  0.2823  0.1893
 4340SOL    HW124479   3.049   4.359   6.677 -0.3733  0.5727  0.1235
 4340SOL    HW224480   3.113   4.415   6.810  2.0728  0.0605 -0.9436
 4341SOL     OW24481   2.366   3.109   5.796 -0.1176  0.6568  0.1453
 4341SOL    HW124482   2.396   3.079   5.883  0.0703 -0.7917 -0.4145
 4341SOL    HW224483   2.440   3.160   5.764  0.4008  0.1906  0.5849
 4342SOL     OW24484   0.475   1.732   5.926  0.2723 -0.1262 -0.1174
 4342SOL    HW124485   0.482   1.761   6.017 -1.1628 -1.0827  0.2931
 4342SOL    HW224486   0.480   1.814   5.876  0.8360 -0.8153 -1.1855
 4343SOL     OW24487   4.407   3.620   4.040  0.3125  0.7041 -0.4877
 4343SOL    HW124488   4.413   3.712   4.065 -0.3219  0.6294 -0.0712
 4343SOL    HW224489   4.324   3.619   3.993  1.1154 -1.2637 -1.8655
 4344SOL     OW24490   1.353   4.399   3.309  0.0125  0.1422 -0.0836
 4344SOL    HW124491   1.336   4.352   3.228  2.3706  0.3838 -0.7302
 4344SOL    HW224492   1.276   4.455   3.323 -1.3856 -1.8133 -0.0069
 4345SOL     OW24493   3.497   2.194   7.154  0.2483  0.4982  0.0685
 4345SOL    HW124494   3.509   2.233   7.067 -1.4949  0.8105 -0.0289
 4345SOL    HW224495   3.483   2.274   7.204 -0.7072  1.1927 -1.3086
 4346SOL     OW24496   0.211   2.605   7.377  0.1981  0.5365 -0.1790
 4346SOL    HW124497   0.278   2.673   7.365 -1.2775  1.7786 -1.2958
 4346SOL    HW224498   0.145   2.634   7.315 -2.0924 -1.9645  1.1177
 4347SOL     OW24499   3.549   1.139   5.974  0.2443  0.2818 -0.2266
 4347SOL    HW124500   3.519   1.202   6.040 -0.0063  1.2784 -1.2844
 4347SOL    HW224501   3.640   1.120   5.997  0.3929  0.1521 -0.9210
 4348SOL     OW24502   1.948   3.925  11.842 -0.0850 -0.3343 -0.7588
 4348SOL    HW124503   1.878   3.936  11.778 -0.3223  0.0561 -0.4278
 4348SOL    HW224504   1.974   4.017  11.853  1.0743 -0.5122 -1.8972
 4349SOL     OW24505   2.621   2.663   3.986 -0.6010  0.4880  0.2796
 4349SOL    HW124506   2.676   2.628   4.057 -2.6051  2.8002  2.9700
 4349SOL    HW224507   2.653   2.607   3.915  1.0629  1.8575 -0.0465
 4350SOL     OW24508   2.412   2.057  10.311 -0.0754 -0.0589  0.3856
 4350SOL    HW124509   2.329   2.060  10.262  1.6550  0.9985 -2.4867
 4350SOL    HW224510   2.461   2.119  10.257 -1.1415  0.8273  0.4228
 4351SOL     OW24511   3.224   0.767   6.630  0.0938  0.2217 -0.6223
 4351SOL    HW124512   3.216   0.742   6.722  0.2646  0.3122 -0.5833
 4351SOL    HW224513   3.204   0.861   6.635 -0.9402  0.0147 -0.7214
 4352SOL     OW24514   2.526   2.904   4.164  0.1302 -0.2300 -0.6122
 4352SOL    HW124515   2.503   2.835   4.102 -1.3209  1.0804 -1.5441
 4352SOL    HW224516   2.612   2.872   4.191  0.0766  0.1444  0.0074
 4353SOL     OW24517   0.796   0.949   2.771 -0.4608  0.1845 -0.2311
 4353SOL    HW124518   0.833   0.891   2.705  1.8195 -1.5023  2.5614
 4353SOL    HW224519   0.783   0.886   2.842 -0.3573 -0.7613 -1.0445
 4354SOL     OW24520   1.284   2.991   4.602 -0.5633  0.3001  0.4239
 4354SOL    HW124521   1.339   3.055   4.648  2.2059 -2.0172  0.3871
 4354SOL    HW224522   1.316   2.912   4.647 -0.3408  0.3750  0.3993
 4355SOL     OW24523   0.701   1.378  11.558  0.5332  0.5030 -0.0722
 4355SOL    HW124524   0.607   1.365  11.545  0.7029 -2.4929  1.7355
 4355SOL    HW224525   0.724   1.432  11.482  0.2140  2.8495  1.4941
 4356SOL     OW24526   4.255   2.476  15.034 -0.7037 -0.1768 -0.3093
 4356SOL    HW124527   4.174   2.479  14.983 -0.4939  1.8537 -0.5016
 4356SOL    HW224528   4.247   2.403  15.095 -0.0310  0.4120  0.4691
 4357SOL     OW24529   1.329   1.942   5.784 -0.4212  0.8567  0.3592
 4357SOL    HW124530   1.255   2.000   5.804  0.3922  1.5570  1.3318
 4357SOL    HW224531   1.296   1.904   5.703 -1.0643  0.1332  0.9482
 4358SOL     OW24532   2.428   4.599   7.010  0.7837  0.7637  0.3494
 4358SOL    HW124533   2.402   4.508   7.026  0.7408  0.6068 -0.6149
 4358SOL    HW224534   2.522   4.592   7.026  0.7645 -1.5992 -0.5789
 4359SOL     OW24535   4.094   1.454   4.083 -0.7381 -0.0789 -0.2684
 4359SOL    HW124536   4.071   1.533   4.131  0.9421  0.0470  0.3469
 4359SOL    HW224537   4.084   1.389   4.152  2.4206 -0.4155 -0.1253
 4360SOL     OW24538   0.826   1.098   7.679  0.2849  0.3396  0.6956
 4360SOL    HW124539   0.785   1.031   7.625 -2.2715  1.9437  0.6742
 4360SOL    HW224540   0.761   1.166   7.662  0.0754  0.2915  1.3208
 4361SOL     OW24541   2.186   1.742   9.536  0.2858  0.0100  0.3226
 4361SOL    HW124542   2.147   1.694   9.609 -1.5475  0.3036 -0.4737
 4361SOL    HW224543   2.273   1.701   9.534  0.0038 -0.5252 -0.8956
 4362SOL     OW24544   3.313   2.665  15.525  0.4339 -0.4123 -0.1140
 4362SOL    HW124545   3.287   2.691  15.436  0.3494  2.1876  0.6726
 4362SOL    HW224546   3.372   2.738  15.543  0.7579 -0.7267  0.0903
 4363SOL     OW24547   1.460   3.992   2.035  0.2531 -0.0024 -0.0679
 4363SOL    HW124548   1.496   4.075   2.067  0.4573 -1.1135  2.5666
 4363SOL    HW224549   1.365   4.002   2.039  0.2629  0.7480 -1.8934
 4364SOL     OW24550   3.465   4.634   6.565  0.1640  0.2950  0.3969
 4364SOL    HW124551   3.416   4.558   6.533  0.9433  0.3911 -1.0579
 4364SOL    HW224552   3.537   4.644   6.502  1.2880  1.3113  1.8446
 4365SOL     OW24553   0.218   3.308   8.753 -0.1455 -0.2275 -0.4356
 4365SOL    HW124554   0.159   3.373   8.715  1.0513  1.5191  0.6588
 4365SOL    HW224555   0.162   3.235   8.777  1.4682 -1.7731 -1.3269
 4366SOL     OW24556   4.279   0.791  14.926 -0.4005  0.7467  0.0860
 4366SOL    HW124557   4.241   0.874  14.899 -0.4243 -0.2077 -2.7866
 4366SOL    HW224558   4.227   0.731  14.873  1.7579  1.3775 -2.7880
 4367SOL     OW24559   0.293   2.766  10.558 -0.1822  0.1634  0.1680
 4367SOL    HW124560   0.381   2.731  10.570 -0.0855  0.0879 -0.7923
 4367SOL    HW224561   0.240   2.688  10.578  0.6056 -0.2532  0.6172
 4368SOL     OW24562   3.378   2.723  13.476 -0.8865 -0.4420  0.1856
 4368SOL    HW124563   3.401   2.640  13.433  1.9055  1.0196 -1.1353
 4368SOL    HW224564   3.291   2.734  13.437 -0.5927 -0.9687 -0.6339
 4369SOL     OW24565   4.702   4.239   6.443 -0.8804 -0.1360  0.0169
 4369SOL    HW124566   4.658   4.216   6.526  0.1774 -1.3052  0.2546
 4369SOL    HW224567   0.018   4.155   6.419  1.6493  1.3199 -0.7514
 4370SOL     OW24568   0.077   0.452   4.280 -0.0633 -0.0763  0.4584
 4370SOL    HW124569   0.154   0.436   4.225  0.7902  2.1546  1.0234
 4370SOL    HW224570   0.007   0.414   4.228  1.6628 -0.0381 -1.8838
 4371SOL     OW24571   3.853   1.994  13.644  0.6387  0.1293 -0.2751
 4371SOL    HW124572   3.812   2.069  13.686 -2.2002 -0.3238 -2.2079
 4371SOL    HW224573   3.800   1.991  13.564 -0.2603  1.6747  0.2517
 4372SOL     OW24574   1.694   4.421   2.464  0.2033  0.0182  0.5288
 4372SOL    HW124575   1.735   4.506   2.483 -1.0217  0.4217  1.4026
 4372SOL    HW224576   1.607   4.426   2.504 -0.7584  0.6139 -1.6462
 4373SOL     OW24577   2.407   3.435   5.321 -0.2745  0.0264  0.3315
 4373SOL    HW124578   2.385   3.402   5.234  1.2615 -2.1085  0.7425
 4373SOL    HW224579   2.377   3.521   5.293 -1.6678 -0.5573  0.0328
 4374SOL     OW24580   4.210   3.842  14.888 -0.4504 -0.5912  0.2829
 4374SOL    HW124581   4.277   3.773  14.883  1.6842  1.7166 -2.7495
 4374SOL    HW224582   4.166   3.827  14.972  1.0587 -2.4175  0.7562
 4375SOL     OW24583   4.304   3.406  16.342  0.2568  0.4124  0.3100
 4375SOL    HW124584   4.213   3.435  16.331 -0.3314 -0.7931  2.0243
 4375SOL    HW224585   4.343   3.421  16.256 -0.6389  1.7475  0.1420
 4376SOL     OW24586   2.993   3.305  10.773  0.3599  0.0009 -0.2478
 4376SOL    HW124587   2.942   3.238  10.728  0.1779  0.0089 -0.0511
 4376SOL    HW224588   2.949   3.385  10.745 -2.3719 -1.4881 -0.2074
 4377SOL     OW24589   4.458   3.656   6.989  0.3200  0.0437 -0.1981
 4377SOL    HW124590   4.444   3.563   7.009  1.9374 -0.8170 -3.1146
 4377SOL    HW224591   4.437   3.649   6.896  0.4929 -1.9092 -0.1035
 4378SOL     OW24592   0.369   4.571  16.702 -0.1632  0.4400  0.0799
 4378SOL    HW124593   0.284   4.537  16.672 -0.2348  1.8397 -1.3026
 4378SOL    HW224594   0.408   4.485  16.718 -1.3613  0.0836  1.0953
 4379SOL     OW24595   2.555   4.065   7.477 -0.0466  1.0313  0.0687
 4379SOL    HW124596   2.547   4.044   7.384 -2.6984  2.2865  0.0109
 4379SOL    HW224597   2.602   3.985   7.502 -1.0281  0.5823  0.4732
 4380SOL     OW24598   3.275   2.448   8.472 -0.3493 -0.3555  0.0993
 4380SOL    HW124599   3.287   2.513   8.541  0.0509  0.6769 -0.9441
 4380SOL    HW224600   3.268   2.369   8.526  0.1278 -0.2757  0.2764
 4381SOL     OW24601   2.112   4.299   8.430  0.1462  0.0546  0.2247
 4381SOL    HW124602   2.037   4.314   8.373 -0.8655  0.7601  1.7143
 4381SOL    HW224603   2.178   4.358   8.394  1.3154 -2.2311 -1.3474
 4382SOL     OW24604   2.722   0.051  15.153  0.2725  0.7567  0.2647
 4382SOL    HW124605   2.763   0.108  15.087  1.1319  1.4392  1.3812
 4382SOL    HW224606   2.805   0.029  15.196 -1.2580 -1.3327  2.1183
 4383SOL     OW24607   1.845   4.012   3.552  0.1365 -0.1626 -0.6268
 4383SOL    HW124608   1.907   4.016   3.625 -2.4119 -0.8285  1.5522
 4383SOL    HW224609   1.784   3.954   3.597  0.5700 -0.3892 -0.3268
 4384SOL     OW24610   0.092   0.118   8.074 -0.0027  0.5024  0.5114
 4384SOL    HW124611   4.724   0.094   8.081 -0.3247  1.6415  0.1997
 4384SOL    HW224612   0.122   0.040   8.028  0.8618  1.8029 -1.1334
 4385SOL     OW24613   1.574   1.808  16.309 -0.4097  0.1489  0.2841
 4385SOL    HW124614   1.650   1.786  16.255 -0.7463  1.6964 -0.8331
 4385SOL    HW224615   1.627   1.836  16.383  2.9116  0.7814 -2.3184
 4386SOL     OW24616   2.345   3.645   2.990  0.0766 -0.4021  0.0788
 4386SOL    HW124617   2.348   3.552   2.968 -1.4803 -0.0237 -1.6848
 4386SOL    HW224618   2.273   3.679   2.937  0.2366 -0.2527 -0.0407
 4387SOL     OW24619   3.614   3.242   6.674  0.2515  0.2339 -0.0139
 4387SOL    HW124620   3.548   3.288   6.725 -0.1801 -0.9146  0.4613
 4387SOL    HW224621   3.596   3.156   6.712  1.5043  0.8916  2.0995
 4388SOL     OW24622   0.290   0.676  16.199  0.0017 -0.1095  0.2292
 4388SOL    HW124623   0.250   0.680  16.286 -1.2756  1.7329 -0.4266
 4388SOL    HW224624   0.241   0.601  16.165 -0.4814  0.1080  0.4419
 4389SOL     OW24625   1.554   3.357   5.220  0.6049 -0.6840  1.0813
 4389SOL    HW124626   1.547   3.412   5.141  0.9178  1.0215  2.2280
 4389SOL    HW224627   1.466   3.322   5.234 -0.1787  0.6954 -0.3041
 4390SOL     OW24628   4.685   0.572   4.515 -0.5738 -0.3125 -0.0531
 4390SOL    HW124629   0.014   0.536   4.444  0.3658 -0.1280  0.5513
 4390SOL    HW224630   0.019   0.570   4.591 -0.4417 -1.2676 -0.1854
 4391SOL     OW24631   2.412   2.968   6.568 -0.0952  0.0409  0.5027
 4391SOL    HW124632   2.377   3.055   6.585 -1.1097 -0.3933  0.6531
 4391SOL    HW224633   2.507   2.972   6.559 -0.1987 -1.2422 -1.0632
 4392SOL     OW24634   0.749   4.087   8.546 -0.0105 -0.3481  0.1363
 4392SOL    HW124635   0.716   4.031   8.616  1.7009  0.1239  1.3458
 4392SOL    HW224636   0.798   4.151   8.598 -1.3935 -0.4659  1.5965
 4393SOL     OW24637   2.697   2.488  11.988  0.3079 -0.3748  0.2151
 4393SOL    HW124638   2.720   2.408  12.036  0.7339 -1.9735 -2.6826
 4393SOL    HW224639   2.626   2.507  12.049 -0.0551  1.3070 -0.7443
 4394SOL     OW24640   4.515   1.542   3.325  0.0769 -0.1522 -0.2483
 4394SOL    HW124641   4.516   1.546   3.229  2.6709  2.3429 -0.0958
 4394SOL    HW224642   4.516   1.448   3.345 -3.0138 -0.1354  0.0520
 4395SOL     OW24643   2.028   4.248   4.403 -0.2482  0.6014 -0.0331
 4395SOL    HW124644   1.964   4.192   4.446 -0.6457 -0.3684 -1.8995
 4395SOL    HW224645   2.066   4.185   4.342  0.1797  3.4546 -2.7178
 4396SOL     OW24646   1.153   0.347  10.156 -0.3099  0.0802  0.0634
 4396SOL    HW124647   1.120   0.266  10.194  1.5976 -0.8617 -0.3050
 4396SOL    HW224648   1.227   0.314  10.104 -0.1416 -0.4880  0.6733
 4397SOL     OW24649   2.617   0.529   0.134  0.2368  0.1227 -0.0052
 4397SOL    HW124650   2.627   0.598   0.199 -0.8810 -0.0284  0.3271
 4397SOL    HW224651   2.553   0.469   0.172 -1.4439  1.8148 -0.1516
 4398SOL     OW24652   2.779   0.587  15.406  0.0814  0.4997 -0.2365
 4398SOL    HW124653   2.747   0.533  15.333  0.6769  0.5997 -0.5683
 4398SOL    HW224654   2.753   0.672  15.373  1.1414  0.8222 -0.2365
 4399SOL     OW24655   1.777   0.862  12.261 -0.2680 -0.6190  0.4251
 4399SOL    HW124656   1.814   0.950  12.270  2.2551 -1.2552 -3.7429
 4399SOL    HW224657   1.697   0.870  12.209  0.4851 -0.7072 -0.7413
 4400SOL     OW24658   2.816   2.045   6.860 -0.5065  0.0615 -0.1603
 4400SOL    HW124659   2.752   1.979   6.886 -0.2764 -1.4684 -3.5631
 4400SOL    HW224660   2.746   2.105   6.834 -0.4423  0.7273  1.1719
 4401SOL     OW24661   3.891   2.703   4.670 -0.0286 -0.3973 -0.7140
 4401SOL    HW124662   3.876   2.797   4.677 -1.7856 -0.9451  2.7048
 4401SOL    HW224663   3.860   2.677   4.756  3.0208  0.3816  0.6267
 4402SOL     OW24664   0.987   4.179   1.698 -0.1780 -0.6426 -0.1177
 4402SOL    HW124665   1.076   4.155   1.723 -0.3021 -2.4888 -1.4562
 4402SOL    HW224666   0.939   4.097   1.689 -1.3365  0.0392 -0.2344
 4403SOL     OW24667   3.401   1.643  13.137 -0.4538  0.4502  0.1380
 4403SOL    HW124668   3.389   1.589  13.215 -0.8114 -0.4433 -0.5317
 4403SOL    HW224669   3.334   1.610  13.077  0.1644 -1.8974  0.7107
 4404SOL     OW24670   2.707   4.437   2.203  0.3557 -0.6552  0.4584
 4404SOL    HW124671   2.735   4.463   2.115  0.1224  2.6622  1.3588
 4404SOL    HW224672   2.733   4.501   2.269  2.5446 -1.0451 -0.0113
 4405SOL     OW24673   1.639   1.337   0.333  0.2628 -0.1699 -0.4372
 4405SOL    HW124674   1.557   1.298   0.364  0.3070 -0.0406 -0.1542
 4405SOL    HW224675   1.643   1.300   0.245 -4.1340 -0.8989 -0.3350
 4406SOL     OW24676   2.340   3.379   5.066 -0.4786 -0.6465 -0.2051
 4406SOL    HW124677   2.369   3.387   4.975  0.3672  0.6468  0.1749
 4406SOL    HW224678   2.249   3.368   5.040 -1.0268  1.7599  0.6884
 4407SOL     OW24679   0.647   3.718   2.278  0.1016  0.4872  0.5809
 4407SOL    HW124680   0.616   3.791   2.224 -1.0458  0.0145  0.5906
 4407SOL    HW224681   0.590   3.653   2.236  1.7025  1.3836 -2.9129
 4408SOL     OW24682   1.080   1.827   4.545 -0.0421 -0.9120  0.1499
 4408SOL    HW124683   1.079   1.834   4.450  1.1350  2.3970  0.3770
 4408SOL    HW224684   0.998   1.784   4.569 -0.9791 -0.2083 -1.8303
 4409SOL     OW24685   3.927   4.178   0.194  0.3669 -0.3331 -0.7420
 4409SOL    HW124686   3.890   4.129   0.121 -1.0009 -0.7586  0.2353
 4409SOL    HW224687   3.943   4.101   0.248 -3.0007 -0.6873 -0.2445
 4410SOL     OW24688   3.133   0.328   3.053  0.4351  0.5718  0.3235
 4410SOL    HW124689   3.197   0.399   3.056  1.1874 -0.1965  2.4778
 4410SOL    HW224690   3.184   0.262   3.101  1.8309  1.3507 -0.0813
 4411SOL     OW24691   3.563   3.745  15.514 -0.4753  0.0233  0.5352
 4411SOL    HW124692   3.512   3.699  15.580 -0.1847 -2.4240 -0.9585
 4411SOL    HW224693   3.588   3.675  15.453  1.7668  0.7850  0.5850
 4412SOL     OW24694   4.668   1.107  11.690  0.2004  0.2838 -0.1769
 4412SOL    HW124695   4.719   1.177  11.648 -1.3725  1.3903 -0.2502
 4412SOL    HW224696   4.636   1.147  11.771  0.7065 -0.1822  0.2539
 4413SOL     OW24697   0.737   4.577   9.790  0.3348 -0.0236  0.3838
 4413SOL    HW124698   0.711   4.561   9.881 -1.0408  2.1381  0.3621
 4413SOL    HW224699   0.781   4.494   9.769 -0.1301 -0.2062  0.1219
 4414SOL     OW24700   2.899   4.633   4.235 -0.3459  0.3665  0.4028
 4414SOL    HW124701   2.986   4.674   4.235  0.2716 -0.9518  2.2372
 4414SOL    HW224702   2.928   4.552   4.276  1.4694  0.2822 -1.0731
 4415SOL     OW24703   2.334   2.359   2.346  0.3044 -0.1537 -0.2868
 4415SOL    HW124704   2.411   2.341   2.400 -0.7529 -0.2394  1.1690
 4415SOL    HW224705   2.321   2.454   2.355  3.0544  0.5018 -3.1206
 4416SOL     OW24706   3.263   0.131   2.547  0.1992 -0.3858 -1.0398
 4416SOL    HW124707   3.219   0.159   2.627 -1.5140 -0.1347 -2.0750
 4416SOL    HW224708   3.299   0.044   2.565  2.9284  1.1469  1.0132
 4417SOL     OW24709   1.419   0.075  10.234 -0.0198  0.0012  1.0192
 4417SOL    HW124710   1.422   0.123  10.151 -1.7747 -1.1103  0.3043
 4417SOL    HW224711   1.398   4.711  10.204  0.0451  0.4667 -0.4054
 4418SOL     OW24712   0.748   0.036   9.108  0.2086  0.4109 -0.4123
 4418SOL    HW124713   0.786   0.026   9.020 -0.9304 -1.5094 -0.6865
 4418SOL    HW224714   0.656   0.017   9.089  0.0859  1.2487 -0.6685
 4419SOL     OW24715   0.639   0.506   7.349  0.3566  0.1718  0.6010
 4419SOL    HW124716   0.692   0.453   7.289 -0.1777  0.4718 -0.1253
 4419SOL    HW224717   0.654   0.457   7.430  2.6533 -1.1560 -0.6099
 4420SOL     OW24718   2.512   1.852   3.726 -0.3505 -0.0405  0.0496
 4420SOL    HW124719   2.496   1.946   3.733  1.4734  0.1098  2.2402
 4420SOL    HW224720   2.445   1.820   3.787  1.3249 -1.5521  1.0750
 4421SOL     OW24721   0.307   3.660   9.288 -0.7259  0.0441 -0.3249
 4421SOL    HW124722   0.243   3.640   9.221 -0.2032  0.9482 -1.1016
 4421SOL    HW224723   0.254   3.631   9.362  0.3023  0.2875  0.5140
 4422SOL     OW24724   1.185   2.073   2.708 -0.1296 -0.1606  0.2092
 4422SOL    HW124725   1.156   2.085   2.798 -3.1743 -2.9234 -0.3806
 4422SOL    HW224726   1.105   2.084   2.658  0.0019  0.3232  0.1048
 4423SOL     OW24727   0.465   2.398   6.036  0.3006  0.0568  0.0652
 4423SOL    HW124728   0.503   2.465   5.979  0.6984  1.2988  1.7827
 4423SOL    HW224729   0.461   2.449   6.117 -0.8044  0.7756 -0.4504
 4424SOL     OW24730   1.926   3.445  17.424 -0.0101  0.5408  0.5465
 4424SOL    HW124731   1.983   3.369  17.430  1.2059  1.3898 -0.0405
 4424SOL    HW224732   1.926   3.466  17.330 -0.6128  0.5038  0.5438
 4425SOL     OW24733   4.098   2.092  10.200 -0.3391 -0.2128 -0.3759
 4425SOL    HW124734   4.124   2.176  10.163 -0.0966 -0.1736 -0.1109
 4425SOL    HW224735   4.082   2.118  10.290 -1.7114 -0.8445 -0.4317
 4426SOL     OW24736   0.944   1.137   6.134 -0.1603 -0.2328 -0.1854
 4426SOL    HW124737   0.884   1.092   6.074  1.0565 -0.9690 -0.8539
 4426SOL    HW224738   0.974   1.218   6.091 -1.9946 -0.0026 -1.0625
 4427SOL     OW24739   4.407   1.495   6.819 -0.1639  0.6031 -0.1831
 4427SOL    HW124740   4.455   1.465   6.741  0.1865  1.2983 -0.2426
 4427SOL    HW224741   4.314   1.486   6.797 -0.1295  0.7408 -0.3908
 4428SOL     OW24742   0.122   0.708  13.553 -0.2147 -0.6052 -0.3823
 4428SOL    HW124743   0.159   0.795  13.544 -0.1834 -0.6579 -0.7431
 4428SOL    HW224744   0.137   0.676  13.464 -0.0005  1.5030 -1.0947
 4429SOL     OW24745   0.132   0.569   6.659  0.4672 -0.2099 -0.5281
 4429SOL    HW124746   0.090   0.541   6.578  0.8492 -1.8174 -0.1770
 4429SOL    HW224747   0.073   0.636   6.694  0.7402  0.0713 -0.6085
 4430SOL     OW24748   1.362   4.240   7.586  0.0015  0.4923  0.1070
 4430SOL    HW124749   1.414   4.289   7.522 -1.7156  1.2673 -0.6936
 4430SOL    HW224750   1.414   4.245   7.666  0.5741 -0.4060 -0.2074
 4431SOL     OW24751   2.458   2.519   0.081  0.0236  0.3980  0.2682
 4431SOL    HW124752   2.393   2.547   0.146 -0.4346 -1.5609  0.6673
 4431SOL    HW224753   2.445   2.590   0.018 -2.4103 -0.7980 -0.6138
 4432SOL     OW24754   1.607   2.517   3.352  0.3557  0.7221  0.2081
 4432SOL    HW124755   1.545   2.540   3.421 -1.2864  1.5322 -1.5405
 4432SOL    HW224756   1.554   2.455   3.302  0.0034  0.4014  0.9819
 4433SOL     OW24757   3.192   0.607   6.397  1.1499 -0.4900  0.6508
 4433SOL    HW124758   3.247   0.537   6.431  0.5835 -0.7024  1.1177
 4433SOL    HW224759   3.196   0.670   6.468 -0.1525 -1.2472  1.4000
 4434SOL     OW24760   1.514   1.764   2.745 -0.7563  0.4151  0.1973
 4434SOL    HW124761   1.434   1.749   2.696 -1.0426  1.7211  0.2513
 4434SOL    HW224762   1.568   1.701   2.697  0.0724  1.3200 -0.0673
 4435SOL     OW24763   3.020   1.172   4.668  0.1590 -0.2465 -0.2458
 4435SOL    HW124764   2.982   1.112   4.603 -2.8815  0.9613  0.4127
 4435SOL    HW224765   3.060   1.240   4.614  1.5794 -0.5457  0.4316
 4436SOL     OW24766   1.031   4.668   2.530  0.1211  0.7264  0.1068
 4436SOL    HW124767   1.007   4.618   2.452  1.5609 -0.4364  0.4012
 4436SOL    HW224768   1.093   0.010   2.501  1.1112 -0.0554  0.4211
 4437SOL     OW24769   0.374   1.437   8.790 -0.0689  0.5294  0.2386
 4437SOL    HW124770   0.375   1.468   8.880 -0.3937 -1.5617  0.9452
 4437SOL    HW224771   0.465   1.409   8.781  0.0741  0.7583  0.9528
 4438SOL     OW24772   0.424   3.940   5.866  0.9397  0.3904 -0.4876
 4438SOL    HW124773   0.438   3.950   5.772 -2.9511  2.3885 -0.8613
 4438SOL    HW224774   0.481   3.866   5.880 -0.1591 -0.1149  1.2841
 4439SOL     OW24775   2.787   1.032  12.706 -0.2688  0.0414  0.4267
 4439SOL    HW124776   2.859   1.058  12.648 -1.4427  1.7182 -0.2460
 4439SOL    HW224777   2.810   0.939  12.714  0.4609  0.2694  1.0065
 4440SOL     OW24778   1.435   1.606   8.147  0.1581  0.7830  0.5685
 4440SOL    HW124779   1.500   1.603   8.077 -0.6653  1.6100 -0.2201
 4440SOL    HW224780   1.473   1.674   8.203  1.3903  0.6314 -0.0876
 4441SOL     OW24781   4.359   1.420  15.111  0.2047 -0.2544  0.0262
 4441SOL    HW124782   4.282   1.411  15.055  0.9794  1.0513 -1.2529
 4441SOL    HW224783   4.312   1.433  15.193  1.7744 -2.0140  1.2114
 4442SOL     OW24784   2.657   2.258  12.964  0.0300  0.5368  0.2597
 4442SOL    HW124785   2.731   2.315  12.985 -0.3363  1.1058  0.0116
 4442SOL    HW224786   2.689   2.219  12.883  0.1497  1.8364 -0.3227
 4443SOL     OW24787   1.919   3.898   2.887  0.4506 -0.0253  0.5982
 4443SOL    HW124788   2.012   3.874   2.888  0.6837  0.9806  2.2063
 4443SOL    HW224789   1.892   3.859   2.803  2.5673  1.2960 -0.7107
 4444SOL     OW24790   0.899   3.246   3.551 -0.1072  0.3314 -0.4087
 4444SOL    HW124791   0.926   3.192   3.625 -0.2121  1.9793  0.8597
 4444SOL    HW224792   0.980   3.296   3.536  1.5141 -1.8228  1.2499
 4445SOL     OW24793   1.468   2.678   8.114 -0.0837  0.4196  0.7414
 4445SOL    HW124794   1.505   2.746   8.057 -0.9266  1.1237  1.0428
 4445SOL    HW224795   1.500   2.715   8.196 -0.3437  1.3400  0.4350
 4446SOL     OW24796   0.404   0.459  10.369 -0.7882 -0.1037  0.5357
 4446SOL    HW124797   0.351   0.382  10.389  0.8811 -1.4750 -0.3385
 4446SOL    HW224798   0.423   0.457  10.275 -2.2112  2.9918  0.1813
 4447SOL     OW24799   1.431   1.781   4.412  0.2418 -0.1078  0.4106
 4447SOL    HW124800   1.410   1.872   4.389  0.6520  0.8512  3.8520
 4447SOL    HW224801   1.395   1.780   4.500 -1.2521  0.0903 -0.1939
 4448SOL     OW24802   0.956   3.286  16.086 -0.0179  0.0212 -0.0753
 4448SOL    HW124803   0.936   3.323  16.172 -0.5976  1.6858 -0.9282
 4448SOL    HW224804   0.978   3.363  16.034  0.7461  0.5302  0.9943
 4449SOL     OW24805   0.592   3.824   3.021 -0.9196  1.0127  0.4406
 4449SOL    HW124806   0.527   3.812   3.091 -0.4456  0.1758  0.7353
 4449SOL    HW224807   0.670   3.814   3.076 -1.2081  1.2159  0.8899
 4450SOL     OW24808   1.520   3.335   5.639 -0.0491  0.1996 -0.0867
 4450SOL    HW124809   1.579   3.297   5.573 -0.7032 -3.7529  1.5918
 4450SOL    HW224810   1.460   3.262   5.654  0.4567  0.2847  2.3114
 4451SOL     OW24811   1.576   2.731   8.634  0.4530 -0.1660  0.1665
 4451SOL    HW124812   1.554   2.775   8.716 -1.4365  0.2421 -0.5507
 4451SOL    HW224813   1.487   2.712   8.604  0.2694  1.0967 -0.0935
 4452SOL     OW24814   4.152   4.419   0.639 -0.4752  0.0818  0.3942
 4452SOL    HW124815   4.198   4.479   0.696  1.1117 -1.0299  0.2872
 4452SOL    HW224816   4.159   4.343   0.696 -1.0706  0.9229  1.5707
 4453SOL     OW24817   2.949   0.963   5.643 -0.4731  0.6635  0.2963
 4453SOL    HW124818   2.939   1.054   5.668 -2.8254 -0.1532  2.3329
 4453SOL    HW224819   2.964   0.928   5.731 -1.0387 -0.6396 -0.1235
 4454SOL     OW24820   2.015   4.264  14.551 -0.2643 -0.6250  0.4536
 4454SOL    HW124821   1.922   4.248  14.567  0.2601 -1.7168  2.4798
 4454SOL    HW224822   2.017   4.360  14.551  0.3929 -0.6422 -0.1963
 4455SOL     OW24823   2.500   3.450   8.567 -0.1503  0.2682  0.0822
 4455SOL    HW124824   2.443   3.516   8.528 -1.9330 -0.1467  1.9515
 4455SOL    HW224825   2.583   3.454   8.519  0.4614  3.3459  1.3968
 4456SOL     OW24826   3.233   2.040  11.348  0.3777  0.4264 -0.0473
 4456SOL    HW124827   3.181   1.979  11.297  1.0292  2.1831 -2.8353
 4456SOL    HW224828   3.322   2.011  11.328  0.5109  0.1499  0.9630
 4457SOL     OW24829   3.465   1.942   3.436 -0.3920 -0.0261  0.1525
 4457SOL    HW124830   3.399   1.927   3.368 -1.4656 -1.1415  1.4494
 4457SOL    HW224831   3.540   1.910   3.386 -1.7221 -1.5004 -0.8852
 4458SOL     OW24832   1.240   3.286   4.317 -0.2021  0.4524 -0.0638
 4458SOL    HW124833   1.222   3.354   4.252  1.4974 -0.2855 -1.3078
 4458SOL    HW224834   1.217   3.201   4.278 -0.7163  0.6871 -0.2710
 4459SOL     OW24835   2.048   2.571   4.278 -0.2944  0.1356 -0.1394
 4459SOL    HW124836   2.122   2.512   4.270 -1.9246 -1.6956 -1.7330
 4459SOL    HW224837   2.076   2.629   4.207 -2.7132  0.9013 -0.4834
 4460SOL     OW24838   0.163   1.527  10.603 -0.3596  0.3433  0.5117
 4460SOL    HW124839   0.128   1.514  10.691 -1.7296 -1.7380 -0.3670
 4460SOL    HW224840   0.200   1.615  10.613  0.1213  0.3257 -1.1518
 4461SOL     OW24841   3.499   3.169   5.122 -0.2449 -0.3361 -0.3920
 4461SOL    HW124842   3.575   3.137   5.170  0.2681 -0.7852 -1.5142
 4461SOL    HW224843   3.440   3.210   5.186 -0.5503 -0.8711 -0.3260
 4462SOL     OW24844   0.055   0.377  16.791 -0.3101  0.0509  0.4456
 4462SOL    HW124845   0.102   0.309  16.838  0.2861 -0.2399 -0.5776
 4462SOL    HW224846   0.108   0.453  16.815 -0.4199  0.4063 -0.4102
 4463SOL     OW24847   3.124   2.799   4.623 -0.1401  0.2396 -0.6501
 4463SOL    HW124848   3.140   2.771   4.713 -2.7891 -0.3453 -0.3912
 4463SOL    HW224849   3.212   2.778   4.591 -1.0364 -2.3329 -1.4285
 4464SOL     OW24850   4.301   4.703  13.770 -0.2212  0.3150  0.0122
 4464SOL    HW124851   4.339   0.018  13.849 -1.0329 -0.2310  0.6708
 4464SOL    HW224852   4.208   4.721  13.783 -0.5438 -2.1305  1.1382
 4465SOL     OW24853   3.736   4.651   1.639  0.3849 -0.3007  0.2869
 4465SOL    HW124854   3.743   4.668   1.545 -2.8421 -2.2450 -0.3121
 4465SOL    HW224855   3.816   4.599   1.643  0.7787  0.2252 -0.6960
 4466SOL     OW24856   1.532   4.522  14.420 -0.6469 -0.6653 -0.1146
 4466SOL    HW124857   1.562   4.612  14.436 -0.9469 -0.5878  0.0059
 4466SOL    HW224858   1.447   4.537  14.378 -2.5952 -0.3580  3.9690
 4467SOL     OW24859   3.326   3.406   6.576  0.2686  0.4720  0.1634
 4467SOL    HW124860   3.282   3.488   6.599  1.9482  1.6351 -0.8014
 4467SOL    HW224861   3.393   3.401   6.643  0.6266  2.2772 -0.0497
 4468SOL     OW24862   0.283   1.659   7.514  0.1749 -0.0505 -0.3051
 4468SOL    HW124863   0.326   1.713   7.580 -0.1640  1.1071 -1.0245
 4468SOL    HW224864   0.189   1.665   7.530  0.1370  0.2482 -0.6267
 4469SOL     OW24865   1.732   3.480   4.357 -0.4704  1.0364  0.2354
 4469SOL    HW124866   1.657   3.420   4.366  0.8124 -0.6534 -0.4093
 4469SOL    HW224867   1.690   3.566   4.344 -2.1900 -0.1055 -1.8771
 4470SOL     OW24868   3.031   2.442   3.563 -0.3819  0.0700  0.1685
 4470SOL    HW124869   3.109   2.481   3.523 -0.0015  0.9980  1.8306
 4470SOL    HW224870   3.073   2.395   3.635 -0.9220 -1.7638 -0.7015
 4471SOL     OW24871   1.658   0.501   9.720 -0.1795 -0.6955 -0.1119
 4471SOL    HW124872   1.623   0.429   9.668  0.4503  0.1958 -1.7642
 4471SOL    HW224873   1.731   0.464   9.770  0.1630  2.0585  1.4729
 4472SOL     OW24874   2.506   0.500   4.546  0.3796 -0.1021 -0.4884
 4472SOL    HW124875   2.581   0.558   4.533 -1.2966  1.3781 -3.4205
 4472SOL    HW224876   2.437   0.566   4.554  0.3848  0.1257 -2.3177
 4473SOL     OW24877   1.534   1.876   5.252  0.1744  0.3846 -0.0554
 4473SOL    HW124878   1.559   1.926   5.174  0.2072 -0.3763 -0.5369
 4473SOL    HW224879   1.597   1.904   5.318  1.3463 -0.5903 -0.7686
 4474SOL     OW24880   2.933   4.319   2.049  0.3752 -0.0562  0.5009
 4474SOL    HW124881   2.916   4.275   2.133 -1.1029 -1.2383 -0.4101
 4474SOL    HW224882   3.027   4.332   2.048  0.5947 -1.7875 -0.6984
 4475SOL     OW24883   3.998   3.141  12.090 -0.4745 -0.3250  0.2341
 4475SOL    HW124884   3.965   3.231  12.093  2.2216  0.6552  0.2303
 4475SOL    HW224885   4.083   3.152  12.048 -0.7622 -0.8974 -0.5007
 4476SOL     OW24886   3.752   1.951   5.286 -0.4245 -0.8874  0.0960
 4476SOL    HW124887   3.745   1.940   5.381  1.2541 -0.1435  0.3062
 4476SOL    HW224888   3.762   1.863   5.250  3.3089  0.5067 -2.2109
 4477SOL     OW24889   3.288   3.378   8.571  0.2254  0.2825  0.1685
 4477SOL    HW124890   3.319   3.443   8.634  0.7465 -0.3204  0.5344
 4477SOL    HW224891   3.288   3.296   8.621 -2.1239  0.3445  0.2770
 4478SOL     OW24892   1.991   1.718   4.951  0.0082 -0.4948  0.2578
 4478SOL    HW124893   2.010   1.774   5.027 -0.5207 -0.9126  0.6961
 4478SOL    HW224894   2.078   1.707   4.912  0.3052  0.7936  0.5246
 4479SOL     OW24895   1.877   1.291   7.103  0.2048  0.1359  0.4880
 4479SOL    HW124896   1.938   1.355   7.140 -0.5850  0.1965  1.6818
 4479SOL    HW224897   1.868   1.225   7.171  1.7458  0.3139  0.8680
 4480SOL     OW24898   3.975   2.457   7.725  0.1814  0.2015 -0.4616
 4480SOL    HW124899   3.950   2.537   7.772  0.1437 -0.5434  0.7604
 4480SOL    HW224900   3.902   2.399   7.742  0.3272  0.5310  1.2905
 4481SOL     OW24901   3.597   2.462   2.120  0.1386  0.4944  0.0203
 4481SOL    HW124902   3.615   2.505   2.036 -1.3909 -0.6120 -0.8657
 4481SOL    HW224903   3.561   2.526   2.180 -0.2559 -1.3899  1.7989
 4482SOL     OW24904   2.264   3.171  17.068  0.4457  0.2702 -0.0467
 4482SOL    HW124905   2.307   3.087  17.050 -3.9050 -1.8659 -0.4985
 4482SOL    HW224906   2.295   3.224  16.994  0.8094  0.1069 -0.0122
 4483SOL     OW24907   2.871   1.057   6.855  0.2730 -0.0325 -0.2746
 4483SOL    HW124908   2.910   1.125   6.909  3.0510 -1.3107 -0.6934
 4483SOL    HW224909   2.787   1.056   6.902  0.9678 -2.3758  0.8864
 4484SOL     OW24910   1.033   0.693   6.580  0.3818  0.2390  0.6903
 4484SOL    HW124911   1.016   0.768   6.522  0.2313 -0.2847  0.0674
 4484SOL    HW224912   0.979   0.729   6.651 -2.0727  0.8205 -1.4839
 4485SOL     OW24913   3.444   3.270   4.371 -0.6808 -0.0522 -0.5580
 4485SOL    HW124914   3.443   3.329   4.295  0.6638  0.5317 -0.1109
 4485SOL    HW224915   3.369   3.217   4.343  0.9543 -2.1577 -0.9314
 4486SOL     OW24916   3.976   2.705   8.882  0.5043  0.0809 -0.4428
 4486SOL    HW124917   3.951   2.635   8.822  0.1604  0.4030 -0.6681
 4486SOL    HW224918   3.890   2.725   8.918  1.2982 -2.1249  2.7702
 4487SOL     OW24919   4.316   3.827   6.089 -0.4615  0.9074 -0.1728
 4487SOL    HW124920   4.377   3.859   6.155 -1.6612  0.7688  0.9909
 4487SOL    HW224921   4.273   3.908   6.063 -0.2174  0.9872 -0.3292
 4488SOL     OW24922   0.866   2.373  15.066  0.1571  0.2730 -0.0130
 4488SOL    HW124923   0.847   2.338  14.979 -3.9643 -1.6694  1.6870
 4488SOL    HW224924   0.919   2.451  15.047  0.3968 -0.0988 -0.9052
 4489SOL     OW24925   2.635   4.107   4.850 -0.3271 -0.3148  0.5074
 4489SOL    HW124926   2.576   4.173   4.887 -0.3103 -0.5975  1.0391
 4489SOL    HW224927   2.577   4.041   4.811 -0.5569 -0.2675  0.7712
 4490SOL     OW24928   4.555   2.719   5.755 -0.5769 -0.6816  0.0012
 4490SOL    HW124929   4.562   2.749   5.664 -0.9614 -0.4671  0.0417
 4490SOL    HW224930   4.464   2.744   5.775  0.0721  2.1430 -0.5822
 4491SOL     OW24931   4.678   2.073   5.947  0.2145 -0.2457  0.3873
 4491SOL    HW124932   4.661   1.989   5.906 -0.7714 -0.2528  0.8072
 4491SOL    HW224933   4.610   2.128   5.908 -2.3705 -2.1278  2.2231
 4492SOL     OW24934   0.592   1.362   6.780  0.5221  0.5320 -0.0853
 4492SOL    HW124935   0.616   1.416   6.704  2.4084  0.1595  0.2489
 4492SOL    HW224936   0.665   1.370   6.841  0.8364  2.1599 -0.6777
 4493SOL     OW24937   4.693   0.457   0.635  0.1180  0.5349 -0.1277
 4493SOL    HW124938   0.001   0.498   0.555  0.8069  1.2510  0.5272
 4493SOL    HW224939   4.684   0.367   0.602  1.8722 -1.1639  3.9980
 4494SOL     OW24940   1.156   0.555   3.499  0.8233  0.1904 -0.2920
 4494SOL    HW124941   1.132   0.473   3.542  1.2214 -0.2033 -0.8256
 4494SOL    HW224942   1.076   0.606   3.513  0.2857 -0.0742 -2.4074
 4495SOL     OW24943   0.607   3.974   8.774 -0.2003  0.1991  0.1605
 4495SOL    HW124944   0.625   3.915   8.847 -3.6706 -0.3731  0.5769
 4495SOL    HW224945   0.560   4.052   8.805 -0.4371 -0.6159  1.8394
 4496SOL     OW24946   0.390   2.390   3.797 -0.6827  0.2808  0.3656
 4496SOL    HW124947   0.300   2.407   3.823 -1.1696  1.1952 -1.9121
 4496SOL    HW224948   0.405   2.465   3.739  2.2108  0.0595  0.7919
 4497SOL     OW24949   2.559   3.411   9.180 -0.6399  0.1888  0.2040
 4497SOL    HW124950   2.640   3.383   9.225 -1.6100  1.0608  2.4867
 4497SOL    HW224951   2.592   3.484   9.127 -1.6296  1.7378  1.7149
 4498SOL     OW24952   2.278   1.126   2.624 -0.0141  0.3491  0.1767
 4498SOL    HW124953   2.187   1.101   2.634 -0.2707  0.1973 -2.3348
 4498SOL    HW224954   2.291   1.084   2.539  2.1671 -3.1505  2.2523
 4499SOL     OW24955   2.848   0.476   5.905 -0.0898 -0.1747  0.1571
 4499SOL    HW124956   2.853   0.572   5.911  0.0867 -0.2345  0.9069
 4499SOL    HW224957   2.940   0.452   5.905  0.2278  1.0967  1.7949
 4500SOL     OW24958   0.110   2.018   8.039 -0.7294  0.1419 -0.2746
 4500SOL    HW124959   0.040   2.067   7.996 -0.3268  0.8453 -0.1305
 4500SOL    HW224960   0.185   2.071   8.015 -0.6576 -0.2813 -0.9818
 4501SOL     OW24961   3.306   2.338   4.474 -0.1121  0.1247 -0.4314
 4501SOL    HW124962   3.250   2.406   4.437  0.1981 -1.4886 -3.8528
 4501SOL    HW224963   3.342   2.384   4.550 -1.1377  0.6030 -0.2415
 4502SOL     OW24964   2.582   0.960  16.947 -0.4871  0.3181  0.0052
 4502SOL    HW124965   2.534   0.960  17.030 -0.2351 -1.6728  0.1465
 4502SOL    HW224966   2.524   1.015  16.894 -1.1142 -0.7666 -0.4193
 4503SOL     OW24967   2.770   4.019   5.077  0.0762 -0.1502  0.0832
 4503SOL    HW124968   2.707   3.970   5.128  0.2770 -0.8048 -0.2926
 4503SOL    HW224969   2.729   4.039   4.993 -1.4151 -0.0688  0.8447
 4504SOL     OW24970   2.843   1.738   3.379 -0.6400  0.7542  0.1973
 4504SOL    HW124971   2.766   1.776   3.336 -0.5665  0.8501  0.1490
 4504SOL    HW224972   2.829   1.644   3.365  1.2214  0.5016 -0.0100
 4505SOL     OW24973   2.995   1.764   7.748 -0.1584 -0.3917 -0.2538
 4505SOL    HW124974   2.980   1.834   7.811  1.1302 -0.7626  0.4626
 4505SOL    HW224975   3.078   1.789   7.708 -0.2225 -0.2459 -0.2939
 4506SOL     OW24976   2.605   1.448   6.167  0.1541 -0.1453 -0.8522
 4506SOL    HW124977   2.669   1.424   6.101 -1.0329 -0.5006 -1.8724
 4506SOL    HW224978   2.565   1.514   6.111 -0.4885 -1.6361 -2.1616
 4507SOL     OW24979   3.451   3.079   0.999  0.3186 -0.1128 -0.1083
 4507SOL    HW124980   3.399   3.002   0.975 -2.0470  1.7829 -1.0367
 4507SOL    HW224981   3.424   3.089   1.091  1.4857 -1.8963  0.4292
 4508SOL     OW24982   2.375   3.522   4.153 -0.0851  0.2765  0.2141
 4508SOL    HW124983   2.336   3.483   4.075  0.1924  0.5200 -0.0506
 4508SOL    HW224984   2.461   3.545   4.117 -0.3892 -0.7487 -1.1575
 4509SOL     OW24985   1.102   1.535   3.477  0.7336 -0.0049 -0.0503
 4509SOL    HW124986   1.141   1.610   3.433  0.4896  1.1602  1.7235
 4509SOL    HW224987   1.084   1.565   3.566 -0.0821 -0.9842  0.1222
 4510SOL     OW24988   3.681   4.254   8.166 -0.5291  0.5130  0.0910
 4510SOL    HW124989   3.736   4.178   8.183 -1.8210 -0.0613  1.7612
 4510SOL    HW224990   3.723   4.320   8.221  3.0970 -1.6635 -0.0582
 4511SOL     OW24991   3.662   4.527   0.194 -0.4743 -0.1671 -0.4771
 4511SOL    HW124992   3.610   4.606   0.208  0.1597  0.1045  0.3697
 4511SOL    HW224993   3.662   4.526   0.098 -0.1319  0.3196 -0.4842
 4512SOL     OW24994   2.870   1.730   8.610  0.2172  0.2868  0.2917
 4512SOL    HW124995   2.830   1.764   8.530 -0.2030  0.4588  0.5752
 4512SOL    HW224996   2.962   1.713   8.589  0.5076 -0.1062  1.8726
 4513SOL     OW24997   4.716   2.043   8.610 -0.2124  0.3391  0.3087
 4513SOL    HW124998   4.718   1.952   8.639 -2.2546  0.2605  0.2445
 4513SOL    HW224999   0.037   2.042   8.526 -0.1743  1.7821  0.2984
 4514SOL     OW25000   2.777   4.262   6.587  0.0102  0.2074  0.2010
 4514SOL    HW125001   2.727   4.318   6.647  0.5963  0.1137  0.7757
 4514SOL    HW225002   2.806   4.196   6.649  1.2954 -0.6186 -1.3020
 4515SOL     OW25003   4.265   1.841   8.385  0.2805 -0.3199  0.2512
 4515SOL    HW125004   4.261   1.866   8.293 -0.7983 -1.4020 -0.0037
 4515SOL    HW225005   4.192   1.782   8.406 -0.2211  0.3001  0.2550
 4516SOL     OW25006   2.373   4.335   5.734 -0.0521 -0.0409 -0.2878
 4516SOL    HW125007   2.329   4.252   5.716 -0.1608  0.2117 -1.1707
 4516SOL    HW225008   2.341   4.386   5.660  0.6930 -0.5261 -0.9515
 4517SOL     OW25009   4.312   4.579   3.070  0.0630  0.7388  0.1755
 4517SOL    HW125010   4.288   4.496   3.028  0.9342  0.2482  0.6563
 4517SOL    HW225011   4.345   4.633   2.998  0.4039  0.5458  0.1850
 4518SOL     OW25012   0.759   0.529   6.647 -0.0773 -0.3703 -0.2034
 4518SOL    HW125013   0.742   0.623   6.634  2.0812  0.1735  0.9081
 4518SOL    HW225014   0.759   0.498   6.556 -0.9518  1.5141 -0.8585
 4519SOL     OW25015   0.831   1.879  12.715 -0.0503 -0.2893  0.2262
 4519SOL    HW125016   0.779   1.846  12.641  0.6003 -0.5855 -0.0963
 4519SOL    HW225017   0.828   1.972  12.689 -1.3169 -0.3672  0.0931
 4520SOL     OW25018   2.839   3.081   5.454  0.5501 -0.0998  0.4808
 4520SOL    HW125019   2.867   3.003   5.502  3.2366  1.1964  1.0188
 4520SOL    HW225020   2.748   3.052   5.455  0.3593  0.4838 -0.1493
 4521SOL     OW25021   0.637   3.091  11.682 -0.3678 -0.8075 -0.8269
 4521SOL    HW125022   0.583   3.153  11.731  3.9867  0.2405  2.7480
 4521SOL    HW225023   0.620   3.008  11.726  0.3321 -0.0078  0.9634
 4522SOL     OW25024   0.811   2.530   2.120  0.7684  0.0800 -0.1373
 4522SOL    HW125025   0.769   2.450   2.152 -0.2528  0.1912 -1.2362
 4522SOL    HW225026   0.767   2.595   2.175 -0.3156  2.0156 -3.2982
 4523SOL     OW25027   2.646   3.531   6.155  0.1020 -0.0508 -0.0909
 4523SOL    HW125028   2.591   3.455   6.136  0.8485 -0.8035  0.7271
 4523SOL    HW225029   2.707   3.494   6.219 -0.7135 -0.5728  0.3822
 4524SOL     OW25030   1.795   2.875   6.595 -0.0735 -0.1371 -0.6617
 4524SOL    HW125031   1.840   2.794   6.620 -0.1212 -0.3809 -1.3458
 4524SOL    HW225032   1.758   2.865   6.507  2.2140 -1.6137 -1.4534
 4525SOL     OW25033   1.935   4.318   1.894 -0.1086  0.1610  0.3643
 4525SOL    HW125034   1.956   4.409   1.874 -0.0825  0.3112  1.0879
 4525SOL    HW225035   1.996   4.276   1.834 -1.7764 -2.5158  0.5506
 4526SOL     OW25036   3.331   2.821   1.035 -0.2217  0.1475  0.1891
 4526SOL    HW125037   3.348   2.768   0.958  0.2950  1.3542 -0.5269
 4526SOL    HW225038   3.261   2.772   1.079  0.7287  0.4254  2.0184
 4527SOL     OW25039   1.549   0.631  10.456  1.0608  0.0450  0.0513
 4527SOL    HW125040   1.483   0.606  10.392 -0.3828  0.9422  1.1849
 4527SOL    HW225041   1.520   0.576  10.529  1.4482  2.9364  2.3710
 4528SOL     OW25042   3.861   1.757   2.422  0.6914 -0.2673 -0.4307
 4528SOL    HW125043   3.814   1.751   2.339 -2.2058 -1.5629  1.2968
 4528SOL    HW225044   3.895   1.846   2.421 -2.7195  1.0678  0.0146
 4529SOL     OW25045   0.445   1.624   5.188  0.0461 -0.2422 -0.6376
 4529SOL    HW125046   0.421   1.539   5.224 -2.3122  1.5635  2.0021
 4529SOL    HW225047   0.428   1.679   5.265 -0.5254 -0.0318 -0.9086
 4530SOL     OW25048   4.472   1.688   8.491 -0.2926 -0.6048  0.2085
 4530SOL    HW125049   4.406   1.744   8.451 -1.2971 -2.0196 -0.1062
 4530SOL    HW225050   4.433   1.601   8.494 -0.5576 -0.4372  1.8692
 4531SOL     OW25051   4.143   2.243   0.767  0.4220 -0.2633 -0.0145
 4531SOL    HW125052   4.120   2.322   0.817  2.5271  0.2953  0.0840
 4531SOL    HW225053   4.058   2.202   0.753  1.1620 -1.2041 -1.7504
 4532SOL     OW25054   1.770   0.451   7.423 -0.1708 -0.3072 -1.0290
 4532SOL    HW125055   1.684   0.427   7.388 -0.2317 -3.0599  1.1023
 4532SOL    HW225056   1.799   0.369   7.463  0.3566  1.0929  1.4271
 4533SOL     OW25057   2.517   3.918   8.026  0.2432 -0.2259  0.7230
 4533SOL    HW125058   2.466   3.934   7.946  1.1266 -0.2900  0.1588
 4533SOL    HW225059   2.542   4.008   8.048  0.1410  0.1474 -0.6496
 4534SOL     OW25060   0.350   4.009   8.914 -0.3150  0.2506 -0.0038
 4534SOL    HW125061   0.281   3.942   8.910 -0.7749  0.7588 -0.6790
 4534SOL    HW225062   0.386   3.977   8.997 -0.3055  1.8427  0.6228
 4535SOL     OW25063   2.522   2.518   7.794  0.0340 -0.6109  1.1112
 4535SOL    HW125064   2.431   2.498   7.819 -0.2578 -0.7382 -0.0408
 4535SOL    HW225065   2.545   2.443   7.738  2.4784 -0.6529  2.2002
 4536SOL     OW25066   4.591   3.059   5.693 -0.1652 -0.7855 -0.4510
 4536SOL    HW125067   4.581   3.003   5.616  3.2096 -0.2374 -1.3186
 4536SOL    HW225068   4.624   2.992   5.753  0.9149  1.6269  1.6751
 4537SOL     OW25069   1.233   4.381   0.719  0.4933  0.3980 -0.4188
 4537SOL    HW125070   1.290   4.402   0.645  2.2618 -1.0678  0.5306
 4537SOL    HW225071   1.143   4.386   0.687  0.1389 -1.6722  0.2466
 4538SOL     OW25072   4.426   4.312   5.283 -0.0306  0.4603  0.5062
 4538SOL    HW125073   4.430   4.371   5.358 -2.3206  1.8536 -0.4690
 4538SOL    HW225074   4.451   4.225   5.316 -1.1547 -0.0514  0.0024
 4539SOL     OW25075   1.717   3.828   3.718 -0.4068 -0.0373  0.4442
 4539SOL    HW125076   1.621   3.822   3.715 -0.0224 -5.2263 -1.5556
 4539SOL    HW225077   1.739   3.745   3.675  1.3571 -0.0756  1.4247
 4540SOL     OW25078   1.723   3.588   0.958 -0.2933  0.0272 -0.4939
 4540SOL    HW125079   1.799   3.632   0.996  0.8173 -2.7048  0.4144
 4540SOL    HW225080   1.764   3.502   0.961  2.0671  1.2287  1.6448
 4541SOL     OW25081   0.864   3.477   2.541 -0.0333  0.0608 -0.0556
 4541SOL    HW125082   0.830   3.439   2.622 -1.2839  0.4777 -0.3850
 4541SOL    HW225083   0.825   3.417   2.477  0.6771  2.1952 -2.4837
 4542SOL     OW25084   3.606   3.091   7.024  0.4530 -0.2750 -0.4992
 4542SOL    HW125085   3.528   3.085   6.969 -0.7760  1.4977  1.0360
 4542SOL    HW225086   3.655   3.011   7.005 -1.2025 -1.1621 -1.0414
 4543SOL     OW25087   4.650   3.812   1.803 -0.1738 -0.0326  0.0759
 4543SOL    HW125088   4.603   3.885   1.763  0.9997  0.7066  0.0509
 4543SOL    HW225089   4.707   3.784   1.731  0.5497  2.2560 -0.2614
 4544SOL     OW25090   3.121   3.672  17.655 -0.0237 -0.1664  0.0373
 4544SOL    HW125091   3.122   3.629  17.569  2.1537  0.7354 -0.4007
 4544SOL    HW225092   3.063   3.748  17.649  0.6720  0.4419  1.1225
 4545SOL     OW25093   4.589   1.828   2.939  0.6074  0.1861 -0.2645
 4545SOL    HW125094   4.601   1.739   2.905  2.4726  0.4596 -0.3258
 4545SOL    HW225095   4.573   1.818   3.033  0.8464 -1.2266 -0.3767
 4546SOL     OW25096   1.137   3.865   0.575 -0.6826  0.4629  0.1348
 4546SOL    HW125097   1.152   3.855   0.481 -1.4041 -0.9586  0.1754
 4546SOL    HW225098   1.164   3.954   0.599  0.9122 -0.1788  0.7806
 4547SOL     OW25099   0.050   3.758   5.887  0.1333 -0.1208  0.4447
 4547SOL    HW125100   4.699   3.812   5.909 -1.2339 -1.6389 -0.4738
 4547SOL    HW225101   0.110   3.788   5.955 -1.2338 -1.4586  2.2615
 4548SOL     OW25102   1.171   1.770   4.111  0.0050 -0.1813 -0.3144
 4548SOL    HW125103   1.099   1.753   4.050 -1.2099 -1.9984  1.6348
 4548SOL    HW225104   1.238   1.803   4.051 -3.0514  2.7667 -2.1353
 4549SOL     OW25105   2.242   0.571   4.766 -0.0504  0.1666 -0.2037
 4549SOL    HW125106   2.150   0.565   4.738 -0.4172 -0.4312  1.1197
 4549SOL    HW225107   2.268   0.612   4.683  1.0940 -0.1390  0.0088
 4550SOL     OW25108   2.243   3.217   9.227  0.4416 -0.3434 -0.0921
 4550SOL    HW125109   2.329   3.209   9.269  0.6591 -0.5937 -0.5823
 4550SOL    HW225110   2.207   3.129   9.242  0.4787 -0.1441  1.1584
 4551SOL     OW25111   1.947   2.513   6.986  0.3459 -0.1320  0.4531
 4551SOL    HW125112   1.874   2.452   6.983  0.2582 -0.0021 -0.0518
 4551SOL    HW225113   2.004   2.481   6.916 -0.9452 -1.4062 -0.0151
 4552SOL     OW25114   2.735   2.383   2.671 -0.2748 -0.2103 -0.3449
 4552SOL    HW125115   2.729   2.288   2.677  1.0331 -0.3126 -0.5362
 4552SOL    HW225116   2.644   2.411   2.673 -0.4951 -0.8630 -1.3549
 4553SOL     OW25117   4.058   1.147  12.985 -0.2189  0.3782  0.8666
 4553SOL    HW125118   4.086   1.235  12.961  0.6492 -0.2311 -0.3962
 4553SOL    HW225119   3.975   1.163  13.030 -0.6055  0.6128  0.0742
 4554SOL     OW25120   0.579   0.347  11.495  0.4234  0.7134  0.3202
 4554SOL    HW125121   0.489   0.326  11.469  0.3404 -2.5474  3.2333
 4554SOL    HW225122   0.626   0.264  11.487 -0.6179  0.0532  0.8920
 4555SOL     OW25123   4.013   2.633   3.304 -1.1383 -0.1021  0.5515
 4555SOL    HW125124   4.036   2.652   3.213 -0.0390  0.3624  0.9254
 4555SOL    HW225125   3.939   2.576   3.284 -1.9656  1.2866 -0.3075
 4556SOL     OW25126   1.773   0.995   8.448 -0.3662 -0.3772  0.9418
 4556SOL    HW125127   1.832   0.921   8.457 -2.5014 -1.9234  2.4702
 4556SOL    HW225128   1.739   0.995   8.538  0.1616  0.0036  1.1413
 4557SOL     OW25129   1.553   2.250   1.036  0.3897 -0.2965 -0.4655
 4557SOL    HW125130   1.632   2.231   0.986  1.0176 -0.6798  0.6607
 4557SOL    HW225131   1.492   2.286   0.972  0.2051 -0.4166 -0.3611
 4558SOL     OW25132   1.257   2.637   7.342  0.5373 -0.2390  0.1370
 4558SOL    HW125133   1.178   2.671   7.383  0.9534  2.0863 -0.9840
 4558SOL    HW225134   1.270   2.555   7.389  0.1098 -0.0205  0.6274
 4559SOL     OW25135   0.141   4.436   1.460 -0.2976  0.0287 -0.3296
 4559SOL    HW125136   0.087   4.491   1.516  0.5639  1.2319 -0.6770
 4559SOL    HW225137   0.221   4.430   1.512  0.2117  1.5378 -0.9233
 4560SOL     OW25138   1.433   1.657   2.993 -0.1052  0.5932 -0.3797
 4560SOL    HW125139   1.480   1.716   2.934  1.2578  0.2743  0.3876
 4560SOL    HW225140   1.351   1.697   2.963  0.1050  1.2949 -0.0404
 4561SOL     OW25141   2.225   0.931   7.513  0.1783  0.0048 -0.0611
 4561SOL    HW125142   2.222   0.859   7.577 -0.0814 -0.7012 -0.8697
 4561SOL    HW225143   2.290   0.909   7.446  0.9896 -2.0132  1.3817
 4562SOL     OW25144   2.299   3.338  15.618 -0.0918 -0.1422  0.5049
 4562SOL    HW125145   2.339   3.369  15.537 -0.6124 -2.2369 -0.5647
 4562SOL    HW225146   2.286   3.248  15.589 -0.9117 -0.2125  1.0670
 4563SOL     OW25147   4.670   2.723  17.448  0.0947  0.9330  0.1464
 4563SOL    HW125148   4.656   2.790  17.382 -1.0365 -0.0914 -0.6681
 4563SOL    HW225149   4.694   2.778  17.522  1.1688  1.0513 -0.2939
 4564SOL     OW25150   2.160   0.187   8.344  0.4996  0.2055  0.0398
 4564SOL    HW125151   2.221   0.165   8.414 -1.0599 -1.9166  0.7220
 4564SOL    HW225152   2.115   0.266   8.374  0.5457  0.5193 -0.7121
 4565SOL     OW25153   0.012   1.493  14.967 -0.0298 -0.3518 -0.2114
 4565SOL    HW125154   4.657   1.511  14.916 -0.1581 -4.1635 -1.3405
 4565SOL    HW225155   0.068   1.452  14.900  0.5354 -1.2279  0.7921
 4566SOL     OW25156   3.394   3.195   8.958 -0.1149  0.1749 -0.0411
 4566SOL    HW125157   3.418   3.104   8.971  0.6836 -0.0053 -2.9002
 4566SOL    HW225158   3.473   3.245   8.978  0.7835 -0.3119 -2.3731
 4567SOL     OW25159   4.354   0.259   9.896  0.2720  0.0249 -0.1182
 4567SOL    HW125160   4.411   0.336   9.887 -0.9967  0.8794 -0.8339
 4567SOL    HW225161   4.272   0.302   9.919  1.0882  0.3015  2.3851
 4568SOL     OW25162   4.227   2.745   0.959  0.7861 -0.0641  1.0058
 4568SOL    HW125163   4.231   2.832   0.999  1.6112 -0.4230  1.6953
 4568SOL    HW225164   4.320   2.725   0.949  0.5502 -0.9284  0.5459
 4569SOL     OW25165   0.308   3.270   9.101  0.3032 -0.2479  0.2531
 4569SOL    HW125166   0.230   3.322   9.083 -1.3035 -2.5201  0.5574
 4569SOL    HW225167   0.343   3.335   9.161 -0.2550  0.0693  0.2385
 4570SOL     OW25168   2.988   3.495   5.553 -0.5591  0.1991  0.0452
 4570SOL    HW125169   2.933   3.513   5.628 -0.4875 -0.8953  0.3714
 4570SOL    HW225170   3.004   3.581   5.514 -1.3509 -0.7008 -2.2895
 4571SOL     OW25171   2.116   0.546   0.628  0.2940 -0.1977  0.1405
 4571SOL    HW125172   2.080   0.546   0.717 -1.9578  0.0765 -0.7786
 4571SOL    HW225173   2.108   0.641   0.621 -1.4368 -0.2727  0.9052
 4572SOL     OW25174   2.983   3.414   2.338  0.3412 -0.1033 -0.2969
 4572SOL    HW125175   3.068   3.421   2.295  0.4595 -0.8631 -0.1825
 4572SOL    HW225176   2.946   3.502   2.330  0.5691  0.1182  1.0307
 4573SOL     OW25177   2.640   2.438   4.197 -0.0659 -0.4436  0.1741
 4573SOL    HW125178   2.545   2.451   4.193 -0.0862 -1.2306 -1.9175
 4573SOL    HW225179   2.664   2.526   4.228 -1.0582 -0.3180  0.5783
 4574SOL     OW25180   0.644   2.652   3.220  0.4062 -0.2784  0.7374
 4574SOL    HW125181   0.609   2.564   3.205  0.3662 -0.6803  3.2249
 4574SOL    HW225182   0.618   2.697   3.139  1.7655 -1.1520 -0.1864
 4575SOL     OW25183   3.297   3.722   0.179 -0.0339 -0.1296  0.4367
 4575SOL    HW125184   3.303   3.801   0.126 -0.2998 -0.2502  0.2278
 4575SOL    HW225185   3.364   3.730   0.248  0.2260  1.9021 -0.0565
 4576SOL     OW25186   3.065   3.568   4.756  0.0767  0.1948  0.1193
 4576SOL    HW125187   3.098   3.656   4.772  1.7312 -0.4744  0.3291
 4576SOL    HW225188   3.005   3.556   4.830  1.1443  1.2013  1.1351
 4577SOL     OW25189   2.591   2.357   8.155  0.0891 -0.3276 -0.1963
 4577SOL    HW125190   2.549   2.274   8.132 -1.3476  0.2521  0.4000
 4577SOL    HW225191   2.523   2.400   8.206  0.3403 -0.8981  0.6070
 4578SOL     OW25192   2.156   1.952   8.361 -0.3780  0.1209  0.5220
 4578SOL    HW125193   2.102   1.985   8.433  1.0687  2.8962  0.3086
 4578SOL    HW225194   2.090   1.896   8.320 -0.0140  0.8017 -0.9728
 4579SOL     OW25195   2.805   0.379   7.256 -0.1347 -0.1579  0.3259
 4579SOL    HW125196   2.731   0.325   7.283  0.3352 -0.8624  0.1752
 4579SOL    HW225197   2.856   0.320   7.201  1.8511  0.3570  1.5974
 4580SOL     OW25198   4.063   0.625   7.861 -0.2895 -0.1173  0.2094
 4580SOL    HW125199   4.115   0.705   7.860  0.9293 -0.9078  1.0448
 4580SOL    HW225200   4.116   0.557   7.902 -1.1179  1.0191  3.1512
 4581SOL     OW25201   3.365   2.287   2.775  0.2637  0.3304 -0.3197
 4581SOL    HW125202   3.302   2.265   2.844 -0.7516 -0.1967 -1.4255
 4581SOL    HW225203   3.298   2.308   2.711 -0.0104  0.1617 -0.0881
 4582SOL     OW25204   4.428   4.088   8.184  0.3466 -0.0292 -0.2313
 4582SOL    HW125205   4.474   4.150   8.127  0.1488  0.0667 -0.2865
 4582SOL    HW225206   4.365   4.150   8.221 -1.2411 -1.5931 -0.3160
 4583SOL     OW25207   0.628   0.808  12.625  0.2959  0.6810  0.5132
 4583SOL    HW125208   0.693   0.817  12.694  2.5574  0.5393 -1.6108
 4583SOL    HW225209   0.562   0.776  12.686 -0.0192 -0.0725 -0.2106
 4584SOL     OW25210   4.071   4.440   6.007  0.3118 -0.4725  0.2698
 4584SOL    HW125211   4.085   4.511   6.069  0.4022 -1.8833  1.8436
 4584SOL    HW225212   3.978   4.460   5.994  0.5380  1.0587  0.9736
 4585SOL     OW25213   1.133   3.143   3.269 -0.6070  0.6466  0.3690
 4585SOL    HW125214   1.054   3.194   3.254 -1.4842 -1.0747 -0.8256
 4585SOL    HW225215   1.145   3.113   3.179  3.7601 -0.5043  1.3185
 4586SOL     OW25216   0.157   2.450   3.903 -0.3578 -0.5309 -0.1779
 4586SOL    HW125217   0.207   2.532   3.903 -0.2119 -0.6184 -0.4147
 4586SOL    HW225218   0.083   2.464   3.961  1.1400  0.8692  1.4161
 4587SOL     OW25219   0.691   2.005   7.157 -0.2069  0.3879 -0.2060
 4587SOL    HW125220   0.685   2.074   7.223  1.4484  0.2712  0.0587
 4587SOL    HW225221   0.603   1.967   7.153  0.3781 -1.0959  1.0124
 4588SOL     OW25222   0.944   2.014   5.652  0.3731  0.1788 -0.2440
 4588SOL    HW125223   0.889   2.087   5.677 -0.4567  0.1622 -2.0227
 4588SOL    HW225224   1.025   2.035   5.700  1.6616  1.7815 -3.1529
 4589SOL     OW25225   4.442   0.015   6.161 -0.3730 -0.0112  0.0097
 4589SOL    HW125226   4.406   0.087   6.110  0.0999 -1.2145 -2.0246
 4589SOL    HW225227   4.398   0.031   6.245 -0.8043  2.1861 -0.6418
 4590SOL     OW25228   0.803   3.267  11.534 -0.4545  0.1099 -0.1748
 4590SOL    HW125229   0.763   3.190  11.574 -2.2327  0.3029 -1.5293
 4590SOL    HW225230   0.813   3.320  11.613 -0.9653  0.2675 -0.2153
 4591SOL     OW25231   2.647   4.646  14.877  0.3896  0.4259  0.6159
 4591SOL    HW125232   2.566   4.620  14.833  0.2056  2.4770 -0.2413
 4591SOL    HW225233   2.647   4.578  14.944 -3.1191  0.5236  0.7300
 4592SOL     OW25234   1.205   3.344   8.460 -0.4096  0.2585 -0.6053
 4592SOL    HW125235   1.249   3.262   8.481  0.0462  0.7724  0.4383
 4592SOL    HW225236   1.194   3.395   8.540  2.6511  2.0530 -1.3425
 4593SOL     OW25237   2.724   3.817  17.556  0.1025  0.4096 -0.5233
 4593SOL    HW125238   2.633   3.844  17.572  0.0942  0.1916 -0.2004
 4593SOL    HW225239   2.765   3.888  17.507 -1.5056  0.8773 -1.1846
 4594SOL     OW25240   0.003   1.502   4.480  0.2441 -0.1936  0.4973
 4594SOL    HW125241   0.025   1.441   4.409 -1.2515  1.5253 -1.4194
 4594SOL    HW225242   4.653   1.549   4.443  0.4168  1.6184  2.4990
 4595SOL     OW25243   1.225   3.080  16.806 -0.0609 -0.7726  0.4604
 4595SOL    HW125244   1.154   3.066  16.743  0.7223  2.7156 -1.1928
 4595SOL    HW225245   1.227   3.174  16.819  0.0585 -0.9201  1.5082
 4596SOL     OW25246   3.934   1.584  12.708  0.7524  0.1682 -0.5304
 4596SOL    HW125247   3.857   1.611  12.658 -0.8044 -1.7138  0.8318
 4596SOL    HW225248   3.983   1.662  12.733  1.1151 -0.7153  1.5463
 4597SOL     OW25249   4.023   4.368  12.392 -0.1417  0.6011  0.0232
 4597SOL    HW125250   4.031   4.448  12.338  1.0114  0.8357  0.5379
 4597SOL    HW225251   3.950   4.393  12.448 -1.2453 -2.3594 -0.1253
 4598SOL     OW25252   3.651   2.494   8.619  0.1104  0.0716  0.0488
 4598SOL    HW125253   3.566   2.485   8.663  0.1141  1.0180  0.2524
 4598SOL    HW225254   3.665   2.400   8.613 -0.5462 -0.0844  1.0349
 4599SOL     OW25255   3.407   3.923   5.516  0.4930  0.1044  1.0701
 4599SOL    HW125256   3.365   3.895   5.597  0.1268 -1.2307  0.4240
 4599SOL    HW225257   3.395   3.849   5.456 -0.2581  2.5438 -1.8076
 4600SOL     OW25258   1.127   2.373   8.037  0.2951 -0.3589  0.2617
 4600SOL    HW125259   1.123   2.323   8.119  0.9113  0.0250  0.5242
 4600SOL    HW225260   1.212   2.415   8.051  0.8966 -1.0290 -1.3833
 4601SOL     OW25261   1.828   4.155   6.924 -0.5159  0.2107  0.1654
 4601SOL    HW125262   1.788   4.079   6.966 -0.3125 -0.3601 -0.6893
 4601SOL    HW225263   1.753   4.177   6.868  0.1139  0.8852 -0.3995
 4602SOL     OW25264   2.069   3.922   8.500 -0.5317 -0.1553  0.2360
 4602SOL    HW125265   2.074   3.923   8.596 -2.2524  0.8610  0.3295
 4602SOL    HW225266   2.053   3.829   8.487 -1.1683 -0.1757  1.1355
 4603SOL     OW25267   1.154   0.000  16.537  0.0034  0.0119 -0.1253
 4603SOL    HW125268   1.201   4.678  16.468  1.2633  1.6822 -0.3965
 4603SOL    HW225269   1.199   0.085  16.533 -0.3023  0.1828 -0.0181
 4604SOL     OW25270   4.358   2.502   4.690  0.3166  0.0333 -0.5979
 4604SOL    HW125271   4.403   2.563   4.749 -0.3843 -1.1387  1.1304
 4604SOL    HW225272   4.265   2.508   4.712  0.3704  0.8300 -0.5666
 4605SOL     OW25273   1.031   2.182  10.493  0.2528  0.0439  0.5420
 4605SOL    HW125274   1.121   2.153  10.478 -0.2755 -1.1889 -0.2933
 4605SOL    HW225275   1.028   2.182  10.588  3.8436  1.5625  0.6512
 4606SOL     OW25276   0.200   1.636   9.494 -0.2888  0.4611 -0.2954
 4606SOL    HW125277   0.200   1.574   9.568 -0.9162 -0.3197 -0.9490
 4606SOL    HW225278   0.293   1.646   9.477 -0.1612 -2.0615 -1.1128
 4607SOL     OW25279   2.240   3.437   3.898  0.2280  0.0600  0.2083
 4607SOL    HW125280   2.166   3.486   3.933  2.3317  1.2581  3.0471
 4607SOL    HW225281   2.266   3.488   3.821 -0.4855  2.5941  1.6429
 4608SOL     OW25282   4.373   1.910   3.696 -0.1436  0.1575  0.2239
 4608SOL    HW125283   4.348   1.896   3.787  0.6668 -0.0629  0.4151
 4608SOL    HW225284   4.434   1.838   3.681 -2.4353 -1.6439 -0.3467
 4609SOL     OW25285   3.049   4.075   1.801  0.3378  0.0864  0.6975
 4609SOL    HW125286   2.989   4.117   1.863 -0.6818 -0.0175 -0.2174
 4609SOL    HW225287   2.987   4.008   1.770 -0.0479 -0.6600  3.0567
 4610SOL     OW25288   3.705   1.841   5.535  0.3114 -0.3413  0.6433
 4610SOL    HW125289   3.729   1.749   5.521  2.0536  0.3758 -1.0203
 4610SOL    HW225290   3.654   1.843   5.616  3.0637  1.1008  2.3307
 4611SOL     OW25291   2.683   3.360  14.025  0.3762 -0.2178  0.0051
 4611SOL    HW125292   2.756   3.416  13.998  0.4696 -0.3730 -0.0648
 4611SOL    HW225293   2.714   3.270  14.022 -2.4009 -1.1904  1.0330
 4612SOL     OW25294   4.126   2.512  12.594  0.0812 -0.3388  0.8393
 4612SOL    HW125295   4.143   2.582  12.657 -3.5499  1.6502 -0.3498
 4612SOL    HW225296   4.030   2.517  12.586  0.3951 -2.3430 -4.0513
 4613SOL     OW25297   3.677   0.015   3.162  0.3423 -0.1877  0.3194
 4613SOL    HW125298   3.735   4.670   3.196  0.8761 -0.6617 -1.5358
 4613SOL    HW225299   3.694   0.021   3.068  0.1614  2.4702  0.4741
 4614SOL     OW25300   2.728   0.985   6.145 -0.1108  0.3149 -0.6641
 4614SOL    HW125301   2.709   1.077   6.161 -0.0135  0.6090 -2.2971
 4614SOL    HW225302   2.807   0.976   6.198 -1.8149 -1.1068  1.6765
 4615SOL     OW25303   2.991   1.397   0.265 -0.3668 -0.3849 -0.0496
 4615SOL    HW125304   2.977   1.377   0.357  0.5488 -2.0043 -0.2730
 4615SOL    HW225305   3.071   1.442   0.290 -1.7466  1.3328  1.3031
 4616SOL     OW25306   3.254   0.143  16.203  0.0070  0.2955 -0.5997
 4616SOL    HW125307   3.236   0.092  16.282  2.6022 -0.6358 -0.5794
 4616SOL    HW225308   3.341   0.107  16.184  1.1890  2.6918  0.1812
 4617SOL     OW25309   1.577   3.005   2.243  0.0693  0.3424 -0.6634
 4617SOL    HW125310   1.606   2.939   2.306  0.7525  1.4468  0.1671
 4617SOL    HW225311   1.494   3.031   2.282  1.0625  2.5392 -0.0135
 4618SOL     OW25312   1.338   4.341   1.212  0.1066 -0.0557 -0.1329
 4618SOL    HW125313   1.297   4.255   1.204 -0.2243  0.1667 -0.8171
 4618SOL    HW225314   1.322   4.364   1.121 -1.1145  5.1215  1.4145
 4619SOL     OW25315   1.242   3.816   3.809 -0.5218  0.4791 -0.9229
 4619SOL    HW125316   1.163   3.854   3.770 -1.7485  0.2430  1.3167
 4619SOL    HW225317   1.268   3.883   3.872 -2.2771  1.0460 -0.7830
 4620SOL     OW25318   1.850   2.768   8.148  0.0743 -0.2522  0.3239
 4620SOL    HW125319   1.826   2.859   8.162  1.2287 -0.0870  1.2226
 4620SOL    HW225320   1.832   2.726   8.232 -0.6749  1.3267  0.9539
 4621SOL     OW25321   4.195   1.144  13.270  0.4898 -0.4621 -0.4105
 4621SOL    HW125322   4.255   1.187  13.209  2.1959 -0.8057  1.0140
 4621SOL    HW225323   4.163   1.071  13.217  0.8410  0.7154 -2.2592
 4622SOL     OW25324   2.098   2.093  12.994 -0.1981 -0.6340  0.4225
 4622SOL    HW125325   2.110   2.151  13.069  2.6014  0.6144 -0.9549
 4622SOL    HW225326   2.010   2.114  12.963 -0.0340 -1.3611 -0.5345
 4623SOL     OW25327   3.779   2.973  16.961 -0.2340 -0.5448  0.0728
 4623SOL    HW125328   3.765   2.931  17.046  1.0959  0.4669  0.8014
 4623SOL    HW225329   3.837   2.907  16.922  1.3060  1.2433 -0.6532
 4624SOL     OW25330   4.164   3.855   8.319 -0.1306 -0.1316 -0.0837
 4624SOL    HW125331   4.161   3.942   8.278 -1.3397 -1.2632 -2.3827
 4624SOL    HW225332   4.247   3.857   8.366 -0.7862 -3.4458  1.1737
 4625SOL     OW25333   0.836   0.896   4.218 -0.6208 -0.2304  0.0634
 4625SOL    HW125334   0.781   0.868   4.292  0.6975 -1.4193  0.5864
 4625SOL    HW225335   0.850   0.990   4.232  1.3304 -0.8388  2.1182
 4626SOL     OW25336   3.460   4.631   5.512  0.4407 -0.1140 -0.5862
 4626SOL    HW125337   3.508   4.637   5.429  0.6388 -0.5638 -0.5062
 4626SOL    HW225338   3.403   4.558   5.488  0.7267 -0.8422  0.9695
 4627SOL     OW25339   4.343   2.212   9.049  0.4235  0.3811  0.5807
 4627SOL    HW125340   4.307   2.166   8.974  0.7544  0.2229  0.5213
 4627SOL    HW225341   4.269   2.226   9.108 -0.9001 -0.0250 -0.9906
 4628SOL     OW25342   0.645   3.709  14.401 -0.0725  0.7676  0.6073
 4628SOL    HW125343   0.660   3.708  14.307  1.6790 -0.1067  0.8941
 4628SOL    HW225344   0.550   3.722  14.395 -0.7110 -3.0857  2.5969
 4629SOL     OW25345   0.816   2.622   5.530 -0.2271  0.2389 -0.6758
 4629SOL    HW125346   0.761   2.635   5.453 -0.7946 -0.7389 -0.4475
 4629SOL    HW225347   0.812   2.701   5.583 -0.4555 -0.9838  1.1589
 4630SOL     OW25348   0.854   1.460  11.219 -0.8073  0.6520 -0.4050
 4630SOL    HW125349   0.909   1.532  11.189 -0.7858  1.8786  2.5504
 4630SOL    HW225350   0.814   1.493  11.300  1.9085 -1.8415  1.9847
 4631SOL     OW25351   2.517   0.807   3.551  0.1806  0.3244  0.2633
 4631SOL    HW125352   2.558   0.887   3.584  1.3782 -0.9012  1.7661
 4631SOL    HW225353   2.511   0.758   3.634 -0.6757  0.3812  0.2301
 4632SOL     OW25354   0.346   3.083   6.978 -0.4214  0.0785 -0.1168
 4632SOL    HW125355   0.441   3.094   6.968 -0.2281 -1.2703  0.3199
 4632SOL    HW225356   0.325   3.122   7.063 -0.2165  0.3482 -0.1879
 4633SOL     OW25357   0.665   3.323  14.309  0.3341 -0.1863 -0.7051
 4633SOL    HW125358   0.648   3.404  14.260  1.6003 -0.1554 -1.0982
 4633SOL    HW225359   0.576   3.291  14.298  0.0644  0.7693 -1.3767
 4634SOL     OW25360   1.148   2.955   3.007  0.8588 -0.3092  0.2798
 4634SOL    HW125361   1.084   3.006   2.957 -1.2901 -0.5559  2.7851
 4634SOL    HW225362   1.106   2.869   3.016 -2.8679  1.5516  0.8247
 4635SOL     OW25363   1.072   0.653  11.803 -0.3212 -0.3855 -0.3646
 4635SOL    HW125364   1.025   0.623  11.881 -2.3043  1.0688 -0.9823
 4635SOL    HW225365   1.017   0.618  11.733  0.2989  0.6722 -1.3839
 4636SOL     OW25366   0.909   3.712   2.132 -0.6135  0.0774 -0.1212
 4636SOL    HW125367   0.854   3.701   2.209 -0.8473 -0.8164 -0.4063
 4636SOL    HW225368   0.995   3.688   2.165 -1.3398 -1.1406  0.8858
 4637SOL     OW25369   3.166   1.696   8.541  0.2792 -0.1197 -0.6641
 4637SOL    HW125370   3.128   1.721   8.456  0.4737 -0.3950 -0.8317
 4637SOL    HW225371   3.256   1.717   8.512  0.4823 -0.7732 -0.4971
 4638SOL     OW25372   0.619   1.570   2.138  0.5372  0.3322 -0.0093
 4638SOL    HW125373   0.619   1.637   2.070  2.4824 -0.4077 -0.7523
 4638SOL    HW225374   0.617   1.493   2.081  1.5120 -1.3763  2.2491
 4639SOL     OW25375   1.735   4.081  12.032 -0.1251 -0.3241  0.0648
 4639SOL    HW125376   1.785   4.147  11.984 -2.5962  0.4357 -1.4419
 4639SOL    HW225377   1.805   4.031  12.073 -0.7267 -1.9061 -0.8588
 4640SOL     OW25378   3.484   4.214   2.241  0.1810  0.3889  0.0152
 4640SOL    HW125379   3.426   4.211   2.316 -1.5526 -1.2462 -1.3765
 4640SOL    HW225380   3.505   4.307   2.243 -1.5355  0.8070 -1.6706
 4641SOL     OW25381   0.905   2.829  12.545 -0.0353  0.3037 -0.1649
 4641SOL    HW125382   0.912   2.734  12.531  0.4130 -0.0433  2.3135
 4641SOL    HW225383   0.881   2.860  12.458 -3.3263  0.3135  0.7437
 4642SOL     OW25384   1.035   2.514   3.548  0.4143  0.2594  0.4704
 4642SOL    HW125385   1.080   2.544   3.469 -2.2398 -1.4952 -1.6709
 4642SOL    HW225386   0.943   2.520   3.522  0.8222 -0.1943 -1.0456
 4643SOL     OW25387   0.636   4.189   4.469  0.0880 -0.7908  0.0727
 4643SOL    HW125388   0.653   4.247   4.394 -0.2140  0.1712  0.7457
 4643SOL    HW225389   0.680   4.232   4.542  1.6431 -0.3756 -1.0996
 4644SOL     OW25390   3.813   3.906  15.862  0.1546  0.4373  0.5923
 4644SOL    HW125391   3.826   4.000  15.846 -2.2279  0.7649  0.5581
 4644SOL    HW225392   3.846   3.909  15.952  1.0568  0.0493  0.2788
 4645SOL     OW25393   3.602   3.668   4.713 -0.2788  0.3821 -0.2778
 4645SOL    HW125394   3.569   3.602   4.653  0.1475 -0.0916  0.0047
 4645SOL    HW225395   3.517   3.685   4.754 -0.6249 -0.3385 -0.7074
 4646SOL     OW25396   3.270   4.393  15.721 -0.3108 -0.2344 -0.2946
 4646SOL    HW125397   3.340   4.451  15.749 -0.6997 -1.4335  3.0988
 4646SOL    HW225398   3.295   4.397  15.628 -3.2916 -0.0591 -1.0882
 4647SOL     OW25399   2.634   3.427   5.082  0.4929 -0.1517  0.6906
 4647SOL    HW125400   2.660   3.357   5.141  0.1358  1.2053  2.4459
 4647SOL    HW225401   2.541   3.406   5.082  0.2593  0.8070 -2.1611
 4648SOL     OW25402   1.630   2.459  10.444  0.5441  0.0976 -0.2036
 4648SOL    HW125403   1.610   2.457  10.350 -0.5040 -0.6490  0.0405
 4648SOL    HW225404   1.649   2.549  10.468 -2.2350  0.8880 -1.0131
 4649SOL     OW25405   2.595   2.274  16.461  0.2943 -0.3355 -0.1692
 4649SOL    HW125406   2.538   2.244  16.390  3.2649 -0.1828 -2.6205
 4649SOL    HW225407   2.660   2.205  16.467 -1.0915 -1.4576  2.0469
 4650SOL     OW25408   0.742   1.684  15.635  0.2979  0.5502  0.2571
 4650SOL    HW125409   0.769   1.694  15.544 -0.7710 -0.0545 -0.1228
 4650SOL    HW225410   0.808   1.738  15.679 -0.0178  1.8655 -0.8899
 4651SOL     OW25411   3.791   2.589   9.303 -0.4578  0.0232 -0.0703
 4651SOL    HW125412   3.793   2.496   9.280 -0.4366 -0.1416  0.5827
 4651SOL    HW225413   3.873   2.597   9.353 -1.0250  0.3728  0.8138
 4652SOL     OW25414   0.168   2.804   9.733  0.1477 -0.1619  0.4052
 4652SOL    HW125415   0.227   2.860   9.783  2.0798 -1.5709 -0.2774
 4652SOL    HW225416   0.086   2.810   9.782 -0.1601  3.0779 -0.5058
 4653SOL     OW25417   1.786   0.499   2.289  0.2761 -0.5298 -0.0522
 4653SOL    HW125418   1.801   0.438   2.361 -0.2714 -0.5151  0.0774
 4653SOL    HW225419   1.870   0.545   2.287  0.3174 -0.6375 -0.7390
 4654SOL     OW25420   2.864   3.522  17.331  0.0402  0.2085 -0.7500
 4654SOL    HW125421   2.898   3.497  17.417 -1.1038  0.1257 -0.3170
 4654SOL    HW225422   2.915   3.602  17.319 -0.5051  0.7531  0.4842
 4655SOL     OW25423   3.311   2.252   2.332  0.4255  0.4986 -0.1106
 4655SOL    HW125424   3.297   2.338   2.292 -3.4387 -0.2446 -0.3998
 4655SOL    HW225425   3.371   2.213   2.268  3.4472  0.8207  2.5399
 4656SOL     OW25426   1.959   2.069  10.544  0.4592 -0.7028 -0.5054
 4656SOL    HW125427   1.874   2.039  10.575 -0.2907  1.7845 -0.1698
 4656SOL    HW225428   1.927   2.146  10.498 -1.0568 -1.0802 -0.0857
 4657SOL     OW25429   3.534   3.947  11.639  0.1983 -0.2776  0.8802
 4657SOL    HW125430   3.456   3.894  11.654 -0.6103  0.6099 -0.1940
 4657SOL    HW225431   3.507   4.031  11.675 -0.5037 -0.2880  0.3855
 4658SOL     OW25432   0.327   0.222   4.605  0.9241  0.1654 -0.1155
 4658SOL    HW125433   0.321   0.227   4.701 -0.9752  0.5324 -0.2469
 4658SOL    HW225434   0.413   0.263   4.596 -0.1861  2.4387 -0.4425
 4659SOL     OW25435   1.949   1.127   5.389 -0.3029 -0.2206  0.0180
 4659SOL    HW125436   1.871   1.087   5.429  0.3928 -0.9146  0.6673
 4659SOL    HW225437   1.943   1.221   5.406  0.7437 -0.5360  2.0956
 4660SOL     OW25438   1.887   0.741   1.652  0.1924 -0.0185  0.0405
 4660SOL    HW125439   1.900   0.657   1.694  0.8413  0.5801  1.0318
 4660SOL    HW225440   1.819   0.782   1.705  1.8265  2.9038 -0.0920
 4661SOL     OW25441   2.591   3.522   1.886  0.2907 -0.6409  0.2788
 4661SOL    HW125442   2.597   3.434   1.849 -1.1423 -0.3275 -0.7136
 4661SOL    HW225443   2.509   3.525   1.936  0.1458 -0.2853  0.0158
 4662SOL     OW25444   0.716   3.700   8.169  0.4187  0.1001  0.3122
 4662SOL    HW125445   0.722   3.605   8.173 -0.8330  0.0427  0.9679
 4662SOL    HW225446   0.627   3.710   8.134  0.2630  0.9398  0.9421
 4663SOL     OW25447   1.703   2.940   7.020  0.6010  0.2387  0.0230
 4663SOL    HW125448   1.712   2.869   7.083 -0.4008 -1.4855 -1.7433
 4663SOL    HW225449   1.615   2.972   7.039  0.8338  0.3846  0.8194
 4664SOL     OW25450   0.538   4.647   3.915  0.4119 -0.1351  0.0181
 4664SOL    HW125451   0.500   0.009   3.902 -2.1982 -1.3118 -0.0799
 4664SOL    HW225452   0.623   4.669   3.876 -0.7815  3.0793 -0.7800
 4665SOL     OW25453   1.218   4.094   0.690  0.1026  0.2200  0.6199
 4665SOL    HW125454   1.312   4.105   0.676 -0.6918 -0.2483 -5.0557
 4665SOL    HW225455   1.179   4.181   0.687 -0.3296 -0.0774 -2.6682
 4666SOL     OW25456   4.236   0.599  12.966  0.1778 -0.5049  0.2758
 4666SOL    HW125457   4.305   0.643  12.916  0.6505 -1.7599 -0.1622
 4666SOL    HW225458   4.158   0.608  12.911  0.8840 -1.7271 -0.9564
 4667SOL     OW25459   3.717   3.884   4.224 -0.3336 -0.4046 -0.4506
 4667SOL    HW125460   3.764   3.835   4.292 -0.8213 -1.4414 -0.8491
 4667SOL    HW225461   3.643   3.911   4.279  0.9302  2.3600 -0.1601
 4668SOL     OW25462   1.916   1.459  12.380 -0.3961  0.7120 -0.4781
 4668SOL    HW125463   1.870   1.530  12.424 -2.1691  0.1519 -1.4749
 4668SOL    HW225464   1.887   1.471  12.290 -0.4308 -1.7083 -0.7976
 4669SOL     OW25465   3.344   1.252   5.156 -0.2033 -0.2924  0.2488
 4669SOL    HW125466   3.388   1.260   5.071  2.7469 -0.5959  1.7656
 4669SOL    HW225467   3.422   1.261   5.210  0.3397  1.4520 -0.8174
 4670SOL     OW25468   2.042   3.174   2.871  0.0587  0.1773 -0.1562
 4670SOL    HW125469   2.127   3.205   2.901  0.1440 -0.2839  0.0954
 4670SOL    HW225470   1.978   3.200   2.938  0.2952  0.2448  0.0424
 4671SOL     OW25471   2.127   4.368   2.792 -0.0893  0.7757  0.0902
 4671SOL    HW125472   2.033   4.387   2.798 -0.4347 -0.4336 -1.2749
 4671SOL    HW225473   2.133   4.281   2.752  0.5347  2.2186 -2.9492
 4672SOL     OW25474   2.810   2.259   8.348 -1.4158  0.0405  0.2003
 4672SOL    HW125475   2.739   2.268   8.285 -1.6924 -2.1760  0.2055
 4672SOL    HW225476   2.890   2.262   8.296 -1.7614 -0.1659 -0.3343
 4673SOL     OW25477   2.777   4.706  11.522 -1.0409  0.3028 -0.5607
 4673SOL    HW125478   2.689   4.719  11.557 -0.3721  4.3515 -0.3844
 4673SOL    HW225479   2.787   0.063  11.473 -0.5886 -1.2706 -3.0340
 4674SOL     OW25480   0.034   4.015   1.508  0.2984  0.1006 -0.1458
 4674SOL    HW125481   0.032   3.923   1.534  0.2283  1.3084  4.0833
 4674SOL    HW225482   4.667   4.034   1.485 -0.1554 -2.5297 -0.5525
 4675SOL     OW25483   1.398   0.187  10.486  0.1454  0.0859 -0.1018
 4675SOL    HW125484   1.403   0.134  10.406  0.3219  0.5417 -0.3903
 4675SOL    HW225485   1.479   0.238  10.485  0.6161 -0.6085  1.5061
 4676SOL     OW25486   2.413   1.429  15.758  0.0344  0.3127  0.3139
 4676SOL    HW125487   2.351   1.495  15.789 -0.6526 -0.2779  0.1917
 4676SOL    HW225488   2.481   1.442  15.824 -0.8082  2.1847  0.8324
 4677SOL     OW25489   0.444   0.878   6.238 -0.2554  0.3451  0.1255
 4677SOL    HW125490   0.463   0.875   6.332  1.6070  0.0180 -0.2557
 4677SOL    HW225491   0.384   0.953   6.241 -1.9364 -1.0070  0.0527
 4678SOL     OW25492   0.761   3.811  16.225  0.4442 -0.4869 -0.8043
 4678SOL    HW125493   0.674   3.809  16.184  0.6554  2.3929 -1.3946
 4678SOL    HW225494   0.748   3.883  16.288 -1.7029 -1.1259 -0.4967
 4679SOL     OW25495   1.994   3.428  12.259  0.0613 -0.5037 -0.3337
 4679SOL    HW125496   1.929   3.429  12.329  1.8147  1.7323  1.2698
 4679SOL    HW225497   2.015   3.336  12.244  2.6847  0.2081 -0.9843
 4680SOL     OW25498   3.186   1.826   8.802  0.2201 -0.3431  0.4069
 4680SOL    HW125499   3.187   1.811   8.708 -3.8307  2.3731 -0.0774
 4680SOL    HW225500   3.228   1.745   8.833 -1.7367 -1.3149  0.5510
 4681SOL     OW25501   0.317   1.812   3.756  0.6780 -0.2607  0.2962
 4681SOL    HW125502   0.261   1.883   3.723  0.8816 -0.5886 -0.7798
 4681SOL    HW225503   0.318   1.747   3.686  0.1839  0.6623 -0.5851
 4682SOL     OW25504   1.029   4.338  11.001 -0.5523 -0.2198 -0.4938
 4682SOL    HW125505   1.087   4.317  11.075  0.8063 -0.7621 -1.7202
 4682SOL    HW225506   0.998   4.423  11.032  1.9068  0.8501 -0.9003
 4683SOL     OW25507   4.493   3.369   9.691 -0.9068 -0.2669 -0.0034
 4683SOL    HW125508   4.473   3.450   9.643 -1.5613 -0.2476  0.3013
 4683SOL    HW225509   4.497   3.294   9.632 -0.1206 -0.3917  0.2239
 4684SOL     OW25510   4.458   2.139   4.837 -0.1475 -0.5723  0.2997
 4684SOL    HW125511   4.538   2.182   4.869 -1.4992  1.8733  0.3874
 4684SOL    HW225512   4.488   2.063   4.788  1.2605  0.5996 -0.6494
 4685SOL     OW25513   0.928   0.650   3.658 -0.2424 -0.1163 -0.2974
 4685SOL    HW125514   0.962   0.636   3.746 -0.8039 -2.2558 -0.4243
 4685SOL    HW225515   0.837   0.622   3.672  0.2900 -1.4913  0.3987
 4686SOL     OW25516   4.290   3.637  15.275  0.0268  0.3285 -1.5234
 4686SOL    HW125517   4.321   3.699  15.340  1.6166 -1.0477 -0.9646
 4686SOL    HW225518   4.343   3.669  15.203  0.6850  0.6984 -0.8702
 4687SOL     OW25519   2.019   3.785   2.041  0.0123 -0.7635  0.9813
 4687SOL    HW125520   1.970   3.840   2.103 -0.1761  1.4475 -1.1188
 4687SOL    HW225521   1.997   3.702   2.084 -1.1404 -0.6151  0.6552
 4688SOL     OW25522   4.617   2.301   8.671  0.0783  0.5017  0.2349
 4688SOL    HW125523   4.689   2.346   8.626 -0.9824  1.0191 -0.9346
 4688SOL    HW225524   4.642   2.209   8.668 -0.3795  0.4438 -2.2920
 4689SOL     OW25525   3.664   3.963  15.250 -0.5846 -0.1441 -0.6354
 4689SOL    HW125526   3.714   3.957  15.169  1.8417  1.3808  0.7625
 4689SOL    HW225527   3.703   3.890  15.298  2.3608  0.6719 -1.8257
 4690SOL     OW25528   0.637   1.089   7.943  0.0526 -0.1168  0.2610
 4690SOL    HW125529   0.582   1.095   7.865  0.6267 -0.7299 -0.1886
 4690SOL    HW225530   0.692   1.011   7.929  3.1860  1.7175  2.3812
 4691SOL     OW25531   1.724   4.691   2.003 -0.3298  0.0364 -0.1819
 4691SOL    HW125532   1.793   4.688   2.069 -0.9687 -1.4303  0.4286
 4691SOL    HW225533   1.737   0.058   1.976 -0.0290  0.2327  0.6167
 4692SOL     OW25534   1.939   2.449  10.858  0.2453 -0.0889  0.0988
 4692SOL    HW125535   1.972   2.538  10.863  1.2175 -0.5576  2.0003
 4692SOL    HW225536   1.897   2.433  10.943 -1.2357  0.1530 -0.6035
 4693SOL     OW25537   3.692   0.037   7.235 -0.3264 -0.2480  0.0490
 4693SOL    HW125538   3.618   0.094   7.217  1.1012  1.3209 -0.8783
 4693SOL    HW225539   3.707   0.044   7.329 -1.6911 -1.2706  0.3445
 4694SOL     OW25540   0.069   0.676   2.698  0.3140 -0.8029 -0.1980
 4694SOL    HW125541   0.030   0.599   2.740 -1.9174  0.5742  0.2918
 4694SOL    HW225542   0.123   0.632   2.633  2.1917  2.1539 -0.6549
 4695SOL     OW25543   3.049   2.341   4.173  0.2105 -0.4065 -0.0243
 4695SOL    HW125544   3.040   2.246   4.182 -0.5277 -0.2899  0.4437
 4695SOL    HW225545   3.119   2.362   4.235  0.5484  1.6933 -1.1177
 4696SOL     OW25546   1.451   1.747   9.675  0.2110 -0.4575 -0.6113
 4696SOL    HW125547   1.509   1.728   9.748  0.9673  3.6830 -0.1691
 4696SOL    HW225548   1.394   1.670   9.679  0.1137 -0.3375  0.1571
 4697SOL     OW25549   3.975   2.968   9.732  0.5635 -0.1842  0.0289
 4697SOL    HW125550   4.020   3.039   9.686 -2.0552  3.1777  2.5635
 4697SOL    HW225551   4.009   2.960   9.821  0.2230  0.9155  0.2682
 4698SOL     OW25552   1.703   0.244   3.133 -0.2265 -0.1630  0.1329
 4698SOL    HW125553   1.689   0.150   3.140  3.5148 -0.6056  1.3117
 4698SOL    HW225554   1.616   0.279   3.154 -0.0884  0.1884  0.1268
 4699SOL     OW25555   1.322   1.864   7.280 -0.8587  0.0527  0.2991
 4699SOL    HW125556   1.257   1.923   7.317  1.4468  1.7821  1.6416
 4699SOL    HW225557   1.402   1.894   7.324  0.6471 -0.5250 -2.0033
 4700SOL     OW25558   1.239   3.177  10.016  0.7406  0.2409 -0.1895
 4700SOL    HW125559   1.261   3.252   9.960 -2.3408  1.1537 -0.1823
 4700SOL    HW225560   1.296   3.189  10.092 -4.0257  0.1467  3.4198
 4701SOL     OW25561   3.753   3.059   3.617 -0.8040  0.0102 -0.7765
 4701SOL    HW125562   3.739   2.965   3.633 -0.0245  0.0557  0.1623
 4701SOL    HW225563   3.716   3.077   3.531 -0.9711 -1.4616 -1.0218
 4702SOL     OW25564   3.704   1.867   4.231 -0.1851  0.4649  0.0795
 4702SOL    HW125565   3.747   1.839   4.312 -0.3305 -1.2080 -0.4424
 4702SOL    HW225566   3.759   1.941   4.204  0.3268  0.7151  1.7615
 4703SOL     OW25567   3.428   2.811   7.609 -0.0288  0.0378 -0.5822
 4703SOL    HW125568   3.346   2.770   7.637 -0.6573  1.5488 -0.2422
 4703SOL    HW225569   3.483   2.793   7.686 -1.2602  0.3594  0.3600
 4704SOL     OW25570   2.839   1.954   0.686  0.4472  0.3205  0.1978
 4704SOL    HW125571   2.821   1.863   0.709 -1.3104  1.0485  1.6346
 4704SOL    HW225572   2.928   1.969   0.719  0.7880 -0.5931 -0.3025
 4705SOL     OW25573   4.397   3.237   7.796  0.2204  0.3870  1.1256
 4705SOL    HW125574   4.383   3.198   7.709  1.1641 -1.3468  1.7461
 4705SOL    HW225575   4.366   3.170   7.857  1.1509 -0.1111  1.0533
 4706SOL     OW25576   4.200   3.420  11.762 -0.0460 -0.0272 -0.2395
 4706SOL    HW125577   4.113   3.409  11.802 -1.5246  1.1963 -3.1780
 4706SOL    HW225578   4.192   3.510  11.732  3.9277 -0.1381 -1.6084
 4707SOL     OW25579   4.366   3.167  11.764 -0.3208 -0.1425 -0.2483
 4707SOL    HW125580   4.443   3.217  11.789 -0.0351 -0.6453 -0.1149
 4707SOL    HW225581   4.293   3.221  11.793 -0.4306  1.4690 -3.4518
 4708SOL     OW25582   4.158   1.215   0.517  0.7267  0.0877  0.4250
 4708SOL    HW125583   4.212   1.158   0.572  0.4974 -1.5584 -1.0436
 4708SOL    HW225584   4.068   1.198   0.545  0.1206  3.0543  0.2151
 4709SOL     OW25585   2.204   2.161  10.186  0.1586  0.1561  0.6097
 4709SOL    HW125586   2.127   2.192  10.139 -1.3978  0.7244  3.5025
 4709SOL    HW225587   2.240   2.239  10.228 -0.6501  1.4180 -1.0434
 4710SOL     OW25588   1.854   3.931   2.217  0.6777  0.4084 -0.8460
 4710SOL    HW125589   1.781   3.955   2.275 -0.0621 -3.0978 -0.3345
 4710SOL    HW225590   1.859   4.010   2.164 -3.9452  0.9740 -0.4961
 4711SOL     OW25591   1.813   2.275   8.600 -0.4182 -0.3934  0.7273
 4711SOL    HW125592   1.738   2.221   8.578 -1.3744  1.1447  0.1964
 4711SOL    HW225593   1.782   2.366   8.602  0.6126 -0.0664  2.2110
 4712SOL     OW25594   3.075   4.338   4.937 -0.3086  0.3292  0.4547
 4712SOL    HW125595   3.004   4.330   5.000 -0.1928  0.8648  0.6581
 4712SOL    HW225596   3.131   4.270   4.976  2.1094  1.2380 -1.4178
 4713SOL     OW25597   0.209   1.130  17.411 -0.4142  0.0000  0.2405
 4713SOL    HW125598   0.292   1.174  17.433 -0.9396  1.8297 -1.5478
 4713SOL    HW225599   0.188   1.078  17.489  0.8040 -2.3500 -0.9840
 4714SOL     OW25600   4.169   4.124   7.243 -0.3726 -0.4415 -0.1568
 4714SOL    HW125601   4.112   4.068   7.191 -1.0642  2.7671 -2.8572
 4714SOL    HW225602   4.180   4.068   7.320  0.9858  0.5180  0.3414
 4715SOL     OW25603   2.211   2.028   4.988  0.1420 -0.1760 -0.2907
 4715SOL    HW125604   2.297   2.020   5.029 -0.1877  0.0336  0.4372
 4715SOL    HW225605   2.152   1.990   5.053  1.0775  2.3706  2.0502
 4716SOL     OW25606   1.260   2.363  10.044 -0.7283  0.2381 -0.0928
 4716SOL    HW125607   1.258   2.435  10.107 -0.5695  2.1958 -2.3373
 4716SOL    HW225608   1.190   2.304  10.072  0.2535 -1.4190 -1.1622
 4717SOL     OW25609   1.706   3.099  17.089  0.4499 -0.0211  0.2460
 4717SOL    HW125610   1.668   3.187  17.083  0.7431  0.0143 -1.0789
 4717SOL    HW225611   1.793   3.116  17.052  0.8151 -2.0037  0.1896
 4718SOL     OW25612   4.271   2.353   2.550 -0.0322 -0.4539  0.0832
 4718SOL    HW125613   4.293   2.316   2.464  1.1752 -0.4514  0.3883
 4718SOL    HW225614   4.203   2.412   2.519  2.6458  1.4146 -2.1869
 4719SOL     OW25615   1.639   4.604   0.187  0.0987  0.5681 -0.0119
 4719SOL    HW125616   1.581   4.628   0.114  0.1695 -0.7870 -0.5230
 4719SOL    HW225617   1.656   4.511   0.171 -2.6598  0.0775 -0.2133
 4720SOL     OW25618   2.546   1.001   9.130 -0.8108  0.4245  0.6711
 4720SOL    HW125619   2.500   0.919   9.147 -0.8181  0.5990  1.4975
 4720SOL    HW225620   2.538   1.042   9.216  0.1279 -0.7149  1.3047
 4721SOL     OW25621   2.075   2.179   7.729 -0.2269  0.2870  0.0027
 4721SOL    HW125622   2.023   2.228   7.792 -1.9453 -0.1385 -1.0715
 4721SOL    HW225623   2.130   2.250   7.696  1.5860 -0.7983  0.7064
 4722SOL     OW25624   4.146   4.722   5.410  0.0672  0.3119 -0.1698
 4722SOL    HW125625   4.138   0.090   5.387  1.1180  0.6019  0.6051
 4722SOL    HW225626   4.214   0.006   5.478  0.0934  2.5392 -0.4739
 4723SOL     OW25627   0.002   1.877   8.351  0.0092 -0.1800  0.1503
 4723SOL    HW125628   4.653   1.815   8.352 -0.4791  0.4100  1.2238
 4723SOL    HW225629   0.035   1.844   8.267  0.9516  0.7240  0.1722
 4724SOL     OW25630   4.325   4.596   3.741 -0.3878  0.4382  0.3899
 4724SOL    HW125631   4.314   4.590   3.646 -1.0439 -2.4486  0.6580
 4724SOL    HW225632   4.421   4.598   3.750 -0.3821 -0.9552  0.6760
 4725SOL     OW25633   0.756   1.392  15.032 -0.0000 -0.5233 -0.2737
 4725SOL    HW125634   0.813   1.325  15.071 -0.9155 -0.5532  1.0130
 4725SOL    HW225635   0.774   1.360  14.944 -2.4117  0.8842 -1.2426
 4726SOL     OW25636   1.253   2.638  12.192  0.1051 -0.3075 -0.6390
 4726SOL    HW125637   1.292   2.712  12.238 -2.0883 -1.0603  2.4782
 4726SOL    HW225638   1.162   2.637  12.222  0.5362  0.4372  0.6856
 4727SOL     OW25639   4.266   4.074   4.994 -0.4475 -0.0561 -0.2378
 4727SOL    HW125640   4.279   3.979   5.000  3.2760  0.5147  0.5616
 4727SOL    HW225641   4.276   4.082   4.899 -0.2958 -1.3010 -0.3291
 4728SOL     OW25642   2.161   2.250   4.854 -0.0522 -0.0894  0.4278
 4728SOL    HW125643   2.239   2.253   4.797  0.1808 -0.9656  0.6998
 4728SOL    HW225644   2.172   2.164   4.895  0.5157  1.1707  2.8530
 4729SOL     OW25645   1.654   3.723  13.141 -0.4521  0.8644 -0.1280
 4729SOL    HW125646   1.665   3.628  13.141  0.0378  0.9234 -0.3745
 4729SOL    HW225647   1.566   3.718  13.104  0.0080  1.1557 -1.2749
 4730SOL     OW25648   0.218   0.204   2.981 -0.0058 -0.4034  0.0300
 4730SOL    HW125649   0.140   0.191   2.927 -0.8029  0.7474  0.9045
 4730SOL    HW225650   0.183   0.207   3.070 -0.2863  2.8576 -0.2122
 4731SOL     OW25651   1.085   3.266  11.347 -0.1212  0.7932 -0.3129
 4731SOL    HW125652   1.113   3.350  11.311 -1.0539  0.8974 -0.7843
 4731SOL    HW225653   1.068   3.208  11.273  0.4829 -0.1079  0.2449
 4732SOL     OW25654   4.633   0.892   2.433 -0.2052  0.8731  0.4512
 4732SOL    HW125655   4.627   0.978   2.475 -1.4463  0.0993  1.8660
 4732SOL    HW225656   4.723   0.860   2.440 -0.1205  0.8350 -0.7901
 4733SOL     OW25657   0.022   3.736   4.252  0.8143 -0.0422  0.6266
 4733SOL    HW125658   0.093   3.773   4.200 -1.6050  2.2045 -1.0410
 4733SOL    HW225659   0.068   3.732   4.336 -1.4770  2.8306  2.0073
 4734SOL     OW25660   3.736   3.505   7.370 -0.0214 -0.0584 -0.6898
 4734SOL    HW125661   3.679   3.565   7.418 -2.3058 -2.1942 -0.7045
 4734SOL    HW225662   3.792   3.568   7.324  1.3952  0.6270  1.9253
 4735SOL     OW25663   1.983   3.098   6.579 -0.4498 -0.1703 -0.2461
 4735SOL    HW125664   1.889   3.084   6.570 -0.4081 -0.1718 -0.6979
 4735SOL    HW225665   2.003   3.053   6.497  0.3316 -0.8546  0.3202
 4736SOL     OW25666   3.750   4.195  11.806 -0.1206  0.0683  0.3555
 4736SOL    HW125667   3.749   4.285  11.838  2.6885 -0.4558  1.8923
 4736SOL    HW225668   3.692   4.152  11.869 -1.7039 -0.9686 -1.8285
 4737SOL     OW25669   1.727   4.393   6.508  0.6080 -0.0891 -0.0698
 4737SOL    HW125670   1.712   4.413   6.601  0.3178 -0.9165  0.0620
 4737SOL    HW225671   1.650   4.336   6.495  0.5089  0.1945 -0.7165
 4738SOL     OW25672   2.585   4.339   5.079 -0.5541 -0.1876 -0.0164
 4738SOL    HW125673   2.515   4.287   5.040  0.0354 -0.7033 -0.3859
 4738SOL    HW225674   2.580   4.409   5.014  0.2389  0.6765  0.8463
 4739SOL     OW25675   3.641   0.521   9.915 -0.0910 -0.3039 -0.2665
 4739SOL    HW125676   3.630   0.541  10.008 -2.9111  1.1265 -0.8917
 4739SOL    HW225677   3.550   0.506   9.886 -0.6055 -1.4338  1.9175
 4740SOL     OW25678   1.564   0.157   8.551 -0.3340  0.1286  0.9716
 4740SOL    HW125679   1.611   0.151   8.634  1.0375 -2.1548  0.0277
 4740SOL    HW225680   1.591   0.073   8.514  1.0215  0.4905  1.1235
 4741SOL     OW25681   1.471   3.658   2.923 -0.4130  0.0286 -0.2271
 4741SOL    HW125682   1.563   3.668   2.900 -0.3640  0.3391  0.0979
 4741SOL    HW225683   1.477   3.680   3.016  0.6585  0.9614 -0.5212
 4742SOL     OW25684   1.918   0.686   9.363 -0.1006 -0.0073 -0.0300
 4742SOL    HW125685   2.007   0.669   9.335 -0.7285 -0.3237 -1.8290
 4742SOL    HW225686   1.942   0.707   9.454 -0.8705  0.2928  0.1077
 4743SOL     OW25687   0.241   4.002  16.990 -0.1329 -0.0697  0.1384
 4743SOL    HW125688   0.256   4.052  16.910 -0.3935 -2.3819 -1.3741
 4743SOL    HW225689   0.282   3.922  16.957 -3.1914 -1.2669 -0.7909
 4744SOL     OW25690   0.718   4.262   1.967 -0.0193 -0.7821  0.0092
 4744SOL    HW125691   0.753   4.186   2.014  0.0489 -0.5059  0.3971
 4744SOL    HW225692   0.789   4.276   1.904 -0.4300 -0.6990 -0.4355
 4745SOL     OW25693   0.631   1.298   0.979 -0.3743  0.1640 -0.1919
 4745SOL    HW125694   0.679   1.220   0.952 -1.0636  0.5041 -2.3998
 4745SOL    HW225695   0.543   1.264   0.996 -0.0284 -0.5120  0.2405
 4746SOL     OW25696   3.889   4.021  13.390  0.1895  0.1527  0.2691
 4746SOL    HW125697   3.809   4.039  13.440  1.2473  1.1460  1.6003
 4746SOL    HW225698   3.875   4.092  13.328 -1.6815 -1.2026 -0.8448
 4747SOL     OW25699   1.324   0.826   6.301 -0.2495  0.2040 -0.6837
 4747SOL    HW125700   1.229   0.838   6.314 -0.0182  0.8060  0.4465
 4747SOL    HW225701   1.322   0.730   6.293  1.4146  0.2202 -1.1135
 4748SOL     OW25702   3.249   4.689   6.112  0.2058  0.5096  0.1641
 4748SOL    HW125703   3.194   4.614   6.089  1.6290 -0.9871  1.5308
 4748SOL    HW225704   3.337   4.651   6.100  0.6328  1.3151  0.7566
 4749SOL     OW25705   1.699   0.499   5.992  0.4948 -0.2196  0.2687
 4749SOL    HW125706   1.669   0.500   5.901  1.7523  1.3577 -0.1272
 4749SOL    HW225707   1.787   0.536   5.978  1.5165 -2.5654  0.5472
 4750SOL     OW25708   1.903   4.611   8.751  0.1944 -0.2456 -0.1725
 4750SOL    HW125709   1.983   4.651   8.717  0.6255  0.3396  1.5002
 4750SOL    HW225710   1.887   4.669   8.826 -0.8608 -0.2587 -0.3928
 4751SOL     OW25711   3.169   2.894   6.117 -0.0702 -0.1788  0.2981
 4751SOL    HW125712   3.174   2.851   6.032  0.5717  1.3565 -0.4391
 4751SOL    HW225713   3.159   2.985   6.088 -0.7557 -0.4138 -0.1960
 4752SOL     OW25714   2.566   4.037   9.016 -0.4941  0.2053 -0.1771
 4752SOL    HW125715   2.515   3.977   9.071 -0.9602 -0.8900 -1.7925
 4752SOL    HW225716   2.614   3.973   8.963  0.9068 -1.6100  3.2428
 4753SOL     OW25717   0.026   1.385   1.123 -0.3255  0.1331 -0.1692
 4753SOL    HW125718   0.096   1.449   1.114  0.7552 -1.1372 -0.8483
 4753SOL    HW225719   0.059   1.334   1.198 -0.3633 -1.5588 -1.2979
 4754SOL     OW25720   0.270   1.222   5.440 -0.8075  0.2583  0.1523
 4754SOL    HW125721   0.237   1.231   5.530  1.3825 -2.9600  1.2859
 4754SOL    HW225722   0.198   1.263   5.392 -0.1461  0.3245 -0.7672
 4755SOL     OW25723   1.446   4.491   6.984 -0.1834 -0.3355  0.1203
 4755SOL    HW125724   1.540   4.488   7.003 -0.7131 -0.7599  2.6109
 4755SOL    HW225725   1.428   4.584   7.002 -0.3194  0.1046 -2.2894
 4756SOL     OW25726   4.631   3.397   8.128 -0.3847  0.2909 -0.6436
 4756SOL    HW125727   4.538   3.385   8.150  0.0733 -3.0489 -0.5960
 4756SOL    HW225728   4.659   3.312   8.096 -1.0135  0.7322 -2.3888
 4757SOL     OW25729   1.002   3.813  12.822  0.3606 -0.0893 -0.1181
 4757SOL    HW125730   1.009   3.817  12.918  1.3356  1.2031 -0.2394
 4757SOL    HW225731   1.037   3.900  12.802  1.6812 -0.5542  0.2011
 4758SOL     OW25732   2.660   1.032  16.258 -0.3061  0.6351 -0.3170
 4758SOL    HW125733   2.720   0.981  16.311  0.5749  2.4940  0.4844
 4758SOL    HW225734   2.669   0.983  16.176  1.6514 -0.8953  0.8127
 4759SOL     OW25735   2.561   2.513   8.876  0.8374 -0.6656  0.3868
 4759SOL    HW125736   2.472   2.531   8.906  1.2570  1.8675  0.1267
 4759SOL    HW225737   2.540   2.489   8.785  0.3001 -0.7134  0.5194
 4760SOL     OW25738   2.499   4.518   1.483 -0.3797  0.1872 -0.3664
 4760SOL    HW125739   2.544   4.458   1.424 -0.8368 -1.7058  1.1790
 4760SOL    HW225740   2.439   4.561   1.422 -1.7806 -0.5447  0.4884
 4761SOL     OW25741   3.924   1.372   1.080  0.0134 -0.2018 -0.2599
 4761SOL    HW125742   3.935   1.383   0.985 -1.0505  1.0999 -0.2378
 4761SOL    HW225743   3.972   1.290   1.091 -2.2583 -1.7432 -1.8620
 4762SOL     OW25744   3.143   2.894   2.600  0.8413  0.3607  0.0064
 4762SOL    HW125745   3.227   2.937   2.614  0.1129  1.3404  1.4674
 4762SOL    HW225746   3.157   2.812   2.646 -1.5980  0.9059  1.7674
 4763SOL     OW25747   0.740   1.555   2.625 -0.2610  0.2664  0.3625
 4763SOL    HW125748   0.682   1.496   2.674 -0.1628 -1.2752 -1.4085
 4763SOL    HW225749   0.746   1.525   2.535  2.1204  0.8930  0.3005
 4764SOL     OW25750   2.140   0.871  16.088 -0.2593 -0.3133  0.2015
 4764SOL    HW125751   2.072   0.913  16.141 -1.2913 -2.4404  0.5610
 4764SOL    HW225752   2.130   0.920  16.006  1.1127  2.1089  1.4735
 4765SOL     OW25753   2.869   4.622  14.688  0.9186  0.1435  0.1119
 4765SOL    HW125754   2.810   4.619  14.763  1.5256  1.4065  0.6535
 4765SOL    HW225755   2.812   4.683  14.641 -0.1683  1.9200  3.7125
 4766SOL     OW25756   0.248   2.293   1.942 -0.5419  0.0242 -0.1368
 4766SOL    HW125757   0.296   2.211   1.946 -0.1105  0.2239 -0.9841
 4766SOL    HW225758   0.220   2.291   2.033  0.0458 -2.0255 -0.0105
 4767SOL     OW25759   3.311   0.639  11.942 -0.1523 -0.0665  0.7266
 4767SOL    HW125760   3.280   0.554  11.974  1.3222 -0.5961  0.7252
 4767SOL    HW225761   3.337   0.684  12.022  0.3721  2.9742 -1.1582
 4768SOL     OW25762   0.866   4.388   7.830 -1.0489  0.7643 -0.3846
 4768SOL    HW125763   0.861   4.320   7.897 -0.7341  0.8169 -0.3057
 4768SOL    HW225764   0.924   4.339   7.772  1.0698  1.3939  1.1710
 4769SOL     OW25765   3.489   0.355  12.150  0.2945  0.3542  0.0647
 4769SOL    HW125766   3.408   0.354  12.099  0.0752  0.1752  0.4161
 4769SOL    HW225767   3.518   0.442  12.123 -1.1560  0.5899 -0.7131
 4770SOL     OW25768   3.847   0.164   7.073 -0.1835 -0.2428  0.6008
 4770SOL    HW125769   3.797   0.095   7.118 -2.9366  0.7199 -0.9666
 4770SOL    HW225770   3.908   0.192   7.140  0.9810 -2.4702  0.4976
 4771SOL     OW25771   1.319   4.035   2.348 -0.0440  0.3129 -0.4023
 4771SOL    HW125772   1.306   4.045   2.443  2.6212  0.7458 -0.0937
 4771SOL    HW225773   1.303   3.941   2.350 -0.8266  0.4815  2.2981
 4772SOL     OW25774   3.294   1.740   5.552 -0.1178  0.2009 -0.0190
 4772SOL    HW125775   3.257   1.669   5.604 -3.4317  2.1192  0.3080
 4772SOL    HW225776   3.363   1.691   5.508 -1.0837 -1.0430 -0.1498
 4773SOL     OW25777   0.419   1.654   7.269 -0.9564  0.3528 -0.5200
 4773SOL    HW125778   0.366   1.663   7.349 -0.0495  1.7020 -0.0831
 4773SOL    HW225779   0.351   1.607   7.221 -1.9465 -0.4955  1.7009
 4774SOL     OW25780   3.255   2.557   9.484  0.0047 -0.7541  0.0055
 4774SOL    HW125781   3.193   2.629   9.474 -0.6251 -1.4040 -0.6998
 4774SOL    HW225782   3.218   2.490   9.428  2.9179 -1.5655 -0.9604
 4775SOL     OW25783   0.701   2.460  11.804  0.0016 -0.4056  0.2881
 4775SOL    HW125784   0.707   2.440  11.710 -0.4943 -0.2643  0.2258
 4775SOL    HW225785   0.783   2.509  11.804  0.0582 -0.4915 -1.0288
 4776SOL     OW25786   4.213   2.587   9.276 -0.1931 -0.2177 -0.4715
 4776SOL    HW125787   4.158   2.542   9.339 -0.6303  0.1823 -0.5733
 4776SOL    HW225788   4.301   2.573   9.311 -1.0559  0.4706  1.9157
 4777SOL     OW25789   4.107   2.750   0.536  0.7411  0.0143 -0.3921
 4777SOL    HW125790   4.079   2.811   0.605 -1.7533 -1.5205 -0.0340
 4777SOL    HW225791   4.030   2.752   0.479 -0.3287 -0.5720  1.0187
 4778SOL     OW25792   3.139   2.153  14.056 -0.4204  0.4867 -0.0872
 4778SOL    HW125793   3.058   2.203  14.048 -0.7012  0.2892  1.4714
 4778SOL    HW225794   3.101   2.066  14.045 -2.8230  1.2848  1.9354
 4779SOL     OW25795   1.856   4.112   8.699  0.1721  0.5053 -0.4429
 4779SOL    HW125796   1.806   4.031   8.708  2.1545 -0.6649 -0.0752
 4779SOL    HW225797   1.904   4.082   8.622 -0.1567  1.8354 -1.1661
 4780SOL     OW25798   2.050   3.071  10.826 -0.3406 -0.4096 -0.3792
 4780SOL    HW125799   2.091   3.157  10.837 -1.4460  0.2484 -1.5083
 4780SOL    HW225800   1.996   3.084  10.748  1.9825  1.6642 -1.6643
 4781SOL     OW25801   4.496   3.060   7.558  0.5779 -0.0445  0.0039
 4781SOL    HW125802   4.409   3.020   7.565  1.4355 -1.6395  1.3866
 4781SOL    HW225803   4.502   3.076   7.464 -0.0194 -1.0330 -0.2028
 4782SOL     OW25804   4.648   0.910   4.768 -0.4565 -0.0534  0.0819
 4782SOL    HW125805   0.017   0.910   4.791 -0.4603  0.4159  0.1097
 4782SOL    HW225806   4.653   0.974   4.697  0.6933  0.3045  0.4822
 4783SOL     OW25807   1.652   0.587   1.835  0.3356 -0.3732 -0.2193
 4783SOL    HW125808   1.566   0.546   1.846 -0.8288  2.8142  2.7885
 4783SOL    HW225809   1.623   0.675   1.810 -0.8125 -0.0509  2.3252
 4784SOL     OW25810   1.694   4.570  16.144  0.4776 -0.2075  0.1139
 4784SOL    HW125811   1.706   4.603  16.234 -1.6967 -2.3397  1.1812
 4784SOL    HW225812   1.785   4.583  16.115 -0.3093  0.3221 -2.1083
 4785SOL     OW25813   4.154   0.394  11.551 -0.4380  0.7225  0.4767
 4785SOL    HW125814   4.154   0.393  11.456  0.7111  0.3773  0.4819
 4785SOL    HW225815   4.192   0.480  11.568  0.8490 -0.2956  2.8137
 4786SOL     OW25816   2.410   0.410   6.776  0.8557 -0.0423  0.4447
 4786SOL    HW125817   2.412   0.416   6.680 -0.2587 -0.3094  0.4094
 4786SOL    HW225818   2.470   0.338   6.796  1.7165  0.7618  0.7552
 4787SOL     OW25819   3.794   4.024   3.874  0.3476  0.9891  0.2580
 4787SOL    HW125820   3.708   3.991   3.899 -0.1442  0.1709 -2.4368
 4787SOL    HW225821   3.779   4.119   3.874 -0.4884  0.8596  3.1484
 4788SOL     OW25822   3.328   3.779  11.036  0.1536  0.2207 -0.1769
 4788SOL    HW125823   3.387   3.756  10.964  2.7277  1.4296  1.5720
 4788SOL    HW225824   3.258   3.822  10.987  1.4039  1.7426 -0.6192
 4789SOL     OW25825   2.079   1.101   4.936  0.5228  0.1693  0.2944
 4789SOL    HW125826   2.059   1.126   4.846 -0.3921 -0.8505  0.2161
 4789SOL    HW225827   2.133   1.178   4.952 -0.9593  1.0644  0.9673
 4790SOL     OW25828   0.678   4.503   4.530  0.2716 -0.2449 -0.1889
 4790SOL    HW125829   0.615   4.518   4.459 -1.0847 -1.7961  0.6623
 4790SOL    HW225830   0.634   4.438   4.584 -0.0543  0.1040 -0.0326
 4791SOL     OW25831   3.060   4.477   7.767 -0.1653 -0.1548 -0.2320
 4791SOL    HW125832   3.145   4.512   7.794 -0.8832  0.5478  1.1065
 4791SOL    HW225833   3.012   4.558   7.746  0.6595  0.4316  0.1426
 4792SOL     OW25834   3.637   0.329  13.425  0.2506  0.2723  0.0706
 4792SOL    HW125835   3.632   0.242  13.386 -1.2521 -0.2138  1.3316
 4792SOL    HW225836   3.685   0.371  13.353 -0.8369  0.0192 -0.7915
 4793SOL     OW25837   0.156   3.699   9.603 -0.3919  0.4881 -0.4267
 4793SOL    HW125838   0.246   3.674   9.623 -0.1838  0.7439 -1.0466
 4793SOL    HW225839   0.121   3.669   9.687  1.7586  1.2745  0.7383
 4794SOL     OW25840   1.091   3.979  17.371  0.1376  0.1818  0.1278
 4794SOL    HW125841   1.078   3.892  17.335 -0.2531  0.1223  0.4072
 4794SOL    HW225842   1.168   3.959  17.425  1.4867  1.7565 -1.2091
 4795SOL     OW25843   4.423   1.914   7.679  0.8442  0.9072  0.4412
 4795SOL    HW125844   4.347   1.857   7.668  1.7688 -0.1845 -0.3056
 4795SOL    HW225845   4.496   1.862   7.645  0.6979  1.3883 -0.5919
 4796SOL     OW25846   4.683   3.353   6.122 -0.1170 -0.1121  0.5535
 4796SOL    HW125847   0.049   3.338   6.151  0.4693  2.5910  0.1988
 4796SOL    HW225848   4.633   3.279   6.156 -2.4042  1.1566 -0.0311
 4797SOL     OW25849   3.930   3.631  15.526  0.1500 -0.3952  0.3002
 4797SOL    HW125850   3.994   3.680  15.475 -0.1731  0.3397  0.6032
 4797SOL    HW225851   3.919   3.554  15.470 -0.3955  0.6130 -0.9640
 4798SOL     OW25852   3.719   2.748   6.671  0.3271  0.2684  0.6981
 4798SOL    HW125853   3.757   2.661   6.660 -0.9610 -0.6005  3.1163
 4798SOL    HW225854   3.784   2.807   6.634 -0.9881  0.1202 -1.8724
 4799SOL     OW25855   2.741   3.638   4.705  0.2725  0.1715 -0.2548
 4799SOL    HW125856   2.837   3.642   4.705  0.2819 -0.0309 -0.5790
 4799SOL    HW225857   2.723   3.646   4.611 -0.3333 -0.3837 -0.1823
 4800SOL     OW25858   1.294   1.722   2.554  0.7635 -0.3178  0.0861
 4800SOL    HW125859   1.214   1.675   2.531 -0.4440  1.4121  0.7589
 4800SOL    HW225860   1.295   1.787   2.483  1.1698 -0.6774 -0.2431
 4801SOL     OW25861   4.176   0.262   2.673  0.3689  0.0953 -0.0540
 4801SOL    HW125862   4.109   0.197   2.693 -0.1027  0.7884  0.6324
 4801SOL    HW225863   4.214   0.216   2.598 -3.4056  0.2958 -2.1453
 4802SOL     OW25864   2.825   0.792   3.640  0.8558  0.5672 -0.1495
 4802SOL    HW125865   2.741   0.798   3.594  1.4244  1.0996 -1.1295
 4802SOL    HW225866   2.886   0.817   3.571  0.7737  0.2735 -0.3315
 4803SOL     OW25867   0.753   0.638  17.470  0.6534 -0.5843  0.3130
 4803SOL    HW125868   0.741   0.640  17.565  1.0532 -1.3616  0.3846
 4803SOL    HW225869   0.723   0.551  17.443  0.8688 -0.9471  1.2469
 4804SOL     OW25870   0.254   1.636   4.484  0.2777 -0.0266  0.0284
 4804SOL    HW125871   0.247   1.719   4.531 -2.3982 -1.6788  2.5232
 4804SOL    HW225872   0.165   1.606   4.467 -0.5416  1.0482  2.4420
 4805SOL     OW25873   0.318   0.974   8.727  0.3947 -0.3048 -0.5062
 4805SOL    HW125874   0.399   0.922   8.724 -1.4488 -3.1927 -0.1045
 4805SOL    HW225875   0.307   1.001   8.636 -1.0230 -0.6359 -0.4394
 4806SOL     OW25876   3.856   2.883  12.030  0.1102  0.1889  0.0795
 4806SOL    HW125877   3.881   2.973  12.052  0.5398 -0.3910  1.9549
 4806SOL    HW225878   3.793   2.859  12.098 -0.5633  3.5269  0.6283
 4807SOL     OW25879   0.948   2.067   6.737 -0.5071 -0.6138 -0.6137
 4807SOL    HW125880   0.983   2.120   6.666 -1.5147  2.4109  1.1543
 4807SOL    HW225881   1.020   2.087   6.798 -0.2978 -0.6685 -0.8417
 4808SOL     OW25882   4.520   2.394   9.046 -0.5771 -0.2771  0.4610
 4808SOL    HW125883   4.448   2.332   9.054 -0.4417 -0.6864 -1.3775
 4808SOL    HW225884   4.468   2.469   9.016 -3.9699 -1.9091  2.4195
 4809SOL     OW25885   1.456   3.707   3.679 -0.0265  0.0186  0.7053
 4809SOL    HW125886   1.421   3.756   3.604 -1.8921  0.8711  2.1375
 4809SOL    HW225887   1.380   3.718   3.737  1.9660 -0.1947  3.3248
 4810SOL     OW25888   2.823   4.099   4.250  0.1451 -0.1201  0.3333
 4810SOL    HW125889   2.917   4.105   4.270  0.3100  0.4856 -0.6184
 4810SOL    HW225890   2.821   4.115   4.155  0.6249 -0.2606  0.2996
 4811SOL     OW25891   4.370   1.313   4.974  0.7353  0.3440  0.3701
 4811SOL    HW125892   4.386   1.406   4.991  1.9954 -0.4626  3.5872
 4811SOL    HW225893   4.275   1.303   4.982  0.6298  0.5566 -0.6460
 4812SOL     OW25894   2.609   2.795   1.590 -0.2520 -0.4644  0.9170
 4812SOL    HW125895   2.542   2.851   1.630  0.5527  1.3339 -0.2718
 4812SOL    HW225896   2.550   2.741   1.537 -1.2257 -0.2215  1.7401
 4813SOL     OW25897   1.386   4.393   0.510  0.0422  0.0109  0.7484
 4813SOL    HW125898   1.434   4.333   0.453 -0.3550 -0.3916  0.8352
 4813SOL    HW225899   1.343   4.449   0.446  2.2420  0.2124 -0.5551
 4814SOL     OW25900   3.430   4.272   4.387 -0.6878 -0.4454  0.4425
 4814SOL    HW125901   3.401   4.223   4.311  0.1643  0.4933 -0.4881
 4814SOL    HW225902   3.523   4.262   4.368 -0.5919 -0.4517  0.9274
 4815SOL     OW25903   2.855   1.151   8.328  0.6268  0.0798  0.0758
 4815SOL    HW125904   2.787   1.093   8.293 -0.7675  1.7376  0.0196
 4815SOL    HW225905   2.802   1.185   8.400  0.0644 -0.5497 -0.0363
 4816SOL     OW25906   3.283   0.923  13.905 -0.3520 -0.2635 -0.3268
 4816SOL    HW125907   3.213   0.984  13.925 -0.9454 -1.6181  1.7470
 4816SOL    HW225908   3.297   0.891  13.994 -0.2634  2.5559  0.6584
 4817SOL     OW25909   4.458   0.255  13.221  0.2719 -0.1006 -0.4660
 4817SOL    HW125910   4.491   0.283  13.307 -0.9176 -0.7849  0.2234
 4817SOL    HW225911   4.380   0.308  13.205  0.6528  0.8731  0.8599
 4818SOL     OW25912   2.164   1.614   4.577  0.2839  0.0717 -0.1489
 4818SOL    HW125913   2.191   1.582   4.663 -0.3319 -1.5762 -0.5815
 4818SOL    HW225914   2.249   1.631   4.536  0.7614 -0.3342  0.6647
 4819SOL     OW25915   0.592   3.869  14.860 -0.1591 -0.6238  0.3247
 4819SOL    HW125916   0.542   3.931  14.913 -1.4056 -2.6706  1.5365
 4819SOL    HW225917   0.552   3.790  14.896  0.8689 -0.3697  2.0337
 4820SOL     OW25918   0.037   4.223   7.313 -0.4978 -0.7635 -0.0514
 4820SOL    HW125919   0.031   4.161   7.386 -1.3201 -0.9703 -0.2884
 4820SOL    HW225920   4.675   4.264   7.311 -0.1625 -0.0326  0.6011
 4821SOL     OW25921   1.040   0.450  10.470 -0.2648  0.1435  0.4119
 4821SOL    HW125922   0.956   0.435  10.425  0.6767 -0.9456 -0.9713
 4821SOL    HW225923   1.087   0.372  10.443 -0.4588  1.0382 -2.5853
 4822SOL     OW25924   4.070   0.796   1.801  0.3220  0.2589  0.0171
 4822SOL    HW125925   4.131   0.803   1.875 -0.6722  0.9801  0.7692
 4822SOL    HW225926   4.002   0.745   1.845  2.7398 -1.1353  2.1149
 4823SOL     OW25927   2.696   3.705   1.715  0.1418  0.2422  0.1943
 4823SOL    HW125928   2.651   3.634   1.761 -1.2504  0.1440 -1.3433
 4823SOL    HW225929   2.634   3.738   1.651  0.5241 -1.1794 -0.9110
 4824SOL     OW25930   4.404   2.249   4.596  0.3315  0.3878  0.6263
 4824SOL    HW125931   4.416   2.213   4.684 -1.5254 -0.8713  0.3862
 4824SOL    HW225932   4.403   2.342   4.619  3.3789  0.1852  1.5183
 4825SOL     OW25933   3.615   2.386   8.993  0.1422  0.3442 -0.0685
 4825SOL    HW125934   3.545   2.320   8.993  0.6384 -0.1861  0.9789
 4825SOL    HW225935   3.695   2.336   9.005 -0.2563  0.2320  2.2214
 4826SOL     OW25936   4.526   2.058   6.619 -0.3142 -0.1900 -0.1278
 4826SOL    HW125937   4.578   1.999   6.674 -2.7287 -1.6804  0.5317
 4826SOL    HW225938   4.581   2.135   6.604  0.7266 -1.3424 -2.2416
 4827SOL     OW25939   4.499   2.664  17.654 -0.0364 -0.0268 -0.7473
 4827SOL    HW125940   4.552   2.611   0.015  0.6524  0.8719 -0.5633
 4827SOL    HW225941   4.562   2.669  17.583  2.2854  1.8456  1.4606
 4828SOL     OW25942   2.474   0.734  15.592 -0.0387  0.3358 -0.3797
 4828SOL    HW125943   2.390   0.770  15.566 -0.2499  1.5256  2.0147
 4828SOL    HW225944   2.448   0.649  15.629 -0.8818  1.1983  0.9810
 4829SOL     OW25945   3.372   1.678   2.603  0.3277 -0.5347  0.4936
 4829SOL    HW125946   3.463   1.656   2.582  0.3065 -0.7511  0.6360
 4829SOL    HW225947   3.361   1.766   2.566 -1.1973  0.7101  3.8777
 4830SOL     OW25948   0.814   3.056  12.645  0.3032  0.4314 -0.2500
 4830SOL    HW125949   0.848   3.107  12.572  0.5472 -1.1571 -1.2550
 4830SOL    HW225950   0.853   2.969  12.634 -1.5518 -0.2153 -1.8815
 4831SOL     OW25951   1.926   1.676   0.488  0.4600 -0.4661  0.1776
 4831SOL    HW125952   1.930   1.595   0.437  2.1390 -0.1454 -0.2037
 4831SOL    HW225953   1.956   1.747   0.431 -1.8449  0.5741  0.2373
 4832SOL     OW25954   2.742   0.985  11.845 -0.2186  0.0829 -0.2090
 4832SOL    HW125955   2.821   0.931  11.839 -0.8285 -0.7589 -0.5564
 4832SOL    HW225956   2.688   0.953  11.773  1.5947 -1.1736 -1.0121
 4833SOL     OW25957   3.467   1.688   8.446 -0.1728  0.4436 -0.3095
 4833SOL    HW125958   3.428   1.601   8.439 -0.5856  0.5419  0.8134
 4833SOL    HW225959   3.468   1.701   8.351  2.1082  0.1514 -0.3174
 4834SOL     OW25960   2.066   2.346   5.598  0.2203  0.5012 -0.0836
 4834SOL    HW125961   2.048   2.440   5.606 -1.6403  0.0679  0.7196
 4834SOL    HW225962   2.000   2.300   5.649  2.0414 -1.7373  0.2203
 4835SOL     OW25963   2.331   1.552   2.297  0.0554 -0.0648  0.3299
 4835SOL    HW125964   2.315   1.475   2.242  0.7343 -0.8381  1.2122
 4835SOL    HW225965   2.373   1.512   2.373  0.0249 -0.6109  0.0558
 4836SOL     OW25966   4.561   0.088   9.960  0.3354 -0.2648  0.5575
 4836SOL    HW125967   4.502   0.136   9.902  0.9409 -1.8906 -1.4268
 4836SOL    HW225968   4.503   0.073  10.034 -0.4366  0.3668  0.0784
 4837SOL     OW25969   3.487   3.910   9.034 -0.3598 -0.0262 -0.2110
 4837SOL    HW125970   3.526   3.931   8.949  0.6050  0.3368  0.3124
 4837SOL    HW225971   3.401   3.952   9.036 -0.1866  0.2416  1.4836
 4838SOL     OW25972   3.440   0.839   5.997 -0.5762  0.1887  0.0202
 4838SOL    HW125973   3.527   0.854   5.961 -0.5743 -0.6241 -0.3083
 4838SOL    HW225974   3.459   0.832   6.091 -2.5399  0.3428  0.4272
 4839SOL     OW25975   1.222   4.094   8.164 -0.0770  0.3157  0.2242
 4839SOL    HW125976   1.151   4.142   8.206 -0.5377 -1.3017  1.2720
 4839SOL    HW225977   1.213   4.138   8.079  1.0835  1.9690  0.9544
 4840SOL     OW25978   0.273   1.868   2.726  0.2441  0.0330 -0.2974
 4840SOL    HW125979   0.279   1.957   2.691 -0.0453  0.1166 -0.1287
 4840SOL    HW225980   0.353   1.825   2.694 -0.4066  1.0115 -3.2812
 4841SOL     OW25981   0.543   3.007  14.073  0.1682 -0.3678 -0.2908
 4841SOL    HW125982   0.481   3.038  14.006  2.2123  1.1462 -1.4877
 4841SOL    HW225983   0.499   3.048  14.148 -0.4970 -0.8700 -0.4034
 4842SOL     OW25984   3.374   2.830   4.492 -0.1270 -0.4257  0.6002
 4842SOL    HW125985   3.383   2.910   4.441  0.4301  1.8130  4.1951
 4842SOL    HW225986   3.435   2.761   4.466  1.3183  1.2243 -0.3483
 4843SOL     OW25987   1.393   1.963  16.598  0.2184  0.2829  0.2623
 4843SOL    HW125988   1.377   1.991  16.508 -0.0216 -0.8117 -0.0280
 4843SOL    HW225989   1.368   2.043  16.644  0.2985  0.2560  0.3527
 4844SOL     OW25990   4.355   2.455  17.428  0.0103 -0.3585 -0.1804
 4844SOL    HW125991   4.426   2.465  17.492 -0.2284  3.1793 -0.4422
 4844SOL    HW225992   4.390   2.389  17.368 -2.1476  0.4475 -2.3217
 4845SOL     OW25993   1.303   1.331  11.854 -0.3059 -0.3227 -0.4226
 4845SOL    HW125994   1.216   1.309  11.887 -0.0975  2.0836  1.7221
 4845SOL    HW225995   1.305   1.423  11.880  1.5685 -0.9504  1.6754
 4846SOL     OW25996   1.434   0.840   6.694 -0.5053  0.3632 -0.8332
 4846SOL    HW125997   1.357   0.784   6.707 -2.3637  3.0933 -0.1071
 4846SOL    HW225998   1.510   0.807   6.741 -0.2037 -1.8880 -2.8361
 4847SOL     OW25999   4.547   4.069  13.616  0.0246 -0.7054 -0.6951
 4847SOL    HW126000   4.589   4.113  13.690 -0.9590 -1.6560  0.4176
 4847SOL    HW226001   4.630   4.075  13.569  0.4358  2.6564  0.4375
 4848SOL     OW26002   1.136   0.219  15.632  0.0704  0.7387 -0.1015
 4848SOL    HW126003   1.044   0.235  15.652 -0.3237  1.9943 -2.9475
 4848SOL    HW226004   1.133   0.183  15.543  0.5836  0.1050  0.1385
 4849SOL     OW26005   2.380   2.696   6.660  0.1098 -0.8977  0.6264
 4849SOL    HW126006   2.304   2.648   6.628  0.8384 -2.9174  1.9297
 4849SOL    HW226007   2.363   2.781   6.620  0.5545 -0.0518  2.2674
 4850SOL     OW26008   4.380   1.902   0.529 -0.2780 -0.4348  0.3040
 4850SOL    HW126009   4.431   1.983   0.522 -1.5647 -0.0029 -3.9854
 4850SOL    HW226010   4.441   1.833   0.557 -0.0090 -0.3027  0.0420
 4851SOL     OW26011   2.113   2.698   9.437 -0.1824 -0.2039  0.4091
 4851SOL    HW126012   2.183   2.666   9.494 -0.6854 -2.2065 -0.0769
 4851SOL    HW226013   2.035   2.671   9.484  0.6779  1.3377  2.6704
 4852SOL     OW26014   4.418   1.660  11.351  0.1528 -0.1233 -0.0768
 4852SOL    HW126015   4.463   1.710  11.284 -0.8493 -1.8725 -2.0396
 4852SOL    HW226016   4.327   1.672  11.325  0.4718 -1.3948 -1.7545
 4853SOL     OW26017   1.391   2.696   4.779 -0.0895  0.1882  0.7489
 4853SOL    HW126018   1.299   2.669   4.776  0.4195 -1.2432 -1.7777
 4853SOL    HW226019   1.440   2.620   4.747  2.4878  2.9307 -1.8128
 4854SOL     OW26020   1.985   4.292   4.970  0.6869 -0.0486  0.3076
 4854SOL    HW126021   2.055   4.352   4.942 -0.4606  0.6357 -1.1267
 4854SOL    HW226022   1.956   4.344   5.045  1.9696  2.5286 -0.9815
 4855SOL     OW26023   0.228   2.163   7.222 -0.0209  0.0235  0.0726
 4855SOL    HW126024   0.246   2.100   7.152  2.3464 -2.0626  2.5907
 4855SOL    HW226025   0.282   2.136   7.296 -2.2442 -0.8429  1.3597
 4856SOL     OW26026   0.489   3.923   6.649  0.2020 -0.2314  0.2397
 4856SOL    HW126027   0.413   3.947   6.594  1.5086 -0.0458 -1.4920
 4856SOL    HW226028   0.469   3.983   6.721  1.5390  1.4885 -0.8158
 4857SOL     OW26029   4.551   0.664   0.303 -0.0374  0.1728 -0.1411
 4857SOL    HW126030   4.623   0.610   0.336  0.2975  0.7030 -0.0022
 4857SOL    HW226031   4.519   0.689   0.389 -0.3115  1.6661 -0.6650
 4858SOL     OW26032   1.013   3.934  15.408  0.1262 -0.0529 -0.3249
 4858SOL    HW126033   1.015   3.887  15.325  1.7570 -1.2576  0.3917
 4858SOL    HW226034   0.961   4.009  15.379  0.3370 -0.5630 -2.0176
 4859SOL     OW26035   4.441   3.332   5.405  0.0584 -0.1990  0.0040
 4859SOL    HW126036   4.426   3.424   5.383  1.1854 -0.1413 -0.5399
 4859SOL    HW226037   4.502   3.346   5.478 -0.8445 -1.4179  0.9913
 4860SOL     OW26038   0.036   3.554   8.360  0.0304 -0.0985 -0.3288
 4860SOL    HW126039   4.692   3.515   8.305  0.4653 -2.8867  1.1152
 4860SOL    HW226040   0.089   3.586   8.287  0.3674 -1.1205 -0.5329
 4861SOL     OW26041   0.412   1.360   4.335  0.4763 -0.0553 -0.4417
 4861SOL    HW126042   0.375   1.299   4.398  2.9870 -2.0167 -0.8456
 4861SOL    HW226043   0.451   1.422   4.396  1.4936 -0.8675 -0.2655
 4862SOL     OW26044   0.666   3.222   3.264  0.6689  0.0170  0.5868
 4862SOL    HW126045   0.762   3.214   3.263  0.4221 -2.6574 -0.8825
 4862SOL    HW226046   0.646   3.171   3.186 -2.3717  2.1120  0.0090
 4863SOL     OW26047   0.694   3.388   3.698 -0.7044 -0.1308  0.1864
 4863SOL    HW126048   0.743   3.382   3.616 -0.1695 -0.9162  0.5747
 4863SOL    HW226049   0.690   3.299   3.732 -0.1194  0.0345  0.6666
 4864SOL     OW26050   1.169   0.328   3.657 -0.2706 -0.0835  0.4299
 4864SOL    HW126051   1.126   0.294   3.736  0.5785  3.2660  2.3614
 4864SOL    HW226052   1.261   0.302   3.659 -0.2280  0.0479  0.2386
 4865SOL     OW26053   3.760   3.115   2.682  0.1995 -0.0775  0.1662
 4865SOL    HW126054   3.695   3.180   2.655 -2.5971 -3.6006 -1.5101
 4865SOL    HW226055   3.808   3.092   2.603  0.8679 -3.0734  1.4398
 4866SOL     OW26056   4.534   3.179   6.835 -0.4098  0.1120  0.0811
 4866SOL    HW126057   4.581   3.196   6.917 -3.1049 -0.0024  1.6511
 4866SOL    HW226058   4.448   3.153   6.867 -1.1882  0.1640 -1.9802
 4867SOL     OW26059   4.664   2.685  12.886 -0.2269  0.5181 -0.1427
 4867SOL    HW126060   4.569   2.690  12.875 -0.4792 -1.9693  0.9200
 4867SOL    HW226061   4.696   2.708  12.798  2.3104 -0.8759  0.4337
 4868SOL     OW26062   4.718   2.466  17.399 -0.1745  0.2245  0.1226
 4868SOL    HW126063   4.708   2.561  17.411  1.2301  0.3459  0.3509
 4868SOL    HW226064   0.033   2.447  17.485  0.4358 -0.2251 -0.2605
 4869SOL     OW26065   1.586   4.697   5.531 -0.2886 -0.2851  0.1987
 4869SOL    HW126066   1.671   4.661   5.505  0.3030  0.5327  0.9926
 4869SOL    HW226067   1.562   4.624   5.587  0.5641 -1.6246 -1.1651
 4870SOL     OW26068   0.329   1.436   9.129  0.0342 -0.3578  0.2641
 4870SOL    HW126069   0.252   1.414   9.181 -0.1882 -1.5974 -0.5770
 4870SOL    HW226070   0.396   1.371   9.153 -0.3924 -0.5108  1.0283
 4871SOL     OW26071   3.100   2.828   3.363 -0.5919  0.5422 -0.4879
 4871SOL    HW126072   3.125   2.920   3.369 -1.9693  0.9339 -0.7469
 4871SOL    HW226073   3.158   2.793   3.431  0.4448  3.1343 -0.0272
 4872SOL     OW26074   2.423   4.555   1.056  0.1542  0.3597  0.0010
 4872SOL    HW126075   2.455   4.526   0.971 -0.2509 -0.4558  0.1176
 4872SOL    HW226076   2.486   4.513   1.114 -0.8083 -2.2501 -0.8024
 4873SOL     OW26077   2.019   3.512   7.776  0.2118  1.0488  0.2676
 4873SOL    HW126078   1.964   3.588   7.793 -0.6310  0.3151  0.8258
 4873SOL    HW226079   2.056   3.529   7.690  0.9196  2.1778  0.8063
 4874SOL     OW26080   4.194   3.453   7.526 -0.0619 -0.2707 -0.4883
 4874SOL    HW126081   4.243   3.472   7.605  0.5671 -1.6417 -0.5432
 4874SOL    HW226082   4.131   3.389   7.561  1.2813 -1.6216 -0.5433
 4875SOL     OW26083   4.317   1.472   8.449  1.3928  0.2752  0.1214
 4875SOL    HW126084   4.348   1.389   8.413  1.8335 -0.2451  1.7085
 4875SOL    HW226085   4.242   1.492   8.392  1.2398 -0.4595  0.0670
 4876SOL     OW26086   0.517   1.228   9.176  0.0521  0.2731 -0.1476
 4876SOL    HW126087   0.459   1.163   9.136  0.9068  0.3235 -1.4926
 4876SOL    HW226088   0.566   1.165   9.228  1.7248  2.0704  0.4417
 4877SOL     OW26089   1.362   4.029   5.740 -0.1516 -0.5055  0.5605
 4877SOL    HW126090   1.339   3.936   5.735  0.2196 -0.5980  0.5896
 4877SOL    HW226091   1.277   4.072   5.743 -0.6384 -1.3235 -1.4412
 4878SOL     OW26092   3.194   0.024   3.732 -0.5200 -0.1113  0.1543
 4878SOL    HW126093   3.248   0.096   3.700  0.7963 -1.5645 -0.9121
 4878SOL    HW226094   3.168   4.698   3.654 -0.7949  2.5538 -1.4434
 4879SOL     OW26095   2.993   4.064   6.469  0.1992 -0.2972 -0.5466
 4879SOL    HW126096   2.967   4.068   6.561 -0.8375 -0.0957 -0.8415
 4879SOL    HW226097   3.086   4.042   6.475  1.2525  4.1498 -0.3590
 4880SOL     OW26098   1.263   1.620   8.461  0.1618 -0.2975 -0.0455
 4880SOL    HW126099   1.333   1.675   8.496  0.5788  0.0263 -1.3586
 4880SOL    HW226100   1.228   1.563   8.529  1.6195 -2.0345 -0.7539
 4881SOL     OW26101   0.739   1.107   3.641  0.5111 -0.8160 -0.1157
 4881SOL    HW126102   0.827   1.143   3.632 -0.4869  1.5059 -0.5913
 4881SOL    HW226103   0.720   1.088   3.549 -0.0794 -0.5004 -0.0609
 4882SOL     OW26104   2.016   0.326   7.650 -0.4532 -0.1139 -0.3718
 4882SOL    HW126105   1.996   0.372   7.731  0.3452 -0.7919  0.2056
 4882SOL    HW226106   1.940   0.271   7.632  0.0429 -1.6729  2.2304
 4883SOL     OW26107   4.410   4.212   8.722 -0.0067 -0.6528 -0.7427
 4883SOL    HW126108   4.369   4.126   8.728 -5.1084  1.6797 -1.8789
 4883SOL    HW226109   4.473   4.210   8.794 -0.7476  0.0418 -0.0685
 4884SOL     OW26110   3.034   1.211   4.174  0.2617 -0.2318  0.5517
 4884SOL    HW126111   3.113   1.263   4.161  1.0249 -1.8517 -1.1748
 4884SOL    HW226112   2.982   1.289   4.198 -1.9753 -1.8217  0.8573
 4885SOL     OW26113   3.064   0.680   2.432  0.0782  0.2483  0.4252
 4885SOL    HW126114   2.991   0.732   2.465 -0.0533 -0.4340  1.2027
 4885SOL    HW226115   3.021   0.610   2.383  1.6545 -1.3035  1.2197
 4886SOL     OW26116   3.532   2.943   1.855  0.4180  0.2352  0.2631
 4886SOL    HW126117   3.612   2.893   1.838  0.1348 -0.3731  0.7248
 4886SOL    HW226118   3.532   2.942   1.951 -0.8938 -0.3268  0.2432
 4887SOL     OW26119   4.463   0.577  13.290 -0.4317  0.3641 -0.3721
 4887SOL    HW126120   4.429   0.498  13.247 -1.1477 -0.0177  0.9140
 4887SOL    HW226121   4.552   0.574  13.254  0.7516 -2.1337  2.7458
 4888SOL     OW26122   2.538   3.410  12.355  0.1192 -0.1025  0.5474
 4888SOL    HW126123   2.484   3.419  12.433  1.3940  1.2612  1.2712
 4888SOL    HW226124   2.621   3.454  12.374  1.5126 -3.1398  1.3777
 4889SOL     OW26125   0.129   3.567   3.893  0.2882  0.3187  0.2471
 4889SOL    HW126126   0.089   3.506   3.954  1.3871 -0.2663  0.3890
 4889SOL    HW226127   0.188   3.506   3.849 -0.5825 -0.3736  0.0421
 4890SOL     OW26128   2.147   0.073   6.759 -0.0574  0.2706  0.0181
 4890SOL    HW126129   2.155   0.007   6.690 -2.4187 -0.1935  0.1875
 4890SOL    HW226130   2.206   0.138   6.723 -0.7840  0.4056 -0.9271
 4891SOL     OW26131   4.202   3.249   9.863 -0.2550 -0.0185  0.6068
 4891SOL    HW126132   4.163   3.306   9.929  2.4546  2.8690 -0.2668
 4891SOL    HW226133   4.254   3.312   9.813 -2.5911  1.7266  0.3772
 4892SOL     OW26134   0.940   2.723   9.459  0.2191 -0.3178  0.0515
 4892SOL    HW126135   0.990   2.662   9.405  0.9615 -1.6940  2.3140
 4892SOL    HW226136   0.913   2.798   9.406 -1.2966 -0.5640  0.4799
 4893SOL     OW26137   3.937   1.409  11.496 -0.0937  0.4714 -0.5783
 4893SOL    HW126138   3.887   1.430  11.575 -2.9047 -2.6598 -1.5711
 4893SOL    HW226139   3.898   1.325  11.475  0.6534  0.0194 -0.1312
 4894SOL     OW26140   4.478   2.990   4.494 -0.4944 -0.3917  0.4189
 4894SOL    HW126141   4.541   2.973   4.424  1.7923  0.9372  2.1769
 4894SOL    HW226142   4.506   2.916   4.548 -1.0578  0.0780  1.3616
 4895SOL     OW26143   2.044   1.024  15.068 -0.8979  0.6392  0.0901
 4895SOL    HW126144   2.091   1.015  14.985  0.4143 -0.2475  0.9331
 4895SOL    HW226145   1.999   0.939  15.073  0.0985  0.2574  2.4518
 4896SOL     OW26146   4.263   2.649   3.480  0.1066 -0.0474  0.5186
 4896SOL    HW126147   4.222   2.620   3.399  0.5232 -0.1018  0.3245
 4896SOL    HW226148   4.355   2.645   3.452 -0.0481 -1.2703  0.1631
 4897SOL     OW26149   1.984   1.835  16.239  0.4864  0.0457 -0.3514
 4897SOL    HW126150   2.005   1.818  16.331  0.6742  2.4617  0.0452
 4897SOL    HW226151   1.993   1.930  16.245 -2.2394  0.2596  0.1493
 4898SOL     OW26152   1.951   2.567   9.218 -0.0878  0.1897 -0.0524
 4898SOL    HW126153   1.990   2.480   9.208 -1.7534 -0.6507  0.6917
 4898SOL    HW226154   1.946   2.583   9.312 -0.2524 -0.8254  0.1147
 4899SOL     OW26155   0.054   1.171  13.326 -0.3662  0.2323  0.5645
 4899SOL    HW126156   0.081   1.254  13.288  0.5425 -0.1136  0.4643
 4899SOL    HW226157   4.683   1.181  13.322 -0.5837 -2.4496 -0.6740
 4900SOL     OW26158   0.985   3.422  12.863  0.3956 -0.6445 -0.8257
 4900SOL    HW126159   0.920   3.354  12.849  0.5080 -1.0928  0.8465
 4900SOL    HW226160   1.052   3.377  12.915 -2.7085 -0.8716  2.9156
 4901SOL     OW26161   1.207   2.251   8.256  0.4206  0.2948  0.0162
 4901SOL    HW126162   1.191   2.251   8.350  1.1244  0.2335  0.1379
 4901SOL    HW226163   1.303   2.249   8.260  0.4225 -0.4071 -0.3384
 4902SOL     OW26164   0.811   2.370   6.186 -0.4780  0.0367  0.2104
 4902SOL    HW126165   0.760   2.451   6.179  1.1057  1.0048 -0.1497
 4902SOL    HW226166   0.842   2.379   6.277  0.5970  1.6235 -0.3090
 4903SOL     OW26167   0.061   1.447   4.743  0.2552 -0.1284 -0.2572
 4903SOL    HW126168   0.043   1.460   4.650  0.6542 -1.4685 -0.5280
 4903SOL    HW226169   0.062   1.352   4.756 -0.5336  0.2186  2.3175
 4904SOL     OW26170   0.099   2.086   2.692 -0.1932  0.0311  0.1844
 4904SOL    HW126171   0.086   1.994   2.718  0.6432  0.4192  1.9540
 4904SOL    HW226172   0.042   2.090   2.615  1.7321  0.4308 -1.2208
 4905SOL     OW26173   3.006   3.610   8.604  0.2406  0.1924  0.2533
 4905SOL    HW126174   3.050   3.525   8.596  1.1086  0.6434  0.1895
 4905SOL    HW226175   3.058   3.640   8.679 -0.2132  1.1099  0.1970
 4906SOL     OW26176   0.056   3.118   8.823 -0.0551 -0.6427 -0.0785
 4906SOL    HW126177   4.719   3.064   8.773  2.5596 -0.8064 -3.1753
 4906SOL    HW226178   0.003   3.134   8.900  0.8364  4.0082 -0.4062
 4907SOL     OW26179   4.655   4.383  12.284  0.2223  0.3538  0.0498
 4907SOL    HW126180   4.563   4.370  12.258  0.3463 -0.7884  0.1824
 4907SOL    HW226181   4.690   4.295  12.296 -0.9162 -0.1155 -0.0575
 4908SOL     OW26182   3.668   0.454   7.298 -0.3093  0.4501 -0.4881
 4908SOL    HW126183   3.655   0.372   7.251 -0.3872 -0.2850  0.8120
 4908SOL    HW226184   3.624   0.519   7.244  0.5155 -0.1232 -1.8427
 4909SOL     OW26185   4.528   0.787   0.545  0.6339  0.2368  0.0570
 4909SOL    HW126186   4.479   0.804   0.625  1.5520  0.6066  0.5515
 4909SOL    HW226187   4.581   0.867   0.543 -0.0464  0.7334  1.9613
 4910SOL     OW26188   1.625   3.096   0.875 -0.0961 -0.1015 -0.3187
 4910SOL    HW126189   1.628   3.044   0.795  2.3957 -2.1189  1.1102
 4910SOL    HW226190   1.718   3.092   0.895 -0.0153 -0.9789 -0.9086
 4911SOL     OW26191   1.509   0.295   9.580 -0.1731  0.6027  0.5707
 4911SOL    HW126192   1.431   0.348   9.597 -0.1619  1.4689 -2.0868
 4911SOL    HW226193   1.473   0.219   9.626  0.6795 -0.6044 -0.7519
 4912SOL     OW26194   1.670   1.272   3.721  0.3202 -0.4196 -0.0527
 4912SOL    HW126195   1.657   1.364   3.697  1.4796  0.1505  1.5434
 4912SOL    HW226196   1.730   1.289   3.794 -0.7441  0.1270  0.6964
 4913SOL     OW26197   1.010   0.880   9.795  0.0319 -0.4810  0.0244
 4913SOL    HW126198   0.933   0.912   9.749 -0.0030  0.8988  1.0474
 4913SOL    HW226199   1.076   0.942   9.762  1.2530 -2.1985 -0.7588
 4914SOL     OW26200   3.129   3.091  14.253 -0.2179  0.2608 -0.3119
 4914SOL    HW126201   3.079   3.128  14.326  1.7549 -1.8886  2.1068
 4914SOL    HW226202   3.119   3.158  14.185  1.5129  0.9213  0.0709
 4915SOL     OW26203   0.364   3.206   0.824  0.9939  1.0433  0.8760
 4915SOL    HW126204   0.378   3.235   0.734  1.5318  1.7284  1.1819
 4915SOL    HW226205   0.285   3.254   0.851  1.7778  2.8706 -0.1033
 4916SOL     OW26206   3.326   0.670   5.395 -0.0347 -0.3087 -0.1365
 4916SOL    HW126207   3.399   0.690   5.337 -0.3499  2.5419  0.4792
 4916SOL    HW226208   3.262   0.717   5.343 -0.0273  2.0503  1.9981
 4917SOL     OW26209   2.989   2.805   5.385  0.4877  1.2490 -0.2835
 4917SOL    HW126210   3.085   2.801   5.391  0.3976 -0.6665 -0.1903
 4917SOL    HW226211   2.958   2.755   5.460  2.5725 -1.2010 -1.0598
 4918SOL     OW26212   0.211   1.079   5.206  0.3410  0.0802  0.2758
 4918SOL    HW126213   0.144   1.132   5.164 -1.3643 -2.5912 -0.3563
 4918SOL    HW226214   0.240   1.133   5.280  0.5206 -0.7954  0.8471
 4919SOL     OW26215   2.559   4.180   8.341 -0.8248  0.3799 -0.3291
 4919SOL    HW126216   2.511   4.256   8.374 -0.7024  0.2140  0.2264
 4919SOL    HW226217   2.506   4.104   8.367  1.4197 -0.3702  2.0394
 4920SOL     OW26218   1.412   2.253  11.527  0.5107  0.3681 -0.3012
 4920SOL    HW126219   1.379   2.232  11.440 -1.9843  0.8520  0.5026
 4920SOL    HW226220   1.396   2.347  11.520 -0.9420 -0.0298 -2.4610
 4921SOL     OW26221   4.697   1.474   7.519  0.1345  0.6019  0.4783
 4921SOL    HW126222   4.629   1.496   7.456  1.3637  0.4963 -0.8804
 4921SOL    HW226223   0.045   1.456   7.459  0.0640  1.5949  0.0852
 4922SOL     OW26224   2.822   3.570  11.611  0.1354 -0.2801  0.4321
 4922SOL    HW126225   2.798   3.524  11.531 -0.2095 -1.7325  1.3753
 4922SOL    HW226226   2.736   3.595  11.644  0.9192  1.4942  1.1206
 4923SOL     OW26227   3.708   1.359   9.870 -0.1556  0.2070  0.4614
 4923SOL    HW126228   3.768   1.305   9.819  1.7587  1.9363  0.9012
 4923SOL    HW226229   3.627   1.312   9.852  0.3946 -0.3955 -0.4421
 4924SOL     OW26230   3.183   2.747   7.681 -0.5736 -0.2498  0.5510
 4924SOL    HW126231   3.116   2.813   7.702  1.5172  1.6828  1.1273
 4924SOL    HW226232   3.154   2.675   7.736 -3.4742  0.0347 -0.6068
 4925SOL     OW26233   1.984   1.708   9.209 -0.1922 -0.2268  0.1988
 4925SOL    HW126234   1.898   1.749   9.216 -0.3729 -0.3270 -1.5228
 4925SOL    HW226235   2.039   1.779   9.243  0.0727 -0.7960  0.9694
 4926SOL     OW26236   3.181   3.699  13.402 -0.2145 -0.5132 -0.5498
 4926SOL    HW126237   3.205   3.640  13.473  2.1282 -1.4559 -2.1172
 4926SOL    HW226238   3.090   3.674  13.390  0.0083 -0.4841 -2.2857
 4927SOL     OW26239   0.110   3.318   2.069  0.3225 -0.4046  0.3388
 4927SOL    HW126240   0.079   3.408   2.064  0.6995 -0.1202  3.2670
 4927SOL    HW226241   0.111   3.289   2.160 -0.1950 -1.5936 -0.0236
 4928SOL     OW26242   3.943   4.144   5.435  0.2413  0.8118  0.1484
 4928SOL    HW126243   3.990   4.215   5.479  0.5693  0.1869  0.8166
 4928SOL    HW226244   3.959   4.163   5.342 -0.0503  1.6187  0.2624
 4929SOL     OW26245   1.523   2.325   2.921 -0.3374  0.7130 -0.4413
 4929SOL    HW126246   1.609   2.344   2.885  0.5947 -1.0473  0.8684
 4929SOL    HW226247   1.488   2.285   2.842 -0.0229 -1.2501  0.4157
 4930SOL     OW26248   3.145   0.927  14.475 -0.3764  0.4191 -0.2424
 4930SOL    HW126249   3.100   0.928  14.559 -1.2194  0.8175 -0.6847
 4930SOL    HW226250   3.239   0.938  14.485 -0.4896  0.1240  1.0812
 4931SOL     OW26251   1.616   0.305  10.851 -0.0176  0.6223  0.0151
 4931SOL    HW126252   1.604   0.217  10.886  0.5916  0.7722  0.5884
 4931SOL    HW226253   1.690   0.337  10.901  0.2950 -0.8199  0.4710
 4932SOL     OW26254   1.585   1.819   9.042  0.1828 -0.4544  0.1056
 4932SOL    HW126255   1.494   1.794   9.058  0.0530 -1.8264 -2.7195
 4932SOL    HW226256   1.617   1.735   9.011 -0.7344 -0.9290  0.4341
 4933SOL     OW26257   1.165   3.096   1.059  0.2945 -0.1231 -0.0215
 4933SOL    HW126258   1.217   3.061   0.986 -2.0707 -2.4303 -0.6088
 4933SOL    HW226259   1.115   3.166   1.018 -0.5323 -0.3255  0.6436
 4934SOL     OW26260   0.491   3.277   5.686 -0.1191  0.3174  0.2286
 4934SOL    HW126261   0.577   3.305   5.719 -0.6145  1.8303  0.2039
 4934SOL    HW226262   0.446   3.361   5.686 -1.5419 -0.4126  4.3244
 4935SOL     OW26263   1.102   0.659   1.864  0.1061  0.0132  0.3773
 4935SOL    HW126264   1.103   0.755   1.865  1.7383  0.0010 -0.3803
 4935SOL    HW226265   1.110   0.648   1.769 -2.7618 -2.0006  0.3632
 4936SOL     OW26266   0.277   1.216   4.517 -0.3177 -0.0455 -0.0341
 4936SOL    HW126267   0.304   1.125   4.530  0.5451  0.0930 -0.9135
 4936SOL    HW226268   0.230   1.232   4.599  1.2133 -1.5088  1.1394
 4937SOL     OW26269   0.382   2.717   4.309  0.3932  0.3424 -0.1233
 4937SOL    HW126270   0.389   2.769   4.230  1.0303  0.2723 -0.1147
 4937SOL    HW226271   0.467   2.734   4.349 -0.0030  0.1790  0.8094
 4938SOL     OW26272   2.906   4.136   4.604  0.5245 -0.3888 -0.0408
 4938SOL    HW126273   2.866   4.187   4.675  1.6966 -0.7236  0.8599
 4938SOL    HW226274   2.835   4.144   4.541  1.2161 -1.4100 -0.9394
 4939SOL     OW26275   3.555   3.373   6.323 -0.2301 -0.3489  0.0940
 4939SOL    HW126276   3.555   3.334   6.411  2.7605  0.4131  0.4414
 4939SOL    HW226277   3.603   3.456   6.329 -1.9580  0.7074 -0.8751
 4940SOL     OW26278   4.145   4.107   4.120  0.0008 -0.5226 -0.0798
 4940SOL    HW126279   4.220   4.095   4.178 -0.6726  0.5419  1.0147
 4940SOL    HW226280   4.074   4.081   4.179  0.2483  1.6358  1.1542
 4941SOL     OW26281   1.787   0.953   2.535  0.6277 -0.4189  0.3740
 4941SOL    HW126282   1.811   1.001   2.615 -0.0829 -1.5152  1.2523
 4941SOL    HW226283   1.704   0.914   2.564  0.6190 -0.8695 -0.2609
 4942SOL     OW26284   3.088   3.441   0.575 -0.0701 -0.1775  0.2264
 4942SOL    HW126285   3.025   3.373   0.550  0.9206 -0.6807 -0.8572
 4942SOL    HW226286   3.100   3.416   0.667  0.6295 -1.8386 -0.3230
 4943SOL     OW26287   1.058   0.583   1.593 -0.2914 -0.0877  0.7323
 4943SOL    HW126288   1.015   0.645   1.534 -1.5283 -1.3331  0.3179
 4943SOL    HW226289   1.143   0.573   1.549  0.2312  2.4058  1.2219
 4944SOL     OW26290   2.969   2.748  10.141  0.7180 -0.0205 -0.8552
 4944SOL    HW126291   2.877   2.737  10.114  1.0048 -1.4129 -1.2922
 4944SOL    HW226292   2.942   2.780  10.227  1.0915 -2.5770  0.2123
 4945SOL     OW26293   0.242   1.586   2.065 -0.3261 -0.3188 -0.2433
 4945SOL    HW126294   0.149   1.573   2.044 -0.4862  2.2546 -1.1749
 4945SOL    HW226295   0.268   1.632   1.985  0.8724 -0.8138 -0.1390
 4946SOL     OW26296   0.890   0.763   2.598 -0.0915 -0.2619  0.1265
 4946SOL    HW126297   0.933   0.718   2.670  1.2620  0.6722 -0.1173
 4946SOL    HW226298   0.954   0.738   2.531  0.0854  2.5671 -0.7838
 4947SOL     OW26299   3.795   2.010   6.333 -0.7222 -0.3650 -0.1178
 4947SOL    HW126300   3.739   1.956   6.389  1.9759 -2.5343  0.5166
 4947SOL    HW226301   3.760   2.094   6.362  2.7972  0.4456  1.7545
 4948SOL     OW26302   0.001   3.667   6.701  0.0509 -0.3240  0.9215
 4948SOL    HW126303   4.659   3.608   6.738  0.4067  0.2128  2.4148
 4948SOL    HW226304   4.667   3.738   6.671 -0.3773 -1.6360 -1.3775
 4949SOL     OW26305   3.795   2.767   9.674  0.0902  0.2532 -0.0277
 4949SOL    HW126306   3.863   2.832   9.692 -0.2325  0.2869  1.0476
 4949SOL    HW226307   3.746   2.784   9.754 -0.3176 -0.4687 -0.1293
 4950SOL     OW26308   2.114   1.430  16.068 -0.3104 -1.0084 -0.3933
 4950SOL    HW126309   2.164   1.357  16.032  0.3541 -1.3927  1.2857
 4950SOL    HW226310   2.101   1.411  16.161  1.9671 -0.0226  0.1325
 4951SOL     OW26311   1.117   0.924   7.562  0.2560 -0.0057  0.3564
 4951SOL    HW126312   1.211   0.907   7.564  0.3629  0.5866  0.4768
 4951SOL    HW226313   1.097   0.957   7.649 -0.5853  0.5182 -0.0332
 4952SOL     OW26314   2.331   2.543   4.848 -0.5364  0.7617  0.3841
 4952SOL    HW126315   2.355   2.467   4.796  0.1244  0.3669  1.2575
 4952SOL    HW226316   2.339   2.502   4.934 -1.5636  2.1577  1.1573
 4953SOL     OW26317   2.501   3.026   8.775 -0.5422  0.6321 -0.3112
 4953SOL    HW126318   2.526   3.081   8.701  0.0215 -0.3325 -0.8398
 4953SOL    HW226319   2.498   3.090   8.846 -0.6709 -2.2698  2.3138
 4954SOL     OW26320   3.480   0.090  15.662  0.1848 -0.8013 -0.2222
 4954SOL    HW126321   3.563   0.112  15.705  0.3113 -1.1472 -0.2906
 4954SOL    HW226322   3.489   0.126  15.574  2.3346  0.0147  0.3069
 4955SOL     OW26323   0.798   1.007  12.771  0.0959  0.1883 -0.2697
 4955SOL    HW126324   0.719   1.061  12.764  0.0031 -0.1359 -1.6175
 4955SOL    HW226325   0.808   1.017  12.866  0.0104  0.1052 -0.2524
 4956SOL     OW26326   2.896   2.083  17.026 -0.4161  0.0752  0.9020
 4956SOL    HW126327   2.863   2.075  16.937  1.3790  1.4943  0.0967
 4956SOL    HW226328   2.983   2.121  17.015 -0.7292  0.2624 -0.9834
 4957SOL     OW26329   2.447   2.601  11.523  0.2135 -0.4923 -0.1011
 4957SOL    HW126330   2.354   2.603  11.545  0.6744 -1.7198  1.9179
 4957SOL    HW226331   2.473   2.693  11.532  1.3304 -0.7520 -0.6980
 4958SOL     OW26332   1.617   2.548   2.481  0.0197  0.0233 -0.2552
 4958SOL    HW126333   1.557   2.613   2.519 -0.1905 -0.1891 -0.2276
 4958SOL    HW226334   1.639   2.603   2.406  1.6431 -0.0842  0.1492
 4959SOL     OW26335   3.998   4.276  17.343 -0.1774 -0.1931  0.2232
 4959SOL    HW126336   3.926   4.289  17.281  0.7831  2.1825 -0.3702
 4959SOL    HW226337   4.051   4.218  17.289  0.5594  2.5256 -1.9483
 4960SOL     OW26338   0.596   4.632   6.106  0.2291 -0.7198 -0.2182
 4960SOL    HW126339   0.522   4.573   6.093 -1.4024  1.4417 -0.7204
 4960SOL    HW226340   0.644   4.623   6.023 -0.0462  0.6439 -0.5183
 4961SOL     OW26341   1.639   1.691  10.222  0.0842  0.2742 -1.0194
 4961SOL    HW126342   1.571   1.756  10.238  0.2023  0.0787  0.2794
 4961SOL    HW226343   1.714   1.729  10.268  0.4053 -2.0095  0.3845
 4962SOL     OW26344   0.446   0.669   7.485  0.0404  0.1241  1.2198
 4962SOL    HW126345   0.518   0.645   7.428  0.4856  2.2701  0.8660
 4962SOL    HW226346   0.478   0.636   7.568 -1.0527 -1.7477  0.8965
 4963SOL     OW26347   1.400   4.396   3.926  0.6821  0.8341  0.3666
 4963SOL    HW126348   1.433   4.381   4.014  0.1169 -0.9584  0.2702
 4963SOL    HW226349   1.478   4.425   3.878  1.2684 -1.0523  0.1791
 4964SOL     OW26350   1.787   2.324   5.469  0.5214 -0.3878  0.4438
 4964SOL    HW126351   1.820   2.405   5.507 -1.9710  0.4733  0.7673
 4964SOL    HW226352   1.824   2.253   5.520  1.1335  0.0493  0.5992
 4965SOL     OW26353   3.698   1.337   4.802  0.0244  0.3789  0.3843
 4965SOL    HW126354   3.779   1.366   4.844 -0.1674  0.9311  0.3623
 4965SOL    HW226355   3.735   1.306   4.719 -0.7854 -1.0765  0.5589
 4966SOL     OW26356   2.085   2.189  16.556 -0.0738  0.3715 -0.6199
 4966SOL    HW126357   2.098   2.245  16.480  0.2141 -0.2384 -1.0143
 4966SOL    HW226358   2.108   2.254  16.622 -0.7987 -0.0866  0.0800
 4967SOL     OW26359   1.844   0.252   3.818  0.5041  0.1947 -0.3811
 4967SOL    HW126360   1.883   0.166   3.803 -2.5277 -1.3350  0.5545
 4967SOL    HW226361   1.821   0.285   3.731 -0.4117  1.5806  0.3833
 4968SOL     OW26362   4.492   2.400  16.096 -0.2718  0.2663  0.1291
 4968SOL    HW126363   4.416   2.395  16.038  1.1435 -0.3484 -1.6982
 4968SOL    HW226364   4.490   2.314  16.138 -0.2104  0.2692  0.1377
 4969SOL     OW26365   3.866   2.834   1.274 -0.5851 -0.3544  0.1476
 4969SOL    HW126366   3.904   2.911   1.233  1.5473 -0.4847  1.8790
 4969SOL    HW226367   3.782   2.833   1.229 -1.6426 -2.4876  2.1776
 4970SOL     OW26368   3.891   1.508   0.400 -0.1484  0.1165 -0.0873
 4970SOL    HW126369   3.826   1.561   0.354 -1.8543 -0.0288  2.1512
 4970SOL    HW226370   3.826   1.446   0.434  1.0718 -0.9471  0.2930
 4971SOL     OW26371   1.847   3.952   8.237  0.4697  0.3252 -0.2673
 4971SOL    HW126372   1.873   3.872   8.282 -2.0437 -1.0463 -1.2744
 4971SOL    HW226373   1.924   4.004   8.260 -0.2588  0.4836  1.7540
 4972SOL     OW26374   3.202   1.812   0.748 -0.4704 -0.1737 -0.2278
 4972SOL    HW126375   3.209   1.834   0.655 -1.8467  0.0954 -0.2700
 4972SOL    HW226376   3.181   1.719   0.756  0.2649 -0.5793 -3.0205
 4973SOL     OW26377   0.320   0.015   4.296  0.6390 -0.0877  0.3248
 4973SOL    HW126378   0.328   0.075   4.222 -0.8441  0.0208  0.2474
 4973SOL    HW226379   0.268   0.067   4.357 -1.9037 -2.2825 -0.0080
 4974SOL     OW26380   2.182   0.318   2.220  0.6667  0.3614  0.4798
 4974SOL    HW126381   2.264   0.366   2.211  0.1868  1.1963  0.6287
 4974SOL    HW226382   2.119   0.379   2.258 -0.6979 -1.6077  1.4177
 4975SOL     OW26383   4.697   3.365  13.022 -0.4699  0.4341  0.0549
 4975SOL    HW126384   4.629   3.400  12.965 -1.7722 -1.6555  0.3303
 4975SOL    HW226385   4.635   3.316  13.076  0.6878 -0.7137  0.3428
 4976SOL     OW26386   0.515   4.110   6.882  0.2930  0.4133 -0.1209
 4976SOL    HW126387   0.440   4.147   6.928 -0.4657 -1.2978 -0.0191
 4976SOL    HW226388   0.530   4.037   6.942  0.0179  0.0939 -0.4440
 4977SOL     OW26389   4.650   1.514   8.884  0.1323  0.7944 -0.1045
 4977SOL    HW126390   4.598   1.490   8.807 -1.2590 -0.0558  1.1153
 4977SOL    HW226391   4.583   1.532   8.950 -0.3802 -0.0320 -0.4003
 4978SOL     OW26392   0.624   2.342  11.565  0.0541 -0.2490 -0.2029
 4978SOL    HW126393   0.611   2.259  11.520 -0.5456 -0.7398  0.8484
 4978SOL    HW226394   0.540   2.350  11.611  0.9679 -0.4748  1.4977
 4979SOL     OW26395   0.031   2.857  15.180 -0.3324 -0.0590  0.0556
 4979SOL    HW126396   0.061   2.795  15.113 -3.8336 -1.2662 -0.3826
 4979SOL    HW226397   0.008   2.797  15.250  0.3061 -0.3019  0.0564
 4980SOL     OW26398   1.550   2.170   3.929 -0.1686 -0.4603 -0.1917
 4980SOL    HW126399   1.564   2.257   3.893  1.3149  0.1303  1.8012
 4980SOL    HW226400   1.569   2.115   3.853 -0.2352 -2.1434  1.0069
 4981SOL     OW26401   3.043   1.484  14.640  1.1755  0.0780  0.2511
 4981SOL    HW126402   3.105   1.506  14.709  1.1149  0.6291  0.1347
 4981SOL    HW226403   3.010   1.397  14.663 -0.4899  0.6106 -0.1627
 4982SOL     OW26404   3.377   3.493   8.339  0.3258  0.4884  0.2008
 4982SOL    HW126405   3.329   3.446   8.407  1.1016 -0.4280  0.1023
 4982SOL    HW226406   3.317   3.562   8.310  0.5346  0.7372  0.3503
 4983SOL     OW26407   3.208   2.817  12.752  0.4051  0.2870  0.2651
 4983SOL    HW126408   3.145   2.783  12.689 -1.0578 -1.0745  2.4969
 4983SOL    HW226409   3.295   2.794  12.719  0.9742  2.1351  0.4489
 4984SOL     OW26410   1.788   1.719  16.113  0.8680  0.0758  0.2402
 4984SOL    HW126411   1.813   1.650  16.051  0.9532  0.3893 -0.0757
 4984SOL    HW226412   1.863   1.771  16.142  0.9298 -0.8461  1.7302
 4985SOL     OW26413   4.504   3.308  13.484  0.2901  0.3101  0.0262
 4985SOL    HW126414   4.502   3.399  13.514  2.7829  1.1371 -2.3086
 4985SOL    HW226415   4.583   3.275  13.527 -0.2736 -0.1085  0.7258
 4986SOL     OW26416   2.230   1.105   9.985 -0.4684  0.5443  0.2238
 4986SOL    HW126417   2.148   1.071  10.022 -0.8778  0.6399 -0.5863
 4986SOL    HW226418   2.203   1.189   9.947 -0.1696 -0.5679 -2.4457
 4987SOL     OW26419   3.928   2.519   7.141 -0.4257  0.0086  0.1057
 4987SOL    HW126420   3.844   2.541   7.181 -0.9726 -0.4339 -0.7831
 4987SOL    HW226421   3.945   2.432   7.178  1.2027 -0.2417 -1.2354
 4988SOL     OW26422   3.315   1.307   6.096  0.2910  0.0451  0.2866
 4988SOL    HW126423   3.304   1.212   6.090 -1.1645  0.2960 -1.1149
 4988SOL    HW226424   3.227   1.322   6.131 -0.3656  0.1623 -1.4171
 4989SOL     OW26425   3.252   3.637   0.522  0.7819 -0.3468  0.0021
 4989SOL    HW126426   3.200   3.558   0.536  0.4763 -0.0093  0.7232
 4989SOL    HW226427   3.278   3.654   0.612  0.0228  1.2117 -0.0806
 4990SOL     OW26428   1.286   4.591   4.361  0.1870 -0.1336 -0.2061
 4990SOL    HW126429   1.303   4.667   4.416 -2.6028  0.4075 -0.0654
 4990SOL    HW226430   1.304   4.618   4.272  0.7793  2.5341  0.7379
 4991SOL     OW26431   3.792   0.050  13.528 -0.2087 -0.2751  0.2672
 4991SOL    HW126432   3.723   0.057  13.463  1.1039 -2.3798 -1.3434
 4991SOL    HW226433   3.738   0.078  13.602 -1.0263 -0.4714 -0.2612
 4992SOL     OW26434   1.562   0.990   8.734  0.0113 -0.4711  0.3967
 4992SOL    HW126435   1.622   1.027   8.799  0.6258 -1.9447  0.6740
 4992SOL    HW226436   1.478   1.014   8.772 -1.0159 -2.4734 -0.6066
 4993SOL     OW26437   0.683   2.964   4.539 -0.3925  0.6595 -1.1258
 4993SOL    HW126438   0.629   3.021   4.483 -0.7407  2.0605  0.6319
 4993SOL    HW226439   0.732   2.910   4.478  0.9667  0.8748 -0.2110
 4994SOL     OW26440   0.678   3.395   8.104  0.2303  0.3356 -0.1840
 4994SOL    HW126441   0.647   3.305   8.106  0.0853  0.4325  1.7156
 4994SOL    HW226442   0.627   3.442   8.038 -0.0519 -0.3201 -0.4244
 4995SOL     OW26443   1.099   1.928  13.466  0.4887 -0.0512  0.1310
 4995SOL    HW126444   1.071   1.836  13.466  1.5542 -0.3810 -0.4190
 4995SOL    HW226445   1.108   1.938  13.560  1.4242  2.3222 -0.2217
 4996SOL     OW26446   4.384   1.330  13.130  0.1815  0.1271  0.1991
 4996SOL    HW126447   4.395   1.343  13.036 -1.1046  1.0291  0.1799
 4996SOL    HW226448   4.310   1.388  13.145  0.6586  0.8287 -0.1938
 4997SOL     OW26449   4.057   0.984   7.953 -0.6145  0.0400  0.1454
 4997SOL    HW126450   4.105   1.044   8.011 -0.0157 -1.1641  0.8810
 4997SOL    HW226451   4.128   0.934   7.913  0.6473  1.5884  0.4340
 4998SOL     OW26452   0.437   2.293   4.814  0.4652 -0.3126  0.3083
 4998SOL    HW126453   0.499   2.261   4.880 -1.3499  1.0037  2.6928
 4998SOL    HW226454   0.493   2.317   4.741  1.2934 -2.2541  0.2814
 4999SOL     OW26455   4.103   1.582   6.998 -0.1257 -0.0916 -0.7894
 4999SOL    HW126456   4.048   1.644   6.949 -0.7331  4.4951  5.6998
 4999SOL    HW226457   4.175   1.644   7.005 -0.2434  0.2818 -2.6621
 5000SOL     OW26458   4.215   0.615  16.960 -0.1089  0.1185  0.2851
 5000SOL    HW126459   4.258   0.580  17.039  1.7382  0.8488 -0.4122
 5000SOL    HW226460   4.289   0.630  16.902 -0.5168  1.5648  0.1388
 5001SOL     OW26461   2.301   4.643   8.507  0.0652 -1.2005  0.0028
 5001SOL    HW126462   2.317   4.576   8.574  2.5384 -0.9583 -0.3546
 5001SOL    HW226463   2.238   4.697   8.555 -1.6515 -2.8761 -0.3723
 5002SOL     OW26464   2.134   2.940   0.013  0.8842  0.4185  0.5352
 5002SOL    HW126465   2.194   2.902   0.076 -0.1907 -1.4995  0.3942
 5002SOL    HW226466   2.058   2.889   0.040  0.4906  0.8984  0.3527
 5003SOL     OW26467   0.117   4.495   4.647  0.7971 -0.1728  0.0676
 5003SOL    HW126468   0.088   4.582   4.673 -0.6299 -0.3294 -0.9970
 5003SOL    HW226469   0.113   4.502   4.552 -1.4773  1.6057  0.2762
 5004SOL     OW26470   3.482   3.552  15.670  0.2430  0.2756  0.1848
 5004SOL    HW126471   3.466   3.503  15.750 -1.2196  0.8873  0.2794
 5004SOL    HW226472   3.546   3.501  15.621  1.8957 -0.0900  2.7337
 5005SOL     OW26473   3.888   3.708   2.938  0.6396 -1.1055  0.6006
 5005SOL    HW126474   3.873   3.763   2.862  2.7668  0.5831  1.3996
 5005SOL    HW226475   3.929   3.629   2.903  1.1370 -0.1059 -1.0318
 5006SOL     OW26476   0.353   0.166   3.279  0.0809 -0.0194  0.5022
 5006SOL    HW126477   0.314   0.253   3.273 -0.4079 -0.2250  0.7349
 5006SOL    HW226478   0.380   0.151   3.188  1.2273  0.6534  0.7170
 5007SOL     OW26479   1.927   1.427   0.361  0.2131 -0.0674  0.5151
 5007SOL    HW126480   1.835   1.425   0.334 -0.1297 -0.8896  1.7755
 5007SOL    HW226481   1.958   1.358   0.303 -0.1075 -0.3614  0.6985
 5008SOL     OW26482   0.346   2.056   2.488  0.3692  0.2900 -0.4373
 5008SOL    HW126483   0.250   2.058   2.482  0.3143  0.8458  0.5577
 5008SOL    HW226484   0.371   2.148   2.479  1.2617  0.2837  2.0317
 5009SOL     OW26485   3.461   1.887  11.265 -0.4140 -0.2317  0.7240
 5009SOL    HW126486   3.462   1.844  11.179 -1.5298  2.7815 -0.7936
 5009SOL    HW226487   3.503   1.821  11.320  1.2201  1.0955  1.0450
 5010SOL     OW26488   2.611   2.436   7.289  0.2562 -0.0052  0.2700
 5010SOL    HW126489   2.566   2.414   7.370 -0.1911 -1.2332 -0.3043
 5010SOL    HW226490   2.648   2.520   7.316  0.8986 -0.7891  1.8219
 5011SOL     OW26491   3.851   3.003   5.550 -0.0752  0.5526 -1.0565
 5011SOL    HW126492   3.934   3.041   5.523  0.6628 -0.4214 -0.1430
 5011SOL    HW226493   3.878   2.952   5.626 -0.7196 -2.7305 -3.0151
 5012SOL     OW26494   4.436   3.101   5.294 -0.6327  0.0122 -0.0696
 5012SOL    HW126495   4.472   3.123   5.208 -0.8443 -3.8059 -1.1735
 5012SOL    HW226496   4.437   3.191   5.326  1.6588  0.5694 -1.6632
 5013SOL     OW26497   0.158   1.522   5.060  0.0448 -0.5371 -0.5802
 5013SOL    HW126498   0.233   1.462   5.061  1.8191  1.6711 -0.3207
 5013SOL    HW226499   0.136   1.532   4.967  0.2918  2.3928 -0.3423
 5014SOL     OW26500   3.234   3.748   3.052 -0.0928 -0.0452 -0.5705
 5014SOL    HW126501   3.295   3.820   3.044 -0.9976  0.5410 -2.4029
 5014SOL    HW226502   3.260   3.701   2.972  0.8032 -1.7893  0.7602
 5015SOL     OW26503   0.915   0.190   9.250  0.0949 -0.2501  0.3318
 5015SOL    HW126504   0.853   0.239   9.304  0.5241 -1.0612  1.5560
 5015SOL    HW226505   0.859   0.130   9.200 -2.0966  1.1772  1.0310
 5016SOL     OW26506   2.644   4.341   4.034 -0.2514 -0.1052  0.6845
 5016SOL    HW126507   2.721   4.389   4.003 -0.9285 -0.2370 -1.1752
 5016SOL    HW226508   2.662   4.350   4.127 -0.7603 -0.3425  0.8062
 5017SOL     OW26509   1.055   1.384   7.728  0.0487  0.1992 -0.5265
 5017SOL    HW126510   0.973   1.432   7.745  0.4558 -0.3212  2.8017
 5017SOL    HW226511   1.117   1.449   7.761 -1.3158 -0.0871  2.5979
 5018SOL     OW26512   3.820   0.830   4.475  0.2318  0.3345  0.5406
 5018SOL    HW126513   3.868   0.751   4.499 -0.9430 -1.1223 -1.8643
 5018SOL    HW226514   3.734   0.795   4.452  0.8625 -1.4024  0.8666
 5019SOL     OW26515   1.547   4.516   2.215  0.6722 -0.3651 -0.4130
 5019SOL    HW126516   1.626   4.488   2.263  0.6000  0.5516  0.2513
 5019SOL    HW226517   1.542   4.610   2.233 -0.8911 -0.3306 -1.1097
 5020SOL     OW26518   2.022   1.415   3.361  0.1061  0.3998  0.1007
 5020SOL    HW126519   1.977   1.334   3.341  1.1944 -0.5800  1.5996
 5020SOL    HW226520   1.944   1.471   3.365  0.0716  0.6111 -3.5448
 5021SOL     OW26521   3.214   0.630   7.506 -0.2127  0.0774 -0.3979
 5021SOL    HW126522   3.160   0.559   7.471 -0.0850  0.9545 -2.4076
 5021SOL    HW226523   3.297   0.583   7.513 -1.6993 -2.5210 -0.4306
 5022SOL     OW26524   2.135   3.826   4.008 -0.1854  0.2610 -0.3346
 5022SOL    HW126525   2.226   3.807   3.983 -0.4934  2.8884 -3.5219
 5022SOL    HW226526   2.091   3.744   3.989  0.0068  0.5288 -1.9525
 5023SOL     OW26527   1.482   0.778   8.588  0.0157 -0.2667  0.1753
 5023SOL    HW126528   1.548   0.711   8.570 -0.0442 -0.2384 -0.1510
 5023SOL    HW226529   1.509   0.841   8.656  0.2965  0.0046 -0.1880
 5024SOL     OW26530   4.284   1.925   9.288 -0.0690 -0.8724  0.2386
 5024SOL    HW126531   4.235   1.992   9.335 -0.9913 -0.1784 -1.7373
 5024SOL    HW226532   4.217   1.875   9.242 -1.1874 -0.3796  1.3312
 5025SOL     OW26533   2.279   1.923   3.386  0.5771 -0.5095 -0.5752
 5025SOL    HW126534   2.217   1.918   3.458  3.1790 -0.3437  1.6927
 5025SOL    HW226535   2.236   1.857   3.333 -1.6174  0.7170 -0.3095
 5026SOL     OW26536   3.908   3.919   6.099  0.7516  0.2724 -0.5876
 5026SOL    HW126537   3.903   3.949   6.009  1.0054  2.2760  0.0694
 5026SOL    HW226538   3.948   3.834   6.079 -0.6002 -0.9678  1.9552
 5027SOL     OW26539   1.278   1.513   7.006  0.4369 -0.1166  0.8490
 5027SOL    HW126540   1.365   1.548   7.023 -0.0846  1.8525 -0.5252
 5027SOL    HW226541   1.273   1.459   7.085 -1.2955  0.3526  1.0633
 5028SOL     OW26542   3.774   1.620  14.412 -0.6119 -0.3362  0.1082
 5028SOL    HW126543   3.776   1.715  14.422 -0.6750 -0.3796  0.5538
 5028SOL    HW226544   3.851   1.598  14.361  0.4101 -1.4088  2.0941
 5029SOL     OW26545   1.736   1.872   4.272  0.3059 -0.2145 -0.5169
 5029SOL    HW126546   1.700   1.788   4.298 -0.3301  0.2395  0.0690
 5029SOL    HW226547   1.659   1.924   4.295 -2.2304 -5.0458  1.7423
 5030SOL     OW26548   1.292   2.590   0.326 -0.4949  0.3654  0.4061
 5030SOL    HW126549   1.215   2.551   0.285 -0.1765  0.4619 -0.2839
 5030SOL    HW226550   1.341   2.513   0.354 -0.2388  0.9774  1.6322
 5031SOL     OW26551   2.564   0.747  16.776 -0.6848  0.4073  0.2104
 5031SOL    HW126552   2.565   0.817  16.841 -3.5595  1.7292 -1.1301
 5031SOL    HW226553   2.602   0.786  16.698 -1.5563 -0.9639 -0.9011
 5032SOL     OW26554   0.393   3.128   4.043  0.5052 -0.4186 -0.3766
 5032SOL    HW126555   0.439   3.211   4.059 -0.7773 -0.1473  2.0133
 5032SOL    HW226556   0.333   3.163   3.977 -1.2302 -0.1657  1.2947
 5033SOL     OW26557   1.218   3.327   6.555 -0.2719 -0.4053 -0.2543
 5033SOL    HW126558   1.219   3.259   6.487 -0.1578  1.9068 -2.5404
 5033SOL    HW226559   1.129   3.327   6.589  0.1121 -2.0559  0.7966
 5034SOL     OW26560   3.808   0.849  14.408  0.0866  0.5105 -0.4447
 5034SOL    HW126561   3.890   0.835  14.359 -0.5724  1.2702 -1.7754
 5034SOL    HW226562   3.834   0.927  14.457 -1.8893 -0.0031  1.3768
 5035SOL     OW26563   3.238   1.675  13.574  0.2913 -0.0757  0.6536
 5035SOL    HW126564   3.307   1.688  13.638  0.6947 -0.0477  0.2160
 5035SOL    HW226565   3.184   1.749  13.602 -1.0655 -1.4455  1.6885
 5036SOL     OW26566   2.227   3.976  11.308 -0.1454 -0.6185  0.4685
 5036SOL    HW126567   2.188   4.006  11.226 -0.6552 -2.1259  0.1495
 5036SOL    HW226568   2.152   3.944  11.358 -0.7229 -2.7633 -1.7648
 5037SOL     OW26569   3.325   2.486   4.944 -0.0100  0.3738 -0.0999
 5037SOL    HW126570   3.273   2.417   4.903 -1.3273  0.9447  0.6137
 5037SOL    HW226571   3.318   2.547   4.870 -0.5586  1.5621  0.9279
 5038SOL     OW26572   0.122   0.734   3.359  0.2458 -0.3574  0.1952
 5038SOL    HW126573   0.109   0.784   3.440  0.4838  2.9592 -1.8301
 5038SOL    HW226574   0.207   0.767   3.329  0.6739 -1.4418  0.2054
 5039SOL     OW26575   1.343   0.581   2.485 -0.3844 -0.0834  0.4231
 5039SOL    HW126576   1.350   0.594   2.391 -2.2309 -1.4195  0.0877
 5039SOL    HW226577   1.295   0.661   2.506  2.7386  1.6411  0.9877
 5040SOL     OW26578   2.160   1.405   6.130 -0.1967  0.9754 -0.2526
 5040SOL    HW126579   2.158   1.310   6.124  0.3453  0.9211  0.3883
 5040SOL    HW226580   2.203   1.426   6.047 -2.1554  0.6145 -1.3607
 5041SOL     OW26581   3.308   2.187   4.839 -0.0606  0.3918 -0.1808
 5041SOL    HW126582   3.372   2.251   4.869 -0.1508 -0.0271  0.9147
 5041SOL    HW226583   3.325   2.108   4.890  0.5624  1.1681  0.8148
 5042SOL     OW26584   3.306   0.415   6.587 -0.0513 -0.1571  0.0831
 5042SOL    HW126585   3.385   0.434   6.637 -0.8937  1.7179  0.6897
 5042SOL    HW226586   3.314   0.320   6.579  3.1989  0.2098 -1.0366
 5043SOL     OW26587   4.549   1.044   9.433 -0.3686 -0.1661 -0.3216
 5043SOL    HW126588   4.464   1.001   9.439 -0.2740 -0.3886 -0.5729
 5043SOL    HW226589   4.523   1.137   9.429  3.9781  1.1613  2.0855
 5044SOL     OW26590   3.804   2.752  15.139  0.2716  0.7707 -0.3907
 5044SOL    HW126591   3.802   2.657  15.154  2.2260  0.7876 -0.0961
 5044SOL    HW226592   3.729   2.785  15.189  0.3976 -1.3047  1.1970
 5045SOL     OW26593   1.664   0.735  17.020 -0.3899  0.2153 -0.1550
 5045SOL    HW126594   1.712   0.753  17.101  1.2222 -1.3460 -0.7847
 5045SOL    HW226595   1.633   0.649  17.048 -1.4592  0.7548  0.3227
 5046SOL     OW26596   3.621   0.391   1.899 -0.1610 -0.0791 -0.0011
 5046SOL    HW126597   3.526   0.403   1.901  0.1260  2.6875 -2.4997
 5046SOL    HW226598   3.633   0.422   1.809  1.1793  0.3757  0.3518
 5047SOL     OW26599   3.635   4.241   0.164 -0.2431  0.2798  0.0128
 5047SOL    HW126600   3.726   4.268   0.155  0.0774 -1.3774 -1.6044
 5047SOL    HW226601   3.607   4.307   0.227 -2.5240  1.0447 -1.8033
 5048SOL     OW26602   1.131   0.400   7.607 -0.2532 -0.5011  0.2372
 5048SOL    HW126603   1.212   0.448   7.620 -0.6510  0.6512 -1.4565
 5048SOL    HW226604   1.087   0.434   7.685  1.9999  0.2943  1.1526
 5049SOL     OW26605   0.291   0.586   5.628  0.4308 -0.2193  0.0532
 5049SOL    HW126606   0.325   0.614   5.543 -3.0006  0.3006 -1.1310
 5049SOL    HW226607   0.330   0.500   5.645 -1.0967 -1.2680 -1.7654
 5050SOL     OW26608   2.106   0.161   4.138  0.0486 -0.1843 -0.2242
 5050SOL    HW126609   2.076   0.240   4.093  0.6769 -0.1386 -0.5632
 5050SOL    HW226610   2.114   0.197   4.226  0.3430 -1.2503  0.1880
 5051SOL     OW26611   4.368   2.586   8.901 -0.1542 -0.0779 -0.2629
 5051SOL    HW126612   4.346   2.654   8.837  1.1892  0.6270  0.0330
 5051SOL    HW226613   4.390   2.635   8.980 -0.5172  0.5734 -0.5686
 5052SOL     OW26614   0.020   2.523  13.979  0.3377 -0.3006  0.3560
 5052SOL    HW126615   0.023   2.490  13.889  1.1832 -0.1000  0.3107
 5052SOL    HW226616   4.651   2.547  13.977  0.2855 -0.4712  0.6747
 5053SOL     OW26617   0.780   2.414   3.813  0.5661  0.1964 -0.2393
 5053SOL    HW126618   0.713   2.424   3.881  0.9475 -0.0378  0.1652
 5053SOL    HW226619   0.779   2.503   3.776 -0.1199 -0.6513 -2.3015
 5054SOL     OW26620   2.112   0.138   9.632 -0.0657  0.0267  0.0653
 5054SOL    HW126621   2.071   0.219   9.601 -0.9356 -0.5654 -0.3542
 5054SOL    HW226622   2.105   0.150   9.727  3.1027  0.6576  0.2034
 5055SOL     OW26623   0.643   1.034   4.664 -0.3271 -0.0425 -0.0442
 5055SOL    HW126624   0.594   0.955   4.688 -0.1726 -1.1427 -3.3215
 5055SOL    HW226625   0.620   1.087   4.740  2.9911  1.9217 -0.4046
 5056SOL     OW26626   4.519   2.048   9.214 -0.2251  0.0100  0.5593
 5056SOL    HW126627   4.433   2.022   9.247 -1.5841  1.0927 -2.1827
 5056SOL    HW226628   4.490   2.098   9.138 -0.0126  0.3270  0.6844
 5057SOL     OW26629   3.760   1.505   1.716 -0.3350 -0.3232 -0.4118
 5057SOL    HW126630   3.808   1.560   1.654 -1.1957 -0.1081 -0.8806
 5057SOL    HW226631   3.816   1.427   1.712 -1.7851 -1.4342  0.9863
 5058SOL     OW26632   1.070   4.107   2.217 -0.3380  0.0114  0.1525
 5058SOL    HW126633   1.154   4.089   2.260 -0.6527  1.0591  1.1937
 5058SOL    HW226634   1.099   4.096   2.126 -1.3271 -1.3834  0.0125
 5059SOL     OW26635   0.306   1.372   1.786 -0.1451 -0.0020  0.4517
 5059SOL    HW126636   0.332   1.438   1.850  1.8266 -0.6932  0.3672
 5059SOL    HW226637   0.385   1.319   1.778  0.8973  1.6846 -0.2315
 5060SOL     OW26638   3.737   4.638   4.778 -0.1166  0.0053 -0.7845
 5060SOL    HW126639   3.786   4.615   4.699  0.0221 -1.7825 -0.1851
 5060SOL    HW226640   3.734   0.008   4.792 -1.4221 -0.1668  0.1089
 5061SOL     OW26641   4.411   1.270   4.443 -0.3129 -0.3722 -0.2061
 5061SOL    HW126642   4.386   1.189   4.487 -2.8781  0.7397  0.3960
 5061SOL    HW226643   4.449   1.322   4.515  2.8711 -2.4561 -0.3800
 5062SOL     OW26644   1.068   0.568  11.033 -0.2308 -0.0977 -0.3515
 5062SOL    HW126645   1.030   0.540  10.949  2.4581  0.1864 -1.6528
 5062SOL    HW226646   1.059   0.662  11.020 -2.5368 -0.1522  0.9332
 5063SOL     OW26647   3.947   4.119  13.669 -0.0837  0.1679 -0.0267
 5063SOL    HW126648   4.007   4.193  13.680 -1.4205  0.9153  2.2308
 5063SOL    HW226649   3.863   4.162  13.682  1.3001  2.4057  1.5951
 5064SOL     OW26650   3.881   1.941  17.612  0.3436 -0.0689  0.3737
 5064SOL    HW126651   3.875   1.903  17.524  0.0359  0.0750  0.3349
 5064SOL    HW226652   3.923   2.026  17.592  1.5740 -0.6783  0.3398
 5065SOL     OW26653   0.069   0.399   9.080 -0.6080  0.4797  0.3596
 5065SOL    HW126654   4.712   0.353   9.105 -0.2836  0.0589  0.6417
 5065SOL    HW226655   0.114   0.325   9.039  0.8707  0.6083  1.7343
 5066SOL     OW26656   2.047   1.302   9.720 -0.0865 -0.0250  0.4014
 5066SOL    HW126657   1.975   1.351   9.680 -1.7242 -0.9065  2.2634
 5066SOL    HW226658   2.119   1.329   9.664 -0.9988  1.9416  0.1808
 5067SOL     OW26659   0.016   0.471  11.898  0.1128 -0.0710  0.2744
 5067SOL    HW126660   4.683   0.468  11.821  1.0560  0.2342 -0.4337
 5067SOL    HW226661   0.082   0.413  11.860  0.6188  0.9073 -0.3357
 5068SOL     OW26662   1.288   3.767   2.649  0.0956 -0.0335  0.1085
 5068SOL    HW126663   1.360   3.707   2.669 -0.7568 -1.0661  0.0895
 5068SOL    HW226664   1.286   3.776   2.554 -0.8904  1.3411  0.2539
 5069SOL     OW26665   2.985   3.310   5.095  0.1549  0.0395  0.0723
 5069SOL    HW126666   3.070   3.269   5.080  0.7646  1.1384  0.5371
 5069SOL    HW226667   2.928   3.241   5.062 -0.4907  0.6069  0.0080
 5070SOL     OW26668   2.093   0.963   7.903  0.6434  0.0454  0.4173
 5070SOL    HW126669   2.122   0.963   7.994 -1.0217  2.1016  0.9502
 5070SOL    HW226670   2.003   0.929   7.898  0.3607  0.5428  2.2011
 5071SOL     OW26671   3.826   2.251   2.295 -0.2597  0.5119  0.3887
 5071SOL    HW126672   3.797   2.340   2.316 -0.9028  0.2108  0.7600
 5071SOL    HW226673   3.846   2.246   2.202 -1.1606 -3.9404  0.4517
 5072SOL     OW26674   1.064   1.647   4.937 -0.6820 -0.1614  0.0590
 5072SOL    HW126675   1.135   1.610   4.885  0.6900  0.2277  1.6809
 5072SOL    HW226676   1.078   1.593   5.014  0.9582  1.7778  1.1161
 5073SOL     OW26677   1.710   1.032   3.544  0.1649 -0.7521 -0.0530
 5073SOL    HW126678   1.639   1.081   3.502  0.6323  0.9686  1.1625
 5073SOL    HW226679   1.701   1.068   3.632 -1.6167 -1.9562  0.2590
 5074SOL     OW26680   3.689   3.636   5.328 -0.5676 -0.2378 -0.0958
 5074SOL    HW126681   3.746   3.711   5.309  0.0421 -0.9566 -1.0736
 5074SOL    HW226682   3.743   3.562   5.300 -0.5201 -0.1216 -0.3131
 5075SOL     OW26683   3.220   3.931  17.392 -0.3128  0.4102 -0.2519
 5075SOL    HW126684   3.190   4.017  17.364 -0.1888 -0.1340 -2.0492
 5075SOL    HW226685   3.315   3.944  17.394 -0.1683 -0.8058  0.7616
 5076SOL     OW26686   4.537   1.543  16.924 -0.1057 -0.2754  0.0420
 5076SOL    HW126687   4.601   1.533  16.994 -0.1087 -0.1270  0.0674
 5076SOL    HW226688   4.540   1.455  16.888 -0.9375 -0.7983  1.2727
 5077SOL     OW26689   0.605   2.933   1.850  0.1992  0.1729 -0.0367
 5077SOL    HW126690   0.650   2.851   1.871 -0.7384 -0.4922 -0.5975
 5077SOL    HW226691   0.598   2.939   1.755  0.6825  1.8339  0.0418
 5078SOL     OW26692   0.071   3.101   9.933 -0.2876 -0.2219  0.3557
 5078SOL    HW126693   0.104   3.113  10.022 -0.6962  0.1173  0.4601
 5078SOL    HW226694   0.141   3.051   9.891 -0.9892  0.8575 -2.1224
 5079SOL     OW26695   4.354   2.038   8.792  0.1677  0.1706 -0.1553
 5079SOL    HW126696   4.267   2.031   8.754  1.8394 -0.0367 -3.9555
 5079SOL    HW226697   4.399   2.066   8.712  0.2501  1.9334  0.5048
 5080SOL     OW26698   4.308   3.671  14.613 -0.5982  0.0590 -0.2434
 5080SOL    HW126699   4.223   3.629  14.625  1.2158 -3.2207  1.2251
 5080SOL    HW226700   4.343   3.689  14.701  0.7047  1.9853 -1.1534
 5081SOL     OW26701   3.295   4.574   7.031  0.0516 -0.3711  0.2149
 5081SOL    HW126702   3.233   4.590   6.960  0.1591 -3.0026 -0.4771
 5081SOL    HW226703   3.252   4.502   7.077  0.6322 -0.5458  0.4869
 5082SOL     OW26704   1.305   0.100   4.880  0.3534 -0.1692 -0.3001
 5082SOL    HW126705   1.274   0.190   4.868 -0.9080 -0.5953 -0.2989
 5082SOL    HW226706   1.341   0.112   4.968 -0.3477  3.1800 -0.4689
 5083SOL     OW26707   0.911   1.024  13.791 -0.0022  0.4390  0.3839
 5083SOL    HW126708   0.861   1.099  13.760  1.1205  0.6147 -1.0487
 5083SOL    HW226709   0.978   1.017  13.723 -0.6366 -1.5355 -0.0630
 5084SOL     OW26710   2.669   4.036   5.718 -0.2999  0.1775  0.1110
 5084SOL    HW126711   2.655   3.942   5.704  0.5771  0.1077 -0.3172
 5084SOL    HW226712   2.725   4.029   5.796  1.3810  1.1207 -0.9919
 5085SOL     OW26713   2.836   4.244   6.907  0.0376  0.4334  0.0831
 5085SOL    HW126714   2.892   4.187   6.855 -0.9020  0.3644 -0.8428
 5085SOL    HW226715   2.780   4.178   6.948  0.2056 -1.9831 -3.5853
 5086SOL     OW26716   1.361   1.665  15.744  0.0636 -0.0544 -0.3107
 5086SOL    HW126717   1.394   1.603  15.809 -0.7654 -0.5124 -0.3320
 5086SOL    HW226718   1.408   1.746  15.764 -2.0489  0.0241  4.2299
 5087SOL     OW26719   4.246   1.785   7.348  0.2875  0.2823 -0.3852
 5087SOL    HW126720   4.209   1.831   7.273  0.3619 -1.5698 -1.5458
 5087SOL    HW226721   4.340   1.768   7.337  0.2738  1.8985 -2.8603
 5088SOL     OW26722   1.190   3.455   5.374 -0.2057 -0.0078  0.0830
 5088SOL    HW126723   1.131   3.525   5.404 -1.5055 -0.4835 -1.3962
 5088SOL    HW226724   1.275   3.494   5.396 -0.2781 -0.7888  1.7811
 5089SOL     OW26725   4.151   0.666   3.618  0.1829  0.1149  0.1208
 5089SOL    HW126726   4.181   0.742   3.568  1.5442 -0.3862  0.1883
 5089SOL    HW226727   4.152   0.703   3.707  1.8312  1.7127 -0.5736
 5090SOL     OW26728   2.418   3.395   6.071 -0.1281 -0.6624 -0.0089
 5090SOL    HW126729   2.392   3.411   5.980 -0.4943 -2.3186 -0.1944
 5090SOL    HW226730   2.343   3.434   6.114 -0.9881 -2.4084  0.0652
 5091SOL     OW26731   2.876   2.316  11.293 -0.0946  0.3529  0.7613
 5091SOL    HW126732   2.788   2.354  11.289 -0.0502  0.1439 -2.4889
 5091SOL    HW226733   2.913   2.373  11.225 -1.5401  0.3121 -0.0771
 5092SOL     OW26734   2.167   2.128  13.909 -0.1112  0.3845  0.3714
 5092SOL    HW126735   2.142   2.221  13.909  0.3471  0.5118 -1.1779
 5092SOL    HW226736   2.096   2.087  13.959  0.4956  0.5357  1.3523
 5093SOL     OW26737   3.064   1.955  12.809  0.1578  0.0648  0.4327
 5093SOL    HW126738   3.125   1.995  12.870  0.0908 -1.0045  1.2053
 5093SOL    HW226739   2.993   2.016  12.829 -0.2119 -0.5361  0.9630
 5094SOL     OW26740   3.833   2.840   3.790  0.0629  0.3006 -0.0012
 5094SOL    HW126741   3.831   2.934   3.807 -1.0945 -0.1706  2.4681
 5094SOL    HW226742   3.778   2.804   3.860  1.6083  1.2522  1.7116
 5095SOL     OW26743   3.988   3.476   2.764  0.0002 -0.1504  0.3743
 5095SOL    HW126744   3.947   3.492   2.679  0.9744  1.8014  0.2739
 5095SOL    HW226745   4.044   3.553   2.771 -0.6901  0.1776  2.3189
 5096SOL     OW26746   2.034   1.723  16.548  0.2819  0.9083 -0.3194
 5096SOL    HW126747   2.123   1.693  16.534 -0.3955 -1.9305  1.5404
 5096SOL    HW226748   2.035   1.756  16.638 -0.5768  2.2637 -0.7883
 5097SOL     OW26749   1.962   0.523   7.037 -0.3140  0.3392  0.3510
 5097SOL    HW126750   1.939   0.534   7.130 -0.3660 -1.1893  0.5201
 5097SOL    HW226751   1.916   0.439   7.037 -0.0631  0.2063 -0.1360
 5098SOL     OW26752   3.657   2.329  14.597 -0.0659  0.2242 -0.5711
 5098SOL    HW126753   3.691   2.373  14.675  1.9944  1.2872 -2.0754
 5098SOL    HW226754   3.721   2.345  14.528 -1.0923 -1.0327 -1.8057
 5099SOL     OW26755   2.929   1.832   0.963  0.0628  0.0288 -0.2682
 5099SOL    HW126756   2.978   1.911   0.940 -0.3633  0.0086 -1.2770
 5099SOL    HW226757   2.906   1.792   0.879 -0.3004  1.4933 -0.8545
 5100SOL     OW26758   0.359   1.889   7.691 -0.0849  0.2634 -0.1838
 5100SOL    HW126759   0.311   1.971   7.700  0.3408  0.7414 -2.3465
 5100SOL    HW226760   0.359   1.853   7.779 -1.5611 -0.3891 -0.4613
 5101SOL     OW26761   0.617   4.293   9.497 -0.1129  0.0761 -0.0849
 5101SOL    HW126762   0.605   4.285   9.592  2.0118 -0.5035  0.1312
 5101SOL    HW226763   0.557   4.224   9.469  0.5712 -0.0627 -1.1968
 5102SOL     OW26764   1.187   2.513   4.634 -0.2636  0.2574 -0.0430
 5102SOL    HW126765   1.243   2.472   4.701 -1.0159 -0.8631 -0.0923
 5102SOL    HW226766   1.211   2.450   4.566 -0.6111  0.3453 -0.2430
 5103SOL     OW26767   0.637   2.516  12.227  0.1101  0.8577 -0.0823
 5103SOL    HW126768   0.677   2.487  12.309  0.6296 -0.1534 -0.6799
 5103SOL    HW226769   0.580   2.443  12.203  0.5259  0.1027  1.2309
 5104SOL     OW26770   3.173   4.354   7.130 -0.4657  0.2649  0.2511
 5104SOL    HW126771   3.240   4.296   7.165 -0.2456  3.0745  4.4716
 5104SOL    HW226772   3.103   4.344   7.194 -1.6852  0.5576 -1.0404
 5105SOL     OW26773   0.276   2.244   4.561  0.3363  0.6164 -0.2056
 5105SOL    HW126774   0.320   2.260   4.645 -1.6886 -0.0416  0.9763
 5105SOL    HW226775   0.333   2.181   4.518  0.1869 -0.1115  0.6644
 5106SOL     OW26776   2.527   1.297   3.955  0.2067 -0.2677  0.0445
 5106SOL    HW126777   2.501   1.253   4.035 -2.0121  0.5467 -0.2336
 5106SOL    HW226778   2.561   1.235   3.891  1.1329 -2.0618  2.2779
 5107SOL     OW26779   3.323   0.308   3.491 -0.1123 -0.0842 -0.5251
 5107SOL    HW126780   3.245   0.362   3.506  1.1854  2.0336 -1.4193
 5107SOL    HW226781   3.398   0.364   3.472 -0.3675  0.0069 -1.2906
 5108SOL     OW26782   0.177   3.368   4.254 -0.3110  0.2970  0.0565
 5108SOL    HW126783   0.099   3.372   4.309 -0.9414 -1.8820 -0.6529
 5108SOL    HW226784   0.149   3.357   4.163 -3.7148  0.2036  1.0843
 5109SOL     OW26785   2.186   0.635   7.945 -0.3085 -0.1464 -0.7416
 5109SOL    HW126786   2.223   0.585   7.872 -0.9742  0.9073 -1.7968
 5109SOL    HW226787   2.132   0.702   7.903  1.5058  1.0687 -1.1384
 5110SOL     OW26788   3.153   1.895   2.892 -0.3568 -0.2666 -0.3200
 5110SOL    HW126789   3.091   1.932   2.954 -0.3377  1.8354 -1.5587
 5110SOL    HW226790   3.085   1.856   2.837  0.2355  0.4232 -1.5489
 5111SOL     OW26791   4.611   3.633   3.766 -0.2754  0.1951  0.1923
 5111SOL    HW126792   4.694   3.605   3.805  1.0579  0.1190 -2.7700
 5111SOL    HW226793   4.579   3.699   3.828  0.6613  1.9885 -1.2279
 5112SOL     OW26794   1.917   2.690   5.303  0.0652 -0.3046 -0.0681
 5112SOL    HW126795   1.844   2.702   5.243 -0.6912 -0.6313  0.7762
 5112SOL    HW226796   1.985   2.640   5.257  3.2778  1.0149  3.1876
 5113SOL     OW26797   4.715   0.285  11.156 -0.1879  0.6308 -0.1790
 5113SOL    HW126798   4.681   0.196  11.163  1.5845 -0.0911 -0.8745
 5113SOL    HW226799   4.719   0.297  11.061  1.3267 -0.5733 -0.2641
 5114SOL     OW26800   4.711   4.412  17.594  0.3819 -0.4049  0.2520
 5114SOL    HW126801   0.003   4.503  17.569 -2.4434  0.2135  0.7616
 5114SOL    HW226802   0.004   4.364  17.513 -0.4315 -2.5881  1.3726
 5115SOL     OW26803   2.356   4.275   0.286 -0.2074  0.3100  0.1546
 5115SOL    HW126804   2.394   4.282   0.374  0.3824 -1.0012  0.0140
 5115SOL    HW226805   2.356   4.179   0.278  3.4283  0.1702  1.4961
 5116SOL     OW26806   0.543   0.870   7.283  0.1163  0.3836 -0.5832
 5116SOL    HW126807   0.564   0.794   7.229 -0.6107  0.0862 -0.4418
 5116SOL    HW226808   0.570   0.937   7.221  1.1407  0.7735  0.2834
 5117SOL     OW26809   4.462   0.386   1.769  0.2085  0.1156 -0.3652
 5117SOL    HW126810   4.513   0.466   1.752  0.5453 -0.4833 -2.1381
 5117SOL    HW226811   4.372   0.419   1.767  0.1313 -0.1793 -1.8397
 5118SOL     OW26812   3.951   1.575  16.318  0.1625  0.1968 -0.1966
 5118SOL    HW126813   4.045   1.583  16.304  0.2627 -0.0054  0.3691
 5118SOL    HW226814   3.938   1.493  16.365 -1.1448  0.7941  0.4935
 5119SOL     OW26815   0.519   4.006   8.194 -0.4382 -0.1827  0.3023
 5119SOL    HW126816   0.544   3.938   8.132  0.9645  1.2282 -0.6709
 5119SOL    HW226817   0.431   3.981   8.223 -0.5167 -1.2896 -0.9006
 5120SOL     OW26818   4.045   1.000   4.478 -0.2302  0.2491 -0.2238
 5120SOL    HW126819   3.963   0.952   4.465  0.0567  0.0405 -1.2687
 5120SOL    HW226820   4.099   0.956   4.412  2.5184  2.7879  0.3470
 5121SOL     OW26821   1.483   4.537  10.824 -0.0874  0.5838 -0.3195
 5121SOL    HW126822   1.405   4.573  10.783  1.1026  1.5788 -1.7146
 5121SOL    HW226823   1.477   4.563  10.916 -3.3617 -1.0804 -0.0733
 5122SOL     OW26824   4.119   1.282   3.859 -0.1997  0.1454 -0.2160
 5122SOL    HW126825   4.150   1.205   3.907 -1.0304 -0.7739 -1.1547
 5122SOL    HW226826   4.114   1.338   3.937  2.6091 -3.0102  2.2328
 5123SOL     OW26827   1.054   4.704   9.897  0.1698 -0.1889  0.2631
 5123SOL    HW126828   1.147   4.697   9.875 -0.3636 -1.9234 -1.4681
 5123SOL    HW226829   1.034   0.065   9.860  1.0022  0.0004  0.2510
 5124SOL     OW26830   3.893   3.510   5.211 -0.1937 -0.0726 -0.2147
 5124SOL    HW126831   3.956   3.568   5.168  1.0332 -1.8138 -0.7778
 5124SOL    HW226832   3.941   3.483   5.289  0.7068  2.3909  0.0726
 5125SOL     OW26833   0.509   0.667   7.068  0.0442 -0.0155 -0.0721
 5125SOL    HW126834   0.476   0.577   7.064  1.2610 -0.5844  2.8811
 5125SOL    HW226835   0.563   0.668   6.989  1.4472 -0.5876  0.8904
 5126SOL     OW26836   2.852   0.350   8.542 -0.2805  0.1867 -0.3458
 5126SOL    HW126837   2.798   0.317   8.470 -1.3730 -1.0641  1.0605
 5126SOL    HW226838   2.913   0.412   8.501  0.7705  0.4958  1.7041
 5127SOL     OW26839   0.790   2.245   2.818 -0.0293 -0.7521  0.0206
 5127SOL    HW126840   0.869   2.287   2.851  0.6311 -0.8767 -1.4211
 5127SOL    HW226841   0.813   2.153   2.810  0.0519 -0.7770  0.5135
 5128SOL     OW26842   4.552   4.231   6.038 -0.3352  0.3760  0.0368
 5128SOL    HW126843   4.523   4.289   6.109 -1.5626 -0.9650  0.6257
 5128SOL    HW226844   4.631   4.277   6.009 -0.0623  0.1351  0.4070
 5129SOL     OW26845   2.692   0.548  15.878  0.2195 -0.0720 -0.0038
 5129SOL    HW126846   2.733   0.471  15.838  0.9609 -1.1162  2.7238
 5129SOL    HW226847   2.729   0.543  15.966 -0.0372  1.4849  0.1833
 5130SOL     OW26848   2.078   0.591   9.712 -0.0759  0.1582  0.5481
 5130SOL    HW126849   2.056   0.666   9.657  2.4415  0.8815  0.5443
 5130SOL    HW226850   2.113   0.643   9.784 -1.5717  0.3628  1.1242
 5131SOL     OW26851   0.004   1.175   5.037 -0.1181  0.5171  0.4002
 5131SOL    HW126852   4.639   1.142   5.032  0.0100  0.5160 -2.2796
 5131SOL    HW226853   0.039   1.168   4.948  0.0568 -0.4866  0.5433
 5132SOL     OW26854   1.918   0.512   1.833  0.0497  0.0253 -0.3476
 5132SOL    HW126855   1.932   0.418   1.821 -2.2826 -0.0841 -2.0599
 5132SOL    HW226856   1.823   0.511   1.847 -0.0705 -1.2113 -1.2022
 5133SOL     OW26857   1.066   3.085  16.599  0.0729  0.3042 -0.0336
 5133SOL    HW126858   1.106   3.010  16.555  1.1559 -0.3618  2.0612
 5133SOL    HW226859   1.035   3.135  16.524  0.5974  2.0815  0.9215
 5134SOL     OW26860   1.350   0.479   8.014  0.2588 -0.1970  0.0329
 5134SOL    HW126861   1.373   0.565   7.981  0.7117 -0.6747 -0.8949
 5134SOL    HW226862   1.258   0.474   7.987  0.7516 -0.6078 -1.5617
 5135SOL     OW26863   3.314   1.910   4.947 -0.4815  0.4568  0.5932
 5135SOL    HW126864   3.316   1.845   4.878  2.0336  2.5686 -1.3117
 5135SOL    HW226865   3.390   1.888   5.001  0.2253  0.2286 -0.5096
 5136SOL     OW26866   2.750   3.220   3.573 -0.1878 -0.5444 -0.5271
 5136SOL    HW126867   2.724   3.312   3.583 -0.2993 -0.6602  0.2886
 5136SOL    HW226868   2.804   3.200   3.650 -1.8885 -1.1623  0.5031
 5137SOL     OW26869   2.196   0.266  12.437 -0.0595 -0.3024 -0.1000
 5137SOL    HW126870   2.265   0.305  12.383 -0.3187  0.2276 -0.0497
 5137SOL    HW226871   2.237   0.197  12.489  0.7903  0.8284  0.7109
 5138SOL     OW26872   2.935   4.674  11.976  0.5893 -0.1929  0.1598
 5138SOL    HW126873   2.851   4.710  12.004  0.6904 -0.0379  0.2616
 5138SOL    HW226874   2.945   4.711  11.888 -1.8899  1.3596  0.5506
 5139SOL     OW26875   2.762   1.551   0.310 -0.6115  0.7619  0.3133
 5139SOL    HW126876   2.843   1.512   0.276 -0.9889 -0.1976  0.5293
 5139SOL    HW226877   2.710   1.473   0.328 -3.0549  1.8798 -1.8826
 5140SOL     OW26878   0.334   0.398   3.659  0.0549 -0.1004 -0.6356
 5140SOL    HW126879   0.364   0.437   3.578  1.9717 -1.1379 -0.4254
 5140SOL    HW226880   0.242   0.425   3.660 -0.1583 -0.7945 -1.4901
 5141SOL     OW26881   0.688   0.577  11.180  0.2241  0.1830  0.3507
 5141SOL    HW126882   0.751   0.524  11.228 -0.3340 -0.5330  0.2834
 5141SOL    HW226883   0.636   0.615  11.251  0.5745 -0.3668  0.8893
 5142SOL     OW26884   2.400   3.018   9.052  0.0557 -0.4557  0.6428
 5142SOL    HW126885   2.430   2.933   9.084  2.3405  1.0133  2.4420
 5142SOL    HW226886   2.480   3.068   9.033 -1.7573  1.0339 -2.9664
 5143SOL     OW26887   2.647   4.129   2.619  0.0189  0.2561 -0.1088
 5143SOL    HW126888   2.592   4.196   2.579 -2.7950 -0.3982  2.6567
 5143SOL    HW226889   2.729   4.179   2.615  0.1671  0.1119  0.9536
 5144SOL     OW26890   3.284   1.143   5.505  0.1671  0.1708  0.5486
 5144SOL    HW126891   3.338   1.112   5.578  0.8945  0.2346  0.0376
 5144SOL    HW226892   3.337   1.144   5.426  0.0978 -2.2183  0.4725
 5145SOL     OW26893   4.323   1.636   2.558 -0.4842  0.2899 -0.4320
 5145SOL    HW126894   4.240   1.590   2.567  0.1015 -0.3072  1.9013
 5145SOL    HW226895   4.360   1.584   2.487 -2.1578  0.0979 -1.1496
 5146SOL     OW26896   0.492   4.014  16.585  0.5876  0.0693  0.4185
 5146SOL    HW126897   0.401   3.985  16.595  0.4029  0.7427  0.7210
 5146SOL    HW226898   0.500   4.009  16.490 -0.2589  2.4814  0.2056
 5147SOL     OW26899   1.437   1.372  14.946 -0.3557  0.2193  0.2424
 5147SOL    HW126900   1.433   1.408  14.857 -1.5677 -0.1341  0.1422
 5147SOL    HW226901   1.344   1.379  14.971 -0.3508 -0.2853  0.4128
 5148SOL     OW26902   0.437   0.657   5.414  0.0475  0.0948 -0.4817
 5148SOL    HW126903   0.435   0.749   5.389 -1.5283  0.2177  0.1434
 5148SOL    HW226904   0.529   0.646   5.439 -0.1728  0.2829  0.4050
 5149SOL     OW26905   2.124   4.519   6.172 -0.3425 -0.2692 -0.1512
 5149SOL    HW126906   2.086   4.596   6.130 -0.1411  0.1966  0.5189
 5149SOL    HW226907   2.179   4.559   6.240  0.1514 -0.4679 -0.4328
 5150SOL     OW26908   2.189   1.526   2.976  0.2633 -0.1877  0.1895
 5150SOL    HW126909   2.116   1.471   3.005 -1.2911  0.6490 -2.1977
 5150SOL    HW226910   2.185   1.515   2.881  1.3990  0.1270  0.0984
 5151SOL     OW26911   3.020   2.068   4.839  0.1432  0.2608  0.2860
 5151SOL    HW126912   3.114   2.067   4.822  0.1714  1.8519  0.3711
 5151SOL    HW226913   3.014   2.162   4.858 -1.3836 -0.2334  2.3063
 5152SOL     OW26914   1.126   1.373   1.493  0.1335  0.0853 -0.0974
 5152SOL    HW126915   1.105   1.425   1.415 -1.8929  0.0876  0.4495
 5152SOL    HW226916   1.114   1.293   1.442  0.1464  0.2899 -0.4274
 5153SOL     OW26917   0.232   1.003   3.036  0.0274 -0.1680 -0.0319
 5153SOL    HW126918   0.253   1.065   2.967  0.3193 -0.1076  0.1107
 5153SOL    HW226919   0.146   0.972   3.007 -0.8964  3.0212 -0.6913
 5154SOL     OW26920   4.060   0.278   7.619  0.2369 -0.0127 -0.5596
 5154SOL    HW126921   4.044   0.261   7.712 -0.8636  1.1299 -0.5316
 5154SOL    HW226922   3.993   0.342   7.597 -1.6152 -2.4813 -2.0635
 5155SOL     OW26923   0.630   3.667  15.683 -0.4521 -0.1612 -0.9108
 5155SOL    HW126924   0.667   3.605  15.747 -0.8015  0.0785 -0.4777
 5155SOL    HW226925   0.688   3.743  15.692 -1.9464  1.0183 -1.3209
 5156SOL     OW26926   2.326   3.608   6.746  0.5887 -0.2698  0.4107
 5156SOL    HW126927   2.314   3.625   6.839  0.2569  0.9833  0.1472
 5156SOL    HW226928   2.316   3.694   6.706  0.8479 -0.2693  0.3493
 5157SOL     OW26929   0.287   4.444   6.803 -0.3385  0.0852  0.6200
 5157SOL    HW126930   0.302   4.364   6.855  1.1269  0.4348  0.7329
 5157SOL    HW226931   0.195   4.438   6.776 -0.9035 -0.4976  2.6198
 5158SOL     OW26932   1.357   2.088  13.598  0.2887 -0.0319  0.3983
 5158SOL    HW126933   1.292   2.152  13.628 -0.2125 -0.5239  0.3519
 5158SOL    HW226934   1.339   2.076  13.505  2.0410 -0.0304  0.0569
 5159SOL     OW26935   3.030   4.365   5.329 -0.1503 -0.2657  0.2889
 5159SOL    HW126936   3.025   4.453   5.292 -2.5358 -1.0206 -1.1947
 5159SOL    HW226937   2.962   4.330   5.271 -0.5495 -0.5731  0.9488
 5160SOL     OW26938   2.872   2.434   1.802  0.0196 -0.2146 -0.2794
 5160SOL    HW126939   2.893   2.502   1.738  1.0624 -0.2031  0.0896
 5160SOL    HW226940   2.816   2.372   1.755  1.5515 -1.0921 -0.9346
 5161SOL     OW26941   0.929   4.170   1.040  0.4979  0.0415 -0.1323
 5161SOL    HW126942   0.850   4.217   1.015  0.5394  0.6208  0.8403
 5161SOL    HW226943   0.916   4.166   1.134 -0.3218  1.5251 -0.1874
 5162SOL     OW26944   3.745   4.532   2.728  0.8239  0.5586 -0.3770
 5162SOL    HW126945   3.751   4.526   2.633  3.1830 -0.0034 -0.2096
 5162SOL    HW226946   3.778   4.621   2.742 -0.8378  1.2197 -0.6873
 5163SOL     OW26947   3.179   1.883   7.559 -0.2019  0.0456  0.0949
 5163SOL    HW126948   3.143   1.919   7.478 -1.8557  0.7971  1.1642
 5163SOL    HW226949   3.213   1.959   7.607 -0.2860  0.7590 -0.9868
 5164SOL     OW26950   3.161   2.798  13.333  0.0590 -0.1674 -0.1443
 5164SOL    HW126951   3.152   2.880  13.381  1.2723 -0.6871  0.9570
 5164SOL    HW226952   3.178   2.836  13.247  1.7079 -1.2432 -0.2966
 5165SOL     OW26953   2.687   3.846   7.721  0.1932 -0.4651 -0.2149
 5165SOL    HW126954   2.659   3.762   7.757  0.8698 -0.0118  1.3770
 5165SOL    HW226955   2.717   3.815   7.635  0.0139 -0.7278 -0.1812
 5166SOL     OW26956   3.578   3.519   8.142 -0.0740  0.3409 -0.5180
 5166SOL    HW126957   3.601   3.572   8.218  1.1802  1.0935 -1.4157
 5166SOL    HW226958   3.493   3.493   8.178  0.6914  1.2624  1.9355
 5167SOL     OW26959   1.833   2.939   4.836 -0.1674 -0.3821 -0.6494
 5167SOL    HW126960   1.842   3.005   4.767  0.8402 -0.1736 -0.3278
 5167SOL    HW226961   1.748   2.963   4.872 -0.7714 -1.9272 -1.0298
 5168SOL     OW26962   2.920   1.323   3.949  0.3105 -0.3354 -0.0397
 5168SOL    HW126963   2.967   1.276   4.017 -4.7364 -1.1970  2.8256
 5168SOL    HW226964   2.987   1.337   3.881  0.4336 -1.2622 -0.1087
 5169SOL     OW26965   0.940   0.993   4.884 -0.1481  0.2591 -0.4527
 5169SOL    HW126966   1.002   1.064   4.867 -0.7873  0.9795  0.2473
 5169SOL    HW226967   0.865   1.049   4.904 -0.7176  0.1203 -2.2349
 5170SOL     OW26968   3.399   2.993  16.969 -0.1021  0.7249 -0.6410
 5170SOL    HW126969   3.355   3.077  16.953 -0.8991  0.7025  1.4298
 5170SOL    HW226970   3.491   3.019  16.970 -0.1089  0.8269 -2.0003
 5171SOL     OW26971   0.627   0.717  11.819  0.6272 -0.0531 -0.4936
 5171SOL    HW126972   0.666   0.802  11.796 -0.8062  0.3897 -1.2752
 5171SOL    HW226973   0.578   0.737  11.899  0.9953 -2.0983  0.2419
 5172SOL     OW26974   4.392   1.926   2.524  0.1638  0.7521  0.0259
 5172SOL    HW126975   4.340   1.847   2.507  1.3443  0.2219 -1.1210
 5172SOL    HW226976   4.328   1.974   2.576 -1.2588  2.7402 -3.5382
 5173SOL     OW26977   1.325   3.043   3.730  0.0804 -0.5032  0.5413
 5173SOL    HW126978   1.367   2.961   3.759  0.7410  0.5819  2.6674
 5173SOL    HW226979   1.233   3.017   3.732 -0.6905  2.3880  3.3816
 5174SOL     OW26980   0.915   2.514   8.401 -0.1303 -0.0026 -0.0644
 5174SOL    HW126981   0.941   2.557   8.319 -1.1906  1.3981  0.3299
 5174SOL    HW226982   0.999   2.524   8.446 -0.1066  0.2471 -0.1633
 5175SOL     OW26983   0.287   2.568   2.426 -0.7981 -0.4555 -0.5409
 5175SOL    HW126984   0.192   2.558   2.425 -0.8708  0.2928 -1.1940
 5175SOL    HW226985   0.292   2.643   2.367  1.2578 -1.6022 -1.8421
 5176SOL     OW26986   4.382   3.980  15.090  0.0230 -0.0435 -0.4154
 5176SOL    HW126987   4.434   3.900  15.094  1.2084  0.6121 -2.6080
 5176SOL    HW226988   4.385   4.014  15.179  0.1777  2.4545 -1.3827
 5177SOL     OW26989   3.808   2.633   7.941  0.0879  0.6044  0.6216
 5177SOL    HW126990   3.815   2.716   7.988  0.9584  1.4655 -1.0495
 5177SOL    HW226991   3.852   2.580   8.007 -1.6512  1.0578  2.1633
 5178SOL     OW26992   1.509   4.117   3.589  0.1793  0.1312 -0.2109
 5178SOL    HW126993   1.583   4.103   3.647 -0.4710 -0.1194  0.5575
 5178SOL    HW226994   1.440   4.128   3.655  0.4117  0.0125  0.0463
 5179SOL     OW26995   2.220   0.361   7.063 -0.2217  0.0351  0.1535
 5179SOL    HW126996   2.210   0.418   7.140 -1.3522  0.0671 -0.0101
 5179SOL    HW226997   2.182   0.415   6.994 -0.3764 -0.4890 -0.1616
 5180SOL     OW26998   2.725   4.360   4.664  0.1380 -0.4341 -0.1814
 5180SOL    HW126999   2.685   4.434   4.619 -3.7628 -0.2718  3.4985
 5180SOL    HW227000   2.694   4.285   4.614 -0.9424 -0.3912  0.4196
 5181SOL     OW27001   1.495   3.017   7.289 -0.1548 -0.1245 -0.4795
 5181SOL    HW127002   1.536   2.936   7.317 -0.4003  0.0123  0.2813
 5181SOL    HW227003   1.429   3.024   7.358 -0.9665  0.3624 -1.2989
 5182SOL     OW27004   1.939   0.696  12.404  1.0016 -0.5500  0.2490
 5182SOL    HW127005   1.885   0.738  12.337  1.3406 -1.1335 -0.3910
 5182SOL    HW227006   1.887   0.700  12.484  3.0293  2.7787  1.4037
 5183SOL     OW27007   0.455   3.363   0.099  0.0142  0.4288 -0.4073
 5183SOL    HW127008   0.444   3.277   0.059  0.4195 -0.2472  0.9413
 5183SOL    HW227009   0.458   3.428   0.028  0.3893  0.0022 -0.7800
 5184SOL     OW27010   1.644   3.913   8.925 -0.2055  0.4734 -0.1460
 5184SOL    HW127011   1.615   3.861   8.850  0.8324 -1.2612  0.6550
 5184SOL    HW227012   1.686   3.843   8.976 -1.3009 -0.4009 -0.4397
 5185SOL     OW27013   3.002   3.936  17.615 -0.0255  0.1986  0.1110
 5185SOL    HW127014   3.069   3.996  17.581 -1.9630  1.7484 -0.9093
 5185SOL    HW227015   2.941   3.923  17.543 -0.2591 -0.6120  0.4582
 5186SOL     OW27016   1.811   2.387  12.940  0.7156  0.0940 -0.1532
 5186SOL    HW127017   1.769   2.312  12.897 -1.4497  1.5024 -0.4803
 5186SOL    HW227018   1.838   2.436  12.863  0.5234  0.1850 -0.1631
 5187SOL     OW27019   2.153   2.261   8.053 -0.5156 -0.4200 -0.2154
 5187SOL    HW127020   2.143   2.275   8.147 -1.4711  0.0409 -0.3937
 5187SOL    HW227021   2.087   2.193   8.051 -0.4050 -0.5104 -0.8870
 5188SOL     OW27022   3.582   1.124   8.437  0.0739  0.4502 -0.0120
 5188SOL    HW127023   3.541   1.045   8.471 -1.6006  0.7766 -1.2848
 5188SOL    HW227024   3.537   1.185   8.496  0.7034  2.1409 -1.2588
 5189SOL     OW27025   2.787   2.718  13.192  0.0335 -0.2322 -0.2743
 5189SOL    HW127026   2.870   2.681  13.161  0.6760 -2.0469  3.6223
 5189SOL    HW227027   2.822   2.805  13.208  2.0140 -0.9017 -0.8782
 5190SOL     OW27028   2.135   0.637   1.083 -0.1335  0.0418 -0.0763
 5190SOL    HW127029   2.066   0.643   1.150 -0.5444  0.9220 -0.5898
 5190SOL    HW227030   2.196   0.694   1.130 -1.2986  1.8295 -0.7532
 5191SOL     OW27031   0.092   0.699   8.948  0.2808  0.1871 -0.3348
 5191SOL    HW127032   0.105   0.770   9.012 -2.4741  0.9632 -0.6352
 5191SOL    HW227033   0.040   0.633   8.994  3.2494 -0.0711  2.6815
 5192SOL     OW27034   1.046   0.673  12.469  0.0325 -0.2757  0.3697
 5192SOL    HW127035   1.023   0.730  12.542  2.0028 -1.4624  1.9035
 5192SOL    HW227036   0.961   0.661  12.427  0.4135 -1.9897  0.1039
 5193SOL     OW27037   3.538   3.149  10.507 -0.0058 -0.5924 -0.8510
 5193SOL    HW127038   3.480   3.182  10.438  1.4803  0.9666 -1.3587
 5193SOL    HW227039   3.596   3.217  10.542  2.0062 -2.6192 -0.2572
 5194SOL     OW27040   3.890   3.209   6.665 -0.2648  0.5295 -0.2702
 5194SOL    HW127041   3.935   3.264   6.730 -0.1193 -1.3726  1.2460
 5194SOL    HW227042   3.802   3.245   6.657 -0.5673  0.2800  1.9436
 5195SOL     OW27043   1.365   0.525  10.261 -0.1775  0.4210 -0.1808
 5195SOL    HW127044   1.445   0.493  10.221 -0.5429 -0.3667 -0.2839
 5195SOL    HW227045   1.301   0.475  10.211 -3.3236  2.3220  1.9412
 5196SOL     OW27046   3.863   2.693   4.236  0.0491  0.0232  0.3080
 5196SOL    HW127047   3.930   2.713   4.302  1.0274  0.0663 -0.7014
 5196SOL    HW227048   3.869   2.759   4.168 -1.8563 -0.2893 -0.1553
 5197SOL     OW27049   3.986   0.495   2.627  0.0458 -0.0545  0.0043
 5197SOL    HW127050   4.040   0.416   2.630  2.4035  1.4692 -2.6782
 5197SOL    HW227051   3.997   0.524   2.537 -0.6642 -2.6672 -0.9282
 5198SOL     OW27052   0.126   1.523   3.120 -0.0469 -0.0359 -0.2077
 5198SOL    HW127053   0.130   1.578   3.042  0.2315  0.3054  0.0441
 5198SOL    HW227054   0.035   1.495   3.113  0.8180 -2.4335 -1.7943
 5199SOL     OW27055   2.333   4.526   7.603 -0.2541  0.0109  0.3017
 5199SOL    HW127056   2.294   4.537   7.517 -1.2169 -0.7449  0.6400
 5199SOL    HW227057   2.260   4.504   7.661  0.4159  1.8272  1.8255
 5200SOL     OW27058   2.394   1.217   1.858  0.8306 -0.0232 -0.1059
 5200SOL    HW127059   2.464   1.211   1.794  1.4319  1.5898  0.4087
 5200SOL    HW227060   2.439   1.219   1.942  0.2594 -0.7694  0.2232
 5201SOL     OW27061   0.149   3.363  11.802 -0.3173 -0.0915  0.2231
 5201SOL    HW127062   0.206   3.438  11.785  0.5257 -1.2008 -1.8441
 5201SOL    HW227063   0.189   3.335  11.885 -0.5086 -3.8498 -0.9476
 5202SOL     OW27064   0.845   0.777  10.756 -0.0075 -0.6218 -0.0159
 5202SOL    HW127065   0.871   0.705  10.700 -2.3635 -0.9886 -0.6176
 5202SOL    HW227066   0.920   0.773  10.817  0.2398 -0.9729 -0.3437
 5203SOL     OW27067   1.421   3.575  11.592 -0.0732 -0.5591 -0.3144
 5203SOL    HW127068   1.401   3.655  11.544  1.1736  1.3640  2.4023
 5203SOL    HW227069   1.333   3.538  11.601  0.3395 -1.9082 -1.6903
 5204SOL     OW27070   1.543   2.469   9.258 -0.2851 -0.1424  0.3827
 5204SOL    HW127071   1.566   2.422   9.178  1.3530  0.9901  0.1863
 5204SOL    HW227072   1.601   2.544   9.264  0.0157 -0.2831 -0.7894
 5205SOL     OW27073   1.274   2.504   9.505  0.3195  0.1325  0.0265
 5205SOL    HW127074   1.235   2.501   9.592 -1.8977  0.8261 -0.9056
 5205SOL    HW227075   1.204   2.555   9.462  1.8676  1.2424 -1.1822
 5206SOL     OW27076   4.058   0.216   7.280  0.3312 -0.2454  0.3159
 5206SOL    HW127077   4.039   0.266   7.359 -1.3587 -2.2084  1.1612
 5206SOL    HW227078   4.106   0.139   7.313  2.1228  1.1240  0.9163
 5207SOL     OW27079   1.891   2.190  11.031 -0.2409  0.9049 -0.0115
 5207SOL    HW127080   1.842   2.162  11.109  0.0522 -0.0596 -0.1744
 5207SOL    HW227081   1.976   2.146  11.040 -1.0996 -0.6536  0.5071
 5208SOL     OW27082   4.712   0.413   8.585 -0.0358  0.0843  0.4462
 5208SOL    HW127083   4.625   0.445   8.561  0.3113 -1.0064 -2.2869
 5208SOL    HW227084   0.028   0.411   8.498 -0.3463 -0.9925  0.3242
 5209SOL     OW27085   3.050   3.772  16.821  0.4289 -0.1019 -0.6316
 5209SOL    HW127086   2.970   3.824  16.817  1.1193  0.9733 -0.3802
 5209SOL    HW227087   3.032   3.700  16.760 -3.1369  1.0558 -0.9702
 5210SOL     OW27088   3.763   4.561  14.515 -0.2734 -0.1640  0.4981
 5210SOL    HW127089   3.684   4.520  14.479 -0.7873  1.8125 -0.5899
 5210SOL    HW227090   3.725   4.648  14.529  1.6960  1.1557 -2.4192
 5211SOL     OW27091   2.366   1.117   3.661 -0.0221  0.3458 -0.0730
 5211SOL    HW127092   2.307   1.079   3.597  0.4880 -0.0033 -0.3428
 5211SOL    HW227093   2.443   1.137   3.607  0.7192  0.8032  1.1343
 5212SOL     OW27094   2.277   2.274   0.026  0.0849  0.0725  0.3278
 5212SOL    HW127095   2.361   2.313   0.050  0.2861  0.0741 -0.3949
 5212SOL    HW227096   2.227   2.345  17.685 -1.0142 -0.1485  1.3456
 5213SOL     OW27097   1.803   0.984   8.103 -0.0919 -0.9316 -0.1282
 5213SOL    HW127098   1.815   0.946   8.016  0.1385  0.0735 -0.5422
 5213SOL    HW227099   1.737   0.927   8.141 -0.3677 -0.8531 -0.4848
 5214SOL     OW27100   4.108   1.116   8.857  0.5360 -0.2268  0.0363
 5214SOL    HW127101   4.140   1.059   8.787  1.8083  1.0698 -0.4457
 5214SOL    HW227102   4.183   1.145   8.909 -1.0901 -0.2253  2.3400
 5215SOL     OW27103   3.080   0.412   6.723 -0.2544 -0.4436  0.4816
 5215SOL    HW127104   3.151   0.433   6.663 -1.1306 -0.9618 -0.7361
 5215SOL    HW227105   3.123   0.340   6.769 -2.4986 -1.2680  1.2814
 5216SOL     OW27106   1.748   3.742   5.804 -0.1091  0.1226 -0.4614
 5216SOL    HW127107   1.842   3.736   5.825  0.0114  2.9793 -0.1211
 5216SOL    HW227108   1.733   3.815   5.744  1.5499  1.0700  0.2698
 5217SOL     OW27109   0.670   4.690   1.908 -0.3029  0.1968 -0.3449
 5217SOL    HW127110   0.718   0.049   1.914 -0.7096  0.3063  1.5518
 5217SOL    HW227111   0.581   0.001   1.916  0.8615  2.8583  0.9699
 5218SOL     OW27112   2.486   4.132   7.001  0.3199 -0.0262 -0.1598
 5218SOL    HW127113   2.456   4.222   6.989 -0.0190 -0.0550  0.4443
 5218SOL    HW227114   2.523   4.107   6.917  0.1489 -0.8644  0.0127
 5219SOL     OW27115   0.384   2.999   9.229 -0.1059 -0.0401  0.1286
 5219SOL    HW127116   0.337   3.067   9.182 -1.5767 -1.2909 -0.2201
 5219SOL    HW227117   0.346   2.923   9.186  1.9359 -0.7637 -0.3992
 5220SOL     OW27118   0.185   2.247   2.181 -0.3006  0.1081  0.3385
 5220SOL    HW127119   0.090   2.260   2.178 -0.0404  1.9424  0.2650
 5220SOL    HW227120   0.187   2.244   2.277 -0.8572 -0.2789  0.3357
 5221SOL     OW27121   4.257   3.350   8.951  0.2541 -0.4257  0.1229
 5221SOL    HW127122   4.223   3.389   8.871  3.6378  1.8749 -0.1395
 5221SOL    HW227123   4.291   3.269   8.914  0.0808 -0.9741  1.1346
 5222SOL     OW27124   2.561   2.241  11.049 -0.9492  0.1878  0.5097
 5222SOL    HW127125   2.522   2.202  11.127  0.0239 -0.0539  0.8769
 5222SOL    HW227126   2.484   2.245  10.992 -0.0191  1.4710 -0.6725
 5223SOL     OW27127   2.151   3.162  17.534  0.4893  0.4053  0.0268
 5223SOL    HW127128   2.162   3.095  17.602  1.1982  1.8757  1.3556
 5223SOL    HW227129   2.090   3.131  17.467  0.5274 -0.1781  0.2679
 5224SOL     OW27130   3.383   4.256   7.255 -0.0632 -0.2765  0.3596
 5224SOL    HW127131   3.465   4.221   7.219  0.6982  2.4860 -0.6033
 5224SOL    HW227132   3.411   4.340   7.291 -2.0439  0.5974 -0.1542
 5225SOL     OW27133   1.881   2.790  15.788  0.0826  0.3238 -0.1575
 5225SOL    HW127134   1.860   2.787  15.695 -0.8219 -0.9592  0.0825
 5225SOL    HW227135   1.975   2.774  15.783  0.1900  1.3443 -1.4457
 5226SOL     OW27136   3.595   0.203   2.745 -0.3338 -0.0099  0.5412
 5226SOL    HW127137   3.621   0.270   2.681  0.7460  0.5792  1.5905
 5226SOL    HW227138   3.544   0.261   2.801 -0.0922 -0.8992  1.6714
 5227SOL     OW27139   0.916   0.894   3.966 -1.1325 -0.5137 -0.0198
 5227SOL    HW127140   1.004   0.856   3.965 -0.7353  0.4250 -0.5769
 5227SOL    HW227141   0.901   0.912   4.059  1.0798  2.0196 -0.1495
 5228SOL     OW27142   0.823   0.354   8.531 -0.2796 -0.0989 -0.5503
 5228SOL    HW127143   0.787   0.397   8.454  0.7994  0.0268 -0.9784
 5228SOL    HW227144   0.884   0.424   8.551  0.1158  0.4317 -3.7781
 5229SOL     OW27145   3.961   4.039   7.583 -0.0665  0.3567  0.2388
 5229SOL    HW127146   3.978   3.991   7.664 -0.1191 -0.1724 -0.0606
 5229SOL    HW227147   3.890   4.091   7.621 -1.3472 -1.7176  0.7193
 5230SOL     OW27148   4.225   4.517   4.058 -0.9395  0.0064 -0.1880
 5230SOL    HW127149   4.272   4.595   4.087  0.1815 -0.7237 -0.0744
 5230SOL    HW227150   4.305   4.467   4.045  0.6867  1.9472  2.2565
 5231SOL     OW27151   1.427   2.621  14.991 -0.3708  0.1975  0.5201
 5231SOL    HW127152   1.489   2.566  14.943 -1.1125 -1.0421  0.9892
 5231SOL    HW227153   1.353   2.593  14.937 -0.7937  0.0501  1.1733
 5232SOL     OW27154   4.099   3.026  13.589  0.1223 -0.3173  0.3404
 5232SOL    HW127155   4.076   3.117  13.607  0.1092 -0.3786  0.6248
 5232SOL    HW227156   4.194   3.027  13.597  0.1800 -0.3130 -0.2879
 5233SOL     OW27157   0.153   4.153   2.335  0.6259  0.2042 -0.2364
 5233SOL    HW127158   0.080   4.196   2.380 -1.2995 -1.7364 -1.5182
 5233SOL    HW227159   0.222   4.218   2.346 -0.5563  0.9800  2.4705
 5234SOL     OW27160   1.557   3.321  11.636  0.6845  0.3993 -0.3291
 5234SOL    HW127161   1.633   3.379  11.633 -0.3336  1.7664  0.3324
 5234SOL    HW227162   1.500   3.395  11.613  0.5823  0.1026 -1.0254
 5235SOL     OW27163   3.206   2.426   6.555  0.1347  0.2891 -0.1442
 5235SOL    HW127164   3.201   2.331   6.567  1.6473  0.1646 -0.5555
 5235SOL    HW227165   3.278   2.448   6.614  0.7682  0.6271 -1.0442
 5236SOL     OW27166   2.035   2.180   1.608  0.2916  0.5887 -0.0382
 5236SOL    HW127167   2.022   2.109   1.545 -0.8241  0.5947  0.1788
 5236SOL    HW227168   2.056   2.137   1.691  0.9008  1.6625  0.3617
 5237SOL     OW27169   1.770   2.682   3.213  0.3211 -0.2345  0.5370
 5237SOL    HW127170   1.714   2.615   3.252 -0.9268  0.9887  0.8269
 5237SOL    HW227171   1.728   2.756   3.256  1.6992  0.7181  0.2284
 5238SOL     OW27172   3.303   1.880   3.263 -0.7137  0.1476 -0.1525
 5238SOL    HW127173   3.239   1.930   3.211 -1.0204 -0.9697 -0.8485
 5238SOL    HW227174   3.299   1.795   3.220 -1.3634  1.2633 -2.3281
 5239SOL     OW27175   4.132   2.408   5.310 -0.2389 -0.3388 -0.6529
 5239SOL    HW127176   4.101   2.443   5.227 -0.4997 -1.1537 -0.8976
 5239SOL    HW227177   4.127   2.314   5.292 -1.0602 -0.4147 -0.0178
 5240SOL     OW27178   4.693   2.256   4.922  0.7966 -0.0190  0.5446
 5240SOL    HW127179   0.000   2.293   4.839  1.0267 -0.6647  0.3431
 5240SOL    HW227180   4.718   2.319   4.990 -1.7171  0.3931  1.0823
 5241SOL     OW27181   0.296   1.514   5.963 -0.0552  0.2490  0.5914
 5241SOL    HW127182   0.247   1.578   6.015 -1.5185 -0.7936  0.4739
 5241SOL    HW227183   0.356   1.569   5.912 -0.0634  0.5929  0.9492
 5242SOL     OW27184   3.813   3.964   6.356 -0.2205  0.0943 -0.6587
 5242SOL    HW127185   3.753   4.038   6.347  0.3347  0.4341 -1.5278
 5242SOL    HW227186   3.846   3.959   6.267 -2.7213 -2.2698 -1.4487
 5243SOL     OW27187   4.357   1.433  10.708  0.0578  0.1525 -0.2009
 5243SOL    HW127188   4.453   1.427  10.702 -0.1682  1.0961 -4.8068
 5243SOL    HW227189   4.337   1.515  10.752  1.0305  0.7564 -0.8826
 5244SOL     OW27190   1.055   0.817   8.745  0.0101 -0.0433 -0.0274
 5244SOL    HW127191   1.124   0.766   8.788 -0.2556  1.6687  2.4073
 5244SOL    HW227192   0.983   0.827   8.806  0.8121  1.2943  0.6966
 5245SOL     OW27193   0.635   3.834   4.355 -0.5819 -0.1069 -0.0058
 5245SOL    HW127194   0.558   3.784   4.381  1.5301 -2.6667  1.2132
 5245SOL    HW227195   0.593   3.897   4.296 -0.4647  1.0369  1.1281
 5246SOL     OW27196   1.305   1.964   2.368  0.2210  0.2578  0.3924
 5246SOL    HW127197   1.330   2.039   2.313  2.8340 -1.7162 -1.1672
 5246SOL    HW227198   1.386   1.913   2.364  0.9908  1.3563  1.8891
 5247SOL     OW27199   3.731   1.419   2.197  0.0476  0.5074 -0.5521
 5247SOL    HW127200   3.758   1.510   2.211  1.8560 -0.3530  1.6000
 5247SOL    HW227201   3.672   1.435   2.124 -0.8231  2.8233  0.6466
 5248SOL     OW27202   3.343   0.890  11.066  0.3711 -0.2479 -0.1890
 5248SOL    HW127203   3.315   0.964  11.012 -0.8967 -0.4730  0.1550
 5248SOL    HW227204   3.322   0.934  11.148  0.8816 -1.9007  0.8043
 5249SOL     OW27205   1.990   3.627   1.012  0.9907 -0.5366  0.6550
 5249SOL    HW127206   2.036   3.694   0.962  0.5246 -0.5195  0.2533
 5249SOL    HW227207   2.052   3.555   0.997  0.4295 -0.4431 -1.9995
 5250SOL     OW27208   2.570   3.606   6.567  0.1228  0.0067  0.1371
 5250SOL    HW127209   2.573   3.523   6.520  0.2949  0.2319 -0.2440
 5250SOL    HW227210   2.580   3.678   6.505 -1.6472 -0.5878 -0.8369
 5251SOL     OW27211   1.494   0.154   8.940 -0.5547  0.1716  0.2428
 5251SOL    HW127212   1.471   0.063   8.922 -0.5080  0.5559 -1.7422
 5251SOL    HW227213   1.491   0.161   9.035  4.3946  0.9516  0.3717
 5252SOL     OW27214   1.327   0.141   2.070  0.3486 -0.6889 -0.6327
 5252SOL    HW127215   1.389   0.133   2.143 -0.6756 -0.6631  0.2449
 5252SOL    HW227216   1.363   0.224   2.037 -0.1996 -0.3424 -0.3606
 5253SOL     OW27217   1.309   2.907   7.100 -0.1367  0.0535 -0.2241
 5253SOL    HW127218   1.360   2.955   7.165 -0.7356  0.0306  0.2659
 5253SOL    HW227219   1.221   2.921   7.136 -0.5285 -1.9588 -0.3621
 5254SOL     OW27220   1.765   3.691   3.185  0.5558  0.1625 -0.0681
 5254SOL    HW127221   1.835   3.740   3.228 -0.5467  2.6908 -1.2063
 5254SOL    HW227222   1.819   3.627   3.138 -0.7290 -0.6691 -0.4246
 5255SOL     OW27223   1.686   2.836   2.431  0.0760 -0.3028 -0.1570
 5255SOL    HW127224   1.746   2.764   2.446 -0.2884 -0.4081  0.7539
 5255SOL    HW227225   1.739   2.908   2.464 -1.4482 -0.0583  1.7815
 5256SOL     OW27226   1.945   4.469   7.972 -0.1242 -0.3952 -0.3923
 5256SOL    HW127227   1.878   4.400   7.978 -1.7759  1.5544  3.1050
 5256SOL    HW227228   1.891   4.547   7.960  0.0444 -0.0051  1.4087
 5257SOL     OW27229   3.976   3.318   4.223 -0.3952  0.0085 -0.7426
 5257SOL    HW127230   3.966   3.398   4.172  1.8415  1.1019  0.5366
 5257SOL    HW227231   3.973   3.254   4.151  2.3391 -0.5213 -0.3694
 5258SOL     OW27232   4.535   2.134   7.532  0.3969  0.4111  0.5615
 5258SOL    HW127233   4.520   2.044   7.561  0.2418  0.1626 -0.2886
 5258SOL    HW227234   4.572   2.173   7.611  3.3530 -0.2733 -0.4814
 5259SOL     OW27235   4.058   2.700   4.444 -0.2450 -0.3016 -0.0463
 5259SOL    HW127236   4.079   2.792   4.432 -0.2869 -0.5386 -1.8518
 5259SOL    HW227237   3.995   2.695   4.516 -1.3680 -1.8324 -1.1271
 5260SOL     OW27238   0.042   4.308  16.989 -0.5277 -0.7393  0.3855
 5260SOL    HW127239   0.007   4.287  16.902  0.8963 -0.5661 -0.2290
 5260SOL    HW227240   0.134   4.320  16.965 -0.9592 -0.2668 -1.0733
 5261SOL     OW27241   3.504   1.128   7.444 -0.4787 -0.4148  0.0869
 5261SOL    HW127242   3.449   1.148   7.520  1.0597 -0.4308  1.2074
 5261SOL    HW227243   3.448   1.153   7.371  0.8376 -0.4668 -0.9337
 5262SOL     OW27244   1.997   3.190   8.044  0.2201  0.6531  0.4698
 5262SOL    HW127245   2.024   3.198   8.135 -0.0319  0.8800  0.5253
 5262SOL    HW227246   2.067   3.138   8.004 -1.0943  0.5343 -1.6955
 5263SOL     OW27247   1.973   0.836  10.328 -0.1760 -0.2298 -0.1704
 5263SOL    HW127248   2.000   0.830  10.236  0.5906 -0.9471  0.0919
 5263SOL    HW227249   2.061   0.818  10.361  0.3256  2.6359  0.0047
 5264SOL     OW27250   2.461   0.456   3.941  0.0634 -0.5260 -0.0636
 5264SOL    HW127251   2.535   0.457   4.001  0.4951 -1.5658 -0.5757
 5264SOL    HW227252   2.460   0.367   3.906 -1.9162 -0.0644 -1.2173
 5265SOL     OW27253   3.129   4.210   5.978 -0.5981  0.0436 -0.2397
 5265SOL    HW127254   3.108   4.201   6.071  1.5473  1.2037  0.3665
 5265SOL    HW227255   3.206   4.266   5.984 -2.1777  2.4935 -3.1385
 5266SOL     OW27256   3.160   1.707  10.486 -0.7232 -0.6649 -0.0115
 5266SOL    HW127257   3.216   1.652  10.540 -0.1846  0.1836  0.2966
 5266SOL    HW227258   3.111   1.744  10.559 -0.2536  0.4470 -0.2474
 5267SOL     OW27259   3.479   2.626   0.653  0.1964  0.5921  0.3422
 5267SOL    HW127260   3.544   2.630   0.723 -0.0150  2.1718  0.4491
 5267SOL    HW227261   3.400   2.627   0.707 -0.7834 -1.3449 -1.0379
 5268SOL     OW27262   3.362   2.829   9.646  0.1768 -0.0484  0.1023
 5268SOL    HW127263   3.413   2.765   9.596  2.9826  2.2284  0.0489
 5268SOL    HW227264   3.375   2.806   9.738 -0.1363 -2.8634 -0.5646
 5269SOL     OW27265   0.240   3.389   5.944 -0.3589  0.3647  0.4854
 5269SOL    HW127266   0.241   3.402   5.850  0.5809 -2.2649  0.1128
 5269SOL    HW227267   0.266   3.476   5.973  0.6308 -0.3954  1.8937
 5270SOL     OW27268   3.185   3.133   5.937  0.0890  0.6156  0.2913
 5270SOL    HW127269   3.195   3.129   5.842  3.4810 -0.9034  0.7474
 5270SOL    HW227270   3.272   3.161   5.964  0.8878  0.2165 -1.8724
 5271SOL     OW27271   3.223   1.316   6.601 -0.2616 -0.4893  0.1626
 5271SOL    HW127272   3.199   1.312   6.694 -1.3914 -1.0213 -0.1495
 5271SOL    HW227273   3.153   1.372   6.566  0.9813 -0.5099 -2.3478
 5272SOL     OW27274   4.400   4.288   5.577 -0.2875 -0.2933 -0.3147
 5272SOL    HW127275   4.392   4.355   5.645  0.0984 -0.2197 -0.3443
 5272SOL    HW227276   4.407   4.208   5.630 -1.2198 -0.2432 -0.1044
 5273SOL     OW27277   1.502   4.167  13.710  0.0652 -0.7782  0.0292
 5273SOL    HW127278   1.549   4.166  13.794 -1.7462 -1.3863  1.0336
 5273SOL    HW227279   1.531   4.253  13.681 -1.6680  0.6681  2.6106
 5274SOL     OW27280   4.648   0.390   3.385  0.4380 -0.1541  0.1244
 5274SOL    HW127281   4.574   0.345   3.425  1.1522  0.4758  2.1151
 5274SOL    HW227282   4.608   0.447   3.319 -1.3901 -0.0030  1.3469
 5275SOL     OW27283   4.169   4.223  12.219 -0.1720 -0.1907 -0.0467
 5275SOL    HW127284   4.107   4.258  12.283 -0.4499 -0.4682 -0.1655
 5275SOL    HW227285   4.117   4.189  12.146  0.5785 -1.2623 -0.0856
 5276SOL     OW27286   0.785   3.463   8.546 -0.2006  0.3717  0.0352
 5276SOL    HW127287   0.743   3.548   8.534  1.0551  0.9646 -0.2305
 5276SOL    HW227288   0.812   3.441   8.457  0.3307 -1.4767  0.6455
 5277SOL     OW27289   3.305   0.106   3.113  0.3795 -0.4503  0.5298
 5277SOL    HW127290   3.379   0.143   3.065 -1.0741 -1.0354 -2.1329
 5277SOL    HW227291   3.327   0.131   3.203  0.1059  2.0119 -0.0752
 5278SOL     OW27292   2.002   2.593   5.641 -0.2166  0.0008 -0.3411
 5278SOL    HW127293   1.944   2.660   5.604  0.1878 -0.3134 -1.5287
 5278SOL    HW227294   2.014   2.629   5.729 -3.1667 -4.0803  1.7526
 5279SOL     OW27295   0.473   3.334   9.375 -0.5339  0.2286 -0.0480
 5279SOL    HW127296   0.552   3.329   9.428  0.8056 -0.0180 -2.0737
 5279SOL    HW227297   0.505   3.395   9.309  0.5089 -0.3496 -0.0805
 5280SOL     OW27298   0.658   0.945   1.524 -0.0662 -0.5454 -0.1972
 5280SOL    HW127299   0.702   1.027   1.501  0.2021 -0.3543  1.0244
 5280SOL    HW227300   0.587   0.943   1.459 -0.9568  0.3806  0.7530
 5281SOL     OW27301   1.630   2.866   3.345 -0.0096  0.5715  0.0906
 5281SOL    HW127302   1.553   2.864   3.402  0.3044 -0.3280  0.4924
 5281SOL    HW227303   1.612   2.945   3.295  1.1253  0.6213 -0.2412
 5282SOL     OW27304   2.458   0.223   7.086  0.1887  0.5106 -0.0962
 5282SOL    HW127305   2.369   0.251   7.063 -0.0442  0.3474  0.5875
 5282SOL    HW227306   2.462   0.246   7.179 -1.5844  0.4533 -0.0096
 5283SOL     OW27307   2.118   2.374  16.360  0.2695 -0.2564  0.1043
 5283SOL    HW127308   2.024   2.384  16.345  0.1399 -1.6876 -0.1002
 5283SOL    HW227309   2.162   2.430  16.296 -1.2644  1.6817  0.7444
 5284SOL     OW27310   1.408   4.169  17.682 -0.3986  0.0403  0.3832
 5284SOL    HW127311   1.486   4.181  17.627 -1.4539 -2.8249 -1.7655
 5284SOL    HW227312   1.428   4.081   0.016  0.6198  0.2846  0.4279
 5285SOL     OW27313   1.487   0.947  10.167  0.0599 -0.1910  0.9442
 5285SOL    HW127314   1.440   1.000  10.232  1.1991  1.4423  0.4284
 5285SOL    HW227315   1.561   0.909  10.214  0.8174 -1.3615 -1.1651
 5286SOL     OW27316   4.495   2.648   5.394  0.1412  0.1250  0.1925
 5286SOL    HW127317   4.454   2.655   5.307  0.4483  2.1484  0.2209
 5286SOL    HW227318   4.494   2.741   5.415  1.8290 -0.2157  1.7399
 5287SOL     OW27319   2.690   0.043  12.043  0.6539  0.1770 -0.1667
 5287SOL    HW127320   2.603   0.036  12.083  1.1745  1.2615  1.1815
 5287SOL    HW227321   2.737   0.085  12.116  0.4648  1.3409 -0.7142
 5288SOL     OW27322   0.757   4.089  12.443  0.4993 -0.6788 -0.0197
 5288SOL    HW127323   0.806   4.017  12.483  2.0565  0.4523  0.1332
 5288SOL    HW227324   0.759   4.156  12.512 -0.3410 -1.9609  1.2319
 5289SOL     OW27325   2.664   0.986   8.263 -0.1775  0.1907  0.3985
 5289SOL    HW127326   2.586   1.036   8.287  0.5353  1.3995  0.1983
 5289SOL    HW227327   2.612   0.908   8.248 -0.4559  0.5738 -0.6541
 5290SOL     OW27328   3.719   3.231   4.041 -0.1149 -0.4374 -0.2485
 5290SOL    HW127329   3.760   3.239   3.955 -1.9191 -1.3357 -1.1851
 5290SOL    HW227330   3.692   3.322   4.056  2.7219  0.4736 -0.6884
 5291SOL     OW27331   3.577   4.360   1.273 -0.1465  0.0924  0.4960
 5291SOL    HW127332   3.519   4.430   1.303  0.9825  0.5299  1.6454
 5291SOL    HW227333   3.506   4.304   1.243 -0.0012 -0.3674  1.0051
 5292SOL     OW27334   3.343   3.273   6.167 -0.1392 -0.2616 -0.1307
 5292SOL    HW127335   3.416   3.307   6.218 -0.8205  2.7447 -1.1356
 5292SOL    HW227336   3.332   3.327   6.088 -0.5780  2.8455  2.0535
 5293SOL     OW27337   2.650   1.316   7.744  0.2488  0.2598  0.4719
 5293SOL    HW127338   2.618   1.283   7.660  0.5709  0.5780  0.2236
 5293SOL    HW227339   2.623   1.247   7.805 -1.0744 -0.0099 -0.4166
 5294SOL     OW27340   3.477   0.259  10.017 -0.1110 -0.7185  0.7442
 5294SOL    HW127341   3.438   0.316  10.084  1.0268 -0.2053  0.9664
 5294SOL    HW227342   3.463   0.319   9.943  3.8709  0.9160  1.3404
 5295SOL     OW27343   3.822   3.396   0.599 -0.2899  0.0795  0.9916
 5295SOL    HW127344   3.754   3.461   0.580 -1.1556 -1.2794 -0.5882
 5295SOL    HW227345   3.870   3.403   0.517  0.1011  1.5975  1.3656
 5296SOL     OW27346   2.680   0.034  14.554  0.1889 -0.5409  0.0955
 5296SOL    HW127347   2.597   0.015  14.509  0.8244  1.3179 -1.8620
 5296SOL    HW227348   2.734   0.019  14.477  0.4295  1.4957 -0.1138
 5297SOL     OW27349   2.684   0.058   6.301 -0.7973  0.3186 -0.3091
 5297SOL    HW127350   2.627   0.108   6.359 -0.2773  1.2208 -0.5711
 5297SOL    HW227351   2.662   0.085   6.211  1.0762 -1.2986 -1.2593
 5298SOL     OW27352   1.326   2.885  12.296  0.9946  0.5425 -0.5113
 5298SOL    HW127353   1.344   2.909  12.387  0.9093  0.2175 -0.4091
 5298SOL    HW227354   1.265   2.956  12.279 -0.4278 -0.1069  1.9399
 5299SOL     OW27355   2.018   2.456   5.015 -0.1546  0.0652 -0.1651
 5299SOL    HW127356   2.079   2.529   5.021  0.4116 -0.3855 -0.4822
 5299SOL    HW227357   2.068   2.396   4.960 -1.5442 -2.6916  1.5311
 5300SOL     OW27358   0.233   1.679   1.792  0.3498  0.0993  0.5054
 5300SOL    HW127359   0.223   1.611   1.725  0.6380 -0.3076  0.8689
 5300SOL    HW227360   0.168   1.735   1.749 -0.7857 -1.8755 -0.3653
 5301SOL     OW27361   4.506   4.463   6.607 -0.1500 -0.4029 -0.3774
 5301SOL    HW127362   4.571   4.476   6.676  0.8685  1.1890 -1.6214
 5301SOL    HW227363   4.454   4.543   6.617 -1.3345 -1.1887 -0.2486
 5302SOL     OW27364   0.949   4.017   7.738  0.5424  0.3799  0.4894
 5302SOL    HW127365   0.899   4.070   7.675 -0.0076 -0.5635  0.1269
 5302SOL    HW227366   0.949   4.066   7.821 -2.3851  0.3988  0.4905
 5303SOL     OW27367   0.767   1.213   1.419 -0.2478 -0.2658 -0.4308
 5303SOL    HW127368   0.676   1.238   1.404 -0.3936  0.7690  2.0550
 5303SOL    HW227369   0.811   1.230   1.336  0.1731  0.6212 -0.0256
 5304SOL     OW27370   1.390   3.504   9.600  0.0504  0.1358  0.1506
 5304SOL    HW127371   1.469   3.555   9.582  0.9490 -1.8310 -1.5159
 5304SOL    HW227372   1.327   3.575   9.594 -0.4307 -0.3307 -0.3029
 5305SOL     OW27373   2.837   2.733   7.916  0.4921  0.2714  0.1608
 5305SOL    HW127374   2.896   2.689   7.978  0.2590  0.3359  0.4295
 5305SOL    HW227375   2.748   2.715   7.946 -0.2258  1.0156 -1.5290
 5306SOL     OW27376   1.859   2.448  16.344 -0.6174 -0.2675  0.0708
 5306SOL    HW127377   1.811   2.374  16.307  1.2027 -1.1007 -0.5998
 5306SOL    HW227378   1.785   2.510  16.348  0.6798  1.3510 -1.1563
 5307SOL     OW27379   4.073   4.607   5.161  0.0857 -0.5355 -0.4755
 5307SOL    HW127380   4.088   4.517   5.132  1.2096 -0.4584 -0.1170
 5307SOL    HW227381   4.078   4.595   5.256  2.6777 -4.4439 -1.1306
 5308SOL     OW27382   2.476   4.711   2.300  0.3046 -0.0692 -0.1647
 5308SOL    HW127383   2.470   4.687   2.207 -1.4423  2.8655 -0.8023
 5308SOL    HW227384   2.566   0.012   2.323 -0.5738  1.6648  1.3226
 5309SOL     OW27385   2.871   2.369   6.285 -0.1120  0.3813  0.0755
 5309SOL    HW127386   2.855   2.385   6.378 -1.6679 -1.3698  0.1070
 5309SOL    HW227387   2.965   2.386   6.287 -0.0058 -0.1787 -0.1136
 5310SOL     OW27388   2.871   2.083  13.564  0.2208 -0.4880 -0.0748
 5310SOL    HW127389   2.798   2.131  13.523 -0.0488  0.7642  1.8921
 5310SOL    HW227390   2.838   1.997  13.589  1.8289 -1.3734 -1.0758
 5311SOL     OW27391   1.081   3.194  16.347 -0.3833 -0.2309 -0.3239
 5311SOL    HW127392   1.086   3.130  16.276  1.1692 -0.6298  0.1467
 5311SOL    HW227393   1.141   3.261  16.314  0.0137  0.4870  1.9177
 5312SOL     OW27394   3.169   3.209   8.763  0.1412 -0.4033 -0.4133
 5312SOL    HW127395   3.257   3.185   8.794  0.1820  0.1854 -0.0833
 5312SOL    HW227396   3.141   3.126   8.724  1.9187 -0.4331 -1.6440
 5313SOL     OW27397   2.566   0.873   7.525  0.4933  0.2432 -0.5105
 5313SOL    HW127398   2.598   0.784   7.512 -0.5077 -0.0176 -1.1307
 5313SOL    HW227399   2.622   0.906   7.595  1.0310  0.7430 -1.1705
 5314SOL     OW27400   1.418   2.216   7.216 -0.1756 -0.0477 -0.5928
 5314SOL    HW127401   1.465   2.290   7.178 -0.6734  0.1451 -0.8263
 5314SOL    HW227402   1.341   2.270   7.235  1.0170  1.2768  0.4912
 5315SOL     OW27403   1.794   1.354   7.439 -0.0851  0.5504  0.6095
 5315SOL    HW127404   1.854   1.279   7.441  1.7196  1.9848  0.0625
 5315SOL    HW227405   1.721   1.315   7.488  0.5275  2.5026  3.1008
 5316SOL     OW27406   1.983   3.065   9.221 -0.4839 -0.4695 -1.0277
 5316SOL    HW127407   2.052   2.999   9.217  0.4238  0.4105  0.3955
 5316SOL    HW227408   1.914   3.016   9.266  0.1732 -1.6099 -1.2556
 5317SOL     OW27409   1.414   4.472  10.342 -0.2745  0.3773 -0.1260
 5317SOL    HW127410   1.408   4.509  10.254 -0.8649 -0.3233 -0.3819
 5317SOL    HW227411   1.494   4.424  10.320  0.1783  1.3996 -0.7176
 5318SOL     OW27412   1.734   1.376   7.839  0.0187  0.2112 -0.0052
 5318SOL    HW127413   1.683   1.296   7.824  1.3755 -1.0940  2.2158
 5318SOL    HW227414   1.815   1.325   7.836  0.1280  0.2676  2.0170
 5319SOL     OW27415   0.427   1.078  12.532 -0.2233  0.0920 -0.2620
 5319SOL    HW127416   0.447   1.153  12.477  0.2536  0.7739  0.8516
 5319SOL    HW227417   0.509   1.065  12.579 -0.3863  0.3643  0.0945
 5320SOL     OW27418   0.758   2.622   2.851 -0.5864  0.1747  0.2455
 5320SOL    HW127419   0.702   2.550   2.822  0.1721 -0.4995  0.4524
 5320SOL    HW227420   0.698   2.691   2.877  1.9692  2.7785 -0.7011
 5321SOL     OW27421   3.077   1.581  12.154  0.5846 -0.0559 -0.0691
 5321SOL    HW127422   3.099   1.496  12.116  1.9196 -0.5963  1.8950
 5321SOL    HW227423   3.161   1.618  12.183  2.1847 -1.0944 -3.3581
 5322SOL     OW27424   4.428   3.253   2.958  0.0912  0.3649 -0.1954
 5322SOL    HW127425   4.362   3.262   3.027 -1.3501  0.6192 -1.6137
 5322SOL    HW227426   4.379   3.282   2.881  0.2901  0.7837 -0.1633
 5323SOL     OW27427   2.443   2.705  14.354  0.2675  0.3050  0.0972
 5323SOL    HW127428   2.514   2.694  14.290  0.2845 -1.8294  0.4979
 5323SOL    HW227429   2.417   2.797  14.348 -1.9228 -0.2883  0.6039
 5324SOL     OW27430   3.488   3.037  13.452 -0.3391 -0.4948 -0.0230
 5324SOL    HW127431   3.531   3.006  13.372 -2.1330 -0.8356 -0.8570
 5324SOL    HW227432   3.562   3.075  13.500 -0.8118 -0.4521  0.6788
 5325SOL     OW27433   4.445   2.747   7.492  0.0069  0.2050 -0.3501
 5325SOL    HW127434   4.522   2.732   7.548 -0.0569  0.4187 -0.2077
 5325SOL    HW227435   4.396   2.807   7.549 -2.2850  0.4669 -2.6061
 5326SOL     OW27436   3.707   2.213  17.447 -0.0121 -0.0895 -0.0048
 5326SOL    HW127437   3.775   2.149  17.467 -0.1308  0.1590  1.2136
 5326SOL    HW227438   3.739   2.248  17.363  1.8537  1.2303  1.2488
 5327SOL     OW27439   3.313   4.463  15.451 -0.4712 -0.1722  0.1552
 5327SOL    HW127440   3.399   4.500  15.430 -0.5939  0.9046  1.5863
 5327SOL    HW227441   3.310   4.399  15.380  1.7248 -0.6479  0.4901
 5328SOL     OW27442   1.381   2.443   8.057  0.1824 -0.1560 -0.0513
 5328SOL    HW127443   1.407   2.389   8.131 -1.1437 -0.0083  0.5308
 5328SOL    HW227444   1.434   2.520   8.080  0.1166 -0.3232  0.6368
 5329SOL     OW27445   0.627   3.087   7.933  0.3328 -0.5438  0.1213
 5329SOL    HW127446   0.578   3.132   8.002 -0.2614  1.0019 -1.3039
 5329SOL    HW227447   0.558   3.030   7.900 -0.4188  0.6764 -0.4033
 5330SOL     OW27448   3.365   3.219  10.335 -0.3665  0.2738  0.2832
 5330SOL    HW127449   3.342   3.311  10.347  0.1950  0.3301  0.9001
 5330SOL    HW227450   3.348   3.193  10.244 -1.6607  0.4906  0.4558
 5331SOL     OW27451   1.722   2.332   7.018  0.2774 -0.0920  0.1781
 5331SOL    HW127452   1.694   2.241   7.008 -3.8699  1.2123 -0.1141
 5331SOL    HW227453   1.641   2.375   6.991  0.9331  0.7033 -0.5276
 5332SOL     OW27454   3.076   3.359   0.033  0.5752 -0.2761 -0.7088
 5332SOL    HW127455   2.982   3.350   0.019  0.8956 -0.0645 -2.9025
 5332SOL    HW227456   3.076   3.294   0.103  0.1797 -1.6641 -1.9926
 5333SOL     OW27457   4.201   1.724  16.197 -0.0689 -0.1142  0.1014
 5333SOL    HW127458   4.225   1.769  16.278  1.0393 -0.7695  0.1470
 5333SOL    HW227459   4.281   1.680  16.168  1.1814  1.4912  1.1243
 5334SOL     OW27460   1.322   2.452   7.543  0.4470  0.3800 -0.6822
 5334SOL    HW127461   1.408   2.442   7.502  0.8709 -1.3405  0.6064
 5334SOL    HW227462   1.275   2.370   7.525  0.6719 -0.0771  0.8151
 5335SOL     OW27463   0.999   2.623  12.281  0.2172 -0.6613  0.2823
 5335SOL    HW127464   0.945   2.697  12.254  0.0807 -0.1197  2.0573
 5335SOL    HW227465   0.951   2.577  12.350  1.3492 -1.9918  0.1963
 5336SOL     OW27466   1.538   2.894  12.116  0.1655 -0.1489 -0.3172
 5336SOL    HW127467   1.509   2.839  12.043 -0.9163  0.9662 -0.7193
 5336SOL    HW227468   1.454   2.914  12.157  0.3382  0.9077 -0.4809
 5337SOL     OW27469   2.907   3.542  11.897  0.3756 -0.0430 -0.2846
 5337SOL    HW127470   2.838   3.608  11.893  3.4771  3.3906  2.2992
 5337SOL    HW227471   2.896   3.508  11.986  0.4167  0.9327  0.0921
 5338SOL     OW27472   0.859   1.572   7.840 -0.3035  0.4440  0.1668
 5338SOL    HW127473   0.771   1.573   7.877 -0.9324 -1.2508 -1.3026
 5338SOL    HW227474   0.917   1.588   7.915  0.6883 -1.0357 -0.2840
 5339SOL     OW27475   3.663   1.487   3.171 -0.2461 -0.0311 -0.2480
 5339SOL    HW127476   3.714   1.499   3.251  1.1250  1.1907 -1.3095
 5339SOL    HW227477   3.691   1.397   3.157 -0.9799 -0.5444  1.4999
 5340SOL     OW27478   3.324   0.089   4.017 -0.6437  0.1279  0.0189
 5340SOL    HW127479   3.284   0.037   3.948  0.4388 -0.8194  0.1030
 5340SOL    HW227480   3.325   0.176   3.976 -0.6284 -0.1401 -0.5496
 5341SOL     OW27481   4.390   3.158  14.084 -0.6117  0.2226 -0.1398
 5341SOL    HW127482   4.384   3.243  14.127 -2.8933  0.1450 -0.2932
 5341SOL    HW227483   4.318   3.116  14.132 -1.3647  3.3191  1.3958
 5342SOL     OW27484   4.379   3.509   7.728 -0.4815 -0.3033 -0.6086
 5342SOL    HW127485   4.391   3.418   7.753  0.1989  0.3711  1.4698
 5342SOL    HW227486   4.427   3.558   7.794  0.4696  0.7903 -2.1175
 5343SOL     OW27487   1.720   2.220   9.983  0.5642  0.3610 -0.1189
 5343SOL    HW127488   1.730   2.231   9.889 -0.4480  1.2513 -0.1286
 5343SOL    HW227489   1.801   2.179  10.013 -0.0725 -1.2677 -0.6449
 5344SOL     OW27490   1.826   1.066   7.298 -0.2565  0.3824 -0.2799
 5344SOL    HW127491   1.876   1.062   7.379 -0.4040  0.6578 -0.1777
 5344SOL    HW227492   1.813   0.977   7.264 -0.0014  0.4899 -0.6713
 5345SOL     OW27493   4.596   4.484   4.252 -0.2214  0.1584 -0.0113
 5345SOL    HW127494   4.523   4.518   4.303  1.1613  0.6486  1.6725
 5345SOL    HW227495   4.577   4.390   4.248  0.3198  0.1357 -2.1871
 5346SOL     OW27496   2.273   4.404   0.072  0.1073 -0.2074  0.4273
 5346SOL    HW127497   2.183   4.407   0.105 -0.8031  1.5534 -2.2102
 5346SOL    HW227498   2.309   4.357   0.147 -1.6309 -0.3850  1.1506
 5347SOL     OW27499   2.191   4.618   4.392 -0.6530  0.0780  0.3645
 5347SOL    HW127500   2.244   4.668   4.454  1.0820  0.1695 -1.2275
 5347SOL    HW227501   2.205   4.528   4.422 -0.5895  0.7459  2.4003
 5348SOL     OW27502   4.047   3.676  14.340 -0.0874 -0.7342 -0.3398
 5348SOL    HW127503   4.075   3.748  14.398 -0.5504 -0.2925 -0.6735
 5348SOL    HW227504   4.123   3.657  14.286 -0.5172 -0.0918 -1.1697
 5349SOL     OW27505   2.770   3.682   8.625 -0.2537  0.4897  0.3817
 5349SOL    HW127506   2.858   3.647   8.640 -0.1152  0.7926  0.2624
 5349SOL    HW227507   2.748   3.602   8.577 -0.4734 -0.3499  1.8787
 5350SOL     OW27508   2.937   4.040   6.762  0.9965  0.6190  0.1545
 5350SOL    HW127509   3.006   4.054   6.827  0.3471 -1.1655  1.2166
 5350SOL    HW227510   2.944   3.947   6.744  0.8317  0.4784  0.8147
 5351SOL     OW27511   3.735   3.500   5.702  0.5133 -0.0822 -0.5361
 5351SOL    HW127512   3.770   3.447   5.773  0.8767  0.1597 -0.5340
 5351SOL    HW227513   3.815   3.517   5.653  0.5501  1.5093  0.0562
 5352SOL     OW27514   3.828   3.160  15.363  0.0850 -0.5308  0.0054
 5352SOL    HW127515   3.772   3.094  15.405  0.2786 -0.0477  1.0227
 5352SOL    HW227516   3.850   3.115  15.281  1.9961  1.2774 -0.4598
 5353SOL     OW27517   0.977   2.803   1.340 -0.4424  0.9260  0.6558
 5353SOL    HW127518   0.932   2.795   1.256  1.0200  1.3275 -0.1707
 5353SOL    HW227519   0.931   2.740   1.396  0.5023  0.7981  1.2869
 5354SOL     OW27520   0.701   4.375   0.685  0.1826 -0.6751 -0.2524
 5354SOL    HW127521   0.667   4.310   0.747  0.6194  0.9468  1.6796
 5354SOL    HW227522   0.623   4.431   0.689  0.4649 -0.2976 -0.0082
 5355SOL     OW27523   1.169   0.103   8.528  0.5302 -0.3715  0.2761
 5355SOL    HW127524   1.227   0.178   8.540  1.5858 -1.1675  0.2071
 5355SOL    HW227525   1.199   0.043   8.597 -0.9854  0.7518  1.9088
 5356SOL     OW27526   2.840   4.204   1.539  0.2784  0.1000 -0.1560
 5356SOL    HW127527   2.924   4.175   1.502  0.8963  1.7538 -0.0831
 5356SOL    HW227528   2.873   4.282   1.583  1.6301 -0.8820  0.5896
 5357SOL     OW27529   3.122   3.634   4.266 -0.1650 -0.2520 -0.0540
 5357SOL    HW127530   3.150   3.649   4.176  1.9881 -2.3209  0.2604
 5357SOL    HW227531   3.027   3.643   4.254 -0.1425 -3.8240 -2.9138
 5358SOL     OW27532   3.558   3.464  14.352 -0.8120 -0.4035  0.1360
 5358SOL    HW127533   3.503   3.537  14.322 -0.8914 -1.3202 -1.9010
 5358SOL    HW227534   3.647   3.499  14.347 -1.1321  0.5630  0.9467
 5359SOL     OW27535   0.961   4.580   1.587  0.5715  0.2447 -0.3650
 5359SOL    HW127536   0.928   4.505   1.537  0.6419  0.5650 -0.8966
 5359SOL    HW227537   0.975   4.641   1.514 -0.8703  0.5654 -0.3694
 5360SOL     OW27538   2.447   3.283   2.635  0.1942  0.3454 -0.6591
 5360SOL    HW127539   2.470   3.205   2.586 -0.7661 -0.4165  0.1074
 5360SOL    HW227540   2.442   3.331   2.552 -0.7395  1.9395  0.3064
 5361SOL     OW27541   4.249   1.591   4.668 -0.4106 -0.3657  0.1514
 5361SOL    HW127542   4.278   1.637   4.747  1.1412 -1.9158  0.4746
 5361SOL    HW227543   4.212   1.653   4.605 -2.0869 -1.5932 -0.0713
 5362SOL     OW27544   1.340   3.004   1.226 -0.0409  0.3150  0.1966
 5362SOL    HW127545   1.277   3.036   1.162  1.0834  0.2390 -0.9371
 5362SOL    HW227546   1.389   3.085   1.237 -2.1070  1.2659  2.4862
 5363SOL     OW27547   3.639   3.812   8.684 -0.3179 -0.0583 -0.4100
 5363SOL    HW127548   3.554   3.805   8.642 -0.5720 -0.0400  0.0967
 5363SOL    HW227549   3.652   3.732   8.736 -0.6338 -0.3575 -0.7950
 5364SOL     OW27550   1.774   3.516   3.814  0.2992  0.1825  0.2522
 5364SOL    HW127551   1.705   3.525   3.879 -0.9262  3.2937 -1.4856
 5364SOL    HW227552   1.734   3.532   3.728  0.2547 -0.7656  0.0987
 5365SOL     OW27553   4.252   0.386  13.156  0.0517 -0.4038 -0.3981
 5365SOL    HW127554   4.156   0.385  13.158  0.1189  0.6003  2.9017
 5365SOL    HW227555   4.266   0.441  13.079 -0.7534 -2.2103 -1.8548
 5366SOL     OW27556   1.283   0.456  10.859  0.2353 -0.5661  0.4113
 5366SOL    HW127557   1.292   0.399  10.935  0.7922 -2.6457 -1.2279
 5366SOL    HW227558   1.305   0.544  10.891  1.0914  0.4966 -2.9975
 5367SOL     OW27559   3.254   4.185  10.402  0.2987 -0.0127  0.0305
 5367SOL    HW127560   3.190   4.216  10.338  1.2319  0.6602 -0.5806
 5367SOL    HW227561   3.318   4.138  10.349  3.1714  1.5613  2.1195
 5368SOL     OW27562   1.520   1.260   8.370  0.5093  0.2833 -0.2385
 5368SOL    HW127563   1.458   1.267   8.443 -0.3096 -0.6564 -0.8429
 5368SOL    HW227564   1.561   1.347   8.374  1.6452 -0.1814 -1.9830
 5369SOL     OW27565   1.011   2.345   1.633 -0.1080 -0.2415  0.1595
 5369SOL    HW127566   0.972   2.283   1.694  0.9382  1.6031  2.7197
 5369SOL    HW227567   0.938   2.356   1.572 -1.5745 -0.7906  1.8276
 5370SOL     OW27568   4.232   2.948   7.595 -0.1690 -0.5063  0.1326
 5370SOL    HW127569   4.246   2.878   7.660  1.1007  1.3222  1.8580
 5370SOL    HW227570   4.140   2.936   7.572 -0.9158  1.2732  2.1142
 5371SOL     OW27571   0.469   1.205   6.419 -0.4767  0.6410 -0.5599
 5371SOL    HW127572   0.467   1.252   6.336  0.8618  0.3079 -0.7796
 5371SOL    HW227573   0.552   1.239   6.454 -0.2432 -1.0653  0.5623
 5372SOL     OW27574   2.349   4.629   2.532  0.3647 -0.3369 -0.5363
 5372SOL    HW127575   2.419   4.574   2.568  1.3025  0.6163 -0.9064
 5372SOL    HW227576   2.406   4.676   2.471  1.5475 -0.4601  0.4650
 5373SOL     OW27577   3.774   0.243  10.988  0.4898  0.6460  0.1321
 5373SOL    HW127578   3.856   0.232  11.037  0.9079  0.0016 -0.6981
 5373SOL    HW227579   3.808   0.263  10.901 -0.6767 -1.7656 -0.8842
 5374SOL     OW27580   0.384   1.129   6.929 -0.0456 -0.0418  0.4888
 5374SOL    HW127581   0.414   1.175   6.851 -1.0123 -2.0429 -1.0527
 5374SOL    HW227582   0.431   1.176   6.998  1.1735  0.8319 -0.9152
 5375SOL     OW27583   1.297   4.359  16.836  0.3115 -0.1692 -0.0605
 5375SOL    HW127584   1.210   4.396  16.821 -0.1064 -1.3047 -0.4988
 5375SOL    HW227585   1.346   4.372  16.755 -0.4119 -0.4856 -0.5473
 5376SOL     OW27586   2.015   4.033   4.872 -0.3101  0.0202 -0.4880
 5376SOL    HW127587   1.999   4.127   4.885  2.9587  0.1827  2.2376
 5376SOL    HW227588   2.026   4.002   4.962 -0.0930 -1.1582 -0.9253
 5377SOL     OW27589   1.925   4.332   6.344  0.0218 -0.2010  0.3720
 5377SOL    HW127590   1.855   4.383   6.384 -1.0933 -2.0051  0.7375
 5377SOL    HW227591   1.968   4.399   6.291  0.9806  0.2515  1.7021
 5378SOL     OW27592   0.971   2.414   8.794 -0.3379  0.3985 -0.2235
 5378SOL    HW127593   1.016   2.431   8.711  1.7631 -1.1546  0.5972
 5378SOL    HW227594   1.024   2.466   8.855  0.1990  1.5365 -1.6561
 5379SOL     OW27595   4.211   0.461   1.700 -0.3541  0.1314  0.6710
 5379SOL    HW127596   4.116   0.458   1.687 -0.1858  0.7279 -0.6853
 5379SOL    HW227597   4.229   0.555   1.691 -2.5667  0.2269 -2.6034
 5380SOL     OW27598   3.550   4.158  16.953  0.0333  0.0650  0.0074
 5380SOL    HW127599   3.569   4.144  16.861  0.4326 -2.1025  0.4091
 5380SOL    HW227600   3.641   4.144  16.980 -0.2309 -1.6787 -0.0245
 5381SOL     OW27601   1.575   3.393   2.834  0.5452  0.0934  0.0262
 5381SOL    HW127602   1.551   3.314   2.786  0.4003 -0.1315  0.4627
 5381SOL    HW227603   1.646   3.424   2.778  0.1659 -1.1660 -1.1406
 5382SOL     OW27604   2.402   4.167  10.810 -0.6539  0.3442  0.1245
 5382SOL    HW127605   2.319   4.124  10.792  0.4144 -2.1210  1.1560
 5382SOL    HW227606   2.394   4.182  10.904 -0.7413 -0.6680  0.2780
 5383SOL     OW27607   3.469   1.308   2.713  0.7625 -0.2019 -0.4291
 5383SOL    HW127608   3.499   1.325   2.623  1.7922  1.8872  0.2992
 5383SOL    HW227609   3.547   1.275   2.757 -0.1066  0.3788  1.5090
 5384SOL     OW27610   0.500   0.099   4.973 -0.7170  0.3809 -0.0631
 5384SOL    HW127611   0.445   0.021   4.960  0.9727 -1.0671  1.2931
 5384SOL    HW227612   0.559   0.094   4.898  1.8739  0.6426  1.9591
 5385SOL     OW27613   3.592   1.565   8.683 -0.2437  0.3945  0.2298
 5385SOL    HW127614   3.610   1.480   8.643 -0.8582  0.1619  0.4536
 5385SOL    HW227615   3.554   1.622   8.616 -0.3609  2.0886  1.7120
 5386SOL     OW27616   4.267   2.188   0.551 -0.2428 -0.7048 -0.7454
 5386SOL    HW127617   4.231   2.249   0.486  1.3149  0.6939 -0.3164
 5386SOL    HW227618   4.218   2.199   0.632 -0.2904 -0.6879 -0.7767
 5387SOL     OW27619   4.148   1.753   7.691 -0.2308 -0.2370  0.1061
 5387SOL    HW127620   4.190   1.680   7.737  0.3756 -1.6211 -2.6509
 5387SOL    HW227621   4.113   1.711   7.612  1.4631 -1.6049  0.0734
 5388SOL     OW27622   4.148   2.854   1.616  0.0260  0.5424 -0.3439
 5388SOL    HW127623   4.161   2.947   1.599 -1.3296  0.1283 -3.7359
 5388SOL    HW227624   4.175   2.855   1.707  1.1991  0.9311 -0.6945
 5389SOL     OW27625   4.001   0.966   3.874 -0.0564 -0.4238  0.2943
 5389SOL    HW127626   4.096   0.963   3.859 -0.1209  0.7985 -0.3573
 5389SOL    HW227627   3.960   0.906   3.812 -0.6787  1.3866 -1.0753
 5390SOL     OW27628   4.323   1.554   5.151  0.6466 -0.3699 -0.1044
 5390SOL    HW127629   4.305   1.579   5.241  0.7698  2.5962 -0.9038
 5390SOL    HW227630   4.254   1.602   5.105  0.8953  1.3375  1.3360
 5391SOL     OW27631   0.891   2.619  11.975 -0.6234 -0.3603 -0.6943
 5391SOL    HW127632   0.964   2.617  12.036  0.2398 -0.4566 -1.7205
 5391SOL    HW227633   0.817   2.594  12.030 -0.0315  1.7259  1.0523
 5392SOL     OW27634   0.243   3.041   7.519  0.0107 -0.0263 -0.2973
 5392SOL    HW127635   0.324   3.089   7.504 -1.1909  1.7147 -1.2545
 5392SOL    HW227636   0.274   2.983   7.589  0.3369 -0.1920 -0.5804
 5393SOL     OW27637   0.348   2.177   8.563  0.1786  0.3013 -0.1510
 5393SOL    HW127638   0.313   2.244   8.622 -0.0647  1.6380 -1.7888
 5393SOL    HW227639   0.275   2.162   8.503  0.0344 -0.0423  0.1079
 5394SOL     OW27640   1.541   4.627  17.205  0.0695  0.5794  0.3159
 5394SOL    HW127641   1.574   4.620  17.116 -0.9989 -0.4896  0.0156
 5394SOL    HW227642   1.488   4.706  17.199  0.5254  0.6514 -2.7347
 5395SOL     OW27643   4.093   1.911   0.649 -0.1814 -0.1862  0.2336
 5395SOL    HW127644   4.028   1.972   0.684  1.7014  2.0921 -0.1916
 5395SOL    HW227645   4.150   1.892   0.723  0.3871 -0.2088 -0.2046
 5396SOL     OW27646   1.379   0.517   1.902  0.0277 -0.2686  0.2363
 5396SOL    HW127647   1.284   0.525   1.906 -0.2743 -4.1584  0.3801
 5396SOL    HW227648   1.390   0.434   1.947 -3.6156 -0.0488  1.5155
 5397SOL     OW27649   1.462   2.779   5.036  0.1054 -0.0561  0.2000
 5397SOL    HW127650   1.429   2.736   4.957 -0.3940 -1.8994  1.4309
 5397SOL    HW227651   1.383   2.797   5.086 -0.3804  0.1309 -0.6257
 5398SOL     OW27652   2.458   4.677  14.284 -0.5512 -0.0339  0.5524
 5398SOL    HW127653   2.446   0.047  14.295  1.3877  0.4791 -1.6601
 5398SOL    HW227654   2.392   4.666  14.215  1.1530 -0.8017 -0.9629
 5399SOL     OW27655   4.298   3.610  16.549 -0.5160 -0.1226 -0.3594
 5399SOL    HW127656   4.280   3.517  16.541  0.9985 -0.6864  2.8312
 5399SOL    HW227657   4.356   3.623  16.473 -2.3240  1.8364 -1.4275
 5400SOL     OW27658   1.028   4.214  15.658  0.7217  0.6290  0.0066
 5400SOL    HW127659   1.090   4.281  15.685  1.5938  0.1730 -0.8709
 5400SOL    HW227660   1.015   4.244  15.568 -1.2018  1.7090  0.6468
 5401SOL     OW27661   2.008   0.871   4.222 -0.2689 -0.0206 -0.4267
 5401SOL    HW127662   1.943   0.884   4.291  0.4709  3.0190 -0.3172
 5401SOL    HW227663   1.978   0.787   4.185  1.3826 -1.0413  0.5419
 5402SOL     OW27664   3.538   0.483   6.715 -0.3241  0.2425  0.3898
 5402SOL    HW127665   3.497   0.559   6.755  2.5691  0.2353  3.3711
 5402SOL    HW227666   3.582   0.444   6.790 -1.1177  1.9577  1.7400
 5403SOL     OW27667   1.890   4.038  10.924  0.1467 -0.2536  0.6069
 5403SOL    HW127668   1.896   4.061  10.831  0.4490 -1.6441  0.2799
 5403SOL    HW227669   1.801   4.062  10.948  0.0022  1.6596 -1.8701
 5404SOL     OW27670   3.816   2.038   7.731  0.5123  0.6214 -0.6599
 5404SOL    HW127671   3.820   1.942   7.731  0.9024  0.6361 -0.4455
 5404SOL    HW227672   3.905   2.056   7.702  0.5454  0.8815 -0.3967
 5405SOL     OW27673   2.500   4.424  17.628 -0.6424  0.1548  0.6854
 5405SOL    HW127674   2.414   4.423  17.670 -1.5929 -1.0084 -1.2902
 5405SOL    HW227675   2.562   4.414   0.003 -0.9789 -1.1412  0.8081
 5406SOL     OW27676   4.190   4.194   6.230 -0.1211  0.1319 -0.1273
 5406SOL    HW127677   4.198   4.141   6.150 -0.2731  0.6393 -0.4743
 5406SOL    HW227678   4.096   4.210   6.224 -0.4532 -0.5936  3.1774
 5407SOL     OW27679   4.612   0.382   6.584  0.2081 -0.7218  0.1384
 5407SOL    HW127680   4.647   0.309   6.532 -0.4850  0.0525 -1.4042
 5407SOL    HW227681   4.561   0.428   6.518 -1.4000 -1.8938  0.5468
 5408SOL     OW27682   0.437   0.284  11.763  0.3963  0.1869 -0.0145
 5408SOL    HW127683   0.533   0.286  11.756  0.4356 -2.3709 -0.2288
 5408SOL    HW227684   0.409   0.375  11.755 -2.7663 -0.8885 -0.9809
 5409SOL     OW27685   4.110   1.456   6.404  0.1597 -0.0233  0.1692
 5409SOL    HW127686   4.025   1.447   6.361  0.8154 -2.0051 -0.7203
 5409SOL    HW227687   4.109   1.552   6.404  0.1892 -0.0160 -2.2041
 5410SOL     OW27688   0.173   0.877   4.557 -0.5222  0.0655 -0.2507
 5410SOL    HW127689   0.163   0.805   4.494 -1.7493  0.6763 -0.7464
 5410SOL    HW227690   0.164   0.837   4.643 -1.6615 -2.2059 -1.4175
 5411SOL     OW27691   0.537   3.526   7.902 -0.6969 -0.1738  0.0606
 5411SOL    HW127692   0.461   3.469   7.895 -1.0854  0.2564  0.7442
 5411SOL    HW227693   0.565   3.521   7.811  1.4705 -0.9849  0.7688
 5412SOL     OW27694   2.196   2.619   1.358 -0.4061 -0.0927  0.3148
 5412SOL    HW127695   2.152   2.544   1.397 -0.7074  1.3700  2.8355
 5412SOL    HW227696   2.125   2.682   1.376 -0.1751  0.3399 -0.2961
 5413SOL     OW27697   1.399   3.790  15.125  0.6453 -0.0196 -0.0996
 5413SOL    HW127698   1.465   3.725  15.146  0.7638  0.4378  0.9692
 5413SOL    HW227699   1.410   3.857  15.193  2.5815 -0.6646  0.1895
 5414SOL     OW27700   1.439   1.020  14.270  0.0114  0.1577  0.3217
 5414SOL    HW127701   1.352   1.018  14.232 -0.0199  1.7958  0.2959
 5414SOL    HW227702   1.458   0.927  14.264 -0.6721  0.0146  0.4849
 5415SOL     OW27703   1.852   2.567   3.958 -0.4185  0.0663 -0.2197
 5415SOL    HW127704   1.807   2.607   3.884  1.0463  2.9927  0.4542
 5415SOL    HW227705   1.888   2.488   3.919 -0.8583  0.1960 -0.8899
 5416SOL     OW27706   2.895   1.531   8.816 -0.2002  0.6621 -0.4594
 5416SOL    HW127707   2.932   1.578   8.891 -0.1761 -0.9802  0.5631
 5416SOL    HW227708   2.900   1.594   8.745  2.5797 -0.2072 -1.0362
 5417SOL     OW27709   1.014   0.480   4.977  0.2074 -0.4412 -0.5899
 5417SOL    HW127710   1.043   0.567   4.951  0.8828 -1.1604 -2.1808
 5417SOL    HW227711   0.919   0.491   4.973  0.4384  1.7734  0.2820
 5418SOL     OW27712   1.991   0.340   6.816  0.1853  0.1693 -0.1058
 5418SOL    HW127713   2.022   0.264   6.768  0.0788  0.6083 -0.8674
 5418SOL    HW227714   2.015   0.405   6.750 -0.8229  0.6531  0.0032
 5419SOL     OW27715   1.440   0.421  11.262  0.0796 -0.5923 -0.3368
 5419SOL    HW127716   1.394   0.373  11.193 -0.4110  0.7680 -0.9531
 5419SOL    HW227717   1.520   0.369  11.267  1.4940  1.8358  2.4259
 5420SOL     OW27718   0.619   1.956   8.371 -0.0018  0.1450  0.4528
 5420SOL    HW127719   0.546   1.984   8.427  0.1736  0.3968  0.5547
 5420SOL    HW227720   0.593   1.995   8.287  0.6447 -1.3180 -0.4242
 5421SOL     OW27721   3.768   3.810  14.493  0.2680  0.2557  0.4434
 5421SOL    HW127722   3.819   3.882  14.456  1.7929  0.1889  2.3777
 5421SOL    HW227723   3.761   3.833  14.585  2.2576 -1.0681  0.9368
 5422SOL     OW27724   3.121   3.455   8.864 -0.1035 -0.0299  0.7844
 5422SOL    HW127725   3.205   3.495   8.841  0.4874 -2.5896 -1.5152
 5422SOL    HW227726   3.136   3.362   8.842  1.8935  0.4601  0.0333
 5423SOL     OW27727   4.544   2.045  15.061  0.5975  0.3694 -0.3678
 5423SOL    HW127728   4.550   1.961  15.106 -0.1312 -0.8122 -2.4628
 5423SOL    HW227729   4.534   2.024  14.968 -2.2270  2.0283 -0.4276
 5424SOL     OW27730   0.471   1.230  17.502 -0.0635 -0.1318 -0.2321
 5424SOL    HW127731   0.525   1.189  17.570 -0.0654 -0.4425 -0.4192
 5424SOL    HW227732   0.504   1.320  17.498  0.1617 -0.2305 -0.5236
 5425SOL     OW27733   3.667   4.313   1.836 -0.4609  0.4777 -0.2161
 5425SOL    HW127734   3.596   4.373   1.814  1.3509  2.3652 -0.8975
 5425SOL    HW227735   3.730   4.331   1.766  0.0810 -0.2565  0.0763
 5426SOL     OW27736   0.213   2.957   3.731  0.1390 -0.4060 -0.4888
 5426SOL    HW127737   0.303   2.982   3.752  0.1883 -2.4514  1.7502
 5426SOL    HW227738   0.203   2.948   3.636 -0.4105 -2.0046 -0.2790
 5427SOL     OW27739   2.925   2.940   6.890 -0.6772  0.5928 -0.2345
 5427SOL    HW127740   2.892   2.949   6.801 -0.5694  1.2321 -0.2127
 5427SOL    HW227741   3.003   2.996   6.888 -0.2005  0.0114  1.2650
 5428SOL     OW27742   3.604   3.080   5.693  0.1864  0.3351  0.1838
 5428SOL    HW127743   3.673   3.017   5.675 -1.5669 -1.5970  0.1673
 5428SOL    HW227744   3.622   3.161   5.646  0.8910 -0.9673 -1.8127
 5429SOL     OW27745   3.502   0.822   1.166 -0.1786  0.0119 -0.2250
 5429SOL    HW127746   3.582   0.794   1.122  0.0513 -0.4751  0.5030
 5429SOL    HW227747   3.479   0.739   1.208  1.6714 -0.2992  0.1548
 5430SOL     OW27748   1.217   1.225  14.764  0.0710  0.3569  0.2411
 5430SOL    HW127749   1.209   1.319  14.752 -0.3057  0.1674 -0.9373
 5430SOL    HW227750   1.130   1.186  14.773  0.2846 -0.0902  0.3830
 5431SOL     OW27751   0.158   1.957  16.907  0.6359  0.3130 -0.1716
 5431SOL    HW127752   0.245   1.936  16.941 -0.2466 -1.8514  0.7619
 5431SOL    HW227753   0.132   2.034  16.958  1.5469  1.2797 -1.1708
 5432SOL     OW27754   1.306   1.222   4.627  0.0156  0.3391 -0.1686
 5432SOL    HW127755   1.241   1.192   4.563 -0.8198 -0.0836  0.8847
 5432SOL    HW227756   1.353   1.292   4.583  0.8464 -0.2747 -0.2584
 5433SOL     OW27757   4.631   4.315   3.150  0.1365  0.0961 -0.0777
 5433SOL    HW127758   4.680   4.234   3.164 -3.0320 -1.4804  1.9765
 5433SOL    HW227759   4.541   4.283   3.157 -0.2139  1.2001  0.6056
 5434SOL     OW27760   0.378   1.475   3.172  0.9885  0.5687  0.1628
 5434SOL    HW127761   0.286   1.496   3.158  1.7004  1.8028 -2.7232
 5434SOL    HW227762   0.409   1.496   3.083 -1.5487 -1.8838 -1.3123
 5435SOL     OW27763   2.058   2.575  10.247 -0.4216 -0.1118 -0.2342
 5435SOL    HW127764   2.113   2.503  10.277 -0.5119  0.3749  1.1057
 5435SOL    HW227765   1.984   2.577  10.307 -0.5606 -0.7804 -0.3879
 5436SOL     OW27766   1.016   2.947   7.636  0.0830  0.4316  0.0721
 5436SOL    HW127767   1.095   2.967   7.687  1.6106  1.1624 -2.5533
 5436SOL    HW227768   0.970   3.029   7.652  1.3757  1.4775 -1.5099
 5437SOL     OW27769   1.996   0.739   7.724  0.1087  0.3649  0.1959
 5437SOL    HW127770   2.079   0.727   7.678 -0.8937 -1.1390 -1.2070
 5437SOL    HW227771   1.942   0.669   7.689 -0.9193  1.5044 -0.4580
 5438SOL     OW27772   4.419   3.671   9.705 -0.3677 -0.4417 -0.1736
 5438SOL    HW127773   4.397   3.609   9.636 -2.6834 -2.2153  2.1554
 5438SOL    HW227774   4.441   3.748   9.652 -0.2476  1.8363  3.1706
 5439SOL     OW27775   0.612   2.424   2.678  0.5690  0.3128  0.7825
 5439SOL    HW127776   0.568   2.391   2.600  2.8218  0.3046 -0.4825
 5439SOL    HW227777   0.671   2.350   2.694  0.5055 -0.4265 -2.4082
 5440SOL     OW27778   4.482   0.562  16.896  0.2229 -0.5860  0.7706
 5440SOL    HW127779   4.523   0.480  16.868 -1.7976 -1.5319  0.5875
 5440SOL    HW227780   4.533   0.589  16.972  0.0713  1.9519 -0.0450
 5441SOL     OW27781   1.183   4.626   9.550 -0.2378 -0.2887 -0.3872
 5441SOL    HW127782   1.131   4.703   9.574 -0.6234 -0.4166 -0.8014
 5441SOL    HW227783   1.222   4.586   9.628  0.2506  1.4956  0.2859
 5442SOL     OW27784   3.418   3.797   9.862  0.2814 -0.1312  0.4568
 5442SOL    HW127785   3.443   3.787   9.954 -0.0914 -2.2232  0.3124
 5442SOL    HW227786   3.331   3.832   9.881 -0.4897 -0.8731 -1.7785
 5443SOL     OW27787   2.151   1.421  12.200  0.1694 -0.0529 -0.0113
 5443SOL    HW127788   2.157   1.515  12.183  1.3662  0.2789  2.3192
 5443SOL    HW227789   2.242   1.390  12.202 -0.8466 -2.9843  0.2700
 5444SOL     OW27790   3.455   4.434   8.289 -0.3453  0.0700 -0.2049
 5444SOL    HW127791   3.521   4.429   8.220 -3.7179 -0.1818 -3.3652
 5444SOL    HW227792   3.399   4.506   8.260 -1.7156 -1.3930 -1.1925
 5445SOL     OW27793   2.275   2.404   4.186 -0.3421  0.0436 -0.4754
 5445SOL    HW127794   2.288   2.355   4.105  2.0128 -1.3654  0.7592
 5445SOL    HW227795   2.246   2.489   4.154 -2.6919 -1.1440 -1.4685
 5446SOL     OW27796   3.553   1.079   1.087  0.3821  0.2416  0.0834
 5446SOL    HW127797   3.465   1.100   1.055  0.5693  1.3441  0.2830
 5446SOL    HW227798   3.526   0.994   1.122  0.3426  0.6814  1.1227
 5447SOL     OW27799   4.392   3.521   9.488  0.0177 -0.2985  0.4369
 5447SOL    HW127800   4.363   3.498   9.399 -1.4493 -0.1175  0.8615
 5447SOL    HW227801   4.487   3.516   9.482 -0.1356 -1.4128 -1.3676
 5448SOL     OW27802   3.869   4.288   4.502 -0.0341  0.4544  0.0724
 5448SOL    HW127803   3.869   4.377   4.538 -2.0854  0.7489 -0.6511
 5448SOL    HW227804   3.951   4.256   4.540 -0.2407 -1.2819 -0.9454
 5449SOL     OW27805   1.948   1.390  13.722 -0.4866 -0.2190 -0.0594
 5449SOL    HW127806   1.944   1.394  13.818 -2.0756  3.7459 -0.2951
 5449SOL    HW227807   1.864   1.349  13.706 -0.7979  1.0930 -1.6950
 5450SOL     OW27808   0.703   2.622   2.391  0.0466 -0.5492  0.3474
 5450SOL    HW127809   0.639   2.562   2.352 -0.0147 -0.3802  0.1912
 5450SOL    HW227810   0.772   2.572   2.435  0.8861  0.2731 -0.0392
 5451SOL     OW27811   2.094   4.532   4.901  0.1730  0.8128  0.0657
 5451SOL    HW127812   2.029   4.593   4.936 -0.7242 -0.5412  0.7461
 5451SOL    HW227813   2.180   4.574   4.909  0.0239  0.6141  2.6523
 5452SOL     OW27814   4.048   2.786   6.421  0.0813  0.4235  0.1883
 5452SOL    HW127815   3.985   2.829   6.479  2.0931  1.2854  1.7371
 5452SOL    HW227816   4.118   2.769   6.484 -0.9734 -1.2739  0.9258
 5453SOL     OW27817   2.852   4.398   8.739  0.2577  0.5925  0.7644
 5453SOL    HW127818   2.790   4.469   8.722 -0.4567  0.3769  2.4141
 5453SOL    HW227819   2.807   4.335   8.797  0.1953 -1.0173 -1.0189
 5454SOL     OW27820   3.658   2.052  13.050 -0.2473  0.0119 -0.6201
 5454SOL    HW127821   3.717   2.022  13.119 -2.1654 -1.9232  0.1881
 5454SOL    HW227822   3.574   2.019  13.082 -0.8403  0.3708 -1.8065
 5455SOL     OW27823   0.610   3.510   5.158 -0.1106  0.4066 -0.0495
 5455SOL    HW127824   0.656   3.426   5.160  0.0205  0.5001  1.0981
 5455SOL    HW227825   0.554   3.493   5.082  2.1586 -0.6922 -1.4767
 5456SOL     OW27826   3.996   2.307   4.546 -0.3064  0.7548 -0.2252
 5456SOL    HW127827   4.026   2.301   4.456 -0.8004 -3.5458 -0.0773
 5456SOL    HW227828   3.912   2.262   4.542  0.1366 -0.0999  0.1698
 5457SOL     OW27829   3.309   3.337   2.855 -0.2211 -0.3160  0.3975
 5457SOL    HW127830   3.336   3.315   2.766  1.6987 -0.8349  1.1115
 5457SOL    HW227831   3.359   3.417   2.869 -2.8897  1.6633 -1.4722
 5458SOL     OW27832   3.958   4.639   4.063 -0.0185  0.1444 -0.4170
 5458SOL    HW127833   4.049   4.614   4.044  0.8109  1.0825  2.3303
 5458SOL    HW227834   3.914   4.599   3.988 -1.4175  3.2013 -1.2311
 5459SOL     OW27835   4.290   0.973   5.246 -0.3295 -0.0108 -0.3719
 5459SOL    HW127836   4.225   0.973   5.316 -0.5421 -0.0701 -0.5680
 5459SOL    HW227837   4.368   0.955   5.297 -0.2180  0.6831 -0.3010
 5460SOL     OW27838   0.462   3.104   2.396 -0.0445 -0.2861 -0.3279
 5460SOL    HW127839   0.447   3.011   2.381  1.3147 -0.4737 -0.4692
 5460SOL    HW227840   0.436   3.110   2.488 -0.5357  0.8378 -0.5272
 5461SOL     OW27841   1.945   1.439   1.396  0.1828 -0.1309  0.0239
 5461SOL    HW127842   1.941   1.343   1.404  3.3186 -0.2235  0.3203
 5461SOL    HW227843   2.030   1.468   1.428  1.3359 -1.9826 -1.3138
 5462SOL     OW27844   1.580   4.172   8.953 -0.3044 -0.2525 -0.1644
 5462SOL    HW127845   1.582   4.079   8.931 -0.5984 -0.4624  0.6939
 5462SOL    HW227846   1.603   4.181   9.046  3.4737 -2.4922 -0.8480
 5463SOL     OW27847   4.029   1.880  16.074 -0.6039  0.6200 -0.0035
 5463SOL    HW127848   4.026   1.831  15.992 -1.0587 -1.2978  1.1519
 5463SOL    HW227849   4.075   1.817  16.130 -0.5321 -1.6268 -2.5808
 5464SOL     OW27850   1.323   0.339   4.258 -0.7710  0.2521 -0.1555
 5464SOL    HW127851   1.394   0.276   4.274 -1.2674 -0.0210  1.0025
 5464SOL    HW227852   1.245   0.295   4.290  0.4145 -1.7074  0.0392
 5465SOL     OW27853   3.577   0.588  13.914 -0.4799  0.3305 -0.1410
 5465SOL    HW127854   3.624   0.520  13.865  0.4020 -0.3721  1.6859
 5465SOL    HW227855   3.638   0.662  13.913 -2.9387  2.3467 -1.1597
 5466SOL     OW27856   1.066   0.007   1.030  0.4380 -0.7433 -0.4319
 5466SOL    HW127857   1.089   4.655   1.085 -1.6783 -0.9824  0.1111
 5466SOL    HW227858   1.140   0.067   1.040 -1.2578  1.1013  1.1252
 5467SOL     OW27859   3.436   0.058   3.569 -0.0671  0.6183 -0.3327
 5467SOL    HW127860   3.420   4.697   3.529  2.1027  1.1723 -2.3940
 5467SOL    HW227861   3.374   0.112   3.520 -0.0979  1.1737  0.3093
 5468SOL     OW27862   2.556   2.837  11.449  0.1022  0.2785 -0.4775
 5468SOL    HW127863   2.562   2.924  11.488  2.4762 -0.0808 -0.0565
 5468SOL    HW227864   2.483   2.843  11.388 -0.1530  0.4952 -0.1570
 5469SOL     OW27865   3.088   3.703   2.587  0.4777  0.2900 -0.0100
 5469SOL    HW127866   3.075   3.611   2.611  0.2410 -0.2595 -2.2467
 5469SOL    HW227867   3.177   3.710   2.554 -0.1246 -2.1251 -2.1667
 5470SOL     OW27868   2.327   2.017   5.411  0.1355 -0.0449 -0.4706
 5470SOL    HW127869   2.237   2.050   5.404 -0.4363 -1.5001  0.1435
 5470SOL    HW227870   2.371   2.079   5.469 -2.0218 -0.7995  1.9493
 5471SOL     OW27871   3.503   1.482   4.254 -0.2081 -0.7519  0.4958
 5471SOL    HW127872   3.472   1.503   4.166  0.1833  0.7592  0.7263
 5471SOL    HW227873   3.555   1.403   4.238  1.2293  0.1612  0.5840
 5472SOL     OW27874   4.493   4.702   2.626  0.0342 -0.2209 -0.0309
 5472SOL    HW127875   4.482   0.073   2.630 -1.7601 -0.3893 -0.5878
 5472SOL    HW227876   4.400   4.688   2.606 -0.3213 -2.5324  3.4217
 5473SOL     OW27877   2.376   1.555   7.708  0.2150  0.4089 -0.1071
 5473SOL    HW127878   2.355   1.641   7.744 -0.0830 -0.8361  2.7331
 5473SOL    HW227879   2.470   1.546   7.726 -0.0743 -2.2983  0.1042
 5474SOL     OW27880   2.739   0.441   5.416  0.1220  0.2242 -0.7310
 5474SOL    HW127881   2.688   0.461   5.494  1.4951 -0.5067  0.3643
 5474SOL    HW227882   2.747   0.528   5.377 -0.7317  1.1356  1.1808
 5475SOL     OW27883   1.531   4.341   8.756 -0.7050 -0.3406  0.7248
 5475SOL    HW127884   1.555   4.278   8.824  1.8838  1.9896  1.9690
 5475SOL    HW227885   1.618   4.361   8.721 -0.1110 -0.8980  1.8732
 5476SOL     OW27886   3.177   3.491   5.971 -0.3848  0.7297  0.5001
 5476SOL    HW127887   3.230   3.491   5.891 -1.9730  0.9883 -0.5530
 5476SOL    HW227888   3.098   3.448   5.937 -0.1392  0.4921  0.2257
 5477SOL     OW27889   4.373   0.775   0.794 -0.0836  0.2583  0.1230
 5477SOL    HW127890   4.303   0.760   0.857 -0.0737 -0.7685 -0.1194
 5477SOL    HW227891   4.441   0.723   0.835 -0.9809 -0.7253  0.3539
 5478SOL     OW27892   1.586   0.650  11.294  0.0282 -0.4149 -0.2191
 5478SOL    HW127893   1.538   0.730  11.274  1.3789  0.1158 -1.2753
 5478SOL    HW227894   1.519   0.582  11.281 -0.3736 -0.0128 -0.2699
 5479SOL     OW27895   0.801   3.444  15.906 -0.0969  0.1440 -0.2412
 5479SOL    HW127896   0.839   3.527  15.875 -2.2868  2.0460  2.1406
 5479SOL    HW227897   0.782   3.460  15.999  1.2684 -0.6202  0.1844
 5480SOL     OW27898   3.211   0.456  14.186  0.4025 -0.2898 -0.3040
 5480SOL    HW127899   3.263   0.501  14.120 -2.2865  1.6068 -1.1295
 5480SOL    HW227900   3.222   0.516  14.260 -0.0422  1.1560 -1.4220
 5481SOL     OW27901   4.090   2.301   9.385 -0.2457 -0.2583  0.5151
 5481SOL    HW127902   4.180   2.291   9.414  0.5565  2.1801 -1.1503
 5481SOL    HW227903   4.086   2.232   9.319 -1.6214  0.6533 -0.3789
 5482SOL     OW27904   1.582   2.924   0.657 -0.1093 -0.0959  0.1946
 5482SOL    HW127905   1.635   2.879   0.592 -0.1768 -0.3620  0.3246
 5482SOL    HW227906   1.515   2.856   0.649  0.8114 -0.9640 -0.1688
 5483SOL     OW27907   4.069   3.839  15.384  0.3589  0.0069  0.2956
 5483SOL    HW127908   4.089   3.833  15.290  2.1565  0.4222  0.6359
 5483SOL    HW227909   4.100   3.929  15.392  0.2736  0.0039  0.6520
 5484SOL     OW27910   0.906   2.302   7.242 -0.2596 -0.3334 -0.3295
 5484SOL    HW127911   0.875   2.271   7.327 -2.8100 -2.1294 -1.8962
 5484SOL    HW227912   0.924   2.394   7.261  0.9707 -0.6009 -0.2190
 5485SOL     OW27913   1.539   2.539  12.945  0.6642 -0.2548  0.0091
 5485SOL    HW127914   1.567   2.449  12.927  1.2338  0.1672 -1.2301
 5485SOL    HW227915   1.626   2.573  12.964  1.1682 -1.2741 -0.4460
 5486SOL     OW27916   3.982   3.265  14.949  0.1517 -0.0900  0.1004
 5486SOL    HW127917   3.956   3.182  14.909 -1.9732 -0.0783  1.5018
 5486SOL    HW227918   4.075   3.249  14.968  0.2445  1.5212  0.9811
 5487SOL     OW27919   1.062   2.571   2.254  0.4894  0.8309  0.5027
 5487SOL    HW127920   1.030   2.532   2.336 -0.1849  0.8092  0.2279
 5487SOL    HW227921   0.994   2.542   2.194  0.4667  0.8465  0.5208
 5488SOL     OW27922   2.737   0.314   4.400 -0.4160 -0.5760  0.7851
 5488SOL    HW127923   2.773   0.254   4.465  0.2830 -1.0305 -0.0165
 5488SOL    HW227924   2.802   0.385   4.404  0.4291 -1.1709 -2.0673
 5489SOL     OW27925   0.094   1.094   9.156 -0.1452 -0.0283 -0.3140
 5489SOL    HW127926   0.086   1.160   9.225 -1.7803  0.0073 -0.5294
 5489SOL    HW227927   0.015   1.116   9.106 -0.5424  0.5672  0.5712
 5490SOL     OW27928   4.448   0.523   9.908 -0.2985  0.3796  0.0414
 5490SOL    HW127929   4.506   0.584   9.863 -1.8495  1.0390 -1.0889
 5490SOL    HW227930   4.464   0.557   9.995  1.0508 -1.4827  0.5299
 5491SOL     OW27931   0.121   1.723   5.307  0.2771 -0.2719  0.0157
 5491SOL    HW127932   0.080   1.638   5.325  0.2548 -0.5519 -1.3311
 5491SOL    HW227933   0.127   1.718   5.212  1.4114  2.7814 -0.0471
 5492SOL     OW27934   3.203   3.017  10.511  0.2363  0.2707  0.0729
 5492SOL    HW127935   3.196   3.049  10.421 -0.5343  1.6081  0.6121
 5492SOL    HW227936   3.250   2.936  10.490  0.3713  1.1897 -3.1581
 5493SOL     OW27937   0.069   4.003   6.341  0.3807 -0.3665  0.3580
 5493SOL    HW127938   0.123   3.935   6.300  1.0834  1.1801 -1.3055
 5493SOL    HW227939   0.060   4.067   6.270  0.6423 -0.9473 -0.1956
 5494SOL     OW27940   2.613   0.654  10.808 -0.1102  0.1496  0.7758
 5494SOL    HW127941   2.573   0.627  10.891  1.0939  0.1622  1.3713
 5494SOL    HW227942   2.681   0.707  10.849 -0.5143 -0.0380  1.7058
 5495SOL     OW27943   1.902   3.987   1.608 -0.1826 -0.2498 -0.1191
 5495SOL    HW127944   1.962   3.913   1.619  0.3949 -0.0261 -1.6719
 5495SOL    HW227945   1.835   3.968   1.674 -1.0891 -2.9453 -1.8102
 5496SOL     OW27946   1.733   3.157  12.515  0.0935  0.3635  0.7142
 5496SOL    HW127947   1.798   3.096  12.550 -0.1367 -0.8551 -0.9761
 5496SOL    HW227948   1.777   3.236  12.484  0.4866 -0.2440 -0.2783
 5497SOL     OW27949   0.114   2.331   4.224  0.6769 -0.2119  0.0201
 5497SOL    HW127950   0.193   2.278   4.211  1.2233  0.5113  0.4050
 5497SOL    HW227951   0.158   2.415   4.233  1.5412 -0.4864 -1.5440
 5498SOL     OW27952   4.428   3.475   6.334  0.2003  0.2038 -0.5801
 5498SOL    HW127953   4.414   3.388   6.296 -1.9160 -0.1127  0.9591
 5498SOL    HW227954   4.386   3.524   6.263 -0.0278 -1.6144 -1.7133
 5499SOL     OW27955   4.074   2.100   1.965 -0.0145 -0.1651  0.1969
 5499SOL    HW127956   4.121   2.058   1.893 -0.9551  0.2261 -0.6376
 5499SOL    HW227957   4.148   2.150   2.000 -1.1661  0.9267  1.0864
 5500SOL     OW27958   0.111   2.156   8.361  0.6323  0.5713  0.4036
 5500SOL    HW127959   0.044   2.207   8.315 -1.1287 -3.1834 -1.1774
 5500SOL    HW227960   0.080   2.066   8.345  2.2758 -0.3034  2.2851
 5501SOL     OW27961   4.530   1.567   8.157 -0.2573  0.1508 -0.3033
 5501SOL    HW127962   4.505   1.624   8.084  0.4189  0.9049  0.0593
 5501SOL    HW227963   4.468   1.494   8.146 -1.2130  0.4280  3.3798
 5502SOL     OW27964   4.441   3.243   3.707 -0.4564  0.3952 -0.5369
 5502SOL    HW127965   4.445   3.189   3.628 -0.6226 -1.2953  0.6169
 5502SOL    HW227966   4.492   3.316   3.671  0.9438  0.3688  1.3930
 5503SOL     OW27967   1.089   2.174   4.701  0.8677 -0.2477 -0.2002
 5503SOL    HW127968   1.173   2.161   4.744  0.5843 -0.0574  0.4176
 5503SOL    HW227969   1.053   2.243   4.757  1.4625  0.3664 -0.5796
 5504SOL     OW27970   1.587   0.345   5.197  0.3140 -0.3194 -0.4451
 5504SOL    HW127971   1.531   0.284   5.244  1.4383 -1.2914 -0.3677
 5504SOL    HW227972   1.651   0.368   5.265 -0.6484  1.6172 -0.2064
 5505SOL     OW27973   1.825   2.838   8.578  0.1587  0.1317 -0.1126
 5505SOL    HW127974   1.833   2.931   8.598 -0.8678  0.7581 -2.5817
 5505SOL    HW227975   1.733   2.814   8.592  0.6615 -1.1561  1.0286
 5506SOL     OW27976   0.493   1.636  14.278  0.9204  0.2883  0.1780
 5506SOL    HW127977   0.429   1.694  14.320  1.8549  1.9988 -0.7284
 5506SOL    HW227978   0.527   1.688  14.205  1.4834  1.6712  1.4206
 5507SOL     OW27979   3.137   3.292   4.773 -0.4755  0.0706 -0.0910
 5507SOL    HW127980   3.090   3.231   4.716 -1.7268  2.0457 -1.1386
 5507SOL    HW227981   3.118   3.374   4.729 -0.0234 -0.8149 -1.9318
 5508SOL     OW27982   1.388   2.801  12.870 -0.4228 -0.6161  0.0173
 5508SOL    HW127983   1.415   2.891  12.889 -0.3917 -0.0222 -2.9359
 5508SOL    HW227984   1.424   2.773  12.786  0.2834  0.5106 -0.0500
 5509SOL     OW27985   0.472   3.531  14.216  0.5969 -0.1945 -0.4891
 5509SOL    HW127986   0.510   3.612  14.183 -0.6986  0.4767 -0.3500
 5509SOL    HW227987   0.445   3.562  14.302 -0.8194 -1.4442 -0.4764
 5510SOL     OW27988   3.429   2.877  13.709 -0.6387 -0.1118 -0.1838
 5510SOL    HW127989   3.516   2.916  13.697  0.2474 -2.0025  0.0751
 5510SOL    HW227990   3.415   2.835  13.624  2.2338  1.3975 -1.4311
 5511SOL     OW27991   0.877   4.411   5.798  0.2651 -0.3647  0.3084
 5511SOL    HW127992   0.813   4.478   5.774  0.3870 -0.4470 -0.2568
 5511SOL    HW227993   0.956   4.461   5.818 -0.0937  0.2602  0.1621
 5512SOL     OW27994   1.514   2.419   4.236  0.2682  0.1135 -0.3083
 5512SOL    HW127995   1.573   2.488   4.206 -0.7489 -0.0133 -2.5653
 5512SOL    HW227996   1.459   2.455   4.306  0.9433 -1.3755  1.0071
 5513SOL     OW27997   4.366   3.473   2.642 -0.7459 -0.1001 -0.1092
 5513SOL    HW127998   4.307   3.405   2.675 -0.2681  0.3571  1.7042
 5513SOL    HW227999   4.420   3.503   2.716 -2.0213 -0.9093  1.1468
 5514SOL     OW28000   2.790   4.254  13.114  0.1644  0.0503  0.2283
 5514SOL    HW128001   2.789   4.319  13.044  0.1458 -2.5971 -2.2445
 5514SOL    HW228002   2.818   4.172  13.074 -0.5589 -0.4374  0.7219
 5515SOL     OW28003   1.473   2.249   8.238  0.2911 -0.5117 -0.1006
 5515SOL    HW128004   1.517   2.263   8.322 -0.7215  2.5608 -0.0573
 5515SOL    HW228005   1.532   2.184   8.201  0.7018 -0.3332  0.2443
 5516SOL     OW28006   4.463   1.144  11.421 -0.3651 -0.7661 -0.0236
 5516SOL    HW128007   4.493   1.210  11.358  1.0507  0.6129  2.0623
 5516SOL    HW228008   4.419   1.195  11.489  1.5125  0.2360  0.4508
 5517SOL     OW28009   3.257   0.843  10.708  0.1023  0.2165 -0.7148
 5517SOL    HW128010   3.321   0.795  10.655  1.2544  0.2993  0.5951
 5517SOL    HW228011   3.231   0.921  10.659  0.4684  0.7795 -0.0013
 5518SOL     OW28012   2.494   0.029  11.457 -0.1801 -0.3515 -0.1431
 5518SOL    HW128013   2.445   4.679  11.493 -0.8940 -0.7672 -1.9753
 5518SOL    HW228014   2.420   0.068  11.410 -1.1647 -1.4342  0.4996
 5519SOL     OW28015   3.159   3.320   6.366 -0.1741 -0.1231 -0.1901
 5519SOL    HW128016   3.238   3.321   6.312  0.8920  1.5030  1.4260
 5519SOL    HW228017   3.191   3.382   6.431  1.2255 -0.8088 -0.2198
 5520SOL     OW28018   3.826   1.242   7.543 -0.2676 -0.5376 -0.5152
 5520SOL    HW128019   3.818   1.227   7.449 -2.3127  0.6044 -0.5179
 5520SOL    HW228020   3.839   1.337   7.547 -3.3095 -0.1185 -0.7384
 5521SOL     OW28021   1.335   0.744  10.865  0.2251  0.1061  0.0180
 5521SOL    HW128022   1.417   0.729  10.818  1.3542  1.9243  1.4121
 5521SOL    HW228023   1.308   0.825  10.821 -3.5110  0.3579  2.7859
 5522SOL     OW28024   2.860   0.838  15.933  0.1809  0.1910 -0.0384
 5522SOL    HW128025   2.823   0.834  15.845  0.2137  0.6144 -0.0718
 5522SOL    HW228026   2.790   0.880  15.983 -0.6600  0.7661 -1.6757
 5523SOL     OW28027   3.545   3.302   0.879  0.0601 -0.7570  0.4164
 5523SOL    HW128028   3.506   3.221   0.912 -0.6830  0.3657  2.3021
 5523SOL    HW228029   3.612   3.326   0.942 -1.0192 -0.7368  1.5690
 5524SOL     OW28030   4.405   0.658   9.485  0.2648 -0.1531  0.2565
 5524SOL    HW128031   4.353   0.602   9.542 -0.3115 -0.2864 -0.3915
 5524SOL    HW228032   4.488   0.642   9.530 -0.2836 -0.6946  1.0664
 5525SOL     OW28033   0.713   1.182  13.650 -0.3261 -0.5752  0.1452
 5525SOL    HW128034   0.767   1.241  13.598  0.7544  2.1501  4.3824
 5525SOL    HW228035   0.658   1.245  13.697  0.9707  1.6217 -1.3282
 5526SOL     OW28036   2.907   4.583   9.498 -0.4964 -0.1671  0.1407
 5526SOL    HW128037   2.924   4.538   9.415  1.5542 -0.1847  0.5551
 5526SOL    HW228038   2.897   4.672   9.464 -1.5978 -1.0163 -1.7584
 5527SOL     OW28039   4.064   0.439   8.362  0.5309 -0.3770 -0.2308
 5527SOL    HW128040   4.005   0.375   8.402  1.1324 -2.2375 -2.3081
 5527SOL    HW228041   4.002   0.496   8.316  0.6912 -0.1957 -0.2203
 5528SOL     OW28042   3.863   3.381   5.928  0.3646 -0.0070 -0.5363
 5528SOL    HW128043   3.827   3.458   5.972  0.0524  0.6241 -1.8964
 5528SOL    HW228044   3.911   3.334   5.996  1.1633  0.2903 -0.8931
 5529SOL     OW28045   3.229   1.847  13.326 -0.2181 -0.2529 -0.1008
 5529SOL    HW128046   3.235   1.773  13.385  0.0345 -0.0194  0.1630
 5529SOL    HW228047   3.232   1.807  13.239 -0.9069  2.8553 -1.5583
 5530SOL     OW28048   1.017   3.800  15.165 -0.0466  0.5940 -0.0649
 5530SOL    HW128049   1.079   3.746  15.116 -1.8051 -0.2418 -1.3645
 5530SOL    HW228050   0.935   3.752  15.165 -0.5503  1.4556 -1.0067
 5531SOL     OW28051   1.588   4.656   0.470 -0.2967 -0.7040  0.1690
 5531SOL    HW128052   1.663   4.634   0.415 -0.4432 -0.7637 -0.0056
 5531SOL    HW228053   1.570   4.566   0.497  1.9221 -1.2547 -0.2456
 5532SOL     OW28054   0.544   2.655   9.768 -0.1215  0.3139  0.0132
 5532SOL    HW128055   0.460   2.632   9.807  0.8362  1.4024  2.6784
 5532SOL    HW228056   0.599   2.580   9.790 -0.1977  0.7346  1.5814
 5533SOL     OW28057   3.854   0.373   9.888  0.2166 -0.6654  0.3202
 5533SOL    HW128058   3.773   0.418   9.914 -1.2989 -2.1032 -1.9569
 5533SOL    HW228059   3.825   0.294   9.843 -0.0171  0.5821 -1.7403
 5534SOL     OW28060   3.359   4.425   1.056  0.1824  0.2543  0.1846
 5534SOL    HW128061   3.344   4.360   1.124 -0.3246  1.4608  1.2223
 5534SOL    HW228062   3.280   4.479   1.045 -1.2927 -1.9903 -0.2643
 5535SOL     OW28063   0.751   3.858   3.658 -0.0047 -0.1081 -0.1179
 5535SOL    HW128064   0.698   3.902   3.591 -1.7067 -0.9996  0.6400
 5535SOL    HW228065   0.686   3.865   3.729 -1.3564 -2.8190 -1.0733
 5536SOL     OW28066   1.399   3.418   7.967 -0.2498 -0.0581  0.3794
 5536SOL    HW128067   1.453   3.385   8.039 -0.1291 -1.1614 -0.2188
 5536SOL    HW228068   1.467   3.429   7.901 -0.6055 -1.9094 -0.3195
 5537SOL     OW28069   2.962   3.963   5.527  0.0585  0.3482 -0.0146
 5537SOL    HW128070   2.961   4.052   5.563 -2.5555  0.1917  0.2568
 5537SOL    HW228071   2.873   3.956   5.492  0.1644 -1.6260  0.1377
 5538SOL     OW28072   3.447   1.711   2.187 -0.0811 -0.0848 -0.4238
 5538SOL    HW128073   3.531   1.745   2.154  0.2621 -1.4261 -0.9282
 5538SOL    HW228074   3.443   1.753   2.273  0.9290 -2.2080  0.6770
 5539SOL     OW28075   0.194   2.920   2.498 -0.4720  0.4251 -0.1617
 5539SOL    HW128076   0.145   2.892   2.576  1.1689 -0.5584  0.5222
 5539SOL    HW228077   0.149   2.999   2.470  1.3290  1.4177 -0.2064
 5540SOL     OW28078   2.842   4.163   8.594 -0.8065  0.2117  0.0420
 5540SOL    HW128079   2.864   4.176   8.502 -1.6357  3.3800  0.3017
 5540SOL    HW228080   2.868   4.251   8.622 -1.4781 -0.2135  2.0380
 5541SOL     OW28081   1.660   1.404   5.463  0.0743 -0.3439 -0.0775
 5541SOL    HW128082   1.654   1.478   5.402 -1.1952  0.3383  0.8713
 5541SOL    HW228083   1.582   1.427   5.513 -0.7513 -0.2919 -1.3772
 5542SOL     OW28084   3.759   4.081   8.551 -0.1105 -0.0002  0.5156
 5542SOL    HW128085   3.742   4.169   8.516  2.4113  1.2386  2.3874
 5542SOL    HW228086   3.688   4.032   8.510 -0.8672 -0.8026  2.8018
 5543SOL     OW28087   4.694   3.919  17.387  0.4326 -0.0386 -0.0887
 5543SOL    HW128088   0.045   3.885  17.436 -1.2646 -0.6962  2.0949
 5543SOL    HW228089   0.010   3.925  17.301  2.0186  1.8381  0.7794
 5544SOL     OW28090   0.349   0.423   7.700  0.7176  0.1832  0.1331
 5544SOL    HW128091   0.384   0.417   7.611  0.1510  2.2854 -0.2381
 5544SOL    HW228092   0.345   0.331   7.726  0.8145  0.2134  0.2527
 5545SOL     OW28093   4.468   0.361   6.119  0.2704  0.0490  0.0333
 5545SOL    HW128094   4.414   0.362   6.198 -0.9216 -0.1829 -0.7847
 5545SOL    HW228095   4.469   0.455   6.098 -1.6451  0.0436 -0.1185
 5546SOL     OW28096   0.652   3.819   6.204 -0.1357  0.4694 -0.5211
 5546SOL    HW128097   0.705   3.740   6.190 -1.5165 -0.0677 -2.7289
 5546SOL    HW228098   0.712   3.879   6.249  0.9228 -1.1182  0.2064
 5547SOL     OW28099   1.212   3.025   2.075  0.0973  0.0342  0.0991
 5547SOL    HW128100   1.122   2.996   2.064  0.3959 -1.6126  2.0023
 5547SOL    HW228101   1.260   2.983   2.004 -0.9767  1.8549 -1.7135
 5548SOL     OW28102   2.306   0.372   9.452  0.8288 -0.2357 -0.1824
 5548SOL    HW128103   2.297   0.361   9.546 -1.8104  0.2345 -0.3607
 5548SOL    HW228104   2.220   0.346   9.418  1.0773  0.0339 -1.0186
 5549SOL     OW28105   2.325   3.572   9.154 -0.1095 -0.1829  0.1133
 5549SOL    HW128106   2.275   3.553   9.234 -1.5945  1.6774 -0.3758
 5549SOL    HW228107   2.390   3.503   9.164 -0.1661 -0.3542 -0.6447
 5550SOL     OW28108   2.072   2.096   7.098  0.4649  0.6353  0.0737
 5550SOL    HW128109   2.108   2.148   7.170 -0.1179  0.3757  0.5599
 5550SOL    HW228110   2.058   2.162   7.030  0.7603 -0.1486 -0.7502
 5551SOL     OW28111   3.496   1.184   7.014 -0.2089  0.1295 -0.2749
 5551SOL    HW128112   3.586   1.216   7.013  0.1732 -0.9010  2.3985
 5551SOL    HW228113   3.461   1.209   6.929  0.4805  1.8455 -0.0381
 5552SOL     OW28114   2.098   2.426   8.596  0.1449 -1.0907 -0.1406
 5552SOL    HW128115   2.054   2.346   8.623  0.2218 -1.7761 -2.0447
 5552SOL    HW228116   2.145   2.400   8.516 -0.7413 -0.6912 -0.8011
 5553SOL     OW28117   0.743   4.261   7.260 -0.6625 -0.3661 -0.4134
 5553SOL    HW128118   0.707   4.349   7.248  0.8169  0.1587 -1.0320
 5553SOL    HW228119   0.758   4.241   7.168 -0.6551 -0.5425 -0.3735
 5554SOL     OW28120   4.374   1.191   7.907 -0.0932  0.2473 -0.2785
 5554SOL    HW128121   4.381   1.105   7.948  0.0531 -0.8428 -2.5796
 5554SOL    HW228122   4.456   1.197   7.858  0.4138  1.7761  0.7655
 5555SOL     OW28123   2.752   2.427   5.864 -0.7088  0.4061 -0.0733
 5555SOL    HW128124   2.744   2.476   5.946 -2.8791  1.4680 -0.9084
 5555SOL    HW228125   2.769   2.338   5.895  0.0431  0.9603  1.1411
 5556SOL     OW28126   4.398   0.151  10.778  0.2846 -0.3015  0.7716
 5556SOL    HW128127   4.385   0.245  10.784 -1.9656 -0.5141 -0.4695
 5556SOL    HW228128   4.351   0.137  10.696  3.4143 -0.1877 -1.0502
 5557SOL     OW28129   4.333   1.260   7.244  0.0014  0.2817 -0.1375
 5557SOL    HW128130   4.262   1.325   7.253 -0.9336 -0.7230 -0.2640
 5557SOL    HW228131   4.299   1.213   7.168  1.1846  0.1907 -0.6092
 5558SOL     OW28132   1.956   3.336   9.315 -0.0840 -0.0601 -0.0026
 5558SOL    HW128133   1.870   3.357   9.277 -0.0929 -0.4353 -0.1915
 5558SOL    HW228134   1.986   3.269   9.254  1.6216  2.2351 -1.6655
 5559SOL     OW28135   3.789   1.012   4.192 -0.0471  0.0171  0.0614
 5559SOL    HW128136   3.783   0.963   4.274  1.3134  1.8779  1.2731
 5559SOL    HW228137   3.712   0.985   4.143  0.9398  0.0847 -1.5154
 5560SOL     OW28138   1.224   1.759   2.828  0.0890  0.0204 -0.2967
 5560SOL    HW128139   1.129   1.761   2.838  0.1405  0.4333  0.1421
 5560SOL    HW228140   1.240   1.740   2.736  0.8053 -0.7570 -0.0094
 5561SOL     OW28141   0.546   1.092   9.582  0.4780  0.1975  0.4041
 5561SOL    HW128142   0.454   1.116   9.595 -0.4085 -2.5298 -0.7778
 5561SOL    HW228143   0.569   1.073   9.673 -0.4026  2.5323  1.1172
 5562SOL     OW28144   1.492   0.322   2.386 -0.2331 -0.2943 -0.2716
 5562SOL    HW128145   1.437   0.356   2.456  1.6450  1.9332  0.1073
 5562SOL    HW228146   1.573   0.324   2.437 -2.0019 -1.7167  2.6373
 5563SOL     OW28147   0.669   1.388   9.882  0.3674  0.2810  0.0527
 5563SOL    HW128148   0.671   1.333   9.960  1.2506  0.1514 -0.0534
 5563SOL    HW228149   0.692   1.329   9.810  0.9511  1.0807 -0.4261
 5564SOL     OW28150   4.685   1.782   1.182  0.0143 -0.1617  0.1472
 5564SOL    HW128151   0.041   1.821   1.217  0.3965 -0.1380 -0.7544
 5564SOL    HW228152   4.624   1.814   1.249 -0.1960  1.4055 -0.7956
 5565SOL     OW28153   0.871   2.423  10.865  0.3619  0.0984  0.2925
 5565SOL    HW128154   0.808   2.396  10.799 -1.4489  0.2445  1.9491
 5565SOL    HW228155   0.940   2.363  10.836  0.6199  0.2308  0.6208
 5566SOL     OW28156   1.312   1.895   3.246  0.1024  0.0026  0.5466
 5566SOL    HW128157   1.222   1.866   3.234 -0.4046  1.3712  1.0201
 5566SOL    HW228158   1.324   1.948   3.167 -0.2897  0.0359  0.5094
 5567SOL     OW28159   1.301   2.788   3.128 -0.1897 -0.2689 -0.0253
 5567SOL    HW128160   1.381   2.788   3.076 -0.4159 -0.9384 -0.3779
 5567SOL    HW228161   1.255   2.857   3.081 -2.8557 -1.1977  1.1982
 5568SOL     OW28162   1.908   3.676   0.334  0.2458 -0.5291  0.1421
 5568SOL    HW128163   1.936   3.618   0.405  2.5596  0.6145  0.1735
 5568SOL    HW228164   1.844   3.715   0.394  0.2700  1.5241 -1.1897
 5569SOL     OW28165   0.867   2.762   1.650  0.1753  0.6568 -0.5183
 5569SOL    HW128166   0.886   2.688   1.592 -1.4629  0.6919 -1.1245
 5569SOL    HW228167   0.829   2.713   1.722  0.6192  0.8129 -0.1830
 5570SOL     OW28168   0.350   1.265  17.114  0.2852  0.0041  0.4950
 5570SOL    HW128169   0.403   1.192  17.145  2.3375  0.5741 -1.6040
 5570SOL    HW228170   0.291   1.224  17.051  1.5854  0.4337 -1.0165
 5571SOL     OW28171   2.708   2.969   4.755 -0.4813 -0.2129  0.4544
 5571SOL    HW128172   2.729   2.977   4.848  2.0721  0.2867 -0.1568
 5571SOL    HW228173   2.612   2.972   4.760 -0.5487 -0.4236 -0.8433
 5572SOL     OW28174   1.108   3.850   7.593 -0.2697 -0.0525  0.1385
 5572SOL    HW128175   1.120   3.779   7.656 -2.1977 -0.6658 -0.1933
 5572SOL    HW228176   1.048   3.910   7.638  1.9515  1.2640  1.3570
 5573SOL     OW28177   1.741   1.438   8.249 -0.1758 -0.0637 -0.1123
 5573SOL    HW128178   1.698   1.357   8.222 -0.2278 -0.3326  0.7522
 5573SOL    HW228179   1.824   1.440   8.201  0.2714  1.3580  0.7142
 5574SOL     OW28180   4.344   1.705  10.798 -0.3855  0.2216 -0.2991
 5574SOL    HW128181   4.332   1.795  10.769  0.5676  0.2296 -0.6687
 5574SOL    HW228182   4.436   1.698  10.823 -0.0507  0.8838 -1.3520
 5575SOL     OW28183   3.503   2.136  14.761  0.2521 -0.6448  0.2718
 5575SOL    HW128184   3.567   2.170  14.823  0.8854  2.0515 -1.8895
 5575SOL    HW228185   3.512   2.202  14.693  2.2478 -1.4914 -0.2669
 5576SOL     OW28186   3.549   0.603  10.160  0.0834  0.0702  0.2522
 5576SOL    HW128187   3.512   0.552  10.233  1.9474  1.5972  2.2537
 5576SOL    HW228188   3.498   0.684  10.156 -0.1429 -0.0782  0.1304
 5577SOL     OW28189   3.510   3.205   1.545  0.7792  0.2104  0.2060
 5577SOL    HW128190   3.416   3.192   1.557  0.9214  0.2641  1.3604
 5577SOL    HW228191   3.533   3.121   1.506  0.0463  0.5835 -1.0331
 5578SOL     OW28192   3.579   4.694   8.744 -0.1879  0.5818  0.3995
 5578SOL    HW128193   3.675   4.692   8.742 -0.1817  3.4153 -1.4780
 5578SOL    HW228194   3.566   0.019   8.825 -0.8479 -1.1446  1.3632
 5579SOL     OW28195   4.521   3.943   6.246 -0.1026  0.6854  0.0233
 5579SOL    HW128196   4.490   4.019   6.296  0.5586 -0.7770  2.6601
 5579SOL    HW228197   4.595   3.925   6.305  1.1392  2.9715 -0.8063
 5580SOL     OW28198   2.595   3.698   4.052  0.0203 -0.0949  0.0879
 5580SOL    HW128199   2.571   3.789   4.039  1.0376  0.0064 -1.0892
 5580SOL    HW228200   2.690   3.698   4.067  0.6434  0.4039 -3.9743
 5581SOL     OW28201   4.491   3.605   7.490  0.8366  0.0159  0.2611
 5581SOL    HW128202   4.529   3.522   7.518  1.3486  0.3064  0.4204
 5581SOL    HW228203   4.439   3.634   7.565 -0.4824  0.3224 -0.7723
 5582SOL     OW28204   1.987   0.265   6.486 -0.3740 -0.7585 -0.1420
 5582SOL    HW128205   1.964   0.312   6.406  0.2698 -0.6246 -0.2417
 5582SOL    HW228206   2.072   0.230   6.461 -0.0657  1.2117 -1.8231
 5583SOL     OW28207   2.247   4.015  16.577  0.3829  0.5590  0.7769
 5583SOL    HW128208   2.191   4.017  16.655 -0.5747 -0.9695  0.1279
 5583SOL    HW228209   2.177   3.996  16.515 -1.0934  0.4500  2.4929
 5584SOL     OW28210   2.161   0.624   8.202 -0.4723 -0.1943 -0.0602
 5584SOL    HW128211   2.193   0.714   8.199 -1.3862  0.0896 -1.2942
 5584SOL    HW228212   2.160   0.609   8.108 -0.6254  0.9459 -0.2413
 5585SOL     OW28213   4.143   4.570  11.292 -0.0535  0.0222  0.1675
 5585SOL    HW128214   4.117   4.481  11.269 -1.0626 -0.5597  3.5716
 5585SOL    HW228215   4.196   4.580  11.213  0.0031 -0.2172  0.1744
 5586SOL     OW28216   3.557   1.327   8.001  0.7955 -0.0878  0.0874
 5586SOL    HW128217   3.473   1.359   7.970  0.4339 -0.3963  0.7426
 5586SOL    HW228218   3.595   1.283   7.925 -0.1639  0.4724 -0.7168
 5587SOL     OW28219   2.949   3.789   6.682  0.0145 -0.2003 -0.0702
 5587SOL    HW128220   3.031   3.740   6.682 -0.2245 -0.5989  0.2323
 5587SOL    HW228221   2.936   3.808   6.589  2.1441 -0.7258 -0.4731
 5588SOL     OW28222   0.148   1.732   2.951 -0.1090  0.0111  0.4429
 5588SOL    HW128223   0.072   1.790   2.946 -0.2356  0.0748  3.7651
 5588SOL    HW228224   0.213   1.771   2.891 -3.1278 -0.7158 -3.3335
 5589SOL     OW28225   4.037   4.674   5.741  0.0200  0.0060  0.7192
 5589SOL    HW128226   4.001   0.029   5.700 -0.1321  0.0064  0.8529
 5589SOL    HW228227   4.116   4.715   5.776 -1.3135  0.7024  2.9369
 5590SOL     OW28228   0.611   1.473  13.092  0.0379  0.4225 -0.4836
 5590SOL    HW128229   0.660   1.462  13.174 -1.6009 -0.3201  0.4183
 5590SOL    HW228230   0.673   1.425  13.038 -2.0436 -1.1231 -1.5105
 5591SOL     OW28231   4.510   0.604   6.432 -0.3965  0.3262  0.1178
 5591SOL    HW128232   4.601   0.607   6.400 -0.1687  0.2311  0.7479
 5591SOL    HW228233   4.467   0.627   6.350 -1.6503  1.1020  0.9975
 5592SOL     OW28234   3.045   2.362   5.727 -0.2659 -0.5080  0.0511
 5592SOL    HW128235   2.956   2.330   5.713 -0.5905  1.2024 -1.7307
 5592SOL    HW228236   3.054   2.418   5.650 -1.1648 -0.6841 -0.1819
 5593SOL     OW28237   1.872   1.340  11.556  0.5448  0.1763  0.4369
 5593SOL    HW128238   1.832   1.296  11.631 -1.7020  0.6901 -0.4563
 5593SOL    HW228239   1.942   1.391  11.597  2.2107 -0.6176 -1.4253
 5594SOL     OW28240   0.240   3.254  12.051 -0.5454 -0.6357 -0.6255
 5594SOL    HW128241   0.326   3.230  12.086 -0.4128 -1.0088 -1.2139
 5594SOL    HW228242   0.191   3.244  12.133  2.1268 -0.5722  0.9738
 5595SOL     OW28243   0.138   3.812  17.581 -0.6060  0.6503 -0.3449
 5595SOL    HW128244   0.156   3.737  17.637  1.0657  1.0432 -0.3725
 5595SOL    HW228245   0.222   3.854  17.565  0.3732 -1.1835  0.0709
 5596SOL     OW28246   4.193   1.524  16.493  0.0913 -0.1201  0.7339
 5596SOL    HW128247   4.265   1.514  16.555  0.3682  0.8548  0.5561
 5596SOL    HW228248   4.193   1.617  16.473  3.6060 -0.3417 -0.2273
 5597SOL     OW28249   3.804   2.466   3.186  0.6685  0.5126 -0.2112
 5597SOL    HW128250   3.719   2.465   3.142  0.1647 -1.7115  0.7817
 5597SOL    HW228251   3.781   2.431   3.272 -2.8642  1.2752 -0.8403
 5598SOL     OW28252   1.788   4.417   2.090 -0.0592  0.0158 -0.6687
 5598SOL    HW128253   1.841   4.493   2.116  0.7740  0.5263 -3.7459
 5598SOL    HW228254   1.856   4.374   2.037  0.4384  1.7993 -1.4899
 5599SOL     OW28255   1.151   4.453   3.917  0.7116 -0.0257 -0.1903
 5599SOL    HW128256   1.240   4.423   3.901  1.6608  2.1018  1.0519
 5599SOL    HW228257   1.139   4.515   3.845  1.3633 -1.3331 -1.4108
 5600SOL     OW28258   2.135   4.156   9.063  0.1449 -0.1298 -0.4972
 5600SOL    HW128259   2.217   4.205   9.069  0.8351 -1.4163  0.7397
 5600SOL    HW228260   2.083   4.212   9.005 -0.3559 -0.4856 -0.3906
 5601SOL     OW28261   1.554   3.309   7.200 -0.5883 -0.0723 -0.3020
 5601SOL    HW128262   1.561   3.240   7.265  0.2994 -0.1243 -0.4503
 5601SOL    HW228263   1.478   3.289   7.145 -1.8181  0.4231  1.2175
 5602SOL     OW28264   3.748   1.316   5.101 -0.2276 -0.2299  0.4839
 5602SOL    HW128265   3.731   1.226   5.075  1.0693 -0.4345  0.3303
 5602SOL    HW228266   3.823   1.339   5.046 -1.9599  0.4858 -1.6146
 5603SOL     OW28267   0.424   4.055   9.387 -0.7845  0.0792  0.5742
 5603SOL    HW128268   0.339   4.072   9.426  0.2090  1.7177  2.0396
 5603SOL    HW228269   0.464   4.007   9.459  1.3449  0.8247 -0.1013
 5604SOL     OW28270   1.274   2.767   1.354 -0.3284 -0.0693  0.1149
 5604SOL    HW128271   1.182   2.774   1.378  0.1639  2.1191  1.3070
 5604SOL    HW228272   1.285   2.850   1.308  2.4091 -1.0186 -0.9976
 5605SOL     OW28273   2.606   4.143   6.364 -0.1079 -0.2853  0.7451
 5605SOL    HW128274   2.592   4.210   6.297  0.9957 -1.0192 -0.2037
 5605SOL    HW228275   2.668   4.182   6.426 -1.8011  2.4740  0.7035
 5606SOL     OW28276   3.484   1.617   1.573 -0.4568 -0.1520  0.5040
 5606SOL    HW128277   3.536   1.540   1.551 -0.0507  0.4729 -0.6985
 5606SOL    HW228278   3.548   1.684   1.599  0.7853 -0.5060 -1.7378
 5607SOL     OW28279   0.571   4.342   9.010  0.6977  0.2341  0.3102
 5607SOL    HW128280   0.612   4.289   9.078 -1.7267 -0.3734  1.2963
 5607SOL    HW228281   0.541   4.406   9.074 -0.6229  1.0632 -1.1350
 5608SOL     OW28282   2.816   2.744  11.443 -1.1079  0.0750  0.7368
 5608SOL    HW128283   2.726   2.779  11.440 -1.5930 -0.8214  4.1084
 5608SOL    HW228284   2.803   2.672  11.382  0.4231 -1.2393  1.9703
 5609SOL     OW28285   4.023   2.854  16.158 -0.1039  0.2336 -0.2509
 5609SOL    HW128286   4.061   2.784  16.105  0.1125  0.7415 -0.7713
 5609SOL    HW228287   3.930   2.841  16.174 -0.0294  0.2062  0.1547
 5610SOL     OW28288   4.688   2.681   5.098  0.2769 -0.2806 -0.6392
 5610SOL    HW128289   4.700   2.636   5.182 -0.0562  1.2541  0.2432
 5610SOL    HW228290   0.056   2.705   5.088  1.0237 -2.5690  0.7501
 5611SOL     OW28291   2.708   2.025   7.525 -0.1137  0.3230 -0.0524
 5611SOL    HW128292   2.764   2.097   7.497  2.4255 -1.0390  1.6076
 5611SOL    HW228293   2.679   2.050   7.613 -1.3786 -0.6178 -0.1946
 5612SOL     OW28294   2.026   1.207  13.228 -0.0828 -0.1881  0.1560
 5612SOL    HW128295   2.086   1.181  13.298 -0.3764 -1.2357  0.0298
 5612SOL    HW228296   1.949   1.153  13.246  0.9829 -1.5899  0.5131
 5613SOL     OW28297   2.622   0.962   5.712 -0.0506  0.1379  0.4287
 5613SOL    HW128298   2.589   1.040   5.756  1.1633  0.7722  0.2109
 5613SOL    HW228299   2.682   0.924   5.777 -1.3668 -0.9575  1.0056
 5614SOL     OW28300   1.261   3.086   8.523 -0.4231 -0.2964  0.0419
 5614SOL    HW128301   1.176   3.046   8.543  1.3708 -4.0335  0.3609
 5614SOL    HW228302   1.320   3.050   8.590  0.5925  3.4327  1.1475
 5615SOL     OW28303   0.578   2.385   4.623 -0.6886 -0.4572 -0.0152
 5615SOL    HW128304   0.658   2.369   4.574  0.0842 -0.8469  1.3902
 5615SOL    HW228305   0.627   2.412   4.701 -1.7717  3.1982 -0.5729
 5616SOL     OW28306   0.839   4.116  11.169  0.4128  0.5244  0.2704
 5616SOL    HW128307   0.836   4.187  11.233  0.4358 -0.5065  1.4005
 5616SOL    HW228308   0.754   4.075  11.184  0.4876  0.9561  1.8672
 5617SOL     OW28309   2.918   0.727   2.876 -1.1057 -0.3665  0.0529
 5617SOL    HW128310   2.925   0.631   2.872  2.7397 -0.0271 -1.4832
 5617SOL    HW228311   2.940   0.744   2.968 -0.3656  1.0513 -0.3925
 5618SOL     OW28312   1.279   3.365   7.423  0.2766  0.3142 -0.5900
 5618SOL    HW128313   1.252   3.303   7.355 -0.0465  1.1539 -1.2240
 5618SOL    HW228314   1.246   3.320   7.501  2.5519 -0.4466 -0.0674
 5619SOL     OW28315   1.952   3.601   2.423 -0.4272  0.0764 -0.3477
 5619SOL    HW128316   2.013   3.674   2.437  0.8838 -1.0153 -0.3237
 5619SOL    HW228317   2.003   3.523   2.401  2.3158  1.7725  0.0176
 5620SOL     OW28318   3.638   2.653   4.950 -0.0330 -0.4423 -0.3661
 5620SOL    HW128319   3.600   2.733   4.915  0.6683  0.5501  1.1510
 5620SOL    HW228320   3.560   2.610   4.985 -1.2554  1.2143 -1.0740
 5621SOL     OW28321   3.387   0.991   2.395  0.0258  0.4278  1.2323
 5621SOL    HW128322   3.306   1.005   2.346  0.0332  1.0299  1.3927
 5621SOL    HW228323   3.387   0.895   2.391 -1.0762  0.3694  2.5494
 5622SOL     OW28324   2.406   1.474  10.104 -0.6314  0.2372  0.8475
 5622SOL    HW128325   2.315   1.480  10.133  0.0149 -1.2870  3.2540
 5622SOL    HW228326   2.425   1.568  10.096  1.2733 -0.1758  0.6250
 5623SOL     OW28327   1.066   2.732   9.709  0.1349  0.1043  0.0832
 5623SOL    HW128328   1.035   2.728   9.618  1.0306  0.0460 -0.2205
 5623SOL    HW228329   0.986   2.713   9.757  0.9014  0.6922  1.6058
 5624SOL     OW28330   0.380   1.696   8.308 -0.7780 -0.4519 -0.2066
 5624SOL    HW128331   0.347   1.739   8.228 -1.2449  0.4465  0.4706
 5624SOL    HW228332   0.323   1.725   8.379 -1.4260  0.6723 -1.1731
 5625SOL     OW28333   0.281   2.166  13.475 -0.1945  0.0239  0.0530
 5625SOL    HW128334   0.375   2.168  13.494 -0.2198 -0.3596  0.2091
 5625SOL    HW228335   0.273   2.214  13.392 -0.1105 -1.2902 -0.7170
 5626SOL     OW28336   4.039   1.000   0.835  0.3969 -0.6610  0.1745
 5626SOL    HW128337   4.116   1.042   0.874  0.1839 -2.7139  2.7915
 5626SOL    HW228338   3.973   1.037   0.894 -0.6321  1.0174 -2.0078
 5627SOL     OW28339   2.830   2.616   9.215  0.0196 -0.0105 -0.0801
 5627SOL    HW128340   2.740   2.615   9.248 -1.0514  3.0021 -2.9442
 5627SOL    HW228341   2.805   2.625   9.123  0.2817 -0.3010 -0.1817
 5628SOL     OW28342   2.028   0.253   3.593  0.3588 -0.1437  0.1458
 5628SOL    HW128343   2.077   0.258   3.676 -1.3914 -1.4791  1.2601
 5628SOL    HW228344   2.040   0.343   3.565  1.0236 -0.1300  0.4771
 5629SOL     OW28345   0.379   4.237   8.077 -0.7713 -0.1718 -0.7095
 5629SOL    HW128346   0.435   4.169   8.114  1.5182  1.0716 -1.9133
 5629SOL    HW228347   0.338   4.270   8.157  1.2909  2.2648 -0.6751
 5630SOL     OW28348   0.988   1.048   8.563 -0.6803  0.2862  0.0157
 5630SOL    HW128349   1.033   1.129   8.539 -2.9423  1.2722 -0.9294
 5630SOL    HW228350   0.982   1.064   8.657  0.4713 -1.2874  0.3579
 5631SOL     OW28351   1.673   0.912   1.534 -0.0033  0.1501  0.0971
 5631SOL    HW128352   1.766   0.890   1.534 -0.3314 -1.2634 -0.7918
 5631SOL    HW228353   1.645   0.895   1.624 -1.8387  3.2914  0.1224
 5632SOL     OW28354   1.935   4.620   5.597  0.4007  0.3524 -0.0598
 5632SOL    HW128355   1.951   4.707   5.634 -1.3773  1.4418 -1.8310
 5632SOL    HW228356   1.938   4.566   5.675 -1.3948 -0.3913 -0.5195
 5633SOL     OW28357   2.411   0.354  16.980  0.0612 -0.6024  0.5257
 5633SOL    HW128358   2.428   0.282  16.919 -2.0068  1.2417 -2.2152
 5633SOL    HW228359   2.328   0.391  16.951  1.0048  1.4107  0.3316
 5634SOL     OW28360   1.721   2.652   7.795  0.1749  0.0539  0.4626
 5634SOL    HW128361   1.720   2.618   7.884  0.5783  0.7562  0.7316
 5634SOL    HW228362   1.738   2.572   7.744  0.9826 -0.7060  1.9254
 5635SOL     OW28363   4.457   3.833  14.375 -0.3108 -0.5760 -0.0331
 5635SOL    HW128364   4.464   3.891  14.452 -1.4755 -0.5301  0.0296
 5635SOL    HW228365   4.526   3.770  14.396  0.6955  0.0676 -1.4368
 5636SOL     OW28366   4.546   0.278   3.886 -0.1220 -0.3152  0.7875
 5636SOL    HW128367   4.502   0.331   3.819 -1.5726 -1.2227  1.0536
 5636SOL    HW228368   4.490   0.290   3.962 -0.8133 -3.0056  0.6955
 5637SOL     OW28369   1.937   2.778  10.119 -0.0224  0.6543 -0.0081
 5637SOL    HW128370   1.860   2.787  10.175 -1.1946  2.7272 -1.9392
 5637SOL    HW228371   1.991   2.719  10.171  1.4257  2.4741  0.5527
 5638SOL     OW28372   0.967   1.584   5.848  0.1160 -0.2549 -0.1709
 5638SOL    HW128373   0.959   1.636   5.769  1.8303 -1.7776 -1.3455
 5638SOL    HW228374   0.876   1.581   5.880 -0.3339 -0.1875 -1.4658
 5639SOL     OW28375   2.354   3.781   5.714 -0.4333 -0.4587  0.1626
 5639SOL    HW128376   2.307   3.857   5.749 -1.3504 -0.5288 -0.8785
 5639SOL    HW228377   2.426   3.774   5.776 -1.0433  1.8884  1.1542
 5640SOL     OW28378   0.030   4.087  13.461  0.0397  0.5380 -0.0245
 5640SOL    HW128379   0.057   4.023  13.396  1.2656  2.3419 -1.3019
 5640SOL    HW228380   0.098   4.151  13.441  1.8893 -1.0463  1.2677
 5641SOL     OW28381   1.435   2.600   4.448 -0.5368 -0.5281  0.4880
 5641SOL    HW128382   1.433   2.693   4.427 -2.9561 -0.8987 -0.8580
 5641SOL    HW228383   1.526   2.586   4.473 -0.1972  0.3938 -0.2258
 5642SOL     OW28384   2.631   2.081   0.607 -0.3229 -0.1359  0.4381
 5642SOL    HW128385   2.681   2.128   0.539 -1.1079 -0.3673 -0.2986
 5642SOL    HW228386   2.697   2.016   0.632 -2.5073 -2.5825 -0.1941
 5643SOL     OW28387   1.905   1.801   4.086  0.0170  1.0797 -0.6862
 5643SOL    HW128388   1.977   1.763   4.136 -0.0209  1.1589 -0.5731
 5643SOL    HW228389   1.855   1.849   4.152  0.3355  1.2887 -0.5971
 5644SOL     OW28390   1.955   1.617   7.549  0.0037  0.5893  0.3832
 5644SOL    HW128391   2.039   1.624   7.502  1.1357  1.4311  2.5315
 5644SOL    HW228392   1.928   1.531   7.518  0.9021 -0.0340  1.3220
 5645SOL     OW28393   1.924   0.795   8.463 -0.2789  0.5968  0.2262
 5645SOL    HW128394   1.899   0.733   8.394  1.6074 -2.0059  1.8514
 5645SOL    HW228395   1.976   0.739   8.520 -1.5488 -2.3551 -1.4589
 5646SOL     OW28396   0.341   1.835   0.839 -0.2344  0.0877 -0.5606
 5646SOL    HW128397   0.323   1.849   0.932 -1.4299 -1.7732 -0.5026
 5646SOL    HW228398   0.332   1.924   0.807  0.9104  0.2965 -0.2931
 5647SOL     OW28399   2.125   1.617   8.407 -0.8134 -0.2042 -0.2503
 5647SOL    HW128400   2.083   1.531   8.403 -0.9254 -0.2369  1.5436
 5647SOL    HW228401   2.073   1.668   8.345  0.1647  1.3005  0.1607
 5648SOL     OW28402   2.831   1.792   7.530  0.3262  0.1274  0.1679
 5648SOL    HW128403   2.807   1.880   7.558 -4.3637 -0.0441 -3.2558
 5648SOL    HW228404   2.885   1.750   7.597  2.2228 -0.2292 -1.5884
 5649SOL     OW28405   3.254   1.679   3.086 -0.2149  0.5110 -0.4658
 5649SOL    HW128406   3.304   1.627   3.023  0.0504  1.9542 -1.4582
 5649SOL    HW228407   3.194   1.732   3.034  0.7632  0.5905 -1.5260
 5650SOL     OW28408   1.507   1.888  15.858 -0.2074  0.5221 -0.1277
 5650SOL    HW128409   1.427   1.939  15.865 -1.4152 -1.2811 -0.9493
 5650SOL    HW228410   1.571   1.933  15.913  1.0719 -1.3755 -0.0398
 5651SOL     OW28411   2.744   3.947   0.504  0.3134  0.0743  0.2070
 5651SOL    HW128412   2.823   3.975   0.458 -0.8702  1.2070 -1.1716
 5651SOL    HW228413   2.678   3.993   0.451 -0.4736  0.0189  1.1469
 5652SOL     OW28414   3.486   0.316   4.891  0.1454 -0.4137 -0.8492
 5652SOL    HW128415   3.456   0.261   4.819  0.7326 -1.0572 -0.6067
 5652SOL    HW228416   3.579   0.294   4.883  0.1695 -0.2873 -0.9100
 5653SOL     OW28417   1.645   3.571   5.605  0.3132  0.0444  0.2525
 5653SOL    HW128418   1.601   3.489   5.629 -0.7474  0.0667 -1.6290
 5653SOL    HW228419   1.674   3.606   5.689  0.1127  0.2139  0.2506
 5654SOL     OW28420   0.604   0.803  10.608  0.0232  0.2687 -0.0818
 5654SOL    HW128421   0.681   0.779  10.661 -0.5289 -0.0026  0.6010
 5654SOL    HW228422   0.641   0.785  10.522  2.2643  3.6045  0.1921
 5655SOL     OW28423   2.050   3.278   5.071  0.4619  0.1570 -0.0438
 5655SOL    HW128424   2.018   3.303   5.157 -1.2292 -1.0985 -0.2952
 5655SOL    HW228425   2.028   3.185   5.082 -0.0269  0.1580 -0.9813
 5656SOL     OW28426   4.585   4.426   6.276  0.5452 -0.2750 -0.3686
 5656SOL    HW128427   4.527   4.466   6.341  1.4243 -0.2176  0.3722
 5656SOL    HW228428   4.619   4.351   6.324 -1.9999 -2.1930 -1.5891
 5657SOL     OW28429   1.717   0.157  11.286 -0.7458  0.1662 -0.3850
 5657SOL    HW128430   1.636   0.187  11.326 -1.2462  2.5248 -3.1800
 5657SOL    HW228431   1.735   0.104  11.364  1.0454 -0.5552 -1.2809
 5658SOL     OW28432   3.218   0.400  12.075  1.1588  0.1023 -0.0844
 5658SOL    HW128433   3.170   0.360  12.003 -0.2893  0.8144  0.4885
 5658SOL    HW228434   3.154   0.446  12.129 -1.3113 -1.0838 -2.0266
 5659SOL     OW28435   4.078   3.741  15.117 -0.0052 -0.0215 -0.2647
 5659SOL    HW128436   4.145   3.694  15.168 -0.6427  1.2996  1.7500
 5659SOL    HW228437   4.010   3.674  15.111 -0.8845  1.0026 -1.5670
 5660SOL     OW28438   0.582   4.137   9.756 -0.5299  0.3499  0.2723
 5660SOL    HW128439   0.593   4.045   9.731  0.4707  1.1324 -2.0637
 5660SOL    HW228440   0.635   4.134   9.836  0.1345  2.1605 -0.0931
 5661SOL     OW28441   3.773   1.248  16.410 -0.4543  0.1355 -0.1880
 5661SOL    HW128442   3.718   1.324  16.430  0.3680  1.0996 -1.5744
 5661SOL    HW228443   3.808   1.225  16.496  1.9827  1.1152 -0.9213
 5662SOL     OW28444   3.188   4.578   4.945  0.0504  0.7640 -0.6197
 5662SOL    HW128445   3.269   4.549   4.903 -0.2151  1.1168 -1.3683
 5662SOL    HW228446   3.139   4.495   4.946  1.4094 -0.0476 -1.1596
 5663SOL     OW28447   2.238   4.351  12.253  0.1468 -0.8528 -0.0842
 5663SOL    HW128448   2.189   4.433  12.247  1.0084 -0.3718 -0.3599
 5663SOL    HW228449   2.330   4.372  12.268 -0.1411 -0.8133  1.7257
 5664SOL     OW28450   3.096   4.165  17.450  0.1400  0.5035  0.0811
 5664SOL    HW128451   3.084   4.239  17.391 -1.1891 -0.1098 -0.4280
 5664SOL    HW228452   3.112   4.209  17.533  1.7070 -0.5459  0.3357
 5665SOL     OW28453   0.688   2.190   6.029  0.1346 -0.2667  0.1311
 5665SOL    HW128454   0.668   2.253   6.099 -0.1311  1.0480 -1.1352
 5665SOL    HW228455   0.769   2.143   6.048 -0.6671 -1.1711  1.3750
 5666SOL     OW28456   0.415   4.189   4.126 -0.3963  0.2395  0.5358
 5666SOL    HW128457   0.443   4.160   4.039  0.6801 -0.0746  0.9900
 5666SOL    HW228458   0.504   4.214   4.150  1.2497 -3.0715 -2.0556
 5667SOL     OW28459   1.920   3.854   3.335  0.0737  0.0519  0.0179
 5667SOL    HW128460   1.993   3.901   3.296 -0.0313  0.1076 -0.1136
 5667SOL    HW228461   1.895   3.918   3.401  2.2208  1.1504 -0.2400
 5668SOL     OW28462   3.259   2.180   3.024 -0.2366 -0.3201  0.6843
 5668SOL    HW128463   3.191   2.131   3.070  0.8564 -0.2205  2.4061
 5668SOL    HW228464   3.309   2.100   3.006  0.8530  0.8876 -1.6445
 5669SOL     OW28465   3.789   4.567  15.771 -0.5082  0.1451 -0.1704
 5669SOL    HW128466   3.786   4.512  15.693  0.3740  0.3307 -0.3393
 5669SOL    HW228467   3.877   4.543  15.798 -0.9986 -1.9317 -0.4198
 5670SOL     OW28468   1.139   1.323   8.045 -0.2148  0.0465 -0.3423
 5670SOL    HW128469   1.045   1.302   8.046 -0.5112  1.4080  0.8566
 5670SOL    HW228470   1.152   1.392   8.110  1.8426  1.5058 -2.2998
 5671SOL     OW28471   0.951   1.273   9.131  0.5019 -0.4920  0.0429
 5671SOL    HW128472   0.882   1.316   9.081 -1.2138 -2.7670  0.4609
 5671SOL    HW228473   0.907   1.195   9.164 -1.5119  1.6018  2.2943
 5672SOL     OW28474   0.378   1.538   2.554  0.1594  0.3140  0.4438
 5672SOL    HW128475   0.416   1.514   2.469 -2.3784 -0.6018 -0.4126
 5672SOL    HW228476   0.289   1.566   2.533  1.2903  3.2278 -0.4365
 5673SOL     OW28477   3.254   4.469   4.279 -0.2996 -0.1463  0.0242
 5673SOL    HW128478   3.317   4.406   4.314  0.6716 -0.5330 -2.4390
 5673SOL    HW228479   3.316   4.539   4.257  2.0476 -2.9536 -2.2032
 5674SOL     OW28480   0.143   4.643   7.250  0.4351 -0.5313 -0.2231
 5674SOL    HW128481   0.128   0.008   7.219 -0.6897 -0.6619 -0.0728
 5674SOL    HW228482   0.152   4.652   7.345 -1.9106 -0.3086 -0.0252
 5675SOL     OW28483   0.482   1.126   1.722 -0.1887  0.0539  0.1986
 5675SOL    HW128484   0.546   1.057   1.705  0.1589 -0.2573  2.7336
 5675SOL    HW228485   0.414   1.088   1.668  1.2934  0.3533 -1.8605
 5676SOL     OW28486   1.401   1.297   7.745 -0.4730 -0.3142 -0.6636
 5676SOL    HW128487   1.397   1.305   7.840 -0.2267  3.0043 -0.9276
 5676SOL    HW228488   1.309   1.283   7.723 -1.0053 -0.1455  1.5194
 5677SOL     OW28489   2.350   0.979   3.888  0.6271 -1.0812 -0.5269
 5677SOL    HW128490   2.318   1.030   3.815  0.6725 -1.4211 -0.7863
 5677SOL    HW228491   2.438   0.958   3.856  0.2145 -1.7142 -1.2563
 5678SOL     OW28492   2.563   1.348   0.359  0.0302  0.2704  0.2476
 5678SOL    HW128493   2.588   1.270   0.409  1.7139 -0.2609 -1.4466
 5678SOL    HW228494   2.496   1.314   0.299 -1.0964  0.2524  1.5119
 5679SOL     OW28495   4.693   2.567  15.261 -0.2410 -0.2269 -0.2899
 5679SOL    HW128496   4.632   2.564  15.187  0.0268 -1.0029 -0.4736
 5679SOL    HW228497   4.628   2.561  15.331 -0.4309 -4.3114 -0.8567
 5680SOL     OW28498   1.014   0.150  14.847 -0.4732 -0.1467  0.0368
 5680SOL    HW128499   1.027   0.237  14.885 -0.9298 -0.4816  0.9818
 5680SOL    HW228500   1.095   0.137  14.799 -0.1045  0.4219  0.4984
 5681SOL     OW28501   1.960   2.554  16.092  0.0600 -0.0501 -0.0920
 5681SOL    HW128502   1.881   2.569  16.144  0.2101 -0.7507  0.3289
 5681SOL    HW228503   2.023   2.612  16.135 -0.3735  1.7113 -1.8034
 5682SOL     OW28504   0.740   3.344   6.315  0.1067  0.2416  0.7119
 5682SOL    HW128505   0.798   3.273   6.287  1.7833  1.1911  1.7733
 5682SOL    HW228506   0.660   3.298   6.291  0.0328 -0.3967  2.2040
 5683SOL     OW28507   1.943   3.305   8.876 -0.7166 -0.5090 -0.2201
 5683SOL    HW128508   1.943   3.400   8.881  0.5400 -0.3744 -2.6395
 5683SOL    HW228509   2.023   3.278   8.921 -1.4727  0.9470  1.9324
 5684SOL     OW28510   4.718   2.898   9.181 -0.5131  0.5008 -0.1076
 5684SOL    HW128511   4.696   2.916   9.272 -0.0411  1.2671 -0.1435
 5684SOL    HW228512   4.684   2.972   9.130 -1.2959  0.5237  0.4520
 5685SOL     OW28513   2.308   2.501   9.026 -0.1092  0.5203 -0.1900
 5685SOL    HW128514   2.340   2.518   9.115 -2.3451  1.2133  0.4872
 5685SOL    HW228515   2.237   2.564   9.014  1.5236  2.2334 -0.8551
 5686SOL     OW28516   3.694   4.565  17.596 -0.1371  0.0859 -0.6847
 5686SOL    HW128517   3.769   4.506  17.590 -1.0101 -1.2252  1.3565
 5686SOL    HW228518   3.680   4.603  17.509  2.4056  0.6073 -0.8939
 5687SOL     OW28519   2.842   0.991   3.844 -1.0833 -0.2319  0.6739
 5687SOL    HW128520   2.882   1.063   3.795 -1.2412  0.7720  2.0119
 5687SOL    HW228521   2.806   0.940   3.771  2.0131 -1.7702  0.2252
 5688SOL     OW28522   0.281   3.047  11.787 -0.1107  0.0730  0.4417
 5688SOL    HW128523   0.325   3.044  11.702 -2.3118 -2.9168 -0.6105
 5688SOL    HW228524   0.308   3.135  11.813 -0.8196  0.1880  0.8083
 5689SOL     OW28525   0.193   1.159   0.651  0.0604 -0.2087 -0.5524
 5689SOL    HW128526   0.202   1.221   0.723  1.3717 -0.2214 -0.7035
 5689SOL    HW228527   0.163   1.210   0.576  1.3374  0.2515 -0.7307
 5690SOL     OW28528   2.038   4.627   6.456 -0.0882  0.0731 -0.0990
 5690SOL    HW128529   1.956   4.654   6.498 -0.9747 -0.6991 -1.3264
 5690SOL    HW228530   2.008   4.619   6.365 -0.0031  2.1013 -0.3228
 5691SOL     OW28531   1.098   0.169   6.033 -0.0824  0.4102 -0.2084
 5691SOL    HW128532   1.134   0.249   5.994 -0.8377  0.3103 -1.1050
 5691SOL    HW228533   1.125   0.185   6.123 -2.2974  2.7334  0.0568
 5692SOL     OW28534   4.324   3.442   9.211 -0.2901  0.0295 -0.4745
 5692SOL    HW128535   4.297   3.429   9.120 -2.9501  0.9585  0.1663
 5692SOL    HW228536   4.234   3.463   9.235  0.9232  2.5678  1.8442
 5693SOL     OW28537   3.730   3.855  16.630 -0.9841 -0.0850  0.3312
 5693SOL    HW128538   3.636   3.867  16.641 -0.9449  0.9182 -0.4161
 5693SOL    HW228539   3.766   3.884  16.713 -0.0862  0.9449 -0.4258
 5694SOL     OW28540   1.868   3.374  13.834  0.6845  0.0688 -0.0804
 5694SOL    HW128541   1.900   3.381  13.744 -3.2918  0.8842 -1.4539
 5694SOL    HW228542   1.861   3.462  13.873  0.5778 -0.4758  1.1335
 5695SOL     OW28543   4.691   1.608   0.246 -0.3232 -0.4438  0.6727
 5695SOL    HW128544   0.008   1.641   0.166  0.1230 -2.1604  0.1951
 5695SOL    HW228545   0.028   1.613   0.319  0.2654 -0.5445  0.1874
 5696SOL     OW28546   2.609   2.245   3.551  0.2119 -0.6877  0.0277
 5696SOL    HW128547   2.589   2.221   3.641 -1.9405  3.1675  0.5713
 5696SOL    HW228548   2.701   2.218   3.547 -0.4212 -2.5314 -1.8414
 5697SOL     OW28549   3.173   2.781   3.094 -0.2109 -0.5185  0.1384
 5697SOL    HW128550   3.146   2.815   3.179 -1.2425  0.1923 -0.4730
 5697SOL    HW228551   3.203   2.691   3.103 -0.6766 -0.5861  0.9659
 5698SOL     OW28552   2.726   3.952  16.498  0.4685 -0.2295  0.4440
 5698SOL    HW128553   2.786   3.969  16.571 -0.6461 -0.9714  1.5361
 5698SOL    HW228554   2.673   3.885  16.542 -0.7836  0.8796  0.6314
 5699SOL     OW28555   2.922   4.678   3.449 -0.0567 -0.3661 -0.3938
 5699SOL    HW128556   2.871   4.612   3.496  1.2111 -0.6960  0.5184
 5699SOL    HW228557   2.856   0.003   3.400 -0.2538 -0.5383 -0.3009
 5700SOL     OW28558   3.929   1.784   6.928 -0.0104 -0.4548 -0.0104
 5700SOL    HW128559   3.992   1.822   6.866 -0.7131 -0.3570 -0.6655
 5700SOL    HW228560   3.891   1.860   6.972 -2.7633 -2.1336  0.5275
 5701SOL     OW28561   4.597   1.505  16.314  0.2039  0.0115 -0.3980
 5701SOL    HW128562   4.595   1.526  16.407 -2.3395 -2.2116  0.0159
 5701SOL    HW228563   4.532   1.436  16.314  1.1905 -0.9087  1.3525
 5702SOL     OW28564   2.824   2.400   8.892  0.3268 -0.1123 -0.1344
 5702SOL    HW128565   2.756   2.467   8.878 -0.8510 -1.1251  0.7221
 5702SOL    HW228566   2.831   2.347   8.813 -0.0693  1.5131 -1.2751
 5703SOL     OW28567   2.007   3.525   5.793  0.1384  0.4777  0.2920
 5703SOL    HW128568   2.027   3.595   5.855  1.6449  0.2658  0.0539
 5703SOL    HW228569   2.058   3.546   5.714 -0.9532  1.0508 -0.2587
 5704SOL     OW28570   4.636   0.583   3.810  0.5529  0.2818 -0.0092
 5704SOL    HW128571   4.695   0.516   3.775  0.4761 -0.4690  1.3087
 5704SOL    HW228572   4.555   0.549   3.773  1.6984 -0.7777 -1.6171
 5705SOL     OW28573   1.432   4.352   6.255  0.1522  0.3244 -0.2384
 5705SOL    HW128574   1.462   4.283   6.313  0.0542 -0.5820 -1.2617
 5705SOL    HW228575   1.392   4.424   6.304 -0.6966 -0.0409 -0.3913
 5706SOL     OW28576   4.233   3.475  10.112  0.6236 -0.0812 -0.2059
 5706SOL    HW128577   4.269   3.550  10.063 -0.1673 -0.9794 -2.1876
 5706SOL    HW228578   4.310   3.436  10.153  0.6248 -1.5305 -1.5725
 5707SOL     OW28579   2.817   0.018  10.183  0.0985  0.1998 -0.9692
 5707SOL    HW128580   2.764   4.663  10.187  1.9744 -1.0278 -0.0749
 5707SOL    HW228581   2.900   4.694  10.174 -0.6392 -0.7811 -2.6709
 5708SOL     OW28582   4.640   4.196   4.334 -0.0313 -0.3565 -0.2202
 5708SOL    HW128583   4.700   4.129   4.301 -0.1552 -0.3564 -0.4449
 5708SOL    HW228584   4.674   4.206   4.423  1.1407 -0.4768 -0.6558
 5709SOL     OW28585   0.974   2.278   5.161  0.0945  0.3059  0.2509
 5709SOL    HW128586   0.954   2.192   5.125  3.4791 -0.4712  0.2413
 5709SOL    HW228587   1.056   2.260   5.208 -0.0099  0.6894  0.5899
 5710SOL     OW28588   3.755   1.359   2.463  0.1998 -0.0734  0.0244
 5710SOL    HW128589   3.673   1.313   2.446  0.0369 -0.1464  0.9996
 5710SOL    HW228590   3.761   1.383   2.371 -0.9824 -4.8618 -1.2683
 5711SOL     OW28591   4.419   2.195   0.070  0.9200  0.5891  0.0329
 5711SOL    HW128592   4.469   2.249   0.132 -0.7752  2.4514 -0.2400
 5711SOL    HW228593   4.485   2.125   0.073 -1.1702 -1.3067  1.7864
 5712SOL     OW28594   3.706   3.555  12.995  0.0051  0.7143 -0.6742
 5712SOL    HW128595   3.630   3.613  13.007 -2.0239 -2.0468 -0.1492
 5712SOL    HW228596   3.674   3.493  12.930 -1.8685 -2.5921  3.4070
 5713SOL     OW28597   1.672   4.682   9.999 -0.7146 -0.1733  0.0896
 5713SOL    HW128598   1.711   4.612  10.052 -2.0455 -2.1009 -1.4864
 5713SOL    HW228599   1.667   0.034  10.056 -1.9182  0.4511 -0.8562
 5714SOL     OW28600   1.068   3.432   9.044  0.0086 -0.0862 -0.4577
 5714SOL    HW128601   1.032   3.428   9.133 -0.7987 -4.2131 -0.9671
 5714SOL    HW228602   1.026   3.514   9.017 -1.5865 -0.7973 -0.1749
 5715SOL     OW28603   3.421   4.066  10.221 -0.3567 -0.1860 -0.2536
 5715SOL    HW128604   3.480   4.135  10.190 -0.2352  0.0740  0.5324
 5715SOL    HW228605   3.480   3.991  10.215  1.4170  1.2597 -0.8985
 5716SOL     OW28606   3.213   2.138   5.707  0.2272  0.3757 -0.2521
 5716SOL    HW128607   3.205   2.114   5.615 -0.6302  3.1323 -0.8835
 5716SOL    HW228608   3.148   2.208   5.705 -0.3118 -0.1504 -1.0896
 5717SOL     OW28609   4.399   3.541   5.800 -0.0419 -0.3897  0.8894
 5717SOL    HW128610   4.421   3.633   5.813  0.4068 -0.7541  2.7218
 5717SOL    HW228611   4.486   3.509   5.824 -0.1440 -0.5968  0.9801
 5718SOL     OW28612   2.308   2.889   3.648  0.2161  0.4316 -0.3895
 5718SOL    HW128613   2.311   2.850   3.560  0.2076  0.0135 -0.2060
 5718SOL    HW228614   2.345   2.977   3.639 -0.7477  0.7383 -1.4310
 5719SOL     OW28615   1.952   1.456   9.119  0.2707  0.5861  0.2466
 5719SOL    HW128616   1.870   1.426   9.157 -1.3322  0.3607 -3.4189
 5719SOL    HW228617   1.957   1.546   9.149 -2.3320  0.7502  0.1870
 5720SOL     OW28618   2.588   0.498   2.931 -0.1883 -0.6015  0.0870
 5720SOL    HW128619   2.533   0.480   2.855 -1.1744 -1.2154  0.9502
 5720SOL    HW228620   2.633   0.579   2.906 -0.1629 -0.9437 -0.9502
 5721SOL     OW28621   2.461   2.484   5.837  0.5340 -0.1629  0.4514
 5721SOL    HW128622   2.486   2.553   5.775 -2.9512 -0.6054 -1.4713
 5721SOL    HW228623   2.544   2.469   5.880 -0.1889 -0.4081  1.7573
 5722SOL     OW28624   2.292   0.853  12.034 -0.5281 -0.4598 -0.0882
 5722SOL    HW128625   2.223   0.916  12.054  0.2508  0.6366 -0.8223
 5722SOL    HW228626   2.258   0.816  11.953  2.3595 -2.2095 -0.4866
 5723SOL     OW28627   3.818   2.904   6.959 -0.0573 -0.1082 -0.0361
 5723SOL    HW128628   3.834   2.920   6.866  2.5824 -0.2462  0.3749
 5723SOL    HW228629   3.862   2.820   6.974  0.7765  0.6072  1.5698
 5724SOL     OW28630   2.067   0.879   5.448 -0.0493  0.7299 -0.4322
 5724SOL    HW128631   2.037   0.960   5.406 -0.1165  0.2013 -1.3980
 5724SOL    HW228632   2.152   0.869   5.406 -0.4394  2.1286 -1.5825
 5725SOL     OW28633   0.188   1.268   6.029 -0.1219 -0.2169 -0.5219
 5725SOL    HW128634   0.097   1.284   6.056 -0.7051 -0.1354 -2.5445
 5725SOL    HW228635   0.216   1.348   5.986 -1.0495  0.0087 -0.7170
 5726SOL     OW28636   0.322   2.087   0.799  0.2041 -0.2170 -0.3129
 5726SOL    HW128637   0.253   2.075   0.734  0.1891  1.4138 -0.6125
 5726SOL    HW228638   0.307   2.180   0.820  2.5643 -0.1800  1.2066
 5727SOL     OW28639   4.312   2.546   2.762  0.5249  0.0091 -0.6473
 5727SOL    HW128640   4.291   2.465   2.716  0.4705  0.2549 -1.0583
 5727SOL    HW228641   4.361   2.587   2.691 -1.8508 -0.6131 -2.6469
 5728SOL     OW28642   4.143   3.731   3.983  0.5913 -0.1979  0.4016
 5728SOL    HW128643   4.152   3.724   4.078 -2.3794 -0.5235  0.6548
 5728SOL    HW228644   4.142   3.823   3.957  1.7094 -0.5238 -0.7800
 5729SOL     OW28645   3.598   3.961   2.860 -0.0436 -0.4523 -0.0595
 5729SOL    HW128646   3.607   4.042   2.809  0.4448  0.7149  1.9049
 5729SOL    HW228647   3.653   3.978   2.936 -0.4860  1.7154 -0.2228
 5730SOL     OW28648   1.553   3.931   5.273  0.2841  0.1041  0.3858
 5730SOL    HW128649   1.519   3.963   5.190 -0.9005 -1.1255  0.3891
 5730SOL    HW228650   1.519   3.842   5.274  1.3398 -0.3243 -2.3578
 5731SOL     OW28651   2.222   2.082  10.609  0.3488 -0.0488  0.0829
 5731SOL    HW128652   2.129   2.076  10.591  0.5062  0.5068 -0.8859
 5731SOL    HW228653   2.251   2.166  10.573 -2.8461  1.5553  1.3374
 5732SOL     OW28654   0.238   0.002   9.752 -0.0724 -0.0584 -0.4420
 5732SOL    HW128655   0.315   0.056   9.739  0.0021 -0.0273  0.1257
 5732SOL    HW228656   0.272   4.636   9.749  0.4929  0.1197  0.6413
 5733SOL     OW28657   0.785   1.167   4.285  0.1099  0.1837 -0.3235
 5733SOL    HW128658   0.828   1.232   4.230  0.0274  1.0412  0.6483
 5733SOL    HW228659   0.701   1.159   4.238 -2.0930 -2.3469  4.0243
 5734SOL     OW28660   1.768   3.747   4.907  0.1947 -0.3724  0.0898
 5734SOL    HW128661   1.785   3.828   4.956 -1.5667  0.9751 -1.5205
 5734SOL    HW228662   1.804   3.679   4.963  0.9117  2.3219  2.9232
 5735SOL     OW28663   1.500   2.650   7.233 -0.2785  0.4903  0.7964
 5735SOL    HW128664   1.413   2.672   7.267  0.2756  0.5512  2.2056
 5735SOL    HW228665   1.467   2.615   7.151  0.4213 -0.9765  1.1530
 5736SOL     OW28666   3.181   2.338  11.262 -0.5937  0.2048  0.6421
 5736SOL    HW128667   3.123   2.384  11.201 -1.6024 -1.6073  0.2159
 5736SOL    HW228668   3.219   2.417  11.298  0.1491 -0.7360  1.9030
 5737SOL     OW28669   2.482   2.024   8.359  0.5377  0.0562  0.8029
 5737SOL    HW128670   2.470   2.065   8.445  1.6990  1.8579  0.0943
 5737SOL    HW228671   2.427   2.081   8.306 -2.2435 -2.0652  1.3756
 5738SOL     OW28672   2.465   0.288   4.381 -0.1246 -0.4101  0.8634
 5738SOL    HW128673   2.560   0.275   4.384  0.0719  1.2667  1.8678
 5738SOL    HW228674   2.474   0.366   4.436  2.0519  0.2809 -0.4253
 5739SOL     OW28675   1.556   3.784   9.753 -0.0684  0.4466 -0.2427
 5739SOL    HW128676   1.593   3.814   9.836 -1.6775 -0.7053  0.9040
 5739SOL    HW228677   1.462   3.801   9.764  0.2166  0.5311  2.1175
 5740SOL     OW28678   1.162   2.139  17.667 -0.2452  0.3633 -0.7221
 5740SOL    HW128679   1.175   2.048  17.641  1.8979  0.2140  0.7996
 5740SOL    HW228680   1.134   2.121   0.059  0.7470  2.0998 -0.0688
 5741SOL     OW28681   4.086   2.870   6.008 -0.5297 -0.0276  0.7993
 5741SOL    HW128682   3.998   2.906   6.008 -1.8038 -3.1723  1.1604
 5741SOL    HW228683   4.060   2.783   6.040 -0.2781 -0.0925  0.8313
 5742SOL     OW28684   2.367   4.500  15.547 -0.1480 -0.2152  0.2399
 5742SOL    HW128685   2.396   4.562  15.613 -2.4219 -1.3023  2.2587
 5742SOL    HW228686   2.354   4.416  15.591 -3.0518 -0.1139 -0.4406
 5743SOL     OW28687   4.708   0.321  17.089 -0.3040 -0.3590  0.1249
 5743SOL    HW128688   4.714   0.378  17.166 -0.1633 -0.0881 -0.0857
 5743SOL    HW228689   4.637   0.263  17.114 -1.2255 -0.6077 -3.1235
 5744SOL     OW28690   2.461   4.372  13.693 -0.0713  0.2831 -0.3985
 5744SOL    HW128691   2.425   4.340  13.775  1.1953 -1.1082 -0.3811
 5744SOL    HW228692   2.489   4.283  13.669  2.1859  0.5965  1.1235
 5745SOL     OW28693   0.989   3.430   4.582 -0.0541 -0.0901  0.2162
 5745SOL    HW128694   0.918   3.459   4.640  1.0539 -0.7049  1.8842
 5745SOL    HW228695   0.949   3.435   4.495  2.5761 -1.2856 -1.0485
 5746SOL     OW28696   1.154   0.817  16.690  0.2056  0.2803 -0.4779
 5746SOL    HW128697   1.063   0.818  16.720  0.1238  0.3519 -0.7316
 5746SOL    HW228698   1.197   0.895  16.724 -0.1183 -0.1842  1.0169
 5747SOL     OW28699   2.245   2.566   6.126  0.2928  0.3350 -0.1734
 5747SOL    HW128700   2.268   2.638   6.068  0.5107  0.4474  0.0525
 5747SOL    HW228701   2.230   2.498   6.060  0.1434 -0.3327  0.5400
 5748SOL     OW28702   2.598   2.614   8.042 -0.0142 -0.7266 -0.3801
 5748SOL    HW128703   2.596   2.529   8.086 -1.8826 -1.6841 -2.3298
 5748SOL    HW228704   2.553   2.600   7.959  1.2207 -0.9174 -1.0184
 5749SOL     OW28705   4.497   1.317   2.839  0.2967 -0.0249 -0.2061
 5749SOL    HW128706   4.577   1.265   2.845  0.7697  0.5860 -1.2774
 5749SOL    HW228707   4.433   1.247   2.826  3.2518 -2.8440  0.5284
 5750SOL     OW28708   3.369   3.459   0.011 -0.1250  0.0541  0.1233
 5750SOL    HW128709   3.377   3.535  17.651 -0.4919  0.4264  0.5571
 5750SOL    HW228710   3.343   3.394  17.644  1.0626 -0.5491  0.2465
 5751SOL     OW28711   3.880   1.176  10.829  0.3609 -0.4480  0.1600
 5751SOL    HW128712   3.926   1.249  10.786  0.8827 -1.8263 -1.6205
 5751SOL    HW228713   3.950   1.112  10.835 -0.4526 -1.4386 -0.9140
 5752SOL     OW28714   2.088   3.788   0.157  0.6563 -0.1506  0.0792
 5752SOL    HW128715   2.028   3.849   0.114 -0.4946 -1.3197  0.0207
 5752SOL    HW228716   2.026   3.741   0.212  2.0364 -0.0822  1.6967
 5753SOL     OW28717   0.333   4.636   0.039  0.1825  0.4967 -0.4852
 5753SOL    HW128718   0.364   4.701   0.102  0.1376 -0.7157  0.7813
 5753SOL    HW228719   0.381   4.562   0.077  0.1512  0.5328 -0.3755
 5754SOL     OW28720   1.254   3.344  16.722 -0.8976  0.2616  0.3372
 5754SOL    HW128721   1.193   3.412  16.692 -2.0734 -1.0654 -0.2902
 5754SOL    HW228722   1.321   3.405  16.752  1.1859 -0.7600 -2.3169
 5755SOL     OW28723   0.120   0.538   3.050  0.2164  0.1285 -0.1298
 5755SOL    HW128724   0.065   0.613   3.072  1.8675  0.8298  1.5782
 5755SOL    HW228725   0.065   0.498   2.982 -0.2897 -0.4709  0.6279
 5756SOL     OW28726   4.582   1.224   4.754 -0.6584 -0.0829  0.0363
 5756SOL    HW128727   4.626   1.182   4.680  2.5609  1.5342  1.0246
 5756SOL    HW228728   4.498   1.187   4.727 -0.1327 -1.0383 -0.2954
 5757SOL     OW28729   4.221   4.386   8.191 -0.7964  0.1445 -0.4908
 5757SOL    HW128730   4.219   4.341   8.276 -1.5215 -0.9592 -1.1035
 5757SOL    HW228731   4.310   4.420   8.200 -0.6842 -0.2871  0.0557
 5758SOL     OW28732   2.942   2.528  17.215  0.2552 -0.0313 -0.2299
 5758SOL    HW128733   2.869   2.470  17.193  0.4274 -0.5141  0.4569
 5758SOL    HW228734   2.988   2.450  17.247  0.0529  0.1597  0.5243
 5759SOL     OW28735   3.557   0.870  12.357  0.0048  0.3097 -0.3362
 5759SOL    HW128736   3.544   0.783  12.393  0.3231  0.1820 -0.5284
 5759SOL    HW228737   3.642   0.892  12.395  0.3998 -0.2229 -0.9036
 5760SOL     OW28738   3.160   4.252   0.030  0.3366  0.3575 -0.0280
 5760SOL    HW128739   3.191   4.342   0.017 -1.9348  1.0321 -0.6908
 5760SOL    HW228740   3.076   4.273   0.070  1.5687  1.6180  1.8963
 5761SOL     OW28741   2.289   2.019   3.096  0.0557  0.4321 -0.2701
 5761SOL    HW128742   2.301   1.991   3.187  1.4389  2.1254  0.0737
 5761SOL    HW228743   2.291   1.933   3.054 -0.9695  0.4901 -0.4414
 5762SOL     OW28744   4.284   2.445   6.417 -0.2869  0.5623 -0.0443
 5762SOL    HW128745   4.229   2.373   6.387  2.7620 -1.9191  0.3697
 5762SOL    HW228746   4.278   2.504   6.342 -4.0360 -0.1948 -0.3539
 5763SOL     OW28747   1.756   0.074   9.650 -0.6862 -0.3176 -0.4698
 5763SOL    HW128748   1.754   0.125   9.569 -3.2572  0.5069  0.1171
 5763SOL    HW228749   1.839   0.096   9.693 -1.4000  1.7067 -0.1341
 5764SOL     OW28750   3.577   4.380   8.774  0.1578 -0.0764 -0.2343
 5764SOL    HW128751   3.626   4.458   8.801 -0.6528 -0.2256  1.7058
 5764SOL    HW228752   3.600   4.372   8.682  1.2810 -0.3808  0.0637
 5765SOL     OW28753   0.993   0.246   7.443 -0.0012 -0.5408 -0.2197
 5765SOL    HW128754   1.045   0.303   7.499 -3.1191  1.8655  0.2583
 5765SOL    HW228755   1.058   0.223   7.377  0.7220  1.9021 -0.3400
 5766SOL     OW28756   1.348   4.365  10.609  0.3819  0.4184 -0.0998
 5766SOL    HW128757   1.331   4.393  10.519  0.4117  0.1484 -0.1897
 5766SOL    HW228758   1.265   4.372  10.655  1.3855  1.5175  1.5483
 5767SOL     OW28759   2.327   1.596   1.921  0.3916 -0.1879 -0.3046
 5767SOL    HW128760   2.287   1.683   1.932  1.8325  0.3981  0.2388
 5767SOL    HW228761   2.405   1.608   1.974 -0.2184  0.5577  0.4258
 5768SOL     OW28762   2.806   4.066  17.439 -0.0492  0.0880  0.1555
 5768SOL    HW128763   2.867   4.130  17.402  0.6945 -1.4663 -1.2902
 5768SOL    HW228764   2.722   4.111  17.439  0.8295  1.7308 -0.3388
 5769SOL     OW28765   4.621   3.398  11.076  0.1353 -0.3414 -0.0407
 5769SOL    HW128766   4.629   3.306  11.050 -0.8609 -0.8591  1.5402
 5769SOL    HW228767   4.527   3.409  11.071  0.2729  0.2558 -1.3995
 5770SOL     OW28768   1.226   0.110   2.779 -0.1771  0.3528 -0.5323
 5770SOL    HW128769   1.244   0.016   2.779 -0.2290  0.3520  1.3452
 5770SOL    HW228770   1.138   0.117   2.816  1.3863  0.6618  3.0811
 5771SOL     OW28771   3.332   0.448  13.680  0.5893 -0.7109 -0.4652
 5771SOL    HW128772   3.283   0.524  13.710 -0.1648 -2.1161  1.8711
 5771SOL    HW228773   3.261   0.392  13.648 -1.9019  1.4486  1.3295
 5772SOL     OW28774   4.087   3.523   4.597 -0.9204 -0.3885 -0.3846
 5772SOL    HW128775   4.027   3.495   4.528  1.2832 -0.8184 -2.1601
 5772SOL    HW228776   4.154   3.455   4.585 -0.1788 -0.0561  1.9030
 5773SOL     OW28777   2.884   0.030   0.514 -0.5316 -0.0010  0.4903
 5773SOL    HW128778   2.809   4.696   0.503 -1.9309  2.2331 -1.7613
 5773SOL    HW228779   2.855   0.078   0.591  2.9649  1.5900  0.8130
 5774SOL     OW28780   0.569   1.487   7.659  0.2617 -0.6366  0.5461
 5774SOL    HW128781   0.570   1.392   7.669  1.7740 -0.6499  0.1872
 5774SOL    HW228782   0.531   1.520   7.741 -0.9570 -0.2675 -0.1706
 5775SOL     OW28783   2.766   4.405   8.107  0.2229  0.0857 -0.1913
 5775SOL    HW128784   2.796   4.443   8.024  1.2874 -0.3563 -0.0039
 5775SOL    HW228785   2.839   4.344   8.122  0.1640  0.0585 -0.0116
 5776SOL     OW28786   3.073   1.173   8.603  0.3540  0.1699  0.3283
 5776SOL    HW128787   3.004   1.181   8.670 -0.7041 -1.5193 -0.5422
 5776SOL    HW228788   3.113   1.090   8.629  1.4655  0.4456 -0.5568
 5777SOL     OW28789   0.668   0.442  12.111 -0.0266  1.0917  0.0497
 5777SOL    HW128790   0.575   0.462  12.100 -0.5946 -1.1947  0.7284
 5777SOL    HW228791   0.660   0.351  12.082  0.5847  0.6133  1.3774
 5778SOL     OW28792   4.709   4.334   2.482  0.0257  0.2254 -0.0982
 5778SOL    HW128793   4.641   4.372   2.427  1.0597  0.3910 -1.2543
 5778SOL    HW228794   4.665   4.356   2.564 -1.3592  0.0237 -0.7838
 5779SOL     OW28795   2.662   2.247   6.822 -0.0629 -0.0093 -0.3348
 5779SOL    HW128796   2.619   2.326   6.789 -0.3424  0.9416  2.2661
 5779SOL    HW228797   2.615   2.256   6.905  0.6215 -2.0268  0.2614
 5780SOL     OW28798   0.834   1.816  15.878  0.4779 -0.2910 -0.1024
 5780SOL    HW128799   0.851   1.730  15.916  0.8847  0.3766  1.2200
 5780SOL    HW228800   0.923   1.849  15.866  0.0398  1.1594  0.6714
 5781SOL     OW28801   4.211   2.855  15.673  0.5098  0.0642  0.4937
 5781SOL    HW128802   4.257   2.773  15.690 -1.0043 -0.8038  0.4456
 5781SOL    HW228803   4.284   2.893  15.624  0.6218 -3.9269 -2.5231
 5782SOL     OW28804   2.559   1.789   8.816 -0.8988 -0.0476 -0.0264
 5782SOL    HW128805   2.495   1.854   8.846  0.8054  0.6608  2.0816
 5782SOL    HW228806   2.646   1.828   8.808  0.4600 -2.8702  1.1498
 5783SOL     OW28807   1.523   0.075   9.771 -0.5993  0.0442  0.2093
 5783SOL    HW128808   1.560   0.063   9.859 -0.1497 -0.1529 -0.0027
 5783SOL    HW228809   1.600   0.055   9.717 -2.8311 -1.4164 -2.4698
 5784SOL     OW28810   1.273   0.776  11.335  0.5816  0.3121 -0.1424
 5784SOL    HW128811   1.324   0.822  11.269 -0.5204  2.3509  0.4151
 5784SOL    HW228812   1.298   0.834  11.407 -1.1062 -1.6057  2.0168
 5785SOL     OW28813   0.812   2.969   8.489 -0.0195 -0.1459 -0.2832
 5785SOL    HW128814   0.774   2.937   8.571 -0.3271 -0.0924 -0.4084
 5785SOL    HW228815   0.778   3.058   8.488 -2.9355 -1.2577  0.5654
 5786SOL     OW28816   3.073   2.069   4.198 -0.1172 -0.3320  0.3676
 5786SOL    HW128817   3.027   1.994   4.161 -0.2910 -0.1628  0.2380
 5786SOL    HW228818   3.165   2.055   4.178 -0.0697  1.3995 -0.7037
 5787SOL     OW28819   3.077   2.036  11.111 -0.1574 -0.1191 -0.1267
 5787SOL    HW128820   3.075   2.078  11.025  0.5355 -0.6957 -0.4264
 5787SOL    HW228821   3.013   1.966  11.099  1.2467 -1.4293 -0.0317
 5788SOL     OW28822   2.073   4.566  12.233 -0.2173  0.0980  0.0733
 5788SOL    HW128823   2.042   4.646  12.275 -0.7351  0.0896 -0.2966
 5788SOL    HW228824   2.072   4.594  12.141  1.6512 -2.6006 -0.7811
 5789SOL     OW28825   1.710   0.493   8.706 -0.1922 -0.2414  0.3399
 5789SOL    HW128826   1.722   0.400   8.727 -0.4147 -0.0824  1.1803
 5789SOL    HW228827   1.659   0.482   8.626  1.4792 -0.5636 -0.6781
 5790SOL     OW28828   0.756   4.302  14.899  0.0892 -0.1684 -0.1253
 5790SOL    HW128829   0.796   4.361  14.834 -0.2356 -0.7201 -0.8173
 5790SOL    HW228830   0.759   4.223  14.846 -0.6672 -1.4807  1.8162
 5791SOL     OW28831   4.097   3.778   0.339  0.4719 -0.6504 -0.0014
 5791SOL    HW128832   4.091   3.764   0.433  2.2395  3.0463  0.6671
 5791SOL    HW228833   4.191   3.788   0.323  0.6131 -2.7569 -0.5394
 5792SOL     OW28834   3.317   1.559   6.304  0.0713 -0.4274  0.8069
 5792SOL    HW128835   3.253   1.488   6.314 -0.5797  0.0291 -0.0659
 5792SOL    HW228836   3.293   1.587   6.216 -0.0385  0.1243  1.0141
 5793SOL     OW28837   0.410   0.580  12.057 -0.2614  0.1741  0.3053
 5793SOL    HW128838   0.404   0.551  11.966 -1.3221  0.2547  0.3475
 5793SOL    HW228839   0.324   0.560  12.096  0.3082 -0.9447  0.9921
 5794SOL     OW28840   4.320   1.818   3.287  0.3178 -0.5492 -0.4410
 5794SOL    HW128841   4.342   1.906   3.256 -0.3010 -1.4120 -3.3409
 5794SOL    HW228842   4.259   1.781   3.223 -0.5353  0.3022 -0.1262
 5795SOL     OW28843   3.242   2.272   8.683 -0.9088  0.0746  0.2147
 5795SOL    HW128844   3.256   2.312   8.769 -0.4539 -0.2078  0.2725
 5795SOL    HW228845   3.278   2.185   8.698 -0.1616  0.0405 -1.7716
 5796SOL     OW28846   4.668   2.044   7.192  0.6424  0.2060 -0.3862
 5796SOL    HW128847   4.647   2.135   7.172  2.5741  0.3138 -1.9350
 5796SOL    HW228848   4.722   2.058   7.270  0.6061 -0.8744 -0.1595
 5797SOL     OW28849   3.478   2.446   7.238 -0.0296 -0.6208 -0.6291
 5797SOL    HW128850   3.467   2.473   7.329 -1.1944  0.7884 -1.1674
 5797SOL    HW228851   3.440   2.522   7.192  0.2558 -0.7517 -1.0775
 5798SOL     OW28852   0.076   3.656   7.588  0.2616 -0.2082  0.0127
 5798SOL    HW128853   0.071   3.715   7.663 -3.3066 -0.2100 -0.2259
 5798SOL    HW228854   4.718   3.677   7.543 -1.0760  1.5503  3.2576
 5799SOL     OW28855   1.635   1.089  16.600 -0.3031 -0.3554  0.0042
 5799SOL    HW128856   1.647   1.181  16.577 -0.7978 -1.1108 -3.2066
 5799SOL    HW228857   1.603   1.058  16.516  0.7171  1.7903 -1.1912
 5800SOL     OW28858   3.886   3.890   1.885 -0.0423 -0.3352  0.0281
 5800SOL    HW128859   3.878   3.907   1.791  0.9587  3.7972  0.6836
 5800SOL    HW228860   3.796   3.905   1.914 -0.0047 -0.7770  0.3706
 5801SOL     OW28861   0.649   1.582   7.164  0.2131  0.3385  0.6746
 5801SOL    HW128862   0.555   1.597   7.177 -0.1299  1.8882 -3.7239
 5801SOL    HW228863   0.684   1.619   7.245  1.8438 -1.0522  0.6227
 5802SOL     OW28864   2.456   0.068   2.977 -0.1284 -0.4188  0.2578
 5802SOL    HW128865   2.524   0.001   2.976 -1.8196 -2.0872 -0.6784
 5802SOL    HW228866   2.429   0.072   2.885 -0.6815 -0.5646  0.4140
 5803SOL     OW28867   1.906   1.053   2.763  0.6233  0.0237  0.1392
 5803SOL    HW128868   1.982   1.013   2.805  0.1245 -0.7759  0.2784
 5803SOL    HW228869   1.890   1.132   2.814 -1.4299  0.5492 -1.3162
 5804SOL     OW28870   1.177   4.100   1.165  0.0262  0.4710 -0.3942
 5804SOL    HW128871   1.165   4.097   1.070 -0.4698  0.8474 -0.3442
 5804SOL    HW228872   1.095   4.059   1.193  0.3194 -1.7296 -2.7568
 5805SOL     OW28873   1.750   3.998   5.050  0.5056  0.9142  0.6637
 5805SOL    HW128874   1.664   3.995   5.007  0.2172  0.9734  1.2320
 5805SOL    HW228875   1.743   4.089   5.080  0.7639 -0.0911  3.7738
 5806SOL     OW28876   1.705   0.221   8.799 -0.3315 -0.2433  0.1379
 5806SOL    HW128877   1.634   0.206   8.862 -0.0649 -2.9951 -0.1913
 5806SOL    HW228878   1.779   0.201   8.856 -1.7312  0.0771  2.0654
 5807SOL     OW28879   0.983   1.579   8.698  0.2029 -0.5006 -0.2050
 5807SOL    HW128880   0.909   1.613   8.749 -1.2222 -3.2959 -0.4282
 5807SOL    HW228881   0.970   1.627   8.616  3.2977  1.1378  0.2629
 5808SOL     OW28882   3.621   2.857   8.293 -0.0214  0.0751  0.4248
 5808SOL    HW128883   3.540   2.876   8.246  0.4556  1.7138  0.2552
 5808SOL    HW228884   3.614   2.763   8.312  1.4509  0.1962  1.5911
 5809SOL     OW28885   4.468   2.807   8.487 -0.5299 -1.1379  0.1562
 5809SOL    HW128886   4.424   2.852   8.415 -0.4980 -0.8356  0.3249
 5809SOL    HW228887   4.459   2.719   8.451  1.1647 -2.0708  2.0143
 5810SOL     OW28888   1.346   3.349   2.406  0.2747  0.2259 -0.1581
 5810SOL    HW128889   1.325   3.263   2.371 -1.4189  0.0069  1.4038
 5810SOL    HW228890   1.417   3.384   2.352  1.5735  1.1351  2.1479
 5811SOL     OW28891   4.593   2.089   0.621  0.6452 -0.4535  0.1248
 5811SOL    HW128892   4.633   2.030   0.685  1.9548 -1.4076 -1.5970
 5811SOL    HW228893   4.508   2.103   0.664  0.7025 -2.9393  1.0363
 5812SOL     OW28894   0.805   0.794   4.684 -0.3087  0.3522 -0.3581
 5812SOL    HW128895   0.860   0.866   4.716 -0.9653  0.0475  1.4926
 5812SOL    HW228896   0.754   0.773   4.763  2.9967  2.3137  2.3009
 5813SOL     OW28897   2.549   3.967   3.985 -0.2073 -0.1960  0.2788
 5813SOL    HW128898   2.500   4.049   3.980 -0.2896 -0.1911  1.3132
 5813SOL    HW228899   2.634   4.011   3.987  0.4796 -1.5499  0.6646
 5814SOL     OW28900   2.257   1.006   2.385  0.5982 -0.2372  0.5088
 5814SOL    HW128901   2.350   0.988   2.371  0.5064  0.2938 -0.7879
 5814SOL    HW228902   2.230   0.990   2.295  0.8379 -2.8247  0.8854
 5815SOL     OW28903   0.772   3.514   6.507 -0.6822  0.3778  0.1326
 5815SOL    HW128904   0.686   3.514   6.548 -0.2364 -0.4534  1.0818
 5815SOL    HW228905   0.755   3.456   6.432 -1.1643 -2.3011  2.2992
 5816SOL     OW28906   3.669   2.043   6.728  0.4576 -0.0870 -0.1727
 5816SOL    HW128907   3.682   1.988   6.650  0.6543  1.6035 -1.3277
 5816SOL    HW228908   3.575   2.054   6.735  0.5459 -0.3850  1.4401
 5817SOL     OW28909   4.395   1.775   4.870 -0.0631  0.1776  0.1176
 5817SOL    HW128910   4.470   1.821   4.834  0.2184 -1.2881 -1.2025
 5817SOL    HW228911   4.435   1.689   4.884  1.0382  0.7421  0.3719
 5818SOL     OW28912   4.253   0.850   8.754  0.2917 -0.0835  0.0855
 5818SOL    HW128913   4.279   0.761   8.728  1.7999  0.6747 -1.0174
 5818SOL    HW228914   4.328   0.884   8.803  1.9426 -0.2179 -2.3417
 5819SOL     OW28915   1.070   3.451  10.245 -0.4787 -0.9556  0.3626
 5819SOL    HW128916   1.101   3.490  10.164  0.1642  0.7113  1.4224
 5819SOL    HW228917   0.977   3.439  10.225 -0.4335 -1.8068  0.6486
 5820SOL     OW28918   1.956   0.260   4.910  0.0041 -0.1688  0.2894
 5820SOL    HW128919   1.987   0.340   4.953  2.8850 -1.6569  1.0077
 5820SOL    HW228920   1.980   0.275   4.819 -4.7530  2.2300 -0.5687
 5821SOL     OW28921   2.170   2.903   6.101 -0.4792  0.3338  0.0021
 5821SOL    HW128922   2.114   2.886   6.025  0.1925  3.3018 -1.1972
 5821SOL    HW228923   2.256   2.886   6.062 -0.4046 -0.8829  0.7401
 5822SOL     OW28924   3.514   2.721   3.028  0.4323 -0.1283  0.1582
 5822SOL    HW128925   3.572   2.745   3.100  0.7174 -3.0437  0.9079
 5822SOL    HW228926   3.519   2.803   2.979  2.4997 -0.2817  0.1304
 5823SOL     OW28927   2.557   1.260   7.477 -0.6917  0.0679 -0.4775
 5823SOL    HW128928   2.634   1.252   7.421 -0.4366  1.7719 -0.3659
 5823SOL    HW228929   2.503   1.189   7.441 -1.3304 -0.5049  1.6131
 5824SOL     OW28930   3.399   0.381   3.187 -0.3358  0.3597 -0.0620
 5824SOL    HW128931   3.488   0.347   3.190  0.1619  1.7872  0.8271
 5824SOL    HW228932   3.397   0.434   3.266 -0.5626 -0.4161  0.4553
 5825SOL     OW28933   4.330   1.075   9.139  0.2205  0.2922  0.0186
 5825SOL    HW128934   4.324   1.041   9.228  4.2354 -3.2209 -1.0324
 5825SOL    HW228935   4.343   1.169   9.155  0.3553  0.7700 -2.8933
 5826SOL     OW28936   0.838   0.552   7.922 -0.4416 -0.1389 -0.5516
 5826SOL    HW128937   0.760   0.569   7.868 -0.3311 -1.7606 -1.2499
 5826SOL    HW228938   0.798   0.557   8.009  2.0349  0.9324  0.4997
 5827SOL     OW28939   4.578   2.216  10.910  0.6622  0.0709  0.0021
 5827SOL    HW128940   4.616   2.233  10.996  0.9759  1.8021 -0.4637
 5827SOL    HW228941   4.493   2.260  10.913  1.1261  0.9036  0.9264
 5828SOL     OW28942   2.365   4.443   2.007  0.3120  0.4286 -0.1135
 5828SOL    HW128943   2.427   4.371   1.998  0.6313  0.4649  1.7660
 5828SOL    HW228944   2.293   4.403   2.057  0.4348  0.7048  0.2862
 5829SOL     OW28945   0.038   4.669  11.475 -0.6986 -0.1046 -0.6781
 5829SOL    HW128946   0.053   4.578  11.498 -1.7770  0.1429  0.9303
 5829SOL    HW228947   0.096   4.718  11.533 -0.1778 -0.5349 -0.8347
 5830SOL     OW28948   4.689   2.440   9.242  0.0012  0.6585 -0.0073
 5830SOL    HW128949   4.625   2.425   9.172 -1.5278 -2.0055  1.9525
 5830SOL    HW228950   0.033   2.384   9.205  0.7981  1.6831 -0.0816
 5831SOL     OW28951   3.716   0.025   4.114 -0.3175  0.2124  0.6239
 5831SOL    HW128952   3.798   4.719   4.074 -0.1062  1.1651  0.3200
 5831SOL    HW228953   3.751   0.022   4.203 -2.0514 -0.3271  1.2808
 5832SOL     OW28954   0.010   1.937   4.255  0.3733 -0.9150  0.2296
 5832SOL    HW128955   0.054   1.975   4.180 -0.7401 -1.4674 -0.6960
 5832SOL    HW228956   0.047   1.849   4.258 -0.3662 -1.2097  0.9419
 5833SOL     OW28957   3.422   0.527   5.823  0.0105 -0.0946 -0.0547
 5833SOL    HW128958   3.455   0.560   5.906  0.8647 -3.2986  0.8818
 5833SOL    HW228959   3.442   0.434   5.835 -1.2280 -0.4187 -0.4606
 5834SOL     OW28960   2.872   3.461   6.655  0.1117 -0.0120  0.2208
 5834SOL    HW128961   2.782   3.428   6.660  0.4875 -0.9412  0.9082
 5834SOL    HW228962   2.887   3.468   6.560  1.8383 -0.5516  0.4483
 5835SOL     OW28963   3.165   4.076   6.930  0.2002  0.6748 -0.4138
 5835SOL    HW128964   3.192   4.158   6.888  0.3139  1.6486  1.5370
 5835SOL    HW228965   3.220   4.070   7.008  0.5706  1.2492 -0.6283
 5836SOL     OW28966   0.636   1.352   8.782 -0.6748  0.1373  0.1130
 5836SOL    HW128967   0.659   1.259   8.787 -0.1764  0.4310  3.2980
 5836SOL    HW228968   0.656   1.365   8.690  2.3249  1.0562  0.8973
 5837SOL     OW28969   2.972   3.100   8.363 -0.1204 -0.6809 -0.0461
 5837SOL    HW128970   2.940   3.096   8.273  1.6633  0.3044 -0.7200
 5837SOL    HW228971   2.939   3.018   8.401 -0.1773 -0.4040  0.4927
 5838SOL     OW28972   1.673   2.891   7.634  0.4858 -0.3221 -0.2781
 5838SOL    HW128973   1.711   2.809   7.667  0.7262 -0.8210 -1.7697
 5838SOL    HW228974   1.585   2.860   7.612 -0.6410  2.2671  0.6330
 5839SOL     OW28975   4.312   0.628   7.319  0.0883  0.0244 -0.5689
 5839SOL    HW128976   4.405   0.606   7.323  0.6871  2.8473  1.0328
 5839SOL    HW228977   4.311   0.699   7.255  1.0124 -1.6310 -2.4023
 5840SOL     OW28978   2.985   1.859   7.125  0.5574  0.4238 -0.3762
 5840SOL    HW128979   2.972   1.770   7.156  1.8486  0.3247 -0.1573
 5840SOL    HW228980   2.896   1.878   7.094  0.8770  1.4139 -0.6879
 5841SOL     OW28981   3.498   0.282  16.097  0.2701  0.1274  0.2171
 5841SOL    HW128982   3.407   0.310  16.105 -0.2151 -1.4612  0.2784
 5841SOL    HW228983   3.484   0.188  16.081 -0.2560  0.2071  0.2391
 5842SOL     OW28984   3.189   0.225   4.994 -0.6917 -0.4682 -0.2666
 5842SOL    HW128985   3.160   0.164   4.925  1.5008  1.5255 -2.9287
 5842SOL    HW228986   3.284   0.236   4.991 -0.6199 -0.4435  2.3949
 5843SOL     OW28987   4.633   2.278   5.687 -0.2378  0.7159 -0.4825
 5843SOL    HW128988   4.559   2.316   5.734 -0.1026 -0.6647  0.8491
 5843SOL    HW228989   4.608   2.278   5.595 -2.6339  0.8081  0.1605
 5844SOL     OW28990   1.425   0.293   3.088  0.1017  0.0369 -0.4227
 5844SOL    HW128991   1.375   0.358   3.138  2.5650  0.4512  1.4509
 5844SOL    HW228992   1.406   0.321   2.998 -0.8038  1.6602  0.2758
 5845SOL     OW28993   3.957   3.587   8.904 -0.2654  0.3405 -0.1745
 5845SOL    HW128994   3.937   3.539   8.823  1.5077  1.8680 -1.5283
 5845SOL    HW228995   3.885   3.573   8.964  0.7081 -0.1815  0.8719
 5846SOL     OW28996   3.658   2.504   3.706  0.3964  0.1906  0.3752
 5846SOL    HW128997   3.624   2.457   3.630  1.3106  2.2300 -1.2958
 5846SOL    HW228998   3.738   2.452   3.715  0.7856  0.4730 -1.4869
 5847SOL     OW28999   3.009   1.699  14.205  0.2548 -0.0348 -0.0314
 5847SOL    HW129000   3.027   1.614  14.164 -0.1712 -0.0600 -0.1688
 5847SOL    HW229001   2.913   1.697  14.205  0.2428  0.5989  0.0824
 5848SOL     OW29002   4.524   2.282   5.251  0.0542  0.1703  0.4026
 5848SOL    HW129003   4.535   2.195   5.290  0.1309  0.6247  1.3985
 5848SOL    HW229004   4.474   2.318   5.324 -0.1671  1.1281 -0.2262
 5849SOL     OW29005   4.233   1.789  15.111 -0.4344 -0.3640 -0.7482
 5849SOL    HW129006   4.258   1.829  15.028 -1.5651  0.0084 -0.9098
 5849SOL    HW229007   4.316   1.750  15.136 -0.5974 -0.1565  0.1046
 5850SOL     OW29008   3.796   2.278   5.141 -0.1279  0.1537 -0.1844
 5850SOL    HW129009   3.849   2.210   5.098 -0.1687 -0.3683  0.5849
 5850SOL    HW229010   3.788   2.340   5.069  4.5320  1.7506  0.6435
 5851SOL     OW29011   3.088   2.774   9.668  0.0164  0.2158  0.4510
 5851SOL    HW129012   3.083   2.814   9.754 -0.9679 -2.1875  1.4893
 5851SOL    HW229013   3.178   2.796   9.642  0.1707 -0.3078  0.5441
 5852SOL     OW29014   3.220   0.745   8.163  0.6894  0.5538  0.0532
 5852SOL    HW129015   3.253   0.743   8.253  0.7369 -0.6866  0.0074
 5852SOL    HW229016   3.168   0.824   8.168  1.0226  0.8969 -1.9256
 5853SOL     OW29017   2.335   2.553   8.694  0.2066 -0.0489  0.2887
 5853SOL    HW129018   2.240   2.539   8.692  0.1003  0.8234 -1.1302
 5853SOL    HW229019   2.336   2.649   8.694 -3.2862  0.0211  0.1425
 5854SOL     OW29020   4.662   2.107  17.086  0.1577 -0.3838 -0.2717
 5854SOL    HW129021   4.627   2.017  17.092  1.2581 -0.8100 -0.3191
 5854SOL    HW229022   4.652   2.151  17.170  1.2783  0.6276 -0.6778
 5855SOL     OW29023   0.673   2.518   8.828 -0.1215 -0.4531 -0.1840
 5855SOL    HW129024   0.710   2.430   8.828  0.2551 -0.2766  2.2515
 5855SOL    HW229025   0.625   2.528   8.745 -0.8410  0.4787  0.3449
 5856SOL     OW29026   0.802   0.907   9.591  0.5095  0.4345  0.5449
 5856SOL    HW129027   0.821   0.839   9.526 -2.7964  0.4240 -0.3680
 5856SOL    HW229028   0.734   0.877   9.650  2.8844 -1.6838  2.2293
 5857SOL     OW29029   0.702   3.519   9.234 -0.0002  0.0331 -0.0127
 5857SOL    HW129030   0.629   3.579   9.252  0.5079  0.2145  1.3819
 5857SOL    HW229031   0.737   3.511   9.322  2.0387  1.8586 -0.6323
 5858SOL     OW29032   1.359   2.364  12.111  0.1492  0.1627 -0.0796
 5858SOL    HW129033   1.281   2.358  12.056  0.2471  0.8627 -0.2943
 5858SOL    HW229034   1.330   2.449  12.143 -0.1237 -0.1173  0.4093
 5859SOL     OW29035   2.370   4.503   8.744 -0.4460 -0.2510  0.0250
 5859SOL    HW129036   2.322   4.434   8.791  0.0360 -1.0651 -0.6841
 5859SOL    HW229037   2.403   4.559   8.814 -0.4592 -0.6783  0.3808
 5860SOL     OW29038   0.565   3.164   8.183 -0.6171 -0.7287 -0.5110
 5860SOL    HW129039   0.477   3.198   8.197  0.2188  0.4634  1.7944
 5860SOL    HW229040   0.563   3.085   8.239 -0.4108  0.2031  0.8166
 5861SOL     OW29041   1.672   2.531   6.341 -0.0669 -0.0735  0.0634
 5861SOL    HW129042   1.726   2.467   6.386 -0.2483  1.2149  2.0845
 5861SOL    HW229043   1.639   2.481   6.266  1.0993  1.0892 -1.2419
 5862SOL     OW29044   1.087   4.438   3.515  0.3322  0.3018 -0.0053
 5862SOL    HW129045   1.038   4.473   3.440 -1.7030 -4.1889 -0.8024
 5862SOL    HW229046   1.085   4.511   3.577  1.6046 -0.8446  1.3657
 5863SOL     OW29047   1.133   1.134   9.734 -0.1091 -0.3018 -0.2171
 5863SOL    HW129048   1.207   1.146   9.673  1.3635 -0.8076  1.4858
 5863SOL    HW229049   1.148   1.215   9.781 -1.5006 -0.2061  0.0386
 5864SOL     OW29050   3.244   3.134   8.351  0.4728  0.4058  0.1364
 5864SOL    HW129051   3.153   3.103   8.356  0.6673  0.0196  1.1147
 5864SOL    HW229052   3.291   3.059   8.315 -1.6681 -1.0591  0.4184
 5865SOL     OW29053   0.525   1.419  12.684 -0.2219 -0.5052  0.7631
 5865SOL    HW129054   0.494   1.390  12.598  1.7383  1.3441 -0.5768
 5865SOL    HW229055   0.553   1.510  12.673  0.7791 -0.8471  0.5045
 5866SOL     OW29056   1.957   4.050   6.026 -0.5828 -0.2618 -0.7031
 5866SOL    HW129057   2.013   4.123   6.052  1.3442 -2.3822  1.0630
 5866SOL    HW229058   1.883   4.099   5.990  1.1182  1.7229 -1.5365
 5867SOL     OW29059   0.212   1.731   6.110  0.1905  0.0429  0.3352
 5867SOL    HW129060   0.236   1.803   6.052  0.5698 -0.7705 -0.5196
 5867SOL    HW229061   0.223   1.776   6.193 -2.2255  0.5220  0.4108
 5868SOL     OW29062   4.409   4.710   7.036  1.1855  0.1822 -0.6657
 5868SOL    HW129063   4.356   0.065   7.029 -0.1176 -0.7243 -1.1795
 5868SOL    HW229064   4.415   4.702   7.131 -0.8908 -0.5423 -0.5847
 5869SOL     OW29065   0.276   1.338  15.149  0.3989 -0.4349  0.0122
 5869SOL    HW129066   0.196   1.363  15.197 -0.2604 -0.6943 -0.9537
 5869SOL    HW229067   0.316   1.277  15.211  1.2159  0.3366  0.2348
 5870SOL     OW29068   3.380   0.261   5.396  0.0580  0.0657 -1.1434
 5870SOL    HW129069   3.409   0.203   5.325 -0.0290 -1.9847  0.5279
 5870SOL    HW229070   3.328   0.324   5.346  0.6020  1.5635  0.1710
 5871SOL     OW29071   4.060   4.656   8.086  0.3084  0.1204 -0.2097
 5871SOL    HW129072   3.985   4.703   8.050 -0.4309 -0.4008  0.6137
 5871SOL    HW229073   4.075   4.595   8.014  0.0703  0.5852 -0.6492
 5872SOL     OW29074   3.322   4.140   5.359  0.4353 -0.5536 -0.0027
 5872SOL    HW129075   3.244   4.085   5.352 -1.0201  1.6438 -0.8351
 5872SOL    HW229076   3.373   4.082   5.415  0.9540 -0.0302  0.0644
 5873SOL     OW29077   2.022   0.849   2.378 -0.4040  1.0328  0.0374
 5873SOL    HW129078   2.086   0.920   2.372 -0.0745  0.8860  1.8369
 5873SOL    HW229079   1.955   0.892   2.431  1.0754  1.7230  1.3477
 5874SOL     OW29080   2.928   0.631  11.930 -0.4255  0.2312 -0.4884
 5874SOL    HW129081   2.971   0.571  11.869  0.6150  0.2061  0.2656
 5874SOL    HW229082   2.855   0.580  11.965 -0.8341  0.4498 -1.0225
 5875SOL     OW29083   0.746   2.391   9.217 -0.1269  0.2294  0.0897
 5875SOL    HW129084   0.665   2.432   9.188  0.7587  0.8976 -1.4508
 5875SOL    HW229085   0.718   2.342   9.294 -1.4409  0.4964 -0.2282
 5876SOL     OW29086   4.554   3.070  12.012 -0.4664  0.2292 -0.2190
 5876SOL    HW129087   4.645   3.040  12.000  0.2588  2.4456 -0.1763
 5876SOL    HW229088   4.548   3.158  11.976  1.7022  0.2135 -0.6747
 5877SOL     OW29089   4.617   2.336   6.799  0.3888  0.3051 -0.6666
 5877SOL    HW129090   4.576   2.370   6.720  2.7138  2.2153 -1.0391
 5877SOL    HW229091   4.693   2.297   6.755 -1.0084 -3.8578  0.5440
 5878SOL     OW29092   4.485   4.551   3.274  0.3890  0.4595 -0.5301
 5878SOL    HW129093   4.415   4.567   3.211 -0.2028  0.7881  0.1973
 5878SOL    HW229094   4.530   4.475   3.238 -1.7182 -0.7033 -0.7063
 5879SOL     OW29095   2.919   1.566  13.258  0.1523  0.0929 -0.2564
 5879SOL    HW129096   2.935   1.599  13.346  1.8955 -1.6549  0.0896
 5879SOL    HW229097   2.828   1.537  13.258  0.1240  0.1752  0.7001
 5880SOL     OW29098   4.436   2.409   5.534  0.7285 -0.0446  0.2132
 5880SOL    HW129099   4.343   2.394   5.553  0.5657  1.3482  0.5497
 5880SOL    HW229100   4.440   2.502   5.510  1.1610 -0.8854 -2.9556
 5881SOL     OW29101   3.921   0.715   3.968  0.8187  0.2533  0.5378
 5881SOL    HW129102   3.878   0.718   4.054 -0.5199 -0.2601 -0.1234
 5881SOL    HW229103   3.949   0.806   3.958 -2.4774  1.3432  1.2001
 5882SOL     OW29104   2.587   3.526  13.827  0.5601  0.4962 -0.4947
 5882SOL    HW129105   2.615   3.464  13.894 -0.7769  0.5586  0.1180
 5882SOL    HW229106   2.535   3.471  13.769 -1.0822  0.5226  0.9513
 5883SOL     OW29107   0.011   3.069   7.096 -0.2813  0.3842  0.3626
 5883SOL    HW129108   4.652   3.021   7.097  1.5265 -2.6712  3.1091
 5883SOL    HW229109   0.084   3.012   7.074  1.5666  2.3905  1.3249
 5884SOL     OW29110   4.685   4.705   6.957 -0.1351  0.1777 -0.1419
 5884SOL    HW129111   0.014   0.038   7.012 -0.8745 -1.1287  1.9523
 5884SOL    HW229112   4.601   4.709   7.003  0.2447 -0.1853  0.5929
 5885SOL     OW29113   4.163   1.411  13.897  0.6343  0.1013  0.1785
 5885SOL    HW129114   4.092   1.402  13.833  2.5553  0.4380 -2.0104
 5885SOL    HW229115   4.128   1.472  13.962 -1.8679 -0.1373 -0.9384
 5886SOL     OW29116   0.674   0.146   7.043  0.0295 -0.3025  0.1074
 5886SOL    HW129117   0.607   0.079   7.060 -1.1043  0.6420 -0.6448
 5886SOL    HW229118   0.659   0.147   6.949  1.0376  0.0241 -0.0488
 5887SOL     OW29119   0.106   2.265   7.553  0.0157 -0.3664 -0.3860
 5887SOL    HW129120   0.099   2.292   7.461 -1.7928 -0.0141 -0.1464
 5887SOL    HW229121   0.091   2.345   7.603  0.1915 -0.5638 -0.0229
 5888SOL     OW29122   3.469   4.553  15.787 -0.8075 -0.1733 -0.0015
 5888SOL    HW129123   3.439   4.644  15.786 -1.1814 -0.2853  0.7328
 5888SOL    HW229124   3.564   4.567  15.785 -0.7593 -0.4825  0.2114
 5889SOL     OW29125   3.828   2.988   4.198 -0.2497  0.3857  1.1114
 5889SOL    HW129126   3.794   3.063   4.149 -1.2811 -0.7667  0.0531
 5889SOL    HW229127   3.905   2.960   4.148  0.6096  0.0960  2.6016
 5890SOL     OW29128   2.234   1.193   5.301 -0.0325  0.5272 -0.4736
 5890SOL    HW129129   2.277   1.124   5.250 -1.3691 -0.0646 -0.7888
 5890SOL    HW229130   2.158   1.145   5.334  0.5346  1.2816  1.9023
 5891SOL     OW29131   1.988   2.511   3.201 -0.0948  0.3465 -0.5215
 5891SOL    HW129132   1.914   2.571   3.214 -1.4339 -1.5413  0.5710
 5891SOL    HW229133   1.957   2.462   3.125 -1.1659 -0.2427  0.3005
 5892SOL     OW29134   2.059   1.842   0.286  0.2429 -0.1940 -0.6507
 5892SOL    HW129135   2.033   1.863   0.196 -2.5824  0.6078  0.3703
 5892SOL    HW229136   2.114   1.916   0.310  0.7557 -1.2865  1.5487
 5893SOL     OW29137   2.652   2.664   7.423  0.0614 -0.0932 -0.3403
 5893SOL    HW129138   2.636   2.720   7.498  1.3045  1.1628 -1.0082
 5893SOL    HW229139   2.641   2.727   7.351  0.4178 -0.6330 -0.8730
 5894SOL     OW29140   4.118   0.052  12.106 -0.2400  0.2114  0.0940
 5894SOL    HW129141   4.090   0.100  12.028  1.6322 -0.4058 -0.9779
 5894SOL    HW229142   4.200   0.092  12.135  0.8132  1.3556 -4.4661
 5895SOL     OW29143   0.589   2.738   9.251  0.2467  0.7136 -0.6697
 5895SOL    HW129144   0.664   2.785   9.214 -0.5981 -0.7050 -4.1581
 5895SOL    HW229145   0.594   2.652   9.210 -0.3946  0.3968 -0.0877
 5896SOL     OW29146   2.769   2.054  16.502  0.3279 -0.4940  0.1249
 5896SOL    HW129147   2.774   2.116  16.429 -0.7616 -0.3535  0.1583
 5896SOL    HW229148   2.768   1.974  16.450  0.1733 -0.2322 -0.2789
 5897SOL     OW29149   2.550   2.217   5.284  0.3958 -0.1601  0.1788
 5897SOL    HW129150   2.577   2.238   5.195  0.2898 -2.0677 -0.2983
 5897SOL    HW229151   2.527   2.125   5.275 -0.3718  0.0399  0.1425
 5898SOL     OW29152   0.662   1.512  14.500  0.9517  0.0215 -0.1649
 5898SOL    HW129153   0.615   1.551  14.425  1.1390 -0.7978 -0.7154
 5898SOL    HW229154   0.592   1.481  14.557  0.1609 -0.4175 -1.3608
 5899SOL     OW29155   1.616   3.707  11.743  0.1691 -0.0469 -0.1001
 5899SOL    HW129156   1.649   3.620  11.718 -0.5626  1.0694 -4.7483
 5899SOL    HW229157   1.527   3.695  11.712  0.1693  2.7960 -1.1517
 5900SOL     OW29158   3.526   3.731  10.857 -0.2041  0.5540  0.2062
 5900SOL    HW129159   3.571   3.711  10.939  0.1175  1.4465  0.2474
 5900SOL    HW229160   3.596   3.737  10.791 -0.6924  0.4219 -0.3275
 5901SOL     OW29161   2.874   3.037   8.055 -0.0587  0.2386 -0.1087
 5901SOL    HW129162   2.838   3.095   7.989 -0.0946  2.1689  1.6004
 5901SOL    HW229163   2.793   2.992   8.078  0.6763 -0.4308  1.1625
 5902SOL     OW29164   3.025   4.479  14.523 -0.2631  0.6996 -0.6646
 5902SOL    HW129165   2.992   4.537  14.591  1.7064  0.1759  0.7387
 5902SOL    HW229166   2.941   4.441  14.498 -1.8173  4.1732 -0.6307
 5903SOL     OW29167   2.113   4.603  11.441  0.2237 -0.9400 -0.3323
 5903SOL    HW129168   2.043   4.580  11.380 -1.6497 -1.5651  2.0658
 5903SOL    HW229169   2.159   4.679  11.405 -0.9307 -0.3604 -0.6008
 5904SOL     OW29170   0.818   4.054   2.152  0.1444 -0.6785  0.4985
 5904SOL    HW129171   0.843   3.968   2.119  0.2844 -1.0459  1.5489
 5904SOL    HW229172   0.906   4.080   2.177  0.2733  0.3504 -1.0129
 5905SOL     OW29173   3.515   0.507   3.453  0.5726 -0.0835  0.1868
 5905SOL    HW129174   3.608   0.491   3.441  0.6937 -0.4349  1.6846
 5905SOL    HW229175   3.522   0.602   3.459 -0.6148  0.2056 -2.5826
 5906SOL     OW29176   1.332   2.677   4.176 -0.3938  0.3718  0.0737
 5906SOL    HW129177   1.244   2.689   4.140  0.8069 -0.1513 -3.0140
 5906SOL    HW229178   1.346   2.751   4.234 -2.6453  0.3995  0.5924
 5907SOL     OW29179   0.593   2.459   1.765  0.4765  0.8272 -0.2072
 5907SOL    HW129180   0.547   2.435   1.684  1.8453  0.0724 -0.7649
 5907SOL    HW229181   0.626   2.375   1.798  0.9573  1.3756  0.7231
 5908SOL     OW29182   2.856   3.342   7.448 -0.7095  0.5010  0.9984
 5908SOL    HW129183   2.909   3.353   7.526  0.4601  0.1062  0.2628
 5908SOL    HW229184   2.769   3.334   7.487 -0.3872  1.1947  1.8496
 5909SOL     OW29185   1.961   3.810   4.680 -0.2122  0.5565  0.2680
 5909SOL    HW129186   1.911   3.733   4.706  2.7775 -2.3589 -2.6493
 5909SOL    HW229187   1.980   3.849   4.765 -0.7419  0.5205  0.4052
 5910SOL     OW29188   0.423   0.993   7.491 -0.3161 -0.6127 -0.2743
 5910SOL    HW129189   0.448   0.936   7.417  0.9890 -3.1063  2.0964
 5910SOL    HW229190   0.340   0.949   7.506 -1.4717  1.2134 -1.4018
 5911SOL     OW29191   4.195   0.907   6.875 -0.1870  0.0712 -0.0189
 5911SOL    HW129192   4.290   0.897   6.867 -0.4848 -0.2137 -3.2279
 5911SOL    HW229193   4.162   0.817   6.871 -0.4878  0.2125 -0.5914
 5912SOL     OW29194   1.746   4.082   0.328  1.0299 -0.2335 -0.0943
 5912SOL    HW129195   1.824   4.055   0.377  2.6966 -1.4786 -3.4618
 5912SOL    HW229196   1.750   4.020   0.256  0.1306 -1.2808  0.7676
 5913SOL     OW29197   0.443   3.311   1.253 -0.0351  0.0319  0.1039
 5913SOL    HW129198   0.407   3.247   1.192 -3.7616  2.4833 -0.2666
 5913SOL    HW229199   0.365   3.356   1.288 -0.7424 -1.1132 -0.0088
 5914SOL     OW29200   0.477   2.159   3.936  0.5584 -0.0247  0.4604
 5914SOL    HW129201   0.499   2.198   4.021 -2.1504 -1.7269  1.9614
 5914SOL    HW229202   0.473   2.234   3.878 -0.7485  0.2103  0.8665
 5915SOL     OW29203   2.648   2.478  11.310 -0.7451 -0.1638 -0.4788
 5915SOL    HW129204   2.587   2.535  11.357 -0.5579  0.2885 -0.7835
 5915SOL    HW229205   2.590   2.417  11.264 -1.3747  0.5874 -0.6780
 5916SOL     OW29206   4.692   1.764   8.666  0.0477 -0.1392  0.1380
 5916SOL    HW129207   4.628   1.712   8.617  0.8484 -1.3277  0.3802
 5916SOL    HW229208   4.686   1.732   8.756  0.8625  0.3309  0.3586
 5917SOL     OW29209   0.205   4.681   8.987  0.2873 -0.0222 -0.2489
 5917SOL    HW129210   0.185   0.047   8.964  1.9208  0.9849  2.2611
 5917SOL    HW229211   0.120   4.637   8.977  0.6361 -0.8343  0.2976
 5918SOL     OW29212   0.997   1.112   3.832 -0.3503 -0.5634  0.0995
 5918SOL    HW129213   1.002   1.174   3.904 -0.2311 -0.5401  0.0704
 5918SOL    HW229214   0.971   1.030   3.873  0.3960  0.3816  2.4641
 5919SOL     OW29215   1.215   1.496   8.223 -0.0990  1.1203 -0.1404
 5919SOL    HW129216   1.296   1.534   8.189  1.0660 -1.1951  0.0353
 5919SOL    HW229217   1.202   1.547   8.303 -1.2236  1.0279 -0.2594
 5920SOL     OW29218   0.841   4.148   7.949  0.4225 -0.3399  0.0064
 5920SOL    HW129219   0.813   4.149   8.041 -1.1770  0.7431 -0.4915
 5920SOL    HW229220   0.756   4.123   7.914 -0.9267  1.9335  1.6325
 5921SOL     OW29221   0.156   4.365   0.084 -0.0142 -0.0223 -0.0404
 5921SOL    HW129222   0.212   4.443   0.083  0.6830 -0.5051  1.4247
 5921SOL    HW229223   0.083   4.384   0.026  0.6549 -2.5188 -1.6944
 5922SOL     OW29224   3.822   3.895  11.922  0.3199 -0.3333 -0.6372
 5922SOL    HW129225   3.824   3.872  11.829 -0.0773 -0.3795 -0.6334
 5922SOL    HW229226   3.734   3.931  11.930  1.1291  1.0512  2.1145
 5923SOL     OW29227   3.812   3.533   3.466  0.4311 -0.2770  0.6109
 5923SOL    HW129228   3.792   3.626   3.458  1.5971 -0.1868 -1.1441
 5923SOL    HW229229   3.891   3.537   3.519  0.1787 -4.6865  1.3230
 5924SOL     OW29230   4.564   4.376   2.698  0.1719 -0.3423 -0.5566
 5924SOL    HW129231   4.476   4.408   2.719  0.2222 -0.6710  0.1827
 5924SOL    HW229232   4.614   4.406   2.774 -3.6264  2.9452  0.6780
 5925SOL     OW29233   2.098   1.505   5.249  0.3459 -0.2035  0.0517
 5925SOL    HW129234   2.049   1.587   5.257 -1.4349 -1.3151  0.5991
 5925SOL    HW229235   2.056   1.444   5.310 -0.0425  0.5796  0.5695
 5926SOL     OW29236   2.511   1.553   6.712 -0.2503  0.0501 -0.0360
 5926SOL    HW129237   2.507   1.645   6.688 -1.1074 -0.2732 -1.1600
 5926SOL    HW229238   2.471   1.519   6.632  1.4676 -2.7476  0.2865
 5927SOL     OW29239   3.173   4.005   5.690 -0.2487 -0.0659  0.4665
 5927SOL    HW129240   3.114   3.973   5.622  0.6595  1.5607 -1.0687
 5927SOL    HW229241   3.149   4.097   5.678  0.7082  0.1366  0.1878
 5928SOL     OW29242   2.724   1.264   8.556 -0.4982 -0.0068  0.0789
 5928SOL    HW129243   2.799   1.284   8.612 -0.0618 -0.5669 -0.3059
 5928SOL    HW229244   2.671   1.219   8.622  3.4847 -0.2192  3.1689
 5929SOL     OW29245   2.859   1.635   2.941 -0.2751  0.0501 -0.1630
 5929SOL    HW129246   2.896   1.664   2.857  0.4543  2.6922  1.0750
 5929SOL    HW229247   2.800   1.703   2.973 -0.0971 -0.6237  1.5723
 5930SOL     OW29248   4.305   2.448   3.290 -0.5958  0.8532  0.0483
 5930SOL    HW129249   4.398   2.442   3.315 -1.4371 -0.7005  2.8736
 5930SOL    HW229250   4.323   2.478   3.201 -0.0028  1.2229  0.2896
 5931SOL     OW29251   1.864   3.734   8.422 -0.4891  0.1782  0.1723
 5931SOL    HW129252   1.810   3.674   8.370  0.7527  0.6526 -1.6533
 5931SOL    HW229253   1.914   3.667   8.470 -1.2248  0.0585  0.7736
 5932SOL     OW29254   2.522   2.401  14.165 -0.0453 -0.2558  0.5010
 5932SOL    HW129255   2.486   2.485  14.136  1.1837 -0.1787 -0.7793
 5932SOL    HW229256   2.612   2.432  14.173  0.2092 -0.4118 -1.8759
 5933SOL     OW29257   1.594   1.522   3.199  0.9004  0.2488 -0.3841
 5933SOL    HW129258   1.530   1.581   3.159  0.1545 -0.2098  0.1217
 5933SOL    HW229259   1.668   1.578   3.221  0.9735 -0.4019  1.0154
 5934SOL     OW29260   1.639   0.562   5.728  0.1032 -0.3033  0.1685
 5934SOL    HW129261   1.722   0.541   5.685  0.2442 -1.9445  1.2376
 5934SOL    HW229262   1.581   0.582   5.654  1.8487  1.5790 -0.6841
 5935SOL     OW29263   4.711   4.715   2.445  0.0841 -0.1006  0.2229
 5935SOL    HW129264   4.653   4.697   2.518 -1.1369 -1.6787 -1.1263
 5935SOL    HW229265   4.642   0.013   2.382 -0.6013  0.4509  1.1702
 5936SOL     OW29266   4.366   3.092   8.835 -0.2672  0.1383  0.0330
 5936SOL    HW129267   4.413   3.120   8.756  3.6665 -0.1537  2.2767
 5936SOL    HW229268   4.353   2.999   8.818 -3.4651  0.8566 -1.4051
 5937SOL     OW29269   2.966   3.712   3.833  0.2695 -0.7837 -0.5759
 5937SOL    HW129270   2.986   3.758   3.751  0.3586 -1.1989 -0.7858
 5937SOL    HW229271   2.929   3.629   3.802 -2.0882 -0.4965  1.4510
 5938SOL     OW29272   2.525   4.649  17.273  0.5627  0.3251  0.4835
 5938SOL    HW129273   2.439   4.662  17.233  1.3770  2.7411 -0.5214
 5938SOL    HW229274   2.526   4.554  17.281 -2.0834  0.2440 -0.1462
 5939SOL     OW29275   1.729   4.221   0.760  0.3297  0.0626 -0.2437
 5939SOL    HW129276   1.717   4.139   0.808  0.4434  0.4488  0.4508
 5939SOL    HW229277   1.808   4.258   0.801 -0.6907  1.3775  0.5435
 5940SOL     OW29278   1.922   4.031   4.059  0.3277 -0.2120 -0.2170
 5940SOL    HW129279   1.999   4.007   4.110 -0.0843  0.7111  0.8410
 5940SOL    HW229280   1.956   4.116   4.031  0.1055 -0.2933 -0.7421
 5941SOL     OW29281   0.860   2.171   6.404 -0.1849  0.4166 -0.2416
 5941SOL    HW129282   0.797   2.225   6.450 -0.3665  1.0340 -1.2129
 5941SOL    HW229283   0.827   2.082   6.418 -0.7905  0.5913 -0.5569
 5942SOL     OW29284   4.548   2.774   7.745 -0.2803  0.2774  0.5943
 5942SOL    HW129285   4.461   2.749   7.774 -0.1748 -0.8852 -0.0829
 5942SOL    HW229286   4.565   2.851   7.798  0.6976  1.5652 -1.6006
 5943SOL     OW29287   3.301   1.515  10.636  0.0207 -0.2373  0.5715
 5943SOL    HW129288   3.363   1.441  10.638  0.5052  0.1334 -0.7665
 5943SOL    HW229289   3.348   1.586  10.680  2.3553 -0.3315 -1.7507
 5944SOL     OW29290   2.752   0.044   2.426 -0.3809 -0.3838 -0.2764
 5944SOL    HW129291   2.744   0.116   2.488  0.3398 -1.8753  1.5359
 5944SOL    HW229292   2.847   0.041   2.438 -0.4031  1.9523  0.4491
 5945SOL     OW29293   0.323   2.437   1.085 -0.0873  0.3425  0.0849
 5945SOL    HW129294   0.258   2.393   1.140  1.2500 -0.5389  0.9744
 5945SOL    HW229295   0.275   2.500   1.032  0.3949  1.2076  0.6768
 5946SOL     OW29296   0.409   3.408  13.546  0.5585  0.5707 -0.4262
 5946SOL    HW129297   0.391   3.502  13.543 -1.0196  0.3144  0.9318
 5946SOL    HW229298   0.499   3.392  13.516  0.5403 -1.7114  0.6959
 5947SOL     OW29299   0.996   1.129   2.081  0.5247 -0.5837  0.2261
 5947SOL    HW129300   0.930   1.111   2.014  0.2112  1.1367  0.0751
 5947SOL    HW229301   1.048   1.189   2.027 -0.0852  1.8694  2.3330
 5948SOL     OW29302   2.135   2.782   7.257 -0.1637  0.1707 -0.2076
 5948SOL    HW129303   2.110   2.812   7.169  0.8726 -1.5656 -1.0791
 5948SOL    HW229304   2.098   2.851   7.313  0.7962  2.1396 -1.9635
 5949SOL     OW29305   3.590   2.509   5.892 -0.0768  0.4464  0.5513
 5949SOL    HW129306   3.535   2.565   5.946 -0.6776  0.6901 -0.3153
 5949SOL    HW229307   3.527   2.438   5.880  0.0582  0.2364  1.0650
 5950SOL     OW29308   0.646   2.969  17.609 -0.3858 -0.1018 -0.0439
 5950SOL    HW129309   0.654   2.891  17.665  0.8238 -1.3655 -1.9579
 5950SOL    HW229310   0.559   2.950  17.574  0.0863 -0.1649 -1.1883
 5951SOL     OW29311   0.290   2.807   0.123  0.8768  0.6488  0.0815
 5951SOL    HW129312   0.265   2.897   0.143 -0.1081  0.7140 -1.4158
 5951SOL    HW229313   0.240   2.754   0.185  1.0272 -0.6490 -0.8990
 5952SOL     OW29314   1.399   0.016   7.124  0.0407  0.0944 -0.6160
 5952SOL    HW129315   1.444   0.101   7.129 -0.3456  0.2766 -0.2037
 5952SOL    HW229316   1.307   0.039   7.139  0.3581  0.8136  0.2574
 5953SOL     OW29317   0.027   2.445   7.995 -1.2016  0.3697  0.5480
 5953SOL    HW129318   4.720   2.468   7.907 -0.3494  0.2497  0.2138
 5953SOL    HW229319   0.043   2.533   8.030  0.4221  0.2038  0.1930
 5954SOL     OW29320   3.534   2.191   2.036 -0.6985  0.5154  0.3282
 5954SOL    HW129321   3.621   2.166   2.005 -0.8661  1.8088 -1.2212
 5954SOL    HW229322   3.551   2.284   2.049  2.0968  0.2547 -1.4746
 5955SOL     OW29323   3.176   3.092   6.538 -0.3533 -0.2653 -0.7282
 5955SOL    HW129324   3.183   3.167   6.479  1.0167  0.7981  0.8033
 5955SOL    HW229325   3.255   3.042   6.516 -1.9975 -3.3192  0.2816
 5956SOL     OW29326   0.736   4.209  15.891  0.2620  0.1968 -0.5131
 5956SOL    HW129327   0.786   4.289  15.910 -0.4565  0.5556 -0.1023
 5956SOL    HW229328   0.716   4.210  15.797 -0.1823 -0.8202 -0.4272
 5957SOL     OW29329   0.619   3.340   0.977  0.4553 -0.5502 -0.9700
 5957SOL    HW129330   0.547   3.353   0.916 -0.7611 -0.0662  0.5485
 5957SOL    HW229331   0.591   3.257   1.016  2.8784 -0.6717  0.5539
 5958SOL     OW29332   3.025   3.234  14.048  0.3074  0.0529  0.2141
 5958SOL    HW129333   3.082   3.201  13.980  2.1664  0.3946  1.6034
 5958SOL    HW229334   2.995   3.317  14.009  0.7075  0.1804  0.1821
 5959SOL     OW29335   0.342   3.706  12.470  0.1234 -0.2546  0.5203
 5959SOL    HW129336   0.286   3.730  12.396  1.5790  2.4114  0.2922
 5959SOL    HW229337   0.295   3.632  12.507 -1.5480  1.1736  1.2674
 5960SOL     OW29338   2.057   3.478   2.804 -0.5151 -0.2940  0.2876
 5960SOL    HW129339   2.097   3.416   2.744  1.8685  1.5264 -0.0017
 5960SOL    HW229340   2.104   3.561   2.793 -3.2669  1.2972  0.5237
 5961SOL     OW29341   4.318   0.047   6.413 -0.2536  0.3413 -0.3415
 5961SOL    HW129342   4.340   0.052   6.506  0.8031  0.9316 -0.6188
 5961SOL    HW229343   4.246   4.708   6.411  0.4624 -0.4783  0.0389
 5962SOL     OW29344   1.036   3.043   9.622  0.0459  0.4598 -0.1846
 5962SOL    HW129345   0.997   3.052   9.535  0.1499 -1.4682 -0.4427
 5962SOL    HW229346   0.974   2.985   9.667 -0.3306  2.1374  1.4580
 5963SOL     OW29347   1.061   0.877   6.368  0.0485 -0.0002  0.1102
 5963SOL    HW129348   1.042   0.815   6.297  0.5839 -0.4266  0.3398
 5963SOL    HW229349   0.979   0.921   6.388 -0.6323 -1.7563  1.2171
 5964SOL     OW29350   3.327   3.283  17.499  0.0941 -0.0660  0.2533
 5964SOL    HW129351   3.261   3.214  17.510 -2.2043  2.0626 -0.3179
 5964SOL    HW229352   3.340   3.285  17.404 -0.6070  0.7864  0.1811
 5965SOL     OW29353   4.638   3.576   1.207 -0.2689 -0.2480  0.3551
 5965SOL    HW129354   4.608   3.519   1.278  0.8647  1.1118  1.9048
 5965SOL    HW229355   4.568   3.568   1.142 -0.3567  1.4374  0.2569
 5966SOL     OW29356   0.691   3.768  10.665  0.4673  0.4313 -0.8120
 5966SOL    HW129357   0.699   3.845  10.721  0.5877 -0.4757  0.4178
 5966SOL    HW229358   0.765   3.781  10.606  1.3553 -0.1404  0.1852
 5967SOL     OW29359   1.538   3.048   8.469 -0.5524 -0.0275 -0.4143
 5967SOL    HW129360   1.485   3.015   8.542 -0.7505 -1.7437 -1.3172
 5967SOL    HW229361   1.470   3.090   8.416 -0.3238  0.5344 -0.2598
 5968SOL     OW29362   0.611   1.785   1.940 -0.0428  0.2401 -0.1874
 5968SOL    HW129363   0.591   1.840   1.864 -0.0866 -0.0057 -0.3548
 5968SOL    HW229364   0.540   1.820   1.993  0.2970 -2.7637  2.2860
 5969SOL     OW29365   2.038   3.643   7.045 -0.3386 -0.0832 -0.0942
 5969SOL    HW129366   1.990   3.598   7.114  0.5848  0.7904  1.1169
 5969SOL    HW229367   2.092   3.570   7.014  0.1752 -0.0129  0.6458
 5970SOL     OW29368   0.155   3.900   2.424 -0.5324  0.2952 -0.1719
 5970SOL    HW129369   0.150   3.985   2.380 -2.9007 -0.8779 -2.1984
 5970SOL    HW229370   0.113   3.937   2.501 -1.4126 -1.4100  0.1678
 5971SOL     OW29371   1.157   4.195   8.702 -0.2508  0.1357 -0.3043
 5971SOL    HW129372   1.063   4.207   8.704 -0.6719 -3.3675  1.4859
 5971SOL    HW229373   1.166   4.152   8.617  1.2727 -1.5957  0.7087
 5972SOL     OW29374   1.708   2.332   2.185  0.2779 -0.0963 -0.3582
 5972SOL    HW129375   1.738   2.413   2.144  0.1411  0.0190 -0.2308
 5972SOL    HW229376   1.696   2.356   2.277  0.0795  0.0294 -0.4179
 5973SOL     OW29377   3.995   2.692  10.905  0.1770 -0.1459 -0.5360
 5973SOL    HW129378   4.058   2.629  10.941  0.1654 -0.6938 -1.4681
 5973SOL    HW229379   3.911   2.663  10.941 -0.5922  0.0231 -2.2024
 5974SOL     OW29380   4.090   3.727  17.695  0.1973 -0.0968 -0.3025
 5974SOL    HW129381   4.067   3.811  17.656  1.3791  0.1201 -0.5291
 5974SOL    HW229382   4.168   3.753   0.047  0.7121 -0.6964 -0.7873
 5975SOL     OW29383   0.049   1.273  11.020  0.6390 -0.4685 -0.2464
 5975SOL    HW129384   4.699   1.264  11.081 -2.4052  0.4949 -3.7620
 5975SOL    HW229385   0.079   1.183  11.023 -0.3434 -0.8061 -0.3599
 5976SOL     OW29386   4.330   4.160   2.599  0.2892  0.3209 -0.2566
 5976SOL    HW129387   4.237   4.159   2.621 -0.1396 -0.9374 -2.1276
 5976SOL    HW229388   4.320   4.214   2.521  2.1258 -0.0705 -0.7502
 5977SOL     OW29389   3.495   0.065  10.931  0.9772 -0.2934  0.0658
 5977SOL    HW129390   3.478   0.007  11.005 -0.2373 -0.0515 -0.0253
 5977SOL    HW229391   3.423   0.045  10.871  1.9649  2.3079 -1.9803
 5978SOL     OW29392   4.021   4.637   8.358  0.2602  0.5291 -0.1224
 5978SOL    HW129393   4.097   4.634   8.416 -1.0435 -1.1646  1.4900
 5978SOL    HW229394   4.057   4.645   8.270  0.2012 -1.2527 -0.3072
 5979SOL     OW29395   3.143   3.587   6.784 -0.6867  0.5276  0.6083
 5979SOL    HW129396   3.161   3.516   6.846 -2.6206  0.4592  1.1009
 5979SOL    HW229397   3.068   3.627   6.828 -1.5450 -0.1506 -0.2436
 5980SOL     OW29398   4.350   4.351   0.213  0.1987 -0.0038 -0.9464
 5980SOL    HW129399   4.274   4.344   0.156 -0.8605 -0.8247  0.5827
 5980SOL    HW229400   4.316   4.376   0.299  0.7490 -1.0754 -0.4098
 5981SOL     OW29401   0.502   1.386   8.066  0.0652 -1.0588 -0.9857
 5981SOL    HW129402   0.494   1.420   8.155  0.4234 -1.1481 -0.9150
 5981SOL    HW229403   0.541   1.456   8.014 -0.3949  1.6037  2.2419
 5982SOL     OW29404   0.181   4.472   3.437 -0.3238 -0.8869  0.0214
 5982SOL    HW129405   0.220   4.465   3.525 -0.1317 -2.4794 -0.1880
 5982SOL    HW229406   0.252   4.499   3.379 -1.6271 -1.1775 -1.6756
 5983SOL     OW29407   0.876   0.468   3.943 -0.2457  0.0366 -0.4235
 5983SOL    HW129408   0.896   0.384   3.901 -0.0696  0.5507 -1.3683
 5983SOL    HW229409   0.955   0.519   3.928 -0.4856  0.9745  1.4594
 5984SOL     OW29410   0.748   2.420   7.986 -0.5648  0.0204 -0.1096
 5984SOL    HW129411   0.760   2.513   8.005 -2.5099  0.5461 -1.4127
 5984SOL    HW229412   0.777   2.388   8.071  1.8345 -0.7041 -1.2044
 5985SOL     OW29413   4.055   2.316  15.487 -0.0556 -0.3196 -0.4563
 5985SOL    HW129414   4.020   2.384  15.545  1.0433 -2.5772  2.8711
 5985SOL    HW229415   3.982   2.255  15.482 -0.6423  0.1211  2.8176
 5986SOL     OW29416   3.102   3.898  13.128 -0.0093 -0.1706 -0.0270
 5986SOL    HW129417   3.051   3.918  13.050 -1.1790 -0.0141  0.7750
 5986SOL    HW229418   3.109   3.991  13.153  2.0181  0.0294 -1.2979
 5987SOL     OW29419   1.972   0.734  15.029 -0.1339 -0.1843 -0.0458
 5987SOL    HW129420   1.906   0.688  14.978  2.3596 -0.0153 -3.4150
 5987SOL    HW229421   2.036   0.756  14.961 -1.7676 -2.1106 -2.1670
 5988SOL     OW29422   1.641   2.054   3.684  0.0525 -0.0223 -0.4055
 5988SOL    HW129423   1.580   2.027   3.615  1.0787 -2.4137 -0.3760
 5988SOL    HW229424   1.681   1.974   3.717 -0.3635  0.7183  1.9105
 5989SOL     OW29425   2.397   3.633  15.226 -0.1431  0.6289  0.4508
 5989SOL    HW129426   2.388   3.550  15.273 -0.7855  0.6993  0.4396
 5989SOL    HW229427   2.435   3.597  15.145 -1.9916 -0.0567 -0.1009
 5990SOL     OW29428   1.691   4.214   3.783  0.4454  0.6771  0.1692
 5990SOL    HW129429   1.646   4.287   3.741  0.6003  0.2481 -0.7602
 5990SOL    HW229430   1.678   4.238   3.874  0.6026 -0.5199  0.5025
 5991SOL     OW29431   3.772   2.131   4.766 -0.1537 -0.1759  0.0276
 5991SOL    HW129432   3.770   2.216   4.810 -1.4278 -0.1025 -0.1661
 5991SOL    HW229433   3.866   2.113   4.765 -0.1267 -0.0269 -1.1526
 5992SOL     OW29434   4.138   2.857   9.286  0.0202 -0.3816 -0.0980
 5992SOL    HW129435   4.149   2.762   9.279 -1.1610 -0.4104 -1.7086
 5992SOL    HW229436   4.138   2.878   9.192  0.3977 -1.0969 -0.2597
 5993SOL     OW29437   4.578   1.591   2.834  0.3177  0.0415 -0.3571
 5993SOL    HW129438   4.615   1.596   2.745  0.9553 -0.5253 -0.1298
 5993SOL    HW229439   4.535   1.506   2.821  2.0485 -0.7407 -0.9913
 5994SOL     OW29440   0.325   2.952  14.565 -0.1427  0.8866  0.9657
 5994SOL    HW129441   0.360   3.041  14.573 -1.0321  0.9739  4.1326
 5994SOL    HW229442   0.290   2.951  14.476 -0.1745  3.1341  0.9308
 5995SOL     OW29443   0.469   3.920   5.592  0.4889 -0.2406  0.1365
 5995SOL    HW129444   0.426   3.987   5.540 -0.4192  0.5213  1.8638
 5995SOL    HW229445   0.430   3.844   5.548 -1.0822  1.2860 -1.1228
 5996SOL     OW29446   2.332   2.555   5.553 -0.5019 -0.4573 -0.2675
 5996SOL    HW129447   2.237   2.551   5.564 -0.4055 -2.0850  0.0661
 5996SOL    HW229448   2.354   2.462   5.557 -1.5123 -0.6680  0.5747
 5997SOL     OW29449   2.994   2.922   7.767  0.0813 -0.4667  0.0443
 5997SOL    HW129450   2.953   2.998   7.809 -0.7024 -1.2693  0.7399
 5997SOL    HW229451   2.936   2.860   7.811  0.8132 -0.1371  1.4918
 5998SOL     OW29452   1.817   0.401  13.392 -0.0655  0.0113 -0.0628
 5998SOL    HW129453   1.799   0.335  13.460  1.1820 -2.8294 -2.4699
 5998SOL    HW229454   1.879   0.348  13.341  0.0363  0.1135 -0.0458
 5999SOL     OW29455   1.269   1.048   9.310 -0.5719 -0.0258  0.8082
 5999SOL    HW129456   1.234   1.128   9.270  1.3559  0.5152  0.1798
 5999SOL    HW229457   1.292   0.992   9.236  1.7057  1.2420  0.5320
 6000SOL     OW29458   3.519   2.827  15.638 -0.2678 -0.3716  0.5267
 6000SOL    HW129459   3.556   2.914  15.654  0.3577 -0.4483 -0.4768
 6000SOL    HW229460   3.589   2.783  15.588  1.0784  2.4675 -0.1171
 6001SOL     OW29461   1.033   0.713   6.139  0.1170 -0.3986  0.2369
 6001SOL    HW129462   1.093   0.692   6.068 -1.0340 -0.8321 -0.5987
 6001SOL    HW229463   0.961   0.649   6.135  1.8465 -2.3057 -0.6134
 6002SOL     OW29464   3.111   2.094  13.332 -0.0304  0.3401 -0.5897
 6002SOL    HW129465   3.027   2.067  13.369 -0.4394  1.7601 -0.5083
 6002SOL    HW229466   3.164   2.014  13.340  0.2665  1.0442  4.6106
 6003SOL     OW29467   3.618   2.941   1.474  0.1515  0.0491  0.3174
 6003SOL    HW129468   3.596   2.906   1.387 -0.4176  0.3250  0.3453
 6003SOL    HW229469   3.701   2.899   1.496 -0.2652 -0.4081  1.0187
 6004SOL     OW29470   2.946   3.817   2.161 -0.2948 -0.1589  0.0950
 6004SOL    HW129471   3.003   3.864   2.222 -0.2901 -1.2506  0.9365
 6004SOL    HW229472   2.995   3.845   2.084  0.7784 -3.0936 -0.2753
 6005SOL     OW29473   3.935   0.594  13.697 -0.4581 -0.3795  0.1400
 6005SOL    HW129474   3.997   0.559  13.762  1.0581  1.6772 -0.2191
 6005SOL    HW229475   3.861   0.536  13.717 -0.4537 -0.2320  0.5857
 6006SOL     OW29476   2.488   3.197  13.667 -0.1973  0.4868  0.4953
 6006SOL    HW129477   2.460   3.148  13.744 -1.8904  1.1359  0.3009
 6006SOL    HW229478   2.581   3.209  13.682 -0.0267 -0.6258  0.2858
 6007SOL     OW29479   0.532   2.240   7.928 -0.1767 -0.5430  0.0577
 6007SOL    HW129480   0.589   2.317   7.917 -2.4394  0.8573 -1.8657
 6007SOL    HW229481   0.449   2.275   7.896  0.1811  0.1002 -0.1851
 6008SOL     OW29482   0.149   0.138   2.683 -0.3520  0.2173  0.1642
 6008SOL    HW129483   0.220   0.203   2.687 -1.1091  1.0156  0.6355
 6008SOL    HW229484   0.082   0.202   2.660 -1.0793 -0.9147 -0.8220
 6009SOL     OW29485   2.785   3.377   1.445  0.1639  0.2749  0.2301
 6009SOL    HW129486   2.742   3.311   1.499  0.5427  0.2839  0.5390
 6009SOL    HW229487   2.719   3.446   1.452  1.1264  1.2294 -0.0776
 6010SOL     OW29488   2.810   0.038   8.401 -0.0755  0.3599  0.3915
 6010SOL    HW129489   2.864   0.040   8.481 -0.9688 -0.1647  1.0101
 6010SOL    HW229490   2.734   0.077   8.445 -0.9452  0.9074 -1.5835
 6011SOL     OW29491   2.791   0.797   4.849 -0.4229  0.1043 -0.0758
 6011SOL    HW129492   2.703   0.768   4.874 -0.9143  1.1599 -0.5759
 6011SOL    HW229493   2.815   0.732   4.782  2.4328  0.6985  0.3883
 6012SOL     OW29494   3.707   4.639  17.070 -0.0093  0.2927  0.4173
 6012SOL    HW129495   3.688   4.707  17.006 -0.7564 -0.4527 -0.1383
 6012SOL    HW229496   3.792   4.670  17.103 -0.1004  1.7914 -0.8103
 6013SOL     OW29497   1.008   2.390   9.195  0.7459 -0.4313  0.0851
 6013SOL    HW129498   1.015   2.390   9.290 -0.1356  0.8196  0.1452
 6013SOL    HW229499   0.913   2.402   9.190  0.7149 -0.7990 -0.2581
 6014SOL     OW29500   0.315   2.908   4.863 -0.2447  0.1848 -0.0487
 6014SOL    HW129501   0.268   2.834   4.824 -0.7736  0.8423 -0.6517
 6014SOL    HW229502   0.340   2.952   4.781  1.2308 -1.3416 -0.4358
 6015SOL     OW29503   3.593   1.996  13.931  0.5925 -0.1265 -0.3422
 6015SOL    HW129504   3.649   2.036  13.865 -0.9597 -1.5025 -2.4773
 6015SOL    HW229505   3.511   2.010  13.884  0.2238  1.9814  0.9424
 6016SOL     OW29506   3.946   0.274   6.607 -0.0493  0.4280  0.1395
 6016SOL    HW129507   4.000   0.352   6.621  0.0064  0.5778 -0.9391
 6016SOL    HW229508   3.920   0.243   6.694  0.6580  0.1795  0.2680
 6017SOL     OW29509   2.098   0.983  15.804  0.8747  0.2576 -0.2661
 6017SOL    HW129510   2.170   0.932  15.767  2.3917  0.8696  1.7846
 6017SOL    HW229511   2.070   1.040  15.734  1.3531 -1.0988 -1.5654
 6018SOL     OW29512   3.063   0.749   4.319  0.2647 -0.0574 -0.2863
 6018SOL    HW129513   3.141   0.756   4.263 -0.7337 -1.0260 -1.7737
 6018SOL    HW229514   3.064   0.842   4.342  1.6727  0.2629 -1.6086
 6019SOL     OW29515   4.248   0.096   3.904  0.2353 -0.6005  0.4479
 6019SOL    HW129516   4.267   0.023   3.844 -0.6645 -0.0264 -0.5366
 6019SOL    HW229517   4.342   0.101   3.921 -0.0032  3.5144  0.4579
 6020SOL     OW29518   1.417   4.157   4.378  0.0254  0.0642  0.0093
 6020SOL    HW129519   1.498   4.163   4.429  0.9271 -0.4745 -1.3763
 6020SOL    HW229520   1.348   4.173   4.443 -1.0901 -1.6975 -0.7673
 6021SOL     OW29521   1.937   3.118  16.901 -0.2890  0.2968  0.3338
 6021SOL    HW129522   1.895   3.072  16.828  0.0492  1.6557 -0.7360
 6021SOL    HW229523   2.015   3.152  16.855 -1.0846  1.0749 -0.4362
 6022SOL     OW29524   4.693   3.189   4.712 -0.3836  0.3659 -0.3550
 6022SOL    HW129525   0.007   3.105   4.687  3.2564  1.2658  2.1600
 6022SOL    HW229526   0.052   3.236   4.715 -0.8070  1.0877  0.0795
 6023SOL     OW29527   4.015   4.099  12.797  0.5681 -0.0910  0.0797
 6023SOL    HW129528   4.102   4.113  12.759 -0.7859 -0.1054 -3.0647
 6023SOL    HW229529   4.023   4.122  12.889  0.4868 -0.3727  0.1585
 6024SOL     OW29530   1.530   3.183   0.435 -0.0823  0.2310  0.7161
 6024SOL    HW129531   1.493   3.269   0.457 -1.1524  0.5082 -2.1745
 6024SOL    HW229532   1.509   3.129   0.510 -0.1841 -0.4926  0.1663
 6025SOL     OW29533   2.940   1.302   2.044  0.1181 -0.1505  0.0240
 6025SOL    HW129534   2.884   1.378   2.034  0.6008  0.2540  0.3949
 6025SOL    HW229535   2.962   1.303   2.138  2.7920  1.2407 -0.6314
 6026SOL     OW29536   0.349   0.216   0.031  0.1781 -0.6505  1.1768
 6026SOL    HW129537   0.349   0.311   0.037 -0.5625 -0.4356 -2.1712
 6026SOL    HW229538   0.326   0.197   0.122 -0.2519  0.4959  1.3021
 6027SOL     OW29539   1.868   2.149   5.635  0.0675 -0.2034  0.1048
 6027SOL    HW129540   1.908   2.082   5.691 -1.9107  0.7310  2.6354
 6027SOL    HW229541   1.829   2.095   5.567  1.1034  0.2369 -0.8311
 6028SOL     OW29542   4.608   2.077   3.573  0.0108  0.0578 -0.0907
 6028SOL    HW129543   4.538   2.062   3.509  1.9173  1.5164 -2.5088
 6028SOL    HW229544   4.551   2.098   3.647 -1.4487 -1.2764 -0.8252
 6029SOL     OW29545   1.590   3.656   9.521  0.3835 -0.1062  0.2796
 6029SOL    HW129546   1.580   3.694   9.608  3.3044  1.2952 -0.0303
 6029SOL    HW229547   1.684   3.641   9.512  0.4400  0.0175  0.6822
 6030SOL     OW29548   4.212   4.001   5.278  0.0217  0.2626 -0.0359
 6030SOL    HW129549   4.119   3.992   5.298 -0.0510  0.6915 -0.1749
 6030SOL    HW229550   4.204   4.036   5.189  4.6063  3.1345  0.7290
 6031SOL     OW29551   2.029   2.687  10.903  0.7035  0.4624 -0.6440
 6031SOL    HW129552   1.962   2.737  10.950  0.5959 -0.4771  0.2115
 6031SOL    HW229553   2.109   2.737  10.914  0.7452  0.1297  0.5668
 6032SOL     OW29554   2.026   0.558  10.116  0.6929 -0.0386  0.6638
 6032SOL    HW129555   1.933   0.555  10.095  0.9471 -2.8604 -0.1048
 6032SOL    HW229556   2.060   0.617  10.048  1.0305 -0.0566  0.8179
 6033SOL     OW29557   2.825   1.610  15.712  0.2520  0.0006 -0.3749
 6033SOL    HW129558   2.850   1.702  15.718 -3.4285  1.1971 -3.1289
 6033SOL    HW229559   2.737   1.628  15.679 -1.3424 -2.7515  2.4184
 6034SOL     OW29560   3.096   0.431   3.572  0.5748  0.3388 -0.2781
 6034SOL    HW129561   3.042   0.353   3.579 -0.2202  1.1404  2.4804
 6034SOL    HW229562   3.045   0.488   3.629  0.2485 -1.3275  1.1047
 6035SOL     OW29563   0.458   0.073   5.281  0.3980  0.4632  0.4083
 6035SOL    HW129564   0.468   4.702   5.281 -0.4077  0.3769  0.7250
 6035SOL    HW229565   0.457   0.088   5.186 -0.2359 -0.6185  0.2458
 6036SOL     OW29566   2.821   2.034   1.768  0.2838 -0.1653 -0.4603
 6036SOL    HW129567   2.842   2.100   1.701  1.5861  0.2532  0.3545
 6036SOL    HW229568   2.727   2.039   1.755  0.0875 -1.8719  0.3991
 6037SOL     OW29569   2.529   3.882   1.907 -0.4754  0.1975 -0.4202
 6037SOL    HW129570   2.439   3.858   1.931 -0.3867  0.1571 -0.1231
 6037SOL    HW229571   2.583   3.804   1.913  1.9021  1.6973 -2.0541
 6038SOL     OW29572   3.040   2.598   2.389  0.0135 -0.5031 -0.2871
 6038SOL    HW129573   3.044   2.503   2.403  0.4865 -0.3138  0.8600
 6038SOL    HW229574   3.028   2.631   2.478 -2.1078 -0.3975 -0.6170
 6039SOL     OW29575   0.895   0.872  16.976 -0.3365 -0.1382  0.7500
 6039SOL    HW129576   0.821   0.813  16.962  0.4173 -0.8277 -0.4064
 6039SOL    HW229577   0.870   0.946  16.921 -1.7470 -1.7112 -0.7508
 6040SOL     OW29578   1.342   4.483   5.497 -0.6346 -0.1201  0.2777
 6040SOL    HW129579   1.430   4.472   5.532  0.7611 -0.4890 -3.3780
 6040SOL    HW229580   1.323   4.389   5.495 -0.1241 -0.2153 -0.1820
 6041SOL     OW29581   0.343   0.843   5.696 -0.4580 -0.0920 -0.4725
 6041SOL    HW129582   0.268   0.861   5.752  0.8843  1.7862  0.7049
 6041SOL    HW229583   0.336   0.748   5.687 -1.7920  0.1496 -2.0293
 6042SOL     OW29584   3.634   4.318  13.864 -0.2328  0.1239  0.4332
 6042SOL    HW129585   3.610   4.225  13.865  0.8369 -0.1469 -0.0330
 6042SOL    HW229586   3.638   4.338  13.771 -1.7612  0.2724  0.3958
 6043SOL     OW29587   0.465   1.746   6.913 -0.1679 -0.0656  0.1066
 6043SOL    HW129588   0.433   1.681   6.975 -0.8191 -0.0299 -0.1886
 6043SOL    HW229589   0.560   1.735   6.907 -0.2271 -0.3890 -0.2286
 6044SOL     OW29590   0.330   1.183  15.412 -0.5657  0.2145  0.2745
 6044SOL    HW129591   0.419   1.213  15.395 -0.0706 -1.4502 -0.0423
 6044SOL    HW229592   0.330   1.196  15.507 -2.0634 -2.0073  0.5657
 6045SOL     OW29593   3.893   3.632  16.575 -0.4975 -0.5009  0.0188
 6045SOL    HW129594   3.813   3.670  16.610 -1.4532 -2.9837  0.4972
 6045SOL    HW229595   3.964   3.680  16.618 -1.1215  0.2082  0.2601
 6046SOL     OW29596   3.942   0.742   8.321  0.3228  0.0986  0.5103
 6046SOL    HW129597   3.882   0.782   8.384  0.7661 -0.2677  1.1682
 6046SOL    HW229598   4.025   0.735   8.367  1.1361 -1.7204 -1.2238
 6047SOL     OW29599   3.674   1.898   3.811 -0.0009  0.0294  1.0054
 6047SOL    HW129600   3.618   1.956   3.759  0.8978  0.6731  0.7531
 6047SOL    HW229601   3.642   1.914   3.900 -2.4422  0.3129  0.0934
 6048SOL     OW29602   4.323   0.899  11.456  0.0185  0.9689  0.5070
 6048SOL    HW129603   4.386   0.971  11.450  0.9614 -0.0697 -2.4276
 6048SOL    HW229604   4.375   0.838  11.508  0.1685  2.2714  1.8752
 6049SOL     OW29605   3.591   2.382   3.486 -0.2345 -0.1207 -0.6724
 6049SOL    HW129606   3.547   2.417   3.409 -1.3420 -1.9494 -0.8682
 6049SOL    HW229607   3.676   2.348   3.457 -0.2510  0.4749 -1.4113
 6050SOL     OW29608   0.159   4.567   0.430 -0.1226  0.7140  0.1116
 6050SOL    HW129609   0.106   4.488   0.443  0.1795  0.7440  1.5331
 6050SOL    HW229610   0.103   4.641   0.410  0.4086  0.7831 -1.1583
 6051SOL     OW29611   1.894   3.529  17.156  0.7346  0.0679  0.0973
 6051SOL    HW129612   1.811   3.492  17.128  0.3855 -0.2938  1.6464
 6051SOL    HW229613   1.955   3.474  17.106  0.1380 -1.6686  1.2962
 6052SOL     OW29614   3.071   2.916   4.173 -0.6256  0.0287  0.2445
 6052SOL    HW129615   3.007   2.877   4.113  0.8909 -2.5131  0.2643
 6052SOL    HW229616   3.143   2.853   4.180 -0.7154  0.0239  1.0488
 6053SOL     OW29617   1.326   2.671   7.711 -0.0648  0.6191 -0.0291
 6053SOL    HW129618   1.311   2.650   7.803  1.9752  1.4098  0.4754
 6053SOL    HW229619   1.323   2.589   7.660 -0.6931  0.2588  0.5907
 6054SOL     OW29620   0.211   3.128   9.471 -0.1722  0.0509  0.3753
 6054SOL    HW129621   0.281   3.160   9.528  0.9243  1.1304 -1.6167
 6054SOL    HW229622   0.158   3.207   9.457  0.5686  0.6359  0.8870
 6055SOL     OW29623   0.041   2.231   3.417 -0.1699 -0.3059  0.0789
 6055SOL    HW129624   4.703   2.212   3.346 -1.1947  2.1806  0.3093
 6055SOL    HW229625   4.718   2.192   3.490  0.2638 -0.9927 -0.0065
 6056SOL     OW29626   2.853   1.647   4.954 -0.4705 -0.1763 -0.1604
 6056SOL    HW129627   2.904   1.573   4.987 -0.2175  0.9396  1.9222
 6056SOL    HW229628   2.911   1.706   4.906  0.6332  0.0025  1.3891
 6057SOL     OW29629   4.326   3.808   7.640 -0.4348 -0.0223 -0.4409
 6057SOL    HW129630   4.248   3.804   7.695  0.9915 -0.0162  1.5634
 6057SOL    HW229631   4.299   3.864   7.567 -1.6553  0.8429  0.6787
 6058SOL     OW29632   0.434   1.316   7.185 -0.4623  0.1171 -0.1633
 6058SOL    HW129633   0.413   1.290   7.275 -1.7332  1.2929 -0.1279
 6058SOL    HW229634   0.528   1.299   7.184 -0.5296 -0.3171  0.8137
 6059SOL     OW29635   3.563   0.126   2.408 -0.6456  0.1639 -0.4446
 6059SOL    HW129636   3.547   0.220   2.424  0.1128  0.1057  0.6904
 6059SOL    HW229637   3.574   0.093   2.497 -0.6354 -1.1634 -0.9492
 6060SOL     OW29638   4.357   2.379   8.709 -0.1650 -0.4468 -0.2913
 6060SOL    HW129639   4.449   2.352   8.696 -0.0513 -0.7146  1.1325
 6060SOL    HW229640   4.365   2.451   8.771 -3.2091 -1.0032  0.7363
 6061SOL     OW29641   3.280   0.479   4.931 -0.2991 -0.0616  0.1624
 6061SOL    HW129642   3.300   0.559   4.882 -1.2823 -0.4750 -0.9268
 6061SOL    HW229643   3.354   0.422   4.910  0.5707  0.6672  1.2772
 6062SOL     OW29644   2.863   3.897   1.703  0.2994  0.5647  0.0526
 6062SOL    HW129645   2.844   3.927   1.614  1.3714 -0.0105 -0.3765
 6062SOL    HW229646   2.816   3.815   1.716 -0.4312  1.0093  0.1869
 6063SOL     OW29647   0.949   2.230   3.428 -0.4211 -0.1178 -0.5011
 6063SOL    HW129648   0.865   2.212   3.470 -0.4435  1.7488  0.2392
 6063SOL    HW229649   0.993   2.288   3.490  1.4842 -0.4125 -1.5659
 6064SOL     OW29650   1.558   1.776   4.806  0.2257  0.3319 -0.1611
 6064SOL    HW129651   1.581   1.845   4.869  0.0102 -0.1095  0.3958
 6064SOL    HW229652   1.477   1.810   4.767 -0.2969 -0.7086  0.0307
 6065SOL     OW29653   3.792   3.517   4.875 -0.1523 -0.3783  0.1328
 6065SOL    HW129654   3.752   3.562   4.801 -0.5259 -0.3522  0.3492
 6065SOL    HW229655   3.723   3.455   4.901  1.5175 -1.4838  1.9310
 6066SOL     OW29656   2.866   3.668   4.111  0.3899  0.2000 -0.1195
 6066SOL    HW129657   2.868   3.574   4.096  1.4104  0.1036  0.6395
 6066SOL    HW229658   2.919   3.702   4.039 -1.8267 -1.9304 -2.7563
 6067SOL     OW29659   1.655   3.911  14.611 -0.7499  0.0292  0.0035
 6067SOL    HW129660   1.594   3.880  14.678  0.0087  0.3421  0.8480
 6067SOL    HW229661   1.706   3.839  14.575  1.4216  1.1314  0.8288
 6068SOL     OW29662   3.439   3.675  12.988 -0.0533  0.5217 -0.2197
 6068SOL    HW129663   3.387   3.682  12.908  0.1378 -0.3230 -0.4213
 6068SOL    HW229664   3.376   3.668  13.060 -0.2283  0.1092 -0.4122
 6069SOL     OW29665   3.375   2.433   7.490 -0.2583  0.7253 -0.1614
 6069SOL    HW129666   3.399   2.466   7.576 -0.9929  1.5965 -0.2927
 6069SOL    HW229667   3.281   2.419   7.503  0.1512  0.0196  1.9888
 6070SOL     OW29668   0.370   0.761  10.277  0.0374  0.1566  0.2030
 6070SOL    HW129669   0.416   0.685  10.315  1.9596  1.6558  0.8812
 6070SOL    HW229670   0.368   0.824  10.349  0.8709  2.1040 -1.4675
 6071SOL     OW29671   3.088   2.828  10.721 -0.1289 -0.7616  0.1722
 6071SOL    HW129672   3.007   2.859  10.682  0.8002  0.4187 -0.8297
 6071SOL    HW229673   3.121   2.784  10.643  0.1485  0.3116 -0.3149
 6072SOL     OW29674   0.977   1.551   6.916  0.2375 -0.0453  0.0663
 6072SOL    HW129675   0.983   1.562   6.821  1.7537 -0.1771  0.1471
 6072SOL    HW229676   1.071   1.557   6.936 -0.0157 -0.0105  1.2076
 6073SOL     OW29677   0.640   1.041   7.076 -0.0394  0.0930 -0.4101
 6073SOL    HW129678   0.657   1.050   6.982  2.1509 -1.0617 -0.1097
 6073SOL    HW229679   0.714   1.098   7.095  0.5132  0.5026 -3.7522
 6074SOL     OW29680   3.323   3.505   3.805  0.3671  0.1445  0.0688
 6074SOL    HW129681   3.278   3.420   3.803  1.0704 -0.2334  0.4282
 6074SOL    HW229682   3.379   3.492   3.728 -0.1065  2.6718 -0.6813
 6075SOL     OW29683   0.203   1.490   6.493  1.3475 -0.0207 -0.4659
 6075SOL    HW129684   0.259   1.568   6.487 -0.4134  1.1304 -1.9718
 6075SOL    HW229685   0.112   1.519   6.503  1.0267 -1.6158  1.2444
 6076SOL     OW29686   1.339   1.027  17.431  0.4982  0.0368  0.4109
 6076SOL    HW129687   1.246   1.028  17.455  0.0238 -2.1145 -1.4490
 6076SOL    HW229688   1.355   0.991  17.344 -1.3379 -2.2217  1.0199
 6077SOL     OW29689   2.012   1.464   3.718  0.1891  0.4264  0.1673
 6077SOL    HW129690   1.949   1.446   3.788 -0.7625  1.4775 -0.4142
 6077SOL    HW229691   1.954   1.486   3.645  0.7006  1.3869  0.0539
 6078SOL     OW29692   1.897   1.528   2.106  0.0760 -0.2681 -0.1479
 6078SOL    HW129693   1.929   1.476   2.180  0.4613  0.0750 -0.0764
 6078SOL    HW229694   1.973   1.578   2.080 -2.3678  2.5857 -1.7619
 6079SOL     OW29695   0.782   1.960   3.639 -0.0583 -0.2673 -0.2909
 6079SOL    HW129696   0.777   2.056   3.639 -1.5706 -0.3430 -0.3588
 6079SOL    HW229697   0.709   1.946   3.699  1.9204  1.0864  2.4234
 6080SOL     OW29698   0.626   2.049   7.737 -0.6939 -0.6681 -0.1157
 6080SOL    HW129699   0.590   2.118   7.793  0.8022 -0.1415  0.2014
 6080SOL    HW229700   0.554   1.987   7.750  1.1576 -3.0295 -1.2030
 6081SOL     OW29701   1.470   2.134   9.932 -0.5348  0.2529  0.0037
 6081SOL    HW129702   1.437   2.214   9.973  2.8565  1.9815 -0.6573
 6081SOL    HW229703   1.564   2.147   9.924 -0.6107  1.3864  0.8924
 6082SOL     OW29704   3.885   1.932   3.099 -0.3054 -0.1791 -0.0232
 6082SOL    HW129705   3.900   1.960   3.009  0.5030 -0.3144  0.0705
 6082SOL    HW229706   3.799   1.891   3.084 -0.1167 -0.2038 -0.9985
 6083SOL     OW29707   2.259   0.595   8.836 -0.7839 -0.4356  0.1990
 6083SOL    HW129708   2.339   0.543   8.834 -1.3039 -1.2970  1.4027
 6083SOL    HW229709   2.250   0.609   8.931 -2.3514  0.9581 -0.1531
 6084SOL     OW29710   0.368   4.532   8.777  0.2813  0.5116 -0.3138
 6084SOL    HW129711   0.328   4.535   8.864  1.4127  0.1817  0.2132
 6084SOL    HW229712   0.299   4.577   8.728  0.1202 -0.7517 -1.2517
 6085SOL     OW29713   0.782   3.123   7.730 -0.8178 -0.1773 -0.0602
 6085SOL    HW129714   0.845   3.187   7.763  0.5013 -1.3569 -0.2942
 6085SOL    HW229715   0.732   3.112   7.810 -0.1212 -0.2692  0.3655
 6086SOL     OW29716   2.046   0.036   0.549 -0.5541  0.1528 -0.2221
 6086SOL    HW129717   2.011   0.000   0.468  2.3724  0.9496 -1.8055
 6086SOL    HW229718   1.966   0.078   0.583  1.3180  2.8293  0.8778
 6087SOL     OW29719   1.609   4.517   7.676  0.2057  0.5978  0.4312
 6087SOL    HW129720   1.667   4.548   7.746  3.5320 -2.6842 -0.8642
 6087SOL    HW229721   1.620   4.422   7.683  0.6497  0.6657  0.6591
 6088SOL     OW29722   3.178   3.054  17.494  0.3828  0.0842 -0.2340
 6088SOL    HW129723   3.098   3.057  17.441  1.4222 -2.0289 -1.9252
 6088SOL    HW229724   3.198   2.962  17.511 -0.0654 -0.0238 -0.2795
 6089SOL     OW29725   4.172   0.868  12.609 -0.1443 -0.3757 -0.4878
 6089SOL    HW129726   4.101   0.813  12.643  1.7218 -1.0280  2.3401
 6089SOL    HW229727   4.148   0.854  12.517 -0.9506 -0.5482 -0.2474
 6090SOL     OW29728   3.691   3.622   6.283  1.1157 -0.0189  0.5014
 6090SOL    HW129729   3.782   3.632   6.310  1.0327  1.1062  0.3520
 6090SOL    HW229730   3.708   3.602   6.190 -1.0163 -2.1334  0.5505
 6091SOL     OW29731   3.849   1.564   7.190 -0.6032  0.2672 -0.2821
 6091SOL    HW129732   3.883   1.649   7.161  0.4345  0.1179  0.4731
 6091SOL    HW229733   3.800   1.548   7.109  1.2134 -0.2107 -1.2811
 6092SOL     OW29734   3.492   3.991   1.000  0.2172 -0.7484  0.0907
 6092SOL    HW129735   3.541   4.004   1.081  1.2074  1.6289 -0.8876
 6092SOL    HW229736   3.560   3.967   0.937 -0.3923  3.0411 -2.0085
 6093SOL     OW29737   1.739   4.269   7.649  0.4276  0.6909 -0.2593
 6093SOL    HW129738   1.821   4.247   7.695  0.2158  1.9124  0.6926
 6093SOL    HW229739   1.757   4.231   7.563 -3.5592 -3.0540  0.5617
 6094SOL     OW29740   0.042   3.999   7.472 -0.7379 -0.2586 -0.5280
 6094SOL    HW129741   4.720   3.922   7.438 -0.3764 -1.1901  1.1153
 6094SOL    HW229742   0.130   3.963   7.476 -0.1567  1.2902  0.6866
 6095SOL     OW29743   1.826   1.980   2.250 -0.1319  0.0115 -1.2460
 6095SOL    HW129744   1.751   2.017   2.297  0.4396  0.0024 -0.3324
 6095SOL    HW229745   1.896   2.028   2.294  0.0562 -0.2719 -1.2366
 6096SOL     OW29746   4.645   1.263  17.625  0.7818 -0.8509 -0.0313
 6096SOL    HW129747   4.561   1.249  17.581 -1.0072 -0.3727  3.2263
 6096SOL    HW229748   4.608   1.321  17.691  2.3824 -1.7359  1.6664
 6097SOL     OW29749   3.595   2.667   1.899 -0.3821 -0.2779  0.1479
 6097SOL    HW129750   3.674   2.711   1.868 -1.0580  1.2368  0.5730
 6097SOL    HW229751   3.603   2.586   1.849 -0.0612  0.4031 -0.9134
 6098SOL     OW29752   0.803   0.434   3.314 -0.4590  0.0095 -0.2787
 6098SOL    HW129753   0.857   0.512   3.328  0.2337 -0.3997 -0.6857
 6098SOL    HW229754   0.864   0.370   3.350  1.1979  1.3442 -0.6916
 6099SOL     OW29755   3.238   4.503   7.474  0.8874  0.1076  0.1761
 6099SOL    HW129756   3.243   4.585   7.524  0.7318 -0.2805  0.8299
 6099SOL    HW229757   3.327   4.506   7.442  0.9253 -1.7282  0.1120
 6100SOL     OW29758   0.869   4.292   8.719 -0.1299  0.3934 -0.2878
 6100SOL    HW129759   0.788   4.344   8.722  0.0778  0.8083 -1.6895
 6100SOL    HW229760   0.904   4.302   8.808  0.2711 -1.1829 -0.2812
 6101SOL     OW29761   1.888   2.250   9.418  0.1894 -0.2168  0.3226
 6101SOL    HW129762   1.951   2.263   9.489  0.2243  0.0784  0.2376
 6101SOL    HW229763   1.947   2.235   9.344  0.8414  0.9210  0.6196
 6102SOL     OW29764   4.141   2.612  11.432  0.2863  0.4485 -0.1523
 6102SOL    HW129765   4.228   2.583  11.407 -1.3785 -2.4840 -2.5228
 6102SOL    HW229766   4.106   2.631  11.345 -2.5080 -0.9568  0.6719
 6103SOL     OW29767   0.590   4.305   2.228 -0.2051  0.1607 -0.1605
 6103SOL    HW129768   0.642   4.327   2.305  0.6262  0.6644 -0.8734
 6103SOL    HW229769   0.632   4.347   2.153 -1.2833  2.6506  0.6184
 6104SOL     OW29770   3.365   1.913   5.950  0.9714 -0.0137  0.7071
 6104SOL    HW129771   3.324   1.937   5.867  0.4198 -1.9948  0.4123
 6104SOL    HW229772   3.318   1.834   5.975  1.0321 -0.1435  0.4130
 6105SOL     OW29773   4.381   1.305   4.147  0.8937 -0.6234 -0.0309
 6105SOL    HW129774   4.331   1.386   4.148  0.6988 -0.7329 -1.0472
 6105SOL    HW229775   4.410   1.301   4.238 -1.6108  0.1467  0.7768
 6106SOL     OW29776   3.667   1.747   4.671 -0.0669 -0.4826  0.1592
 6106SOL    HW129777   3.695   1.792   4.752 -0.9402 -1.2241  0.8629
 6106SOL    HW229778   3.620   1.819   4.628 -1.4911  0.4785  3.2900
 6107SOL     OW29779   1.595   1.216   7.571 -0.4705  0.5119  0.5449
 6107SOL    HW129780   1.531   1.239   7.639 -1.6197 -2.0464  0.3455
 6107SOL    HW229781   1.611   1.122   7.584 -1.8015 -0.1014 -2.1830
 6108SOL     OW29782   2.629   1.621   2.722 -0.1776  0.0441  0.1207
 6108SOL    HW129783   2.600   1.551   2.780  0.9255 -2.0605 -1.8691
 6108SOL    HW229784   2.712   1.582   2.695 -0.8102  0.3957 -2.3717
 6109SOL     OW29785   3.618   2.775   8.670 -0.3320  0.2214 -0.1087
 6109SOL    HW129786   3.621   2.683   8.645  1.5779  0.4691 -0.8307
 6109SOL    HW229787   3.535   2.776   8.717  0.5148 -0.0637  1.3767
 6110SOL     OW29788   3.659   4.296  17.404  0.5039  0.5263  0.8306
 6110SOL    HW129789   3.569   4.279  17.430  0.1200 -1.1156 -1.4982
 6110SOL    HW229790   3.703   4.212  17.403  3.4622  2.0731  1.4395
 6111SOL     OW29791   2.372   2.283   8.814  0.0363  0.6065 -0.4126
 6111SOL    HW129792   2.332   2.368   8.796  0.3696  1.0498  0.9486
 6111SOL    HW229793   2.352   2.273   8.907  0.6876  2.6033 -0.0562
 6112SOL     OW29794   3.950   3.113   7.969  0.0390 -0.0510 -0.2696
 6112SOL    HW129795   3.922   3.067   7.890 -0.7236 -0.7370  0.3974
 6112SOL    HW229796   3.908   3.077   8.047 -1.4072 -0.3301 -1.1816
 6113SOL     OW29797   2.493   3.911   5.134 -1.2256 -0.2481  0.0759
 6113SOL    HW129798   2.410   3.958   5.130  0.0932  2.0430  0.0750
 6113SOL    HW229799   2.510   3.879   5.046  0.1567  1.4438 -0.2770
 6114SOL     OW29800   3.297   3.859   8.783  0.1736  0.4209 -0.6434
 6114SOL    HW129801   3.267   3.908   8.859 -0.2097 -0.5737 -0.1500
 6114SOL    HW229802   3.314   3.929   8.721 -3.4217  0.4115 -1.5992
 6115SOL     OW29803   2.392   3.867   9.151  0.0985  0.0433 -0.3190
 6115SOL    HW129804   2.304   3.896   9.178  0.8793 -1.0945  3.4460
 6115SOL    HW229805   2.381   3.777   9.122 -1.0766  0.0105  0.2340
 6116SOL     OW29806   2.598   3.277   7.558  0.2796 -0.0111 -0.0897
 6116SOL    HW129807   2.514   3.292   7.602 -0.5260 -2.0376 -0.9720
 6116SOL    HW229808   2.563   3.221   7.490 -0.8859  0.1202  0.3950
 6117SOL     OW29809   4.036   4.363   7.996  0.2728  0.1434 -0.1628
 6117SOL    HW129810   4.084   4.310   7.932  0.1134  1.8684 -1.7416
 6117SOL    HW229811   4.108   4.367   8.058 -1.1873 -0.1531  1.5467
 6118SOL     OW29812   2.380   3.215   5.493 -0.5277 -0.0515 -0.0911
 6118SOL    HW129813   2.437   3.238   5.566  0.2237  1.1654 -1.0790
 6118SOL    HW229814   2.394   3.284   5.428  0.4655 -0.0188  0.1643
 6119SOL     OW29815   3.821   1.511   7.466  0.2976  0.6099  0.5054
 6119SOL    HW129816   3.847   1.532   7.376  3.1588  2.5686  1.7978
 6119SOL    HW229817   3.727   1.508   7.449  0.2722 -3.4144  1.2741
 6120SOL     OW29818   1.509   1.115   6.861  0.2087 -0.2746  0.1791
 6120SOL    HW129819   1.513   1.112   6.956 -0.0047 -0.2420  0.1883
 6120SOL    HW229820   1.556   1.198   6.852  0.8744 -0.5101  1.4858
 6121SOL     OW29821   4.592   1.223   0.436  0.1999  0.2455 -0.0484
 6121SOL    HW129822   4.611   1.143   0.485  0.1894  0.3220  0.0801
 6121SOL    HW229823   4.552   1.181   0.361  1.6286  0.6514 -1.0395
 6122SOL     OW29824   3.785   0.548   5.195 -0.4125  0.6960  0.3686
 6122SOL    HW129825   3.851   0.554   5.126 -0.0182  1.1676  0.7841
 6122SOL    HW229826   3.700   0.540   5.151  0.7563  0.3467 -1.8621
 6123SOL     OW29827   1.402   1.244   8.071  0.0040 -0.0613  0.1908
 6123SOL    HW129828   1.326   1.303   8.077  0.0666 -0.1085  1.4900
 6123SOL    HW229829   1.454   1.261   8.149  0.6414 -1.9585  0.1576
 6124SOL     OW29830   1.576   4.188  17.456  0.3668 -0.2113  0.9868
 6124SOL    HW129831   1.556   4.148  17.372 -2.0285  1.3725  0.8253
 6124SOL    HW229832   1.593   4.277  17.426  0.0138 -0.3388  0.4163
 6125SOL     OW29833   3.120   4.334  14.941  0.3024 -0.0762 -0.6275
 6125SOL    HW129834   3.109   4.282  14.861  1.3279  1.2713 -1.6383
 6125SOL    HW229835   3.162   4.270  14.998 -0.3313  1.9231  2.0855
 6126SOL     OW29836   3.761   0.059   2.894 -0.2787 -0.3547  0.2659
 6126SOL    HW129837   3.693   0.110   2.851 -0.3019  0.1171  0.8574
 6126SOL    HW229838   3.836   0.120   2.893 -1.3710  0.9927  0.2194
 6127SOL     OW29839   3.633   4.605   5.168  0.4324  0.6466 -0.2745
 6127SOL    HW129840   3.673   4.691   5.158  2.6946 -0.3295  0.4897
 6127SOL    HW229841   3.693   4.560   5.228 -0.6930 -0.6371 -0.1148
 6128SOL     OW29842   0.751   1.329   8.496 -0.1826 -0.0621  0.1142
 6128SOL    HW129843   0.722   1.319   8.405 -2.3633 -0.6634  0.8780
 6128SOL    HW229844   0.817   1.261   8.505 -1.0969 -0.9940 -0.2663
 6129SOL     OW29845   0.632   0.918   0.055 -0.5276 -0.0071 -0.1013
 6129SOL    HW129846   0.545   0.890   0.084 -1.3189  0.3701 -2.0692
 6129SOL    HW229847   0.688   0.871   0.117  0.5505  2.3633  0.7123
 6130SOL     OW29848   0.942   3.016   9.370  0.1459 -0.0422  0.1316
 6130SOL    HW129849   0.860   3.061   9.348 -0.0891 -0.1630  0.7602
 6130SOL    HW229850   0.990   3.003   9.288  1.1289  0.0690  0.6938
 6131SOL     OW29851   2.361   1.466   7.173  0.2819  0.4732  0.5698
 6131SOL    HW129852   2.379   1.372   7.165  2.2703  0.8911  0.1066
 6131SOL    HW229853   2.320   1.466   7.259  2.9704 -0.2479  1.8370
 6132SOL     OW29854   3.636   0.253  11.829 -0.3764  0.4224  0.7547
 6132SOL    HW129855   3.543   0.229  11.832  0.2120 -2.0215 -0.4642
 6132SOL    HW229856   3.655   0.342  11.855 -1.0370 -0.2452  3.4732
 6133SOL     OW29857   1.785   1.557   2.902 -0.0825 -0.1936  0.2505
 6133SOL    HW129858   1.813   1.647   2.884 -1.5061  0.4056  1.0449
 6133SOL    HW229859   1.693   1.570   2.923  0.3963  2.4280  0.7428
 6134SOL     OW29860   0.620   0.083  17.691  0.0782  0.5910  0.4595
 6134SOL    HW129861   0.536   0.117  17.660 -0.0077 -0.5922 -0.5930
 6134SOL    HW229862   0.615   0.077   0.088 -0.1259 -0.4584  0.3857
 6135SOL     OW29863   0.212   2.894   5.378 -0.3770  0.3179 -0.1686
 6135SOL    HW129864   0.292   2.916   5.330  0.3511 -1.3118  0.3281
 6135SOL    HW229865   0.246   2.820   5.427  0.6492  0.8618 -0.0575
 6136SOL     OW29866   3.673   2.539   8.315  0.8670 -0.0795  0.0522
 6136SOL    HW129867   3.691   2.518   8.406 -0.2326 -0.3787  0.2052
 6136SOL    HW229868   3.759   2.512   8.285  0.0305 -1.2737 -1.2877
 6137SOL     OW29869   3.029   1.859   2.474 -0.7892 -0.0127  0.1052
 6137SOL    HW129870   3.056   1.804   2.401  0.5777 -0.9975  1.3645
 6137SOL    HW229871   3.088   1.934   2.486  1.3812 -1.7221  0.0853
 6138SOL     OW29872   3.180   4.068   4.612  0.3894  0.1065 -0.0829
 6138SOL    HW129873   3.089   4.097   4.600 -0.4271 -2.5511 -0.2627
 6138SOL    HW229874   3.219   4.153   4.630 -1.8598  0.6982  1.9731
 6139SOL     OW29875   1.969   4.522   3.740  0.3570 -0.4583 -0.3076
 6139SOL    HW129876   1.975   4.480   3.655  0.3626  2.9750 -2.0210
 6139SOL    HW229877   2.048   4.576   3.744  1.3774 -1.9943 -0.1734
 6140SOL     OW29878   2.471   0.730   2.487  0.3929  0.3940  0.1635
 6140SOL    HW129879   2.419   0.706   2.563  2.8196 -0.0967  1.6975
 6140SOL    HW229880   2.461   0.660   2.424  0.5293  1.8284 -1.4568
 6141SOL     OW29881   4.513   2.756   3.377  0.2379 -0.1889 -0.1575
 6141SOL    HW129882   4.590   2.699   3.383 -0.0326 -0.4300  0.9776
 6141SOL    HW229883   4.545   2.825   3.435  0.7408  1.0153 -1.8658
 6142SOL     OW29884   1.488   4.195   5.539 -0.2714  0.2568  0.3627
 6142SOL    HW129885   1.583   4.206   5.534  0.0524 -3.5580 -1.2608
 6142SOL    HW229886   1.474   4.131   5.609  1.9496 -1.0184 -0.3658
 6143SOL     OW29887   2.529   1.725   6.384 -0.8519 -0.0724  0.3984
 6143SOL    HW129888   2.597   1.660   6.396 -1.3957 -0.6798  0.1655
 6143SOL    HW229889   2.451   1.672   6.403  0.2397 -1.5812  0.6288
 6144SOL     OW29890   0.671   4.630   5.817 -0.2822 -0.1900  0.3038
 6144SOL    HW129891   0.715   4.698   5.766  0.5374 -0.0334  1.2227
 6144SOL    HW229892   0.632   4.582   5.744  2.0891 -0.2025 -0.9541
 6145SOL     OW29893   3.143   2.244   7.858 -0.2242 -0.6545 -0.3826
 6145SOL    HW129894   3.085   2.320   7.853  0.8278  0.1731  0.1132
 6145SOL    HW229895   3.225   2.281   7.891 -1.0243 -0.9772  1.9734
 6146SOL     OW29896   1.882   3.050   2.323  0.5740 -0.3511  0.2352
 6146SOL    HW129897   1.854   3.117   2.260  0.7410  1.6388  2.3026
 6146SOL    HW229898   1.858   3.084   2.409  1.0206  0.1530  0.1604
 6147SOL     OW29899   0.003   3.534   3.273 -0.5137  0.2451 -0.0167
 6147SOL    HW129900   4.696   3.445   3.285  0.3185 -0.4209 -2.7970
 6147SOL    HW229901   4.675   3.558   3.197  0.2139 -0.5047 -0.7486
 6148SOL     OW29902   4.586   1.493   6.302 -0.3077 -0.0251  0.3307
 6148SOL    HW129903   4.611   1.508   6.393 -1.9499  0.3397  0.7228
 6148SOL    HW229904   4.635   1.564   6.260 -1.8507  0.4424 -0.6752
 6149SOL     OW29905   4.661   1.719   6.146 -0.3168 -0.8611 -0.4773
 6149SOL    HW129906   4.662   1.800   6.197  0.8086 -1.7431  0.9424
 6149SOL    HW229907   0.030   1.721   6.121  0.1906  1.5534  1.6066
 6150SOL     OW29908   3.372   3.723  11.316  0.2089  0.8077 -0.5846
 6150SOL    HW129909   3.437   3.793  11.322 -0.3608  1.1672  1.4157
 6150SOL    HW229910   3.337   3.749  11.232  0.7585 -1.3658 -1.4860
 6151SOL     OW29911   1.825   3.332   0.990 -0.1825 -0.2281 -0.3308
 6151SOL    HW129912   1.901   3.331   0.932 -0.0964  0.4271 -0.2311
 6151SOL    HW229913   1.811   3.237   0.983 -0.6489 -0.4356  2.9806
 6152SOL     OW29914   3.458   4.227  11.661 -0.0117  0.2181  0.8251
 6152SOL    HW129915   3.396   4.273  11.717 -1.2948 -0.5779  0.0413
 6152SOL    HW229916   3.543   4.269  11.678  0.0769  0.5220 -0.3891
 6153SOL     OW29917   0.641   3.483   4.505  0.0996 -0.4258  0.4795
 6153SOL    HW129918   0.660   3.455   4.415 -3.3361 -0.6089 -0.1915
 6153SOL    HW229919   0.576   3.552   4.492  0.7806  0.4250  1.5983
 6154SOL     OW29920   2.177   2.252  11.456 -0.2901 -0.0188 -0.1668
 6154SOL    HW129921   2.111   2.246  11.387 -0.1730 -1.7882 -0.1356
 6154SOL    HW229922   2.198   2.162  11.480  0.3810  0.1468 -0.1313
 6155SOL     OW29923   4.183   2.037   6.379 -0.3054 -0.0963 -0.0050
 6155SOL    HW129924   4.258   2.068   6.327  0.8270 -1.0162  1.0755
 6155SOL    HW229925   4.148   1.974   6.316  1.3003 -0.1124 -0.8950
 6156SOL     OW29926   3.010   3.063   2.882  0.0270  0.5698  0.1411
 6156SOL    HW129927   3.007   2.991   2.820 -1.2224  2.4575 -1.9949
 6156SOL    HW229928   2.931   3.107   2.852 -1.5798  0.0355  3.6236
 6157SOL     OW29929   3.911   3.407  15.376 -0.7072  0.1766 -0.1398
 6157SOL    HW129930   3.874   3.320  15.360 -1.4576  0.1102  1.9660
 6157SOL    HW229931   3.993   3.396  15.327  0.7827 -1.6887  2.7994
 6158SOL     OW29932   1.170   0.875  17.002  0.6051 -0.3980  0.4167
 6158SOL    HW129933   1.076   0.894  17.009  0.9393  0.4184  2.6631
 6158SOL    HW229934   1.162   0.782  17.021  2.8522 -0.7720 -0.5863
 6159SOL     OW29935   3.090   3.027  10.219 -0.1618  0.7543  0.2494
 6159SOL    HW129936   3.158   3.087  10.186  1.1563 -0.0231  1.5233
 6159SOL    HW229937   3.010   3.049  10.172 -0.6701  1.4436  1.4406
 6160SOL     OW29938   1.362   3.634   6.955 -0.3892 -0.5250  0.1205
 6160SOL    HW129939   1.341   3.566   6.891 -0.2232 -0.6938  0.2447
 6160SOL    HW229940   1.439   3.599   6.999  0.6015 -1.3462 -2.2676
 6161SOL     OW29941   0.218   3.612   8.170 -0.3611 -0.1300  0.1776
 6161SOL    HW129942   0.296   3.643   8.216 -0.0297  1.6623 -1.5921
 6161SOL    HW229943   0.217   3.675   8.098 -2.7114  0.5073  0.7663
 6162SOL     OW29944   4.600   0.350  13.494  0.2324 -0.4612  0.4904
 6162SOL    HW129945   4.576   0.302  13.574 -3.1852 -0.0238 -0.2529
 6162SOL    HW229946   4.593   0.443  13.514  0.7248 -0.5324  0.9873
 6163SOL     OW29947   4.373   3.612   4.359  0.3788  0.4383  0.0747
 6163SOL    HW129948   4.435   3.584   4.292 -1.0612 -2.7704  0.1323
 6163SOL    HW229949   4.327   3.532   4.381 -2.2945  1.1949 -2.9028
 6164SOL     OW29950   0.638   4.324   8.282  0.2442 -0.4638 -0.1000
 6164SOL    HW129951   0.670   4.385   8.216 -0.0280  1.5592  1.6501
 6164SOL    HW229952   0.576   4.381   8.328  0.8275  0.2789 -0.2512
 6165SOL     OW29953   3.161   2.162   6.552 -0.2553  0.0613 -0.1294
 6165SOL    HW129954   3.101   2.153   6.478  2.6420  0.0717 -2.5086
 6165SOL    HW229955   3.176   2.070   6.575  0.0918  0.4729  1.2467
 6166SOL     OW29956   1.001   2.635   5.111  0.1244  0.1015 -0.2824
 6166SOL    HW129957   0.982   2.593   5.028  3.3552 -1.6399 -0.1336
 6166SOL    HW229958   0.991   2.727   5.086 -2.1775  0.0791  0.5985
 6167SOL     OW29959   1.755   1.154   8.881 -0.1135 -0.0961 -0.2210
 6167SOL    HW129960   1.774   1.189   8.794  0.5206  0.9260  0.3261
 6167SOL    HW229961   1.833   1.195   8.918  0.4466 -0.5632 -0.8874
 6168SOL     OW29962   0.049   3.104   5.324 -0.2383 -0.5086  0.1005
 6168SOL    HW129963   0.092   3.027   5.362 -2.0708 -1.1329  0.9037
 6168SOL    HW229964   4.722   3.055   5.259  0.0489 -2.7730  1.5700
 6169SOL     OW29965   0.477   4.230   5.884  0.6256 -0.0174 -0.2559
 6169SOL    HW129966   0.456   4.236   5.791 -0.3357  3.0003  0.1728
 6169SOL    HW229967   0.483   4.137   5.909 -0.7127  0.0046  0.1558
 6170SOL     OW29968   0.447   2.607   5.568  0.0422 -0.3977  0.5362
 6170SOL    HW129969   0.454   2.688   5.517 -1.3236 -1.2838 -1.0915
 6170SOL    HW229970   0.389   2.558   5.508  0.6913 -0.6602  0.1221
 6171SOL     OW29971   3.905   2.466   8.153 -0.0329 -0.0356 -0.1332
 6171SOL    HW129972   3.888   2.372   8.148  0.0215 -0.0138 -0.7014
 6171SOL    HW229973   3.999   2.471   8.171  0.5892  0.7449 -3.6415
 6172SOL     OW29974   4.547   1.157   2.505 -0.4307  0.1068  0.5315
 6172SOL    HW129975   4.506   1.126   2.585  0.8906 -1.2774  0.6607
 6172SOL    HW229976   4.485   1.210   2.454  0.3930 -0.2809 -0.8920
 6173SOL     OW29977   1.426   0.894   9.651 -0.0121 -0.5519  0.1981
 6173SOL    HW129978   1.373   0.963   9.612 -0.1544 -1.9033 -1.9891
 6173SOL    HW229979   1.491   0.871   9.585 -0.6762 -3.0099  0.4155
 6174SOL     OW29980   1.199   3.320   1.915 -0.0029  0.3206  0.1244
 6174SOL    HW129981   1.220   3.248   1.975  2.4192  0.4137 -0.6380
 6174SOL    HW229982   1.274   3.375   1.938 -0.4841 -0.2035  3.0198
 6175SOL     OW29983   1.369   2.989   6.693  0.4579 -0.4374 -0.0761
 6175SOL    HW129984   1.459   3.014   6.671  0.7786 -1.2732  0.2720
 6175SOL    HW229985   1.344   2.926   6.626  0.9967 -1.1953  0.4284
 6176SOL     OW29986   2.208   3.872   4.568 -0.6916 -0.1959  0.0785
 6176SOL    HW129987   2.124   3.848   4.607 -1.5191  2.1659 -0.2469
 6176SOL    HW229988   2.193   3.888   4.475  3.0645  1.7403 -0.2044
 6177SOL     OW29989   2.560   4.535   8.210  0.3857  0.6055 -0.1897
 6177SOL    HW129990   2.545   4.589   8.132 -1.3890  1.3179  0.6470
 6177SOL    HW229991   2.623   4.471   8.176  0.3300 -0.0028  0.8650
 6178SOL     OW29992   4.071   1.935   6.767  0.6730 -0.2704  0.7087
 6178SOL    HW129993   4.015   2.004   6.804  2.5553  0.3135  2.4134
 6178SOL    HW229994   4.155   1.980   6.764  1.1526 -1.3402 -1.5917
 6179SOL     OW29995   3.235   0.351   4.395 -0.3569 -0.2614 -0.3895
 6179SOL    HW129996   3.290   0.336   4.318 -1.9411  1.5494 -1.8620
 6179SOL    HW229997   3.242   0.268   4.442 -2.8917 -1.0305 -1.3594
 6180SOL     OW29998   3.202   4.422   2.012  0.1159 -0.0171  0.1247
 6180SOL    HW129999   3.236   4.334   1.997 -2.1187 -0.7832 -0.4965
 6180SOL    HW230000   3.186   4.455   1.923  0.4479  0.5687  0.2777
 6181SOL     OW30001   3.959   3.021   9.397 -0.4339 -0.2019  0.0838
 6181SOL    HW130002   3.967   3.042   9.490 -0.1270  0.4187 -0.0843
 6181SOL    HW230003   4.035   2.970   9.372  1.3681  2.8803 -0.7097
 6182SOL     OW30004   0.523   4.153  10.067 -0.5757 -0.2494  0.2184
 6182SOL    HW130005   0.523   4.058  10.066 -1.2939 -0.2541  0.6784
 6182SOL    HW230006   0.589   4.163  10.136  1.5701 -2.5001 -1.5086
 6183SOL     OW30007   3.814   1.557  16.825  0.3185 -0.0601 -0.1563
 6183SOL    HW130008   3.726   1.543  16.789  0.6472  0.2074 -1.0667
 6183SOL    HW230009   3.861   1.523  16.749 -2.3543  1.9678 -2.7021
 6184SOL     OW30010   0.124   1.279  11.554  0.3414 -0.5447 -0.3491
 6184SOL    HW130011   0.215   1.287  11.583 -0.2986  0.4717  1.3164
 6184SOL    HW230012   0.124   1.310  11.463  2.6049 -0.4075 -0.2983
 6185SOL     OW30013   1.043   2.910   6.574  0.2721  0.5287  0.4385
 6185SOL    HW130014   0.991   2.989   6.559  1.7886  1.4027 -0.3186
 6185SOL    HW230015   1.133   2.931   6.547  0.5124 -0.3915  0.5295
 6186SOL     OW30016   3.784   3.168   0.758 -0.0106 -0.2029  0.2909
 6186SOL    HW130017   3.704   3.221   0.751 -0.6871 -1.2763 -0.1159
 6186SOL    HW230018   3.836   3.188   0.680 -0.1583 -0.6792  0.0689
 6187SOL     OW30019   1.774   2.872   3.751 -0.4331 -0.4670  0.2279
 6187SOL    HW130020   1.870   2.877   3.760 -0.5173  0.2135  0.7056
 6187SOL    HW230021   1.764   2.849   3.659 -2.0663 -1.5245  0.6749
 6188SOL     OW30022   1.411   2.627   3.939  0.1709  0.1212  0.0323
 6188SOL    HW130023   1.336   2.569   3.922 -0.4443  1.0746 -0.5526
 6188SOL    HW230024   1.401   2.635   4.034 -0.4203 -2.7251  0.1918
 6189SOL     OW30025   4.558   2.511  16.443 -0.3949 -0.2804 -0.0063
 6189SOL    HW130026   4.567   2.477  16.354  0.8297  0.9859 -0.3628
 6189SOL    HW230027   4.643   2.551  16.462 -0.0000 -1.5847  0.9650
 6190SOL     OW30028   4.284   2.117   3.503  0.3619 -0.7047  0.0602
 6190SOL    HW130029   4.192   2.117   3.477  0.5909  0.5595 -0.7450
 6190SOL    HW230030   4.292   2.023   3.518 -0.5954 -0.4269  2.2244
 6191SOL     OW30031   2.428   3.376  15.853  0.3766 -0.3057  0.1368
 6191SOL    HW130032   2.489   3.449  15.852 -2.5098  2.1281  0.6513
 6191SOL    HW230033   2.376   3.373  15.773  0.3733 -1.4761  0.1705
 6192SOL     OW30034   4.216   0.959   1.657  0.1818 -0.0911 -0.9089
 6192SOL    HW130035   4.303   0.922   1.668 -0.8251 -1.7733  1.2415
 6192SOL    HW230036   4.166   0.901   1.714  0.0067  0.4403 -0.5207
 6193SOL     OW30037   0.508   0.213   0.514  0.1099  0.3310  0.3697
 6193SOL    HW130038   0.485   0.305   0.524  1.6973  0.7995 -0.3140
 6193SOL    HW230039   0.604   0.219   0.511  0.1772 -1.5153 -1.3021
 6194SOL     OW30040   2.800   0.468  17.595  0.4248  0.5050 -0.5754
 6194SOL    HW130041   2.747   0.407  17.544 -0.4352 -0.0425  0.9725
 6194SOL    HW230042   2.763   0.461  17.683 -1.0455  0.1107 -1.2219
 6195SOL     OW30043   3.276   3.079   3.431 -0.1524  0.1694 -0.1963
 6195SOL    HW130044   3.291   3.115   3.518  1.8133 -3.3044  0.8608
 6195SOL    HW230045   3.188   3.115   3.418 -0.8646 -1.7880 -0.8606
 6196SOL     OW30046   1.832   1.625   4.761  0.4648  0.1240 -0.3682
 6196SOL    HW130047   1.880   1.651   4.839  3.4717 -2.8352 -1.2307
 6196SOL    HW230048   1.747   1.668   4.774  1.5281  2.1400 -0.0489
 6197SOL     OW30049   3.668   2.085   2.696 -0.2511 -0.1566  0.2418
 6197SOL    HW130050   3.590   2.052   2.741  2.1285 -4.5249  1.1966
 6197SOL    HW230051   3.649   2.067   2.604 -0.8014 -1.9005  0.6865
 6198SOL     OW30052   2.110   2.096   2.599 -0.2480  0.1149 -0.7048
 6198SOL    HW130053   2.036   2.153   2.620 -1.2908 -1.6175  0.3129
 6198SOL    HW230054   2.080   2.007   2.616 -0.7627  0.5441  0.6074
 6199SOL     OW30055   3.446   0.094   6.956  0.1982 -0.0258  0.6257
 6199SOL    HW130056   3.397   0.050   7.027 -1.8091 -0.7195 -1.1944
 6199SOL    HW230057   3.509   0.133   7.016 -1.0337  1.0933  1.1936
 6200SOL     OW30058   4.050   4.268   8.504  0.5952  0.3833 -0.9735
 6200SOL    HW130059   4.077   4.182   8.534 -0.3474 -0.0851 -1.4707
 6200SOL    HW230060   4.109   4.320   8.559 -1.5081 -0.7155  2.3417
 6201SOL     OW30061   1.241   1.884   1.652  0.3544 -0.1994 -0.1248
 6201SOL    HW130062   1.239   1.919   1.741 -2.6446 -1.7584  0.4259
 6201SOL    HW230063   1.149   1.867   1.632  0.8753 -1.4803 -1.4041
 6202SOL     OW30064   0.137   4.112   7.925  0.3429 -0.1572  0.0184
 6202SOL    HW130065   0.130   4.161   7.843  0.6058 -1.4049 -0.7538
 6202SOL    HW230066   0.185   4.178   7.974  1.3964 -0.0183 -1.2260
 6203SOL     OW30067   3.483   1.996   3.039  0.3958 -0.2401 -0.4723
 6203SOL    HW130068   3.494   1.901   3.040 -1.4156 -0.4367  0.1734
 6203SOL    HW230069   3.473   2.013   2.945  1.9216 -0.9307 -0.7605
 6204SOL     OW30070   4.519   2.168  17.522  0.5300  0.3284 -0.0270
 6204SOL    HW130071   4.465   2.178  17.601 -0.0427  0.4042 -0.4355
 6204SOL    HW230072   4.601   2.139  17.563  0.4291  0.2284  0.1068
 6205SOL     OW30073   2.884   2.319   4.654 -0.3038  0.3541 -0.3269
 6205SOL    HW130074   2.892   2.224   4.660 -1.9653 -0.0201 -4.0304
 6205SOL    HW230075   2.877   2.342   4.562 -2.0699  0.1652 -0.2392
 6206SOL     OW30076   3.049   0.940   3.159  0.2389 -0.2379  0.3410
 6206SOL    HW130077   3.113   1.010   3.177 -0.3028 -0.1755  1.9618
 6206SOL    HW230078   2.965   0.982   3.142 -0.8522 -2.4638  0.2985
 6207SOL     OW30079   3.600   3.333   7.929  0.0861 -0.1755 -0.6434
 6207SOL    HW130080   3.576   3.250   7.970 -1.7591  0.1606 -1.0494
 6207SOL    HW230081   3.564   3.395   7.992  0.4305 -0.3136 -0.3129
 6208SOL     OW30082   4.170   4.170   7.850  0.1821 -0.6182 -0.1212
 6208SOL    HW130083   4.097   4.109   7.858  0.2558 -0.7014 -0.0740
 6208SOL    HW230084   4.238   4.110   7.880 -1.3197  0.0497  4.4985
 6209SOL     OW30085   3.957   2.004   1.218 -0.8511 -0.1415 -0.4124
 6209SOL    HW130086   3.975   2.028   1.127 -1.1563  0.8268 -0.2208
 6209SOL    HW230087   3.911   1.922   1.203 -1.7286  0.7548 -2.6284
 6210SOL     OW30088   2.302   0.698  12.473  0.6984 -0.0007 -0.1986
 6210SOL    HW130089   2.271   0.638  12.541 -1.3886  0.4153 -0.7886
 6210SOL    HW230090   2.261   0.662  12.394 -2.1966  0.5769  1.0116
 6211SOL     OW30091   1.555   1.565   7.039 -0.3478 -0.0161 -0.2999
 6211SOL    HW130092   1.589   1.488   6.994  2.9696  0.2544  1.7299
 6211SOL    HW230093   1.607   1.556   7.118  1.7670 -2.4065 -1.9604
 6212SOL     OW30094   4.133   1.435   7.231 -0.4769 -0.3057 -0.0215
 6212SOL    HW130095   4.050   1.464   7.269 -1.4482 -0.7716 -1.8205
 6212SOL    HW230096   4.104   1.451   7.141  1.0902  2.0557 -0.1015
 6213SOL     OW30097   4.047   1.904   5.868  0.3824 -0.7097  0.3634
 6213SOL    HW130098   4.039   1.994   5.900 -0.6415 -0.5031 -0.4609
 6213SOL    HW230099   4.043   1.915   5.773  0.6424 -1.7952  0.2285
 6214SOL     OW30100   1.373   0.703   7.732  0.5759  0.6245 -0.2549
 6214SOL    HW130101   1.439   0.687   7.800  0.6324  0.4213 -0.3571
 6214SOL    HW230102   1.372   0.614   7.696  0.2955  0.7024 -0.4346
 6215SOL     OW30103   0.573   1.564   1.580 -0.4193 -0.2930  0.3216
 6215SOL    HW130104   0.629   1.501   1.624 -2.7786 -1.0704  2.2554
 6215SOL    HW230105   0.539   1.510   1.509 -0.5327 -0.7480  0.7211
 6216SOL     OW30106   1.140   1.086  12.502  0.0306  0.0518 -0.3707
 6216SOL    HW130107   1.055   1.115  12.468 -0.4718 -0.0568  0.8181
 6216SOL    HW230108   1.124   1.015  12.563  3.6072 -0.4705 -0.0419
 6217SOL     OW30109   2.071   1.930   5.191  0.6857  0.4787 -0.3087
 6217SOL    HW130110   2.048   1.861   5.253 -1.0879 -0.5162 -2.0991
 6217SOL    HW230111   2.103   2.001   5.248 -0.6139 -0.7134  1.8863
 6218SOL     OW30112   2.938   4.237   3.360  0.3990 -0.2230  0.0731
 6218SOL    HW130113   2.915   4.153   3.319  0.1037 -0.2381  0.2721
 6218SOL    HW230114   3.008   4.207   3.418  1.8586  2.1219 -0.4725
 6219SOL     OW30115   2.194   0.954   6.439  0.2827  0.3893  0.6722
 6219SOL    HW130116   2.279   0.994   6.420  0.9371 -0.6150  1.4926
 6219SOL    HW230117   2.205   0.943   6.533  0.1771  1.5107  0.8183
 6220SOL     OW30118   2.484   3.147   3.697 -0.4369  0.3318  0.0952
 6220SOL    HW130119   2.566   3.111   3.662  0.7989  1.0641  2.2053
 6220SOL    HW230120   2.475   3.234   3.657 -1.5181 -0.5631 -1.5997
 6221SOL     OW30121   2.874   1.701  13.024 -0.5547 -0.5178 -0.3236
 6221SOL    HW130122   2.915   1.648  13.093 -0.8327  1.6758  1.5138
 6221SOL    HW230123   2.790   1.656  13.022 -0.1953 -1.1526 -1.0976
 6222SOL     OW30124   2.044   2.315   9.670  0.0194  0.6075  0.5528
 6222SOL    HW130125   1.976   2.377   9.695  0.0628  1.1926 -0.8185
 6222SOL    HW230126   2.105   2.329   9.742  0.1227 -1.5566  0.8724
 6223SOL     OW30127   1.074   2.894  15.806  0.7677  0.4078  0.0721
 6223SOL    HW130128   1.058   2.955  15.733  1.4200  1.2706  0.6494
 6223SOL    HW230129   1.146   2.840  15.774  0.0528 -0.8956  0.6872
 6224SOL     OW30130   0.672   3.734  14.123  0.4892  0.2035  0.6612
 6224SOL    HW130131   0.644   3.752  14.033 -0.1025 -0.5170  0.6923
 6224SOL    HW230132   0.767   3.732  14.124  0.5272  2.3060  1.0071
 6225SOL     OW30133   0.243   0.020   1.737  0.0044 -0.4663  0.1548
 6225SOL    HW130134   0.313   0.034   1.801 -0.3773  1.5455  0.1259
 6225SOL    HW230135   0.255   4.654   1.708  0.5309 -0.8874  1.6916
 6226SOL     OW30136   0.923   0.034   5.719 -0.2138 -0.1218 -0.4149
 6226SOL    HW130137   1.017   0.043   5.703  0.0110 -2.3672 -0.4231
 6226SOL    HW230138   0.888   0.064   5.636  1.8296  1.5801 -0.6725
 6227SOL     OW30139   2.452   4.684  12.349 -0.5075  0.0897 -0.1270
 6227SOL    HW130140   2.441   4.613  12.285  0.5034 -0.1790 -0.0073
 6227SOL    HW230141   2.451   0.037  12.293  0.9836  0.4574  0.3437
 6228SOL     OW30142   1.898   4.073  10.638  0.1859 -0.1352  0.3348
 6228SOL    HW130143   1.914   3.990  10.594 -1.0458 -0.4406  0.4561
 6228SOL    HW230144   1.823   4.102  10.586 -0.6451  2.1106  2.7973
 6229SOL     OW30145   0.174   2.227   6.835  0.2022 -0.0595 -0.2046
 6229SOL    HW130146   0.124   2.148   6.814  2.0923 -0.7993 -1.9189
 6229SOL    HW230147   0.256   2.181   6.856 -0.2311 -0.2794  1.0366
 6230SOL     OW30148   0.016   3.891  15.568 -0.5177  0.6340 -0.3185
 6230SOL    HW130149   0.036   3.907  15.475  1.7680  0.5667  0.1504
 6230SOL    HW230150   4.667   3.829  15.573 -0.1385  0.2794  0.8311
 6231SOL     OW30151   3.203   2.745   3.602  0.0088  0.4206  0.4675
 6231SOL    HW130152   3.203   2.725   3.695  1.8495 -2.4880 -0.1727
 6231SOL    HW230153   3.295   2.764   3.584 -0.0010  1.4214  1.4602
 6232SOL     OW30154   1.817   4.215   2.314 -0.0810  0.1785 -0.3366
 6232SOL    HW130155   1.787   4.284   2.373 -0.9933  1.8574 -2.7563
 6232SOL    HW230156   1.785   4.248   2.230 -0.6038 -0.5289 -0.4120
 6233SOL     OW30157   4.559   3.878   4.382  0.1636 -0.1639  0.1297
 6233SOL    HW130158   4.476   3.848   4.345  0.3956  0.5530 -1.0027
 6233SOL    HW230159   4.623   3.830   4.329 -1.7136 -0.0359 -2.2911
 6234SOL     OW30160   3.063   2.264   1.088  0.0077  0.4864 -0.1027
 6234SOL    HW130161   3.049   2.359   1.087 -3.6159 -0.0304  2.2312
 6234SOL    HW230162   3.095   2.259   1.179  0.3671 -0.1115 -0.2591
 6235SOL     OW30163   3.333   2.872   8.212 -0.3638 -0.0555  0.4433
 6235SOL    HW130164   3.253   2.864   8.161  1.1538 -0.9218 -1.8292
 6235SOL    HW230165   3.332   2.789   8.261  1.7003 -0.4885 -0.2206
 6236SOL     OW30166   3.294   1.918   0.974 -0.0201  0.1394 -0.2493
 6236SOL    HW130167   3.248   1.836   0.994  0.6127 -0.0384  0.4599
 6236SOL    HW230168   3.286   1.911   0.878  0.6758 -2.9397 -0.0825
 6237SOL     OW30169   3.826   3.965  15.531  0.1386  0.5538  0.2160
 6237SOL    HW130170   3.914   3.929  15.521 -0.0944  0.1580 -0.4172
 6237SOL    HW230171   3.768   3.902  15.575  0.9841 -0.3688  0.0217
 6238SOL     OW30172   4.057   0.752   9.585  0.0038 -0.1934 -0.2303
 6238SOL    HW130173   4.093   0.837   9.612  0.3245 -0.4734  0.2340
 6238SOL    HW230174   4.098   0.698   9.653  0.6201 -0.9702 -1.2156
 6239SOL     OW30175   2.194   0.024   7.048 -0.1289  0.6772 -0.3726
 6239SOL    HW130176   2.288   0.009   7.046 -0.2726 -0.3926  1.4983
 6239SOL    HW230177   2.181   0.052   6.957  0.5470  0.4544 -0.5356
 6240SOL     OW30178   0.699   0.839   3.015  0.1515  0.0253  0.0663
 6240SOL    HW130179   0.615   0.878   2.989  0.1910  0.2145  0.2289
 6240SOL    HW230180   0.665   0.755   3.048 -0.9467 -0.5481 -2.5170
 6241SOL     OW30181   1.200   3.150   5.951 -0.2356 -0.0394  0.0549
 6241SOL    HW130182   1.286   3.130   5.988 -0.4674  0.7886  1.0428
 6241SOL    HW230183   1.194   3.242   5.977 -2.8692  0.0498 -0.9347
 6242SOL     OW30184   3.483   3.675   6.991  0.0171  0.6409  0.1348
 6242SOL    HW130185   3.541   3.705   7.061 -1.8570 -1.6529  2.6613
 6242SOL    HW230186   3.393   3.688   7.021 -0.5296  2.2362 -2.2402
 6243SOL     OW30187   2.157   0.580   6.597 -0.1899 -0.1304 -0.2540
 6243SOL    HW130188   2.161   0.611   6.688 -1.4010  0.1749 -0.3147
 6243SOL    HW230189   2.228   0.515   6.594  1.0944  1.3213 -0.9227
 6244SOL     OW30190   3.073   1.590  17.497 -0.1572 -0.3201 -0.0375
 6244SOL    HW130191   2.985   1.555  17.481  0.4022 -1.4313 -0.6319
 6244SOL    HW230192   3.057   1.677  17.535  0.0416  0.3894 -1.5748
 6245SOL     OW30193   2.898   0.419   2.941  0.3714 -0.0338  0.1798
 6245SOL    HW130194   2.819   0.390   2.987  0.3110 -0.3029 -0.0911
 6245SOL    HW230195   2.969   0.389   2.997  0.7218 -1.2373 -0.9250
 6246SOL     OW30196   2.110   2.945   4.554 -0.3274  0.1519 -0.3889
 6246SOL    HW130197   2.168   3.021   4.558  0.9404 -0.9336  1.7837
 6246SOL    HW230198   2.034   2.994   4.524 -0.6579 -0.5490 -0.6921
 6247SOL     OW30199   3.404   3.574  10.072  0.4298 -0.2810 -0.4699
 6247SOL    HW130200   3.437   3.498  10.024  1.5428 -1.4088  2.0941
 6247SOL    HW230201   3.324   3.545  10.115  0.8892 -1.3893 -0.3737
 6248SOL     OW30202   0.211   1.393   8.431  0.2098 -0.2018  0.4710
 6248SOL    HW130203   0.182   1.361   8.516  1.1178 -1.7804  0.1811
 6248SOL    HW230204   0.145   1.462   8.423 -0.1813 -0.6298  0.0140
 6249SOL     OW30205   2.143   3.923   7.056 -0.7379 -0.2352 -0.4334
 6249SOL    HW130206   2.172   3.936   6.965 -0.5328 -2.2350 -0.6554
 6249SOL    HW230207   2.078   3.853   7.052  1.4147 -2.2356  0.0646
 6250SOL     OW30208   2.574   3.561   1.433 -0.5341 -0.0827  0.1538
 6250SOL    HW130209   2.519   3.630   1.470 -1.9515 -0.7362 -0.7321
 6250SOL    HW230210   2.531   3.537   1.351 -4.3219  0.2410  2.0619
 6251SOL     OW30211   4.573   0.388  17.567  0.5035  0.5612 -0.4103
 6251SOL    HW130212   4.533   0.351  17.646  2.5024 -3.0105 -1.0596
 6251SOL    HW230213   4.666   0.380  17.586 -0.1952  0.5419  2.9987
 6252SOL     OW30214   2.255   1.466  16.961 -0.1502  0.5284  0.0185
 6252SOL    HW130215   2.268   1.424  16.876 -2.6428 -1.3341  0.5643
 6252SOL    HW230216   2.162   1.445  16.975 -0.0610 -0.4649 -0.9049
 6253SOL     OW30217   2.636   4.349   0.401  0.4236 -0.5128  0.2879
 6253SOL    HW130218   2.603   4.419   0.457 -0.9073 -0.6933 -0.2828
 6253SOL    HW230219   2.722   4.331   0.439 -0.2829 -1.5668  1.3652
 6254SOL     OW30220   3.235   0.045   4.479 -0.1024  0.0937  0.5361
 6254SOL    HW130221   3.162   0.012   4.530  0.2719 -2.1343 -0.3719
 6254SOL    HW230222   3.197   0.029   4.393 -4.1667  0.0042  2.3646
 6255SOL     OW30223   3.158   2.766   5.887  0.3906 -0.0064 -0.2537
 6255SOL    HW130224   3.191   2.678   5.906  0.4803  0.0428 -0.1799
 6255SOL    HW230225   3.239   2.800   5.849 -0.2267  0.0256 -1.5545
 6256SOL     OW30226   0.336   1.724   1.478  0.6706  0.4429 -0.0554
 6256SOL    HW130227   0.405   1.750   1.417  2.0385  0.4288  1.4920
 6256SOL    HW230228   0.333   1.628   1.479 -3.5831  0.5897 -0.1414
 6257SOL     OW30229   1.024   2.140   3.735  0.0830 -0.4518 -0.3201
 6257SOL    HW130230   0.988   2.085   3.805  0.5234 -1.2724 -0.7448
 6257SOL    HW230231   0.966   2.214   3.755  0.8747 -0.5161  2.2590
 6258SOL     OW30232   3.596   3.820  14.813  0.2117  0.2140  0.5690
 6258SOL    HW130233   3.553   3.839  14.896 -0.0415  2.1840 -0.0079
 6258SOL    HW230234   3.614   3.907  14.778 -1.7002  0.5033  0.3367
 6259SOL     OW30235   2.127   3.008   8.659  0.6479  0.2319  0.0712
 6259SOL    HW130236   2.055   2.969   8.710  0.4912  0.3590 -0.0530
 6259SOL    HW230237   2.126   3.101   8.680 -0.5902  0.1404  0.4548
 6260SOL     OW30238   3.171   3.083   4.440 -0.1738  0.3797 -0.0830
 6260SOL    HW130239   3.222   3.064   4.519 -1.4280  1.2094  0.9149
 6260SOL    HW230240   3.089   3.091   4.487 -1.3985 -0.2968 -2.0802
 6261SOL     OW30241   4.449   4.543  14.046  0.1949 -0.1654  0.2520
 6261SOL    HW130242   4.500   4.613  14.085 -2.4773  1.1685  1.3742
 6261SOL    HW230243   4.376   4.543  14.108 -0.0465 -0.7552 -0.0323
 6262SOL     OW30244   0.043   0.619   5.909  0.2652  0.0060  0.4926
 6262SOL    HW130245   4.707   0.667   5.965 -1.3000 -0.7633 -0.5505
 6262SOL    HW230246   0.102   0.689   5.879 -0.8264 -0.8858 -3.7689
 6263SOL     OW30247   4.712   1.435   5.613  0.5502  0.0866 -0.2690
 6263SOL    HW130248   4.714   1.353   5.564 -0.0336  0.3011 -0.6570
 6263SOL    HW230249   4.625   1.474   5.612 -0.4424 -2.1067  0.8626
 6264SOL     OW30250   2.290   4.327   6.996  0.9681  0.1313  0.2417
 6264SOL    HW130251   2.220   4.301   6.936  0.9277 -0.1118  0.3905
 6264SOL    HW230252   2.262   4.279   7.074  1.4787 -1.4451 -0.5436
 6265SOL     OW30253   1.312   3.236   3.971 -0.4291  0.0310 -0.4792
 6265SOL    HW130254   1.328   3.162   4.029  0.8556  1.4053  0.9305
 6265SOL    HW230255   1.402   3.268   3.965 -0.6612  0.6249 -0.7805
 6266SOL     OW30256   2.395   1.588   0.089 -0.1857 -0.5214 -0.4351
 6266SOL    HW130257   2.341   1.553   0.160 -0.2527 -0.5279 -0.4900
 6266SOL    HW230258   2.462   1.635   0.139 -0.0498 -0.9024 -0.2551
 6267SOL     OW30259   2.808   3.473  12.149 -0.4275 -0.5474  0.2489
 6267SOL    HW130260   2.788   3.506  12.236 -0.8339  1.7167 -0.7046
 6267SOL    HW230261   2.729   3.425  12.126 -1.0241  0.8531 -0.6025
 6268SOL     OW30262   0.097   0.456   6.909  0.2855 -0.3474  0.1547
 6268SOL    HW130263   0.187   0.425   6.913  0.6226  0.9003  2.2711
 6268SOL    HW230264   0.098   0.497   6.822  0.6200 -0.2717  0.1956
 6269SOL     OW30265   1.570   4.534   1.489 -0.4440  0.4488 -1.2444
 6269SOL    HW130266   1.580   4.627   1.468  0.8223  0.4105 -0.7959
 6269SOL    HW230267   1.612   4.536   1.575  2.2898 -0.5267 -2.5422
 6270SOL     OW30268   1.981   2.321   3.927 -0.3743  0.1501 -0.4989
 6270SOL    HW130269   1.995   2.292   3.837  2.6676  1.2018 -0.3403
 6270SOL    HW230270   2.066   2.310   3.969 -0.4026 -0.6223 -0.6441
 6271SOL     OW30271   3.939   1.934  10.044 -0.3370  0.3037  0.5294
 6271SOL    HW130272   3.884   2.013  10.050  0.1206  0.7085 -0.7635
 6271SOL    HW230273   4.008   1.963  10.103  1.6871  0.1622 -1.7699
 6272SOL     OW30274   2.024   2.968  10.393 -0.0151  0.2980  0.3938
 6272SOL    HW130275   2.115   2.952  10.371 -0.0994 -1.0563  1.0296
 6272SOL    HW230276   2.025   3.064  10.398 -0.1931  0.3571 -0.7599
 6273SOL     OW30277   4.119   3.859   0.608 -0.6309 -0.4900  0.4518
 6273SOL    HW130278   4.029   3.876   0.633 -1.0583 -0.5389 -1.0295
 6273SOL    HW230279   4.166   3.911   0.673  0.7714 -2.1690  0.7887
 6274SOL     OW30280   4.375   0.315   1.417  0.3951  0.3172  0.0884
 6274SOL    HW130281   4.429   0.262   1.475  0.2825  2.3635  2.0793
 6274SOL    HW230282   4.440   0.325   1.348 -0.5983  0.5155 -0.8176
 6275SOL     OW30283   3.568   2.872   1.192  0.3052 -0.1310  0.0292
 6275SOL    HW130284   3.504   2.814   1.150  0.2358 -0.7773  1.0172
 6275SOL    HW230285   3.517   2.952   1.205  0.3099 -0.2178  0.5517
 6276SOL     OW30286   2.589   4.586  16.781 -0.4320  0.2049  0.3194
 6276SOL    HW130287   2.534   4.579  16.858  1.7697 -2.3776  1.6813
 6276SOL    HW230288   2.678   4.583  16.819  0.5876 -0.4865 -2.1206
 6277SOL     OW30289   0.636   1.068   9.341 -0.1731 -0.0892 -0.2150
 6277SOL    HW130290   0.731   1.062   9.354 -0.1430  1.9821  0.6656
 6277SOL    HW230291   0.609   1.062   9.433 -0.7971 -0.1489 -0.4002
 6278SOL     OW30292   2.947   0.541   4.180  0.6663 -0.6513  0.7752
 6278SOL    HW130293   2.935   0.606   4.111  1.4137 -1.8013 -0.4521
 6278SOL    HW230294   2.965   0.600   4.253  0.7681  0.2099  0.0556
 6279SOL     OW30295   3.816   0.684   6.092  0.6113  0.1693  0.2313
 6279SOL    HW130296   3.904   0.717   6.076  0.8516 -1.2147 -1.3957
 6279SOL    HW230297   3.821   0.672   6.186 -0.9353  0.3272  0.3294
 6280SOL     OW30298   4.624   1.372   8.635 -0.6224  0.0258 -0.1356
 6280SOL    HW130299   4.711   1.362   8.674 -0.2557 -2.8369 -1.7316
 6280SOL    HW230300   4.643   1.368   8.541 -1.4982 -1.4176 -0.2476
 6281SOL     OW30301   0.044   2.964  11.888  0.2623  0.5571 -0.4383
 6281SOL    HW130302   0.129   3.005  11.878 -0.5441  2.5828  0.7797
 6281SOL    HW230303   0.018   2.961  11.796 -0.9130  3.2218 -0.1963
 6282SOL     OW30304   0.472   1.396   6.199  0.7551  0.1232 -0.0395
 6282SOL    HW130305   0.514   1.341   6.133 -0.9027 -1.2468  0.0358
 6282SOL    HW230306   0.417   1.444   6.136  0.2979 -1.0115 -0.4980
 6283SOL     OW30307   2.494   2.765   4.875  0.0223 -0.1127 -0.3404
 6283SOL    HW130308   2.472   2.768   4.782  0.0038 -1.7807 -0.3860
 6283SOL    HW230309   2.449   2.683   4.891  0.6675 -0.2813  0.6020
 6284SOL     OW30310   2.778   1.719   2.359 -0.1269  0.2044  0.0517
 6284SOL    HW130311   2.730   1.793   2.321  2.0860  1.6089  0.0097
 6284SOL    HW230312   2.864   1.734   2.320  0.1502 -0.2915  0.4714
 6285SOL     OW30313   3.541   1.480   5.984  0.1736 -0.3317 -0.9755
 6285SOL    HW130314   3.455   1.449   6.013 -0.1621 -0.4200 -2.0810
 6285SOL    HW230315   3.516   1.547   5.921  0.1853  2.6184  2.1686
 6286SOL     OW30316   3.959   1.441   9.918 -0.5221 -0.9400  0.2391
 6286SOL    HW130317   3.874   1.432   9.875 -1.0216  0.4954  0.9494
 6286SOL    HW230318   3.945   1.374   9.986 -0.9722 -1.3419 -0.2445
 6287SOL     OW30319   0.235   0.978   6.676 -0.3642  0.3191  0.3492
 6287SOL    HW130320   0.176   0.931   6.617  1.8959  0.7353 -2.2528
 6287SOL    HW230321   0.201   0.955   6.762  0.1246 -2.3111 -0.1745
 6288SOL     OW30322   3.716   3.532   6.636 -0.6061 -0.8123 -0.2093
 6288SOL    HW130323   3.800   3.545   6.678 -1.3249  0.7138  0.7505
 6288SOL    HW230324   3.685   3.452   6.680  0.8501 -0.5374  1.2832
 6289SOL     OW30325   3.852   0.768   8.047  0.1197  0.3578  0.5007
 6289SOL    HW130326   3.900   0.847   8.020 -0.0890  0.2901 -0.0732
 6289SOL    HW230327   3.870   0.774   8.141 -0.4569  1.4089  0.5481
 6290SOL     OW30328   0.193   0.219  16.020 -0.5329 -0.9589  0.3682
 6290SOL    HW130329   0.155   0.227  16.108 -1.6587  1.1799 -0.3478
 6290SOL    HW230330   0.275   0.266  16.034 -0.9701 -0.3818  1.0163
 6291SOL     OW30331   0.061   0.337  16.265  0.5599  0.0167 -0.0980
 6291SOL    HW130332   0.048   0.332  16.360  0.9212 -0.7135 -0.0889
 6291SOL    HW230333   0.053   0.429  16.238  0.3821  0.0393  0.0320
 6292SOL     OW30334   2.102   1.869   3.615 -0.2347 -0.1613  0.7069
 6292SOL    HW130335   2.050   1.870   3.695 -0.2181 -0.6995  0.7241
 6292SOL    HW230336   2.126   1.777   3.610  1.2888  0.2332  0.7502
 6293SOL     OW30337   1.904   4.436   3.464 -0.1080  0.4262 -0.0323
 6293SOL    HW130338   1.966   4.477   3.404 -1.8163  0.6077 -1.6701
 6293SOL    HW230339   1.930   4.344   3.475 -0.6130  0.3991  0.8996
 6294SOL     OW30340   3.403   2.168   4.268 -0.1719 -0.0991  0.0590
 6294SOL    HW130341   3.397   2.092   4.325  3.7969  0.2807  0.9945
 6294SOL    HW230342   3.361   2.227   4.330  2.4191 -0.4124  2.0830
 6295SOL     OW30343   1.623   2.797   8.342 -0.0375  0.8645  0.0620
 6295SOL    HW130344   1.604   2.751   8.424 -0.7996 -0.4709 -0.8469
 6295SOL    HW230345   1.621   2.885   8.378  0.8710 -0.0268  2.2649
 6296SOL     OW30346   4.202   4.642   7.684  0.3730 -0.1696  0.0827
 6296SOL    HW130347   4.190   0.002   7.728 -2.0055 -0.0468 -0.7780
 6296SOL    HW230348   4.292   4.619   7.706 -0.0993  0.0070  2.1453
 6297SOL     OW30349   2.737   2.016   3.955 -0.7876 -0.1690 -0.1853
 6297SOL    HW130350   2.729   2.072   4.032  0.8417  0.8138 -0.7325
 6297SOL    HW230351   2.716   1.930   3.992  0.2763  0.8915  2.8891
 6298SOL     OW30352   3.723   2.491   4.297  0.4785  0.4189 -0.1658
 6298SOL    HW130353   3.782   2.566   4.287  0.3333  0.4848 -0.5076
 6298SOL    HW230354   3.778   2.427   4.252 -0.2917  1.1189 -2.1071
 6299SOL     OW30355   2.357   2.806   6.934  0.5564  0.3050 -0.0737
 6299SOL    HW130356   2.290   2.865   6.899  2.1886  0.7254 -2.4659
 6299SOL    HW230357   2.396   2.781   6.851 -0.3640  0.9624 -0.7084
 6300SOL     OW30358   1.834   0.854   6.822  0.2107  0.3438 -0.1519
 6300SOL    HW130359   1.863   0.929   6.874  0.1327 -0.0042  0.3966
 6300SOL    HW230360   1.830   0.897   6.737 -2.1775 -1.1790 -0.8024
 6301SOL     OW30361   1.439   2.526  11.517  0.0907  0.4158 -0.2078
 6301SOL    HW130362   1.489   2.596  11.558  1.3808  0.1481 -1.3358
 6301SOL    HW230363   1.451   2.550  11.425  1.9901  3.3627  0.8347
 6302SOL     OW30364   2.496   4.633  13.626  0.0337 -0.1248 -0.7658
 6302SOL    HW130365   2.480   4.595  13.540 -0.2341  0.2481 -0.8785
 6302SOL    HW230366   2.472   4.552  13.672  0.9130 -0.1820 -0.3876
 6303SOL     OW30367   1.149   1.561   1.684  0.2522 -1.0649 -0.2336
 6303SOL    HW130368   1.127   1.485   1.631  1.2389 -0.3775 -1.6327
 6303SOL    HW230369   1.182   1.627   1.622  2.4643  1.2994  3.4507
 6304SOL     OW30370   2.368   0.861  17.113 -0.2188  0.3098  0.2715
 6304SOL    HW130371   2.342   0.842  17.203  2.0113  1.1862  1.0994
 6304SOL    HW230372   2.383   0.772  17.079  2.0006  0.9520 -0.4743
 6305SOL     OW30373   2.787   4.221  15.497 -0.4217  0.3085  0.8443
 6305SOL    HW130374   2.762   4.275  15.423  0.8344 -1.2164 -0.7043
 6305SOL    HW230375   2.763   4.275  15.572  1.1084  0.1488  1.4517
 6306SOL     OW30376   4.054   2.878   4.083 -0.2593  0.0608 -0.1101
 6306SOL    HW130377   4.111   2.955   4.077 -0.5866  0.1667 -1.8410
 6306SOL    HW230378   4.108   2.800   4.072  0.3251  0.0796  2.5732
 6307SOL     OW30379   0.848   0.086   4.722  0.0291 -0.2853  0.4277
 6307SOL    HW130380   0.772   0.028   4.735 -1.7533  1.2623 -3.2041
 6307SOL    HW230381   0.860   0.074   4.628  0.8589  1.0291  0.3669
 6308SOL     OW30382   1.630   1.118  15.814 -0.2556  0.3450 -0.0997
 6308SOL    HW130383   1.583   1.191  15.775  1.0737  1.3921  0.2372
 6308SOL    HW230384   1.681   1.085  15.740 -0.3759 -1.1796  0.4911
 6309SOL     OW30385   2.930   2.913  14.218 -0.3327 -0.5802  0.1121
 6309SOL    HW130386   2.890   2.973  14.155 -0.7941 -2.7078 -1.6315
 6309SOL    HW230387   3.017   2.951  14.221  0.6666 -2.7158 -1.3276
 6310SOL     OW30388   1.702   3.597   0.691 -0.6216 -0.4389 -0.1235
 6310SOL    HW130389   1.683   3.503   0.689  1.7787 -0.8983 -1.1352
 6310SOL    HW230390   1.718   3.599   0.786  0.0264  0.3255 -0.2517
 6311SOL     OW30391   4.382   0.936  12.761 -0.3231  0.7123  0.2151
 6311SOL    HW130392   4.435   0.864  12.729  1.5726  3.2465 -2.3193
 6311SOL    HW230393   4.309   0.910  12.705  0.7376 -1.8534  0.0332
 6312SOL     OW30394   3.320   1.959  10.573 -0.0621  0.2556  0.0685
 6312SOL    HW130395   3.368   1.908  10.638 -1.1021  0.7640  1.2412
 6312SOL    HW230396   3.296   1.894  10.507  1.6635 -0.4227  0.0992
 6313SOL     OW30397   3.558   0.617  13.525 -0.1994 -0.5442  0.2230
 6313SOL    HW130398   3.591   0.707  13.523 -2.0209  0.1338  0.6480
 6313SOL    HW230399   3.494   0.623  13.454 -0.7351  1.0068  0.8253
 6314SOL     OW30400   1.921   1.706   5.274  0.3568  0.0550  0.0062
 6314SOL    HW130401   1.875   1.758   5.341  0.1942 -1.3503  0.9827
 6314SOL    HW230402   1.850   1.649   5.246  1.8811 -2.6889  1.7188
 6315SOL     OW30403   1.670   4.294   4.063  0.4956 -0.1099 -0.7103
 6315SOL    HW130404   1.595   4.331   4.110  1.3374  0.5597  0.0899
 6315SOL    HW230405   1.739   4.346   4.105  0.9418 -0.6681 -0.7523
 6316SOL     OW30406   0.373   0.163   7.177  0.0203 -0.2884  0.2032
 6316SOL    HW130407   0.391   0.157   7.271 -0.5355 -0.4924  0.2974
 6316SOL    HW230408   0.406   0.078   7.149 -3.6448 -1.3084 -1.0026
 6317SOL     OW30409   2.255   0.125   5.202  0.1718  0.0637 -0.5968
 6317SOL    HW130410   2.271   0.105   5.110 -0.1329  0.6414 -0.7700
 6317SOL    HW230411   2.343   0.124   5.241 -0.6721  0.3620  1.3185
 6318SOL     OW30412   0.105   1.331   4.282  0.3044 -0.2562 -0.5184
 6318SOL    HW130413   0.050   1.266   4.239 -1.5657  1.3361 -0.5136
 6318SOL    HW230414   0.162   1.276   4.335 -0.3500  0.3006  0.7387
 6319SOL     OW30415   1.907   2.551   9.511 -0.1789  0.2768  0.3091
 6319SOL    HW130416   1.849   2.607   9.563  1.5278 -0.7531  3.3049
 6319SOL    HW230417   1.846   2.481   9.490 -0.4885  1.0252 -1.2530
 6320SOL     OW30418   0.864   4.604   6.945 -0.0867  0.1328  0.8628
 6320SOL    HW130419   0.850   4.621   7.038 -1.5567 -0.7844  0.8027
 6320SOL    HW230420   0.775   4.583   6.918 -0.6911  0.6168  2.4833
 6321SOL     OW30421   1.336   0.936   2.300  0.4593  0.6142 -0.5536
 6321SOL    HW130422   1.426   0.968   2.297  0.7016  0.0237  0.4609
 6321SOL    HW230423   1.313   0.904   2.213  1.1078  0.7971 -0.7904
 6322SOL     OW30424   0.605   3.412   7.128  0.2467 -0.0758 -0.3573
 6322SOL    HW130425   0.654   3.453   7.056 -2.4650  2.0627 -0.9767
 6322SOL    HW230426   0.620   3.473   7.200  0.7759  0.5464 -0.9851
 6323SOL     OW30427   3.983   1.602   4.340 -0.6081 -0.1858 -0.1532
 6323SOL    HW130428   4.041   1.572   4.411  0.1001  1.4503 -0.0460
 6323SOL    HW230429   3.908   1.550   4.370  0.7910 -2.6701 -0.9170
 6324SOL     OW30430   4.423   2.495  11.469  0.5740 -0.3984 -0.0386
 6324SOL    HW130431   4.392   2.417  11.514 -0.6911 -0.0615 -0.3342
 6324SOL    HW230432   4.417   2.552  11.546  2.4730  1.1182 -1.0003
 6325SOL     OW30433   1.484   3.431   5.875  0.0451  0.8949 -0.7561
 6325SOL    HW130434   1.575   3.417   5.903 -0.7441  1.3648  1.9595
 6325SOL    HW230435   1.486   3.403   5.783 -1.4560 -1.2762 -0.1042
 6326SOL     OW30436   2.435   0.022  10.284  0.5035 -0.4539 -0.0911
 6326SOL    HW130437   2.439   4.669  10.341 -1.0651 -2.1554 -2.3100
 6326SOL    HW230438   2.457   0.094  10.343  0.7439 -1.0606  0.5719
 6327SOL     OW30439   0.839   2.798   7.102 -0.0321  0.1100  0.1502
 6327SOL    HW130440   0.851   2.844   7.019 -1.3501  2.4164  1.2288
 6327SOL    HW230441   0.746   2.816   7.115 -0.1493 -1.3872  1.4132
 6328SOL     OW30442   0.260   0.054   7.487  0.5788  0.2096  0.7165
 6328SOL    HW130443   0.281   0.061   7.580 -2.5696 -1.5354  1.5453
 6328SOL    HW230444   0.327   0.114   7.455  1.6806 -0.8502  1.0250
 6329SOL     OW30445   0.722   3.723   1.071  0.0148  0.1129  0.1932
 6329SOL    HW130446   0.762   3.652   1.022 -0.0597 -0.0916  0.4335
 6329SOL    HW230447   0.655   3.673   1.116  2.1825 -2.2254  0.7557
 6330SOL     OW30448   1.298   0.332   5.970  0.5921 -0.0343 -0.3652
 6330SOL    HW130449   1.388   0.328   6.003  1.3849 -2.2259 -2.6817
 6330SOL    HW230450   1.313   0.381   5.889  2.2677 -0.4830 -0.3298
 6331SOL     OW30451   4.652   2.263   0.843 -0.2445 -0.1365 -0.1569
 6331SOL    HW130452   4.687   2.208   0.912 -2.2459  1.1317  1.8611
 6331SOL    HW230453   4.566   2.222   0.835 -0.8329  0.8729  0.9862
 6332SOL     OW30454   1.570   1.453   8.594  0.5079  0.8364 -0.6499
 6332SOL    HW130455   1.554   1.546   8.579  2.8308  1.6247  1.7949
 6332SOL    HW230456   1.481   1.420   8.608  0.3743  1.2769 -0.4826
 6333SOL     OW30457   4.163   2.845   6.837 -0.5450 -0.4212  0.0306
 6333SOL    HW130458   4.124   2.771   6.883 -0.4277  1.3544  3.0303
 6333SOL    HW230459   4.214   2.802   6.769 -0.6018  0.7381 -0.7514
 6334SOL     OW30460   3.936   2.639   8.460  1.1437 -0.0779  0.3733
 6334SOL    HW130461   3.957   2.547   8.477 -0.0722 -0.0445  2.1091
 6334SOL    HW230462   3.966   2.666   8.547 -0.5853  1.1549  0.5922
 6335SOL     OW30463   0.235   3.828   7.968  0.5534  0.0987 -0.4114
 6335SOL    HW130464   0.167   3.830   7.902 -1.9883  2.9942  2.2822
 6335SOL    HW230465   0.217   3.916   8.003 -1.2764 -1.0916  1.6568
 6336SOL     OW30466   4.019   0.007   3.173  0.1222 -0.1978 -0.0600
 6336SOL    HW130467   4.049   0.096   3.152 -0.4402  0.2323  0.9767
 6336SOL    HW230468   4.105   4.687   3.175  1.5879  2.7339  1.9591
 6337SOL     OW30469   3.019   1.559   8.046 -0.0031 -0.0050 -0.1931
 6337SOL    HW130470   2.955   1.625   8.019 -1.5943 -1.7619 -0.7096
 6337SOL    HW230471   2.958   1.488   8.067 -0.1488  0.5945  1.4268
 6338SOL     OW30472   2.492   3.191   3.983 -0.0721 -0.2927  0.2169
 6338SOL    HW130473   2.522   3.279   3.961 -0.6903 -0.6257 -1.9413
 6338SOL    HW230474   2.440   3.156   3.911  1.5462  1.4171 -1.7427
 6339SOL     OW30475   0.483   1.963  12.083 -0.3116  0.0067 -0.0864
 6339SOL    HW130476   0.475   2.054  12.053  1.9295  0.4094  0.5432
 6339SOL    HW230477   0.439   1.921  12.009 -0.1207 -0.1296 -0.1223
 6340SOL     OW30478   4.327   2.451  11.225  0.1754 -0.6273 -0.5182
 6340SOL    HW130479   4.366   2.481  11.306 -0.3428 -0.3655 -0.3649
 6340SOL    HW230480   4.391   2.473  11.157  0.1923  1.1353  0.0893
 6341SOL     OW30481   3.809   1.786   3.568  0.4519 -0.7066 -1.0857
 6341SOL    HW130482   3.730   1.810   3.616  1.7501  1.1408  0.1226
 6341SOL    HW230483   3.878   1.806   3.631  0.7508 -1.2187 -1.2474
 6342SOL     OW30484   3.841   1.708   9.771  0.1368  0.2315  0.4257
 6342SOL    HW130485   3.812   1.636   9.714  1.3477 -0.5070  0.7476
 6342SOL    HW230486   3.755   1.740   9.800 -0.5561 -0.0388 -1.3105
 6343SOL     OW30487   2.563   2.510   7.015 -0.2998 -0.4343 -0.9197
 6343SOL    HW130488   2.521   2.568   7.079  0.4704  1.9475 -2.6207
 6343SOL    HW230489   2.613   2.463   7.082 -0.6610  3.0601  1.8274
 6344SOL     OW30490   3.332   4.513   7.919 -0.2436 -0.5552 -0.0767
 6344SOL    HW130491   3.369   4.582   7.976  1.8330 -2.9142  1.4281
 6344SOL    HW230492   3.396   4.509   7.848  2.1622  0.5827  2.0068
 6345SOL     OW30493   4.650   4.672  17.472 -0.1509  0.4673 -0.0543
 6345SOL    HW130494   4.583   4.676  17.541 -1.6432 -0.0167 -1.4947
 6345SOL    HW230495   4.723   4.691  17.531  0.5255 -1.4069 -0.3000
 6346SOL     OW30496   1.169   2.997  12.921  0.7605 -0.1961  0.0054
 6346SOL    HW130497   1.258   3.027  12.900  0.3339  0.0003 -1.5053
 6346SOL    HW230498   1.123   3.076  12.948 -0.6483 -0.7851 -0.6865
 6347SOL     OW30499   2.877   1.480   2.677  0.1526  0.2044  0.4293
 6347SOL    HW130500   2.927   1.546   2.628  0.6523 -0.3079  0.2477
 6347SOL    HW230501   2.927   1.401   2.657 -0.8449  0.4820 -3.1035
 6348SOL     OW30502   0.941   2.535   6.729 -0.0423 -0.3196 -0.0305
 6348SOL    HW130503   0.908   2.529   6.818 -0.3843 -0.9191 -0.1962
 6348SOL    HW230504   0.884   2.465   6.696 -0.9115 -0.3570  1.5658
 6349SOL     OW30505   1.155   3.387   3.531  0.2114 -0.3879 -0.0255
 6349SOL    HW130506   1.228   3.438   3.565  0.8658 -1.0187 -0.4898
 6349SOL    HW230507   1.174   3.382   3.437  0.8199  1.3397  0.0005
 6350SOL     OW30508   0.264   1.379   0.828 -0.0836  0.2225 -0.1370
 6350SOL    HW130509   0.344   1.428   0.809 -1.2114  2.2540  0.4238
 6350SOL    HW230510   0.198   1.447   0.816  0.0042  0.4609  0.7097
 6351SOL     OW30511   0.885   1.507   9.375  0.1224 -0.2970  0.6468
 6351SOL    HW130512   0.868   1.512   9.469  0.3877  0.9008  0.6359
 6351SOL    HW230513   0.802   1.477   9.339  0.0918  2.6136 -1.7187
 6352SOL     OW30514   4.282   1.939   0.844 -0.2319  0.2753 -0.4149
 6352SOL    HW130515   4.333   2.019   0.841 -0.1621  0.3124  1.7126
 6352SOL    HW230516   4.350   1.874   0.827  0.5864  1.2747 -0.9585
 6353SOL     OW30517   3.513   2.659   9.505 -0.2075 -0.2293 -0.2566
 6353SOL    HW130518   3.426   2.620   9.511  0.3276 -1.3381  0.3103
 6353SOL    HW230519   3.524   2.701   9.420 -0.6102 -2.8066 -1.5717
 6354SOL     OW30520   2.599   0.337   4.783 -0.7597  0.3519  0.3821
 6354SOL    HW130521   2.557   0.370   4.703 -0.2506 -1.0173 -0.4401
 6354SOL    HW230522   2.663   0.283   4.738 -0.4046 -0.8010  2.3103
 6355SOL     OW30523   3.978   1.718   8.064 -0.7168 -0.2685 -0.4677
 6355SOL    HW130524   3.990   1.627   8.092 -1.7227 -0.2608 -0.0395
 6355SOL    HW230525   3.914   1.703   7.995 -1.0052  1.4104 -0.5415
 6356SOL     OW30526   4.523   1.526   4.848 -0.0576 -0.3973  0.1858
 6356SOL    HW130527   4.542   1.543   4.756  2.4481 -1.3191  0.5482
 6356SOL    HW230528   4.548   1.434   4.859  1.1010 -0.0729  0.2121
 6357SOL     OW30529   1.415   2.630  14.374 -0.5761 -0.0648  0.4089
 6357SOL    HW130530   1.437   2.574  14.448 -0.3691 -0.9807 -0.3530
 6357SOL    HW230531   1.355   2.691  14.418  0.3961  0.2588  1.2705
 6358SOL     OW30532   1.546   4.568   1.000  0.2540  0.4364 -0.9235
 6358SOL    HW130533   1.618   4.506   0.988 -1.4185 -0.8676 -3.9981
 6358SOL    HW230534   1.473   4.505   1.001  0.5058  0.1651  1.0273
 6359SOL     OW30535   4.605   0.011   7.441 -0.1542 -0.6215  0.7782
 6359SOL    HW130536   4.599   4.640   7.446  1.4959 -0.8414 -1.1216
 6359SOL    HW230537   4.526   0.038   7.393  0.2626  1.4111  1.2323
 6360SOL     OW30538   0.488   0.185   7.431  0.2657 -0.5221 -0.4021
 6360SOL    HW130539   0.529   0.245   7.492 -1.1660  0.5287 -0.4701
 6360SOL    HW230540   0.544   0.107   7.435  1.2047  0.0849 -1.8852
 6361SOL     OW30541   2.110   0.619  11.336  0.0594  0.3401 -0.0591
 6361SOL    HW130542   2.081   0.622  11.427  0.2165  1.8446 -0.0617
 6361SOL    HW230543   2.026   0.635  11.293  0.6365  0.2945 -1.1943
 6362SOL     OW30544   2.402   2.299   6.586  0.0246  0.0319 -0.0086
 6362SOL    HW130545   2.417   2.383   6.628 -1.0562 -0.6562  1.8116
 6362SOL    HW230546   2.414   2.326   6.496 -1.0813 -1.0901 -0.4998
 6363SOL     OW30547   3.331   1.349  12.491 -0.2440 -1.0403  0.1606
 6363SOL    HW130548   3.297   1.351  12.581 -0.8355 -1.8922 -0.0365
 6363SOL    HW230549   3.398   1.281  12.499 -0.1536 -0.4970  4.0521
 6364SOL     OW30550   1.455   3.840   1.746 -0.2204 -0.4183  0.2576
 6364SOL    HW130551   1.380   3.898   1.730 -1.0128 -1.2997  0.7420
 6364SOL    HW230552   1.407   3.757   1.756  0.5699 -0.8584  0.3494
 6365SOL     OW30553   0.846   4.638  10.745 -0.4531 -0.3978 -0.0333
 6365SOL    HW130554   0.825   0.000  10.779 -1.2940 -0.5612 -0.1456
 6365SOL    HW230555   0.809   4.581  10.813 -1.2349 -0.2558 -0.3476
 6366SOL     OW30556   0.713   3.560   7.329  0.3529 -0.4061 -0.0443
 6366SOL    HW130557   0.794   3.527   7.368  0.9108  2.6973  1.3372
 6366SOL    HW230558   0.741   3.633   7.274 -0.7739  0.1698  0.1538
 6367SOL     OW30559   2.196   1.444  15.178  0.4532  0.1361  0.0100
 6367SOL    HW130560   2.198   1.405  15.266 -0.2083 -1.4269 -0.6725
 6367SOL    HW230561   2.277   1.415  15.137  1.0357  1.6072  0.1175
 6368SOL     OW30562   4.515   2.884   3.972  0.4108  0.0978  0.2049
 6368SOL    HW130563   4.463   2.825   4.027  1.6084 -0.6566  0.5016
 6368SOL    HW230564   4.447   2.898   3.905  0.0049  2.7485  1.1737
 6369SOL     OW30565   1.751   0.257   2.111 -0.2242  0.6067 -0.6057
 6369SOL    HW130566   1.836   0.274   2.071  0.2522  0.1736  0.2217
 6369SOL    HW230567   1.753   0.301   2.197 -1.1420  0.9258 -0.7500
 6370SOL     OW30568   0.918   4.504   2.332  0.1160 -0.6196  0.3934
 6370SOL    HW130569   0.885   4.498   2.242  4.5327 -0.1643 -1.2408
 6370SOL    HW230570   0.860   4.432   2.358  0.2572 -1.6638 -2.1697
 6371SOL     OW30571   1.155   1.256   5.693  0.1703  0.4540 -0.0724
 6371SOL    HW130572   1.101   1.192   5.647  0.1306 -0.7030  1.5834
 6371SOL    HW230573   1.202   1.199   5.754 -0.5930  1.0108  1.0148
 6372SOL     OW30574   4.117   3.956  14.657  0.0145 -0.2504  0.0848
 6372SOL    HW130575   4.023   3.947  14.670  0.0579 -0.4982  0.2256
 6372SOL    HW230576   4.146   3.897  14.727 -1.0966 -1.8996 -0.8725
 6373SOL     OW30577   0.548   4.185   2.641 -0.7650  0.4169  0.0612
 6373SOL    HW130578   0.532   4.100   2.600  2.5393  0.9785 -2.4127
 6373SOL    HW230579   0.465   4.232   2.651  0.1927  1.6085  2.3375
 6374SOL     OW30580   0.410   2.037   6.833  0.0310  0.1925  0.6939
 6374SOL    HW130581   0.504   2.045   6.849  0.2419  1.4544 -1.1196
 6374SOL    HW230582   0.396   1.955   6.880 -1.5549  0.4567  0.6782
 6375SOL     OW30583   3.153   4.424   6.226 -0.0131 -0.1910 -0.9179
 6375SOL    HW130584   3.121   4.446   6.138  0.9470 -0.8071 -1.4299
 6375SOL    HW230585   3.099   4.347   6.243  0.1891 -0.4580 -1.4676
 6376SOL     OW30586   0.065   0.772   6.905  0.1912 -0.1372  0.2175
 6376SOL    HW130587   0.141   0.798   6.958  1.2581 -1.2320 -0.7646
 6376SOL    HW230588   0.027   0.709   6.966 -3.2289  0.6127 -1.1652
 6377SOL     OW30589   1.005   1.525   3.203 -0.7056  0.0223 -0.1808
 6377SOL    HW130590   1.004   1.496   3.295 -1.1297 -0.0024 -0.1948
 6377SOL    HW230591   1.091   1.493   3.175 -0.0306  0.5729  1.2258
 6378SOL     OW30592   0.542   0.303   1.761  0.1738 -0.0182  0.4487
 6378SOL    HW130593   0.619   0.308   1.704 -1.8968  0.8562 -2.2951
 6378SOL    HW230594   0.519   0.211   1.747  0.9725 -0.5187  2.4771
 6379SOL     OW30595   2.091   3.966   4.298 -0.1022  0.4508  0.8749
 6379SOL    HW130596   2.009   3.927   4.328 -0.0735  0.2792  0.7361
 6379SOL    HW230597   2.131   3.895   4.247 -0.3578  0.4430  0.6846
 6380SOL     OW30598   3.925   1.421   4.935  0.2781 -0.6060  0.0626
 6380SOL    HW130599   4.001   1.399   4.881  0.5836  3.2815 -1.0538
 6380SOL    HW230600   3.926   1.516   4.926  0.7722 -0.5380  0.8013
 6381SOL     OW30601   4.347   2.902   8.256 -0.2549  0.0841 -0.3478
 6381SOL    HW130602   4.292   2.978   8.272 -0.6718 -0.6814  1.8093
 6381SOL    HW230603   4.411   2.946   8.200  0.0116  0.5838  0.3432
 6382SOL     OW30604   4.556   1.629   0.574 -0.4160 -0.5411  0.8273
 6382SOL    HW130605   4.518   1.616   0.661  2.3574 -1.2400  1.9235
 6382SOL    HW230606   4.495   1.574   0.525  1.0821  0.0251 -1.6736
 6383SOL     OW30607   0.734   2.655   1.896 -0.1248 -0.8411 -0.6003
 6383SOL    HW130608   0.701   2.575   1.857 -3.2701 -0.8397  2.0825
 6383SOL    HW230609   0.750   2.626   1.986 -0.9912 -0.9071 -0.4701
 6384SOL     OW30610   1.806   4.613   1.650 -0.4550 -0.2456 -0.2598
 6384SOL    HW130611   1.762   4.607   1.735 -1.6592  2.1216 -0.7054
 6384SOL    HW230612   1.775   4.699   1.619  1.8225  0.5100 -0.4251
 6385SOL     OW30613   1.605   3.075   4.489 -0.3698  0.0983 -0.1907
 6385SOL    HW130614   1.644   2.990   4.511 -1.2933 -0.5110 -0.9115
 6385SOL    HW230615   1.670   3.130   4.532  1.4407 -1.6234 -0.6984
 6386SOL     OW30616   3.627   1.936   7.407  0.0620 -0.0169 -0.0783
 6386SOL    HW130617   3.698   1.900   7.355  2.3769  1.2164  2.2431
 6386SOL    HW230618   3.548   1.932   7.353 -1.2965  2.4677  1.7016
 6387SOL     OW30619   4.356   3.835   0.068  0.0044 -0.5207  0.0422
 6387SOL    HW130620   4.444   3.860   0.042  0.5119 -1.6289  0.6989
 6387SOL    HW230621   4.329   3.925   0.088 -0.9057 -0.8320  0.1886
 6388SOL     OW30622   3.247   0.998  12.646 -0.3189 -0.5020 -0.2349
 6388SOL    HW130623   3.230   1.067  12.710 -0.2360  0.4422 -1.2287
 6388SOL    HW230624   3.182   1.014  12.577 -1.1042 -2.3022  0.0843
 6389SOL     OW30625   4.017   1.866   9.486 -0.0349  0.6067 -0.2776
 6389SOL    HW130626   4.004   1.931   9.554  1.6036 -0.7248  1.3054
 6389SOL    HW230627   3.926   1.840   9.472  0.1958 -1.4253  2.0357
 6390SOL     OW30628   0.838   0.682   7.411 -0.5127 -0.2424  0.5042
 6390SOL    HW130629   0.861   0.711   7.323  0.7513  1.1873  1.2980
 6390SOL    HW230630   0.778   0.611   7.391  0.1199 -0.4851 -0.4948
 6391SOL     OW30631   1.019   2.692   2.925  0.0085  0.4813  0.1395
 6391SOL    HW130632   0.931   2.672   2.893  0.0804 -1.8396  1.3988
 6391SOL    HW230633   1.047   2.615   2.974  0.8970  0.8411  0.2039
 6392SOL     OW30634   1.939   3.096   7.013 -0.1385 -0.5187 -0.5264
 6392SOL    HW130635   1.866   3.037   6.997 -0.2971 -0.4018 -0.2287
 6392SOL    HW230636   1.930   3.153   6.936 -0.8288 -0.9547 -0.7620
 6393SOL     OW30637   0.190   0.695  12.374 -0.0490 -0.0616 -0.2316
 6393SOL    HW130638   0.263   0.755  12.390  0.8082 -1.5796  1.5412
 6393SOL    HW230639   0.208   0.679  12.282  0.3049 -0.3786 -0.1031
 6394SOL     OW30640   0.924   0.400   1.784  0.4664  0.3569  0.1705
 6394SOL    HW130641   0.974   0.468   1.738 -0.4804  0.4132 -0.7720
 6394SOL    HW230642   0.885   0.363   1.705 -0.2346 -4.4870  2.7862
 6395SOL     OW30643   2.875   4.643   7.676  0.2263 -0.2811 -0.2878
 6395SOL    HW130644   2.813   4.624   7.606  1.7797 -0.6992 -1.5609
 6395SOL    HW230645   2.855   0.012   7.690 -0.3293 -0.1842 -1.7442
 6396SOL     OW30646   0.926   0.558   7.046  0.6312 -0.5320 -0.7090
 6396SOL    HW130647   0.917   0.647   7.081  1.4946 -0.5349 -0.4880
 6396SOL    HW230648   0.860   0.515   7.100 -1.3540 -0.7848 -3.3013
 6397SOL     OW30649   2.733   3.058   2.772 -0.0406 -0.2018 -0.2091
 6397SOL    HW130650   2.718   3.081   2.864 -1.4156  2.9310 -1.2182
 6397SOL    HW230651   2.649   3.017   2.753  0.2828 -1.4454  1.0350
 6398SOL     OW30652   3.008   3.926   5.182 -0.0770 -0.0888 -0.4118
 6398SOL    HW130653   2.919   3.919   5.147 -0.7215 -0.0192  1.1871
 6398SOL    HW230654   3.039   4.008   5.144  1.7426 -1.2907 -1.4737
 6399SOL     OW30655   3.667   2.989   6.372  0.2696 -0.2464  0.1874
 6399SOL    HW130656   3.607   2.984   6.446 -1.6004  0.2679 -1.3205
 6399SOL    HW230657   3.600   3.001   6.305 -1.4573 -0.1768  1.9154
 6400SOL     OW30658   4.616   0.599  16.149 -0.0112 -0.3348 -0.3190
 6400SOL    HW130659   4.639   0.669  16.211 -0.0882 -0.2805 -0.3519
 6400SOL    HW230660   4.534   0.636  16.117  0.4427 -0.6700 -1.8731
 6401SOL     OW30661   3.364   2.188   3.397  0.2071  0.4667  0.2927
 6401SOL    HW130662   3.422   2.113   3.414  0.5974  0.6056 -0.4328
 6401SOL    HW230663   3.400   2.230   3.319 -0.5599 -1.1629 -0.9509
 6402SOL     OW30664   3.471   0.591   2.581 -0.0660  0.4116  0.0733
 6402SOL    HW130665   3.389   0.549   2.607 -1.1381  1.6472 -1.2837
 6402SOL    HW230666   3.436   0.666   2.533  2.9590  0.7648 -1.5353
 6403SOL     OW30667   1.510   0.515  10.714  0.1217  0.6033 -0.5597
 6403SOL    HW130668   1.566   0.447  10.751 -0.1914  0.6071 -0.0779
 6403SOL    HW230669   1.424   0.487  10.745 -0.0802  0.2453 -1.4760
 6404SOL     OW30670   2.410   0.166   4.130  0.0932  0.1120  0.0351
 6404SOL    HW130671   2.315   0.159   4.130 -0.0332  1.8681  1.1148
 6404SOL    HW230672   2.420   0.190   4.222 -2.3093 -2.8624  1.0642
 6405SOL     OW30673   1.610   2.163   4.191 -0.1892 -0.2090  0.1004
 6405SOL    HW130674   1.576   2.251   4.208  2.6287  0.3089  3.0894
 6405SOL    HW230675   1.607   2.158   4.095  1.0927 -1.0790  0.1122
 6406SOL     OW30676   3.117   1.975   5.269 -0.0925 -0.5774  0.0497
 6406SOL    HW130677   3.098   1.881   5.272 -0.2009 -0.5137  1.6833
 6406SOL    HW230678   3.163   1.988   5.186  1.0928  0.3099  0.8442
 6407SOL     OW30679   1.468   3.566   2.617 -0.2680  0.3822 -0.1219
 6407SOL    HW130680   1.448   3.501   2.550  1.7313 -1.0353  0.6825
 6407SOL    HW230681   1.547   3.610   2.586 -0.8152  0.9451 -0.7225
 6408SOL     OW30682   1.367   0.188   7.449 -0.0601  0.1208  0.0780
 6408SOL    HW130683   1.311   0.169   7.374  1.2160 -1.2931 -0.5170
 6408SOL    HW230684   1.385   0.098   7.479  0.2201  0.8032  1.9475
 6409SOL     OW30685   3.530   0.098  12.243 -0.1298 -0.1299 -0.3419
 6409SOL    HW130686   3.530   0.194  12.240  1.0312 -0.1316 -0.1523
 6409SOL    HW230687   3.486   0.076  12.325  0.1856  0.9497  0.1275
 6410SOL     OW30688   2.410   4.095   6.541  0.0579 -0.2235  0.5339
 6410SOL    HW130689   2.482   4.117   6.482 -0.4238  0.3267  0.1473
 6410SOL    HW230690   2.343   4.144   6.493  0.6075 -1.7110 -1.7278
 6411SOL     OW30691   2.582   0.209   6.846 -0.1712 -0.5973 -0.4857
 6411SOL    HW130692   2.566   0.186   6.938  0.0040 -0.7213 -0.4863
 6411SOL    HW230693   2.662   0.260   6.849  0.6407 -1.8063 -1.3527
 6412SOL     OW30694   1.584   4.694   2.952  0.4891  0.1449  0.0921
 6412SOL    HW130695   1.635   4.633   3.004  0.4906 -2.4045 -2.8750
 6412SOL    HW230696   1.526   4.632   2.908  0.2102  0.6539 -0.2564
 6413SOL     OW30697   3.520   3.637   7.487 -0.6385  0.0227 -0.0175
 6413SOL    HW130698   3.429   3.638   7.517 -0.3760  0.7004  0.7695
 6413SOL    HW230699   3.565   3.591   7.558 -0.8750  1.0844  0.8331
 6414SOL     OW30700   3.467   2.040   8.223  0.0711 -0.6349  0.2556
 6414SOL    HW130701   3.558   2.025   8.197 -0.6299 -2.3502 -1.2114
 6414SOL    HW230702   3.420   1.975   8.171  2.9853 -1.0413 -1.8982
 6415SOL     OW30703   2.885   1.920  14.629  0.4577  0.5416 -0.5228
 6415SOL    HW130704   2.891   1.899  14.722  0.3185 -3.4994 -1.4170
 6415SOL    HW230705   2.933   1.848  14.587 -1.4695  0.2985 -2.2723
 6416SOL     OW30706   2.431   1.712   6.125  0.2114 -0.4104 -0.0582
 6416SOL    HW130707   2.341   1.743   6.133  0.6087  0.1446  2.1087
 6416SOL    HW230708   2.453   1.719   6.218  0.8999  0.4216 -0.2862
 6417SOL     OW30709   2.962   1.818   6.495 -0.0905 -0.2089  0.4053
 6417SOL    HW130710   2.913   1.898   6.513  0.1119  0.0472 -0.1795
 6417SOL    HW230711   3.036   1.825   6.556 -1.0597  0.5802  1.4916
 6418SOL     OW30712   0.478   3.350   4.698 -0.2868 -0.0509 -0.2609
 6418SOL    HW130713   0.545   3.394   4.647  1.9732  0.1904  2.8925
 6418SOL    HW230714   0.524   3.272   4.727 -2.2219 -0.5166  1.5548
 6419SOL     OW30715   1.905   2.112  16.249 -0.3880  0.2365 -0.0040
 6419SOL    HW130716   1.849   2.097  16.325 -0.2802  1.2058  0.2672
 6419SOL    HW230717   1.835   2.135  16.188 -0.3357  0.6209  0.0798
 6420SOL     OW30718   0.180   0.221   8.907  0.2927 -0.2803  0.7008
 6420SOL    HW130719   0.126   0.215   8.828  1.1512  0.7349  0.0378
 6420SOL    HW230720   0.243   0.290   8.886  2.1644 -3.1617 -3.1989
 6421SOL     OW30721   4.161   3.171   5.017 -0.6568  0.1473 -0.2731
 6421SOL    HW130722   4.080   3.121   5.004 -0.2321 -0.5448 -0.2889
 6421SOL    HW230723   4.132   3.262   5.011 -1.9426 -0.3770 -1.9070
 6422SOL     OW30724   4.439   1.231   8.383  0.6102 -0.2441  0.2710
 6422SOL    HW130725   4.516   1.208   8.331 -0.1635 -0.3558 -0.8262
 6422SOL    HW230726   4.367   1.186   8.339  1.4412 -0.9318 -0.4039
 6423SOL     OW30727   0.657   1.184   0.024  0.5849  0.4270 -0.1346
 6423SOL    HW130728   0.645   1.102   0.072 -1.2323  0.5363 -0.3996
 6423SOL    HW230729   0.619   1.247   0.085  0.3463 -1.6785  1.8867
 6424SOL     OW30730   3.893   0.966   0.356 -0.3936 -0.5186  0.4641
 6424SOL    HW130731   3.951   0.890   0.350 -1.0869 -0.9916 -0.3128
 6424SOL    HW230732   3.895   0.991   0.448  1.4345 -2.6361  1.0052
 6425SOL     OW30733   3.318   1.339   2.075  0.3391 -0.3520 -0.0947
 6425SOL    HW130734   3.370   1.397   2.018  0.2458  0.6537  0.8507
 6425SOL    HW230735   3.257   1.306   2.009  1.3821 -1.0765 -0.7111
 6426SOL     OW30736   0.603   1.606   7.918  0.1135  0.1125  0.3420
 6426SOL    HW130737   0.642   1.669   7.978 -0.8032 -0.7873  1.8937
 6426SOL    HW230738   0.516   1.643   7.904  0.0843  0.0017  0.2311
 6427SOL     OW30739   2.849   3.760  12.174 -0.0476 -0.1616  0.6345
 6427SOL    HW130740   2.875   3.718  12.256 -2.2896 -1.2742  0.7926
 6427SOL    HW230741   2.800   3.689  12.132  1.5250 -0.3978 -0.7798
 6428SOL     OW30742   0.123   2.262  17.617  0.5357  0.1888  0.2365
 6428SOL    HW130743   0.216   2.251  17.599  0.1336 -0.7992 -1.2493
 6428SOL    HW230744   0.095   2.181  17.658  2.3605 -0.0829  0.9366
 6429SOL     OW30745   4.074   0.318  11.814 -0.0852 -0.1371  0.4107
 6429SOL    HW130746   4.090   0.315  11.720  1.2117 -1.1409  0.6688
 6429SOL    HW230747   4.013   0.248  11.836 -1.1001  1.2336  2.0365
 6430SOL     OW30748   4.453   3.577   5.132 -0.2324  0.7726 -0.2852
 6430SOL    HW130749   4.387   3.533   5.186 -0.0295  1.0043  0.1489
 6430SOL    HW230750   4.475   3.507   5.071 -2.0639  1.7241 -2.0224
 6431SOL     OW30751   1.262   0.349   9.770  0.4970  0.2702  0.3912
 6431SOL    HW130752   1.172   0.330   9.742  0.1999  1.0707  0.7906
 6431SOL    HW230753   1.292   0.428   9.724  2.1072  0.2326  1.3777
 6432SOL     OW30754   0.043   0.229   5.438 -0.2511 -0.4483 -0.2029
 6432SOL    HW130755   0.091   0.232   5.355  0.2616  2.1645  0.2021
 6432SOL    HW230756   0.100   0.173   5.489 -0.7452 -0.7048  0.0669
 6433SOL     OW30757   1.553   0.269   7.991 -0.6200  0.0089  0.3963
 6433SOL    HW130758   1.501   0.349   7.991 -0.4504  0.1392 -2.0305
 6433SOL    HW230759   1.490   0.202   8.015  0.6436 -1.8307 -1.4532
 6434SOL     OW30760   1.804   2.030   5.106  0.0759 -0.4906  0.8010
 6434SOL    HW130761   1.874   1.970   5.130  2.0364  0.4700 -2.5258
 6434SOL    HW230762   1.825   2.116   5.143  2.2784 -0.4952 -0.4803
 6435SOL     OW30763   1.975   2.832   5.522  0.5475  0.1954 -0.5445
 6435SOL    HW130764   2.007   2.790   5.442 -0.0670 -0.3431 -0.5047
 6435SOL    HW230765   2.061   2.836   5.564  1.0072 -3.7206 -1.1158
 6436SOL     OW30766   2.275   4.369  11.280 -0.2894  0.0249 -0.3807
 6436SOL    HW130767   2.193   4.323  11.296  0.5107 -0.1343  3.1847
 6436SOL    HW230768   2.293   4.409  11.365 -0.4069 -1.4324  0.3340
 6437SOL     OW30769   3.502   4.023  17.434  0.0105  0.0344  0.4972
 6437SOL    HW130770   3.595   4.020  17.412  0.5303  2.2934  2.4505
 6437SOL    HW230771   3.514   4.055  17.523 -3.4521  1.4760  0.4299
 6438SOL     OW30772   0.100   0.118   4.508 -1.0194  0.1588  0.3459
 6438SOL    HW130773   0.171   0.172   4.541  0.1633 -1.6765  0.8488
 6438SOL    HW230774   0.063   0.094   4.593 -2.1938 -0.3467 -0.3138
 6439SOL     OW30775   1.101   1.915   1.930 -0.1242 -0.1747 -0.0083
 6439SOL    HW130776   1.068   1.846   1.988 -0.4544 -2.2595 -2.6228
 6439SOL    HW230777   1.191   1.926   1.960  0.4165 -0.6786 -1.4472
 6440SOL     OW30778   1.001   1.929   8.946 -0.0851  0.6454 -0.3000
 6440SOL    HW130779   0.948   1.929   9.026  2.1219  1.9758  1.1686
 6440SOL    HW230780   0.955   1.998   8.898 -2.3873 -1.6867 -1.4923
 6441SOL     OW30781   4.433   4.055   6.969 -0.1133 -0.2920 -0.4410
 6441SOL    HW130782   4.523   4.023   6.956 -0.9897 -3.0256  0.1341
 6441SOL    HW230783   4.449   4.147   6.987  1.0196 -0.8650  1.5931
 6442SOL     OW30784   3.959   4.074   3.182  0.1666  0.0980  0.5289
 6442SOL    HW130785   4.040   4.051   3.137 -0.6198  1.0901 -1.3992
 6442SOL    HW230786   3.931   4.155   3.139 -1.3582 -0.2614  0.8640
 6443SOL     OW30787   4.435   1.319   9.128  0.3487  0.1184 -0.3555
 6443SOL    HW130788   4.440   1.407   9.091 -1.0359  0.6607  0.7485
 6443SOL    HW230789   4.503   1.283   9.070  0.9398 -1.1191  1.0992
 6444SOL     OW30790   0.922   1.791  17.654  0.0934 -0.1953 -0.1700
 6444SOL    HW130791   0.838   1.771  17.695  0.2215  2.6319  1.4306
 6444SOL    HW230792   0.913   1.882  17.624 -1.8634 -0.0837  0.7566
 6445SOL     OW30793   2.643   4.160   3.137 -0.0295 -0.2121 -0.4565
 6445SOL    HW130794   2.686   4.109   3.206  0.9758 -0.1359 -1.0118
 6445SOL    HW230795   2.578   4.205   3.190  0.0083 -0.0347 -0.5622
 6446SOL     OW30796   1.681   3.933   3.980 -0.0150 -0.3202 -0.1730
 6446SOL    HW130797   1.765   3.963   4.015 -0.9174  1.7832  0.1999
 6446SOL    HW230798   1.720   3.892   3.904  0.0527 -1.5617  0.5338
 6447SOL     OW30799   3.210   1.543   0.322 -0.2414  0.1062 -0.1689
 6447SOL    HW130800   3.282   1.514   0.267  0.0017  1.6778 -0.6814
 6447SOL    HW230801   3.244   1.602   0.389  0.2482  3.1199 -3.0711
 6448SOL     OW30802   0.276   3.093   6.435  0.2134 -0.7472  0.3370
 6448SOL    HW130803   0.239   3.180   6.422  2.3296 -0.0353 -0.8308
 6448SOL    HW230804   0.200   3.053   6.478  0.4924 -0.5032  1.0640
 6449SOL     OW30805   0.226   1.523   3.833 -0.1497 -0.3691  0.1567
 6449SOL    HW130806   0.182   1.438   3.823 -0.5708 -0.1737  0.3062
 6449SOL    HW230807   0.262   1.514   3.921 -1.2326 -2.2373  0.4196
 6450SOL     OW30808   0.164   2.869  15.462  0.1971  0.1772 -0.1136
 6450SOL    HW130809   0.215   2.807  15.515  0.6204  1.3297  0.8107
 6450SOL    HW230810   0.075   2.838  15.476  0.5496 -1.3838 -1.2298
 6451SOL     OW30811   1.352   4.328   0.949  0.4378 -0.0552  0.2778
 6451SOL    HW130812   1.373   4.235   0.942 -1.9243 -0.5370 -0.4729
 6451SOL    HW230813   1.288   4.344   0.880  1.3355  1.1011 -0.2786
 6452SOL     OW30814   1.934   1.194   6.572  0.2623 -0.3969 -0.4019
 6452SOL    HW130815   1.914   1.248   6.496 -1.4299  1.8574  1.6542
 6452SOL    HW230816   1.850   1.148   6.572 -0.8832  1.6702 -0.8274
 6453SOL     OW30817   0.039   0.594   6.332 -0.2532 -0.2227 -0.1042
 6453SOL    HW130818   0.043   0.650   6.255  2.5347  0.6942  0.6797
 6453SOL    HW230819   0.070   0.509   6.299  0.3072  0.5467 -1.5697
 6454SOL     OW30820   4.264   2.896   1.845  0.2682 -0.1646 -0.2166
 6454SOL    HW130821   4.335   2.951   1.812  1.2877 -0.2526  1.8317
 6454SOL    HW230822   4.309   2.815   1.871  0.6802  0.5949  1.4256
 6455SOL     OW30823   1.209   4.533  12.589 -0.1103  1.0034 -0.0979
 6455SOL    HW130824   1.223   4.587  12.667 -1.9112 -1.4102  1.9422
 6455SOL    HW230825   1.286   4.574  12.550  1.5278 -2.1718 -0.2023
 6456SOL     OW30826   2.589   4.219   7.706 -0.2787 -0.0015 -0.3872
 6456SOL    HW130827   2.613   4.171   7.786 -3.3605 -1.8558 -0.5771
 6456SOL    HW230828   2.579   4.157   7.635 -3.0853 -1.1674  1.0367
 6457SOL     OW30829   1.082   0.188   8.889 -0.2120 -0.8200  0.7367
 6457SOL    HW130830   1.064   0.264   8.943  1.3660 -1.3990  2.1043
 6457SOL    HW230831   1.101   0.115   8.949 -3.3117 -2.4669 -0.2905
 6458SOL     OW30832   0.100   2.698   8.080  0.1196 -0.5353 -0.6962
 6458SOL    HW130833   0.137   2.761   8.018 -0.3569  0.3267 -0.0941
 6458SOL    HW230834   0.066   2.756   8.148 -0.2148  1.1118 -2.2862
 6459SOL     OW30835   0.380   3.105  11.516  0.1059  0.5413  0.2772
 6459SOL    HW130836   0.457   3.062  11.479  0.0373  0.3113  0.4012
 6459SOL    HW230837   0.418   3.191  11.532  1.2715  0.2318 -0.7961
 6460SOL     OW30838   0.342   2.395   7.643  0.5816 -0.1138 -0.2593
 6460SOL    HW130839   0.428   2.384   7.603  0.0024 -2.2896 -0.8991
 6460SOL    HW230840   0.293   2.320   7.609  0.2645 -0.6437  1.3672
 6461SOL     OW30841   2.846   3.994   3.270  0.5823  0.6160  0.5070
 6461SOL    HW130842   2.776   3.957   3.324  0.1951  3.0482  1.6510
 6461SOL    HW230843   2.894   3.919   3.235 -1.5707 -0.1086 -0.8831
 6462SOL     OW30844   0.705   1.642  10.001  0.4683 -0.2339  0.4859
 6462SOL    HW130845   0.630   1.686  10.040 -1.1543 -2.1023 -0.5346
 6462SOL    HW230846   0.667   1.559   9.973  1.0436 -0.2873 -0.1367
 6463SOL     OW30847   3.183   1.531   0.863 -0.7284  0.1422  0.4751
 6463SOL    HW130848   3.091   1.507   0.863 -0.3858 -1.2048  1.5805
 6463SOL    HW230849   3.199   1.589   0.937  3.3407  0.6294 -0.7665
 6464SOL     OW30850   2.002   3.534  15.571 -0.3175  0.1807  0.6077
 6464SOL    HW130851   2.010   3.493  15.657 -3.6206 -1.6277  0.0906
 6464SOL    HW230852   2.080   3.587  15.556 -0.7994  0.5640 -0.5362
 6465SOL     OW30853   0.280   0.264  11.459 -0.0018 -0.1543  0.3428
 6465SOL    HW130854   0.273   0.206  11.383  0.9370 -2.3463  1.9254
 6465SOL    HW230855   0.252   0.201  11.525 -1.7282  0.6263  0.3474
 6466SOL     OW30856   3.250   3.125  14.564  0.7853  0.0500 -0.3090
 6466SOL    HW130857   3.239   3.037  14.600  0.2924  0.0710 -0.4057
 6466SOL    HW230858   3.161   3.159  14.562  1.5935  2.3236  2.2988
 6467SOL     OW30859   3.350   0.422   8.619  0.0792  0.0336  0.2389
 6467SOL    HW130860   3.358   0.329   8.598 -1.7213 -0.1516  0.3554
 6467SOL    HW230861   3.299   0.425   8.700  0.4514  0.3367  0.4611
 6468SOL     OW30862   1.426   2.533   1.468 -0.1555 -0.3720  0.2558
 6468SOL    HW130863   1.353   2.580   1.428  1.1709  1.0777 -0.4861
 6468SOL    HW230864   1.478   2.610   1.489 -0.8871  0.3826 -0.6533
 6469SOL     OW30865   1.924   4.006   0.503 -0.0054  0.0329 -0.1433
 6469SOL    HW130866   2.005   3.956   0.517 -1.3259 -2.7550 -2.4833
 6469SOL    HW230867   1.852   3.944   0.510 -1.0384  1.1948 -0.5376
 6470SOL     OW30868   1.659   0.805   5.183 -0.3629  0.4123 -0.4523
 6470SOL    HW130869   1.630   0.715   5.199  0.9115  0.3384  1.5052
 6470SOL    HW230870   1.734   0.798   5.243 -1.1972 -0.0008  0.5518
 6471SOL     OW30871   3.584   3.024  13.183  0.0470 -0.0341  0.0974
 6471SOL    HW130872   3.525   3.061  13.117 -1.6032 -1.8473  0.5283
 6471SOL    HW230873   3.671   3.035  13.146 -0.2614  1.0564 -0.3205
 6472SOL     OW30874   0.930   3.437   4.294  0.6266  0.1282 -0.0609
 6472SOL    HW130875   0.994   3.454   4.226  0.4447  2.0729  0.2499
 6472SOL    HW230876   0.902   3.526   4.316  0.7669 -0.0952  1.0228
 6473SOL     OW30877   0.348   1.039  13.210 -0.0448  0.1555 -0.2105
 6473SOL    HW130878   0.325   1.098  13.138  0.6328 -0.8607 -1.2699
 6473SOL    HW230879   0.374   1.107  13.272  0.1976 -0.4259  0.3339
 6474SOL     OW30880   2.248   2.374   2.856 -0.4616 -0.0001 -0.4141
 6474SOL    HW130881   2.249   2.407   2.945  0.1830  2.0083 -1.1680
 6474SOL    HW230882   2.161   2.335   2.848 -0.2358 -0.4798 -0.5390
 6475SOL     OW30883   1.389   1.530   5.314 -0.0742 -0.1273 -0.5489
 6475SOL    HW130884   1.351   1.611   5.280  0.7221  0.8653  0.9624
 6475SOL    HW230885   1.334   1.521   5.391 -0.6687  0.9900 -0.8505
 6476SOL     OW30886   0.094   3.410  10.518  0.7542  0.1593  0.0535
 6476SOL    HW130887   0.141   3.467  10.578  0.2689  0.9663 -0.3397
 6476SOL    HW230888   0.059   3.351  10.585  1.7658 -3.0003 -2.1793
 6477SOL     OW30889   0.083   3.988   2.662 -0.0940 -0.5337  0.2424
 6477SOL    HW130890   0.103   4.033   2.744  0.3732 -2.3143  1.0811
 6477SOL    HW230891   4.713   4.001   2.654  0.0090  0.6988  0.8805
 6478SOL     OW30892   1.870   0.310  12.531  0.0190  0.1448  0.0284
 6478SOL    HW130893   1.810   0.335  12.601  0.7009  1.2770  0.2125
 6478SOL    HW230894   1.935   0.251  12.570  1.9207  1.4461 -1.2285
 6479SOL     OW30895   3.946   3.763   8.187  0.0793  0.2807 -0.0258
 6479SOL    HW130896   4.019   3.773   8.249 -0.0124 -0.9058  0.2703
 6479SOL    HW230897   3.991   3.753   8.103  1.1151  1.7266  0.3585
 6480SOL     OW30898   1.054   0.372  11.232  0.3976 -0.0931 -0.3791
 6480SOL    HW130899   1.059   0.444  11.170 -1.3230  2.5768  2.5626
 6480SOL    HW230900   1.093   0.416  11.308  0.0328 -1.8173  0.8162
 6481SOL     OW30901   1.332   0.757   4.822 -0.1551 -0.3506 -0.6742
 6481SOL    HW130902   1.386   0.680   4.838  0.9737  0.7648  0.8471
 6481SOL    HW230903   1.381   0.799   4.751  1.7356 -1.7428 -0.1994
 6482SOL     OW30904   1.528   1.505   4.776  0.1149  0.0940  0.0381
 6482SOL    HW130905   1.535   1.597   4.799 -0.6842  0.4345 -1.0981
 6482SOL    HW230906   1.572   1.497   4.691  0.1020  1.0528 -0.0546
 6483SOL     OW30907   1.732   2.793   6.316  1.0460  1.1479 -0.2686
 6483SOL    HW130908   1.804   2.766   6.259 -0.5367 -0.1154 -1.6814
 6483SOL    HW230909   1.707   2.704   6.341  1.5290  0.9825 -0.3754
 6484SOL     OW30910   2.092   2.956  15.680  0.2405 -0.2905  0.4166
 6484SOL    HW130911   2.122   2.979  15.768 -1.2328  0.6896  0.6492
 6484SOL    HW230912   2.158   3.005  15.630  0.9322 -0.9509  0.6712
 6485SOL     OW30913   0.065   0.822   5.242  0.0969  0.1133  0.4693
 6485SOL    HW130914   0.028   0.896   5.291  1.0584  0.0083  1.3656
 6485SOL    HW230915   0.141   0.877   5.223 -0.7750  0.9751 -0.4997
 6486SOL     OW30916   1.421   4.475   0.001  0.6618 -0.2640 -0.0706
 6486SOL    HW130917   1.346   4.521  17.662  0.6873  2.0809  2.7371
 6486SOL    HW230918   1.418   4.394  17.648  0.8632  0.1741 -0.7726
 6487SOL     OW30919   3.201   2.839  11.273 -0.2326 -0.2208  0.1531
 6487SOL    HW130920   3.121   2.871  11.317 -1.1300 -0.8082 -1.0589
 6487SOL    HW230921   3.240   2.911  11.224 -1.9673  1.1240  0.7282
 6488SOL     OW30922   2.955   3.127  15.327 -0.0772  0.2069 -0.1134
 6488SOL    HW130923   3.005   3.183  15.267 -0.2590  0.5842  0.0917
 6488SOL    HW230924   2.927   3.062  15.263  1.0521  0.9239 -1.3524
 6489SOL     OW30925   2.996   3.761   6.402  0.2885  0.0311 -0.2829
 6489SOL    HW130926   3.069   3.723   6.354 -1.6450 -2.5142 -1.2080
 6489SOL    HW230927   2.957   3.815   6.333  2.9925  2.3099 -0.0249
 6490SOL     OW30928   3.603   3.470   3.702  0.0309 -0.3497 -0.8912
 6490SOL    HW130929   3.593   3.553   3.749 -0.3606  0.0215 -1.6387
 6490SOL    HW230930   3.637   3.494   3.615  1.0601  0.1641 -0.3470
 6491SOL     OW30931   3.102   3.750   5.856 -0.5489  0.1450 -0.0928
 6491SOL    HW130932   3.161   3.803   5.910 -1.3284  1.6554 -0.7589
 6491SOL    HW230933   3.158   3.736   5.780  0.9989  2.0629  0.7026
 6492SOL     OW30934   1.768   4.351   8.621  0.7540 -0.1513 -0.0897
 6492SOL    HW130935   1.820   4.420   8.665  0.9733 -0.7981  0.6760
 6492SOL    HW230936   1.821   4.271   8.624  1.0857  0.0835  0.3907
 6493SOL     OW30937   1.189   4.038   1.973  0.4043  0.2753 -0.4386
 6493SOL    HW130938   1.179   3.963   1.915  1.7704  0.1056 -0.4571
 6493SOL    HW230939   1.201   4.109   1.910  0.9978 -1.1691 -1.9415
 6494SOL     OW30940   1.895   1.511   6.031  0.3142 -0.8249 -0.4727
 6494SOL    HW130941   1.974   1.462   6.052  0.4372  0.0320  1.0447
 6494SOL    HW230942   1.925   1.584   5.977  3.5532 -3.3481 -2.0827
 6495SOL     OW30943   2.444   1.063   6.328 -0.1908  0.3199 -0.0810
 6495SOL    HW130944   2.526   1.112   6.328  0.1303 -0.2102  1.0161
 6495SOL    HW230945   2.469   0.995   6.391 -3.0063  0.0447  0.7494
 6496SOL     OW30946   1.932   3.791  17.192  0.5384 -0.0984 -0.2058
 6496SOL    HW130947   1.900   3.704  17.168 -0.1355 -0.4628  2.0974
 6496SOL    HW230948   1.901   3.800  17.281  3.1583 -0.7442  0.7851
 6497SOL     OW30949   2.372   1.395   2.560 -0.2609  0.1081  0.3973
 6497SOL    HW130950   2.337   1.324   2.613  0.8389  0.2554  1.3328
 6497SOL    HW230951   2.455   1.358   2.530 -0.2279  1.3251 -0.9892
 6498SOL     OW30952   1.684   2.782  15.991  0.2594 -0.3813  0.5742
 6498SOL    HW130953   1.627   2.858  15.978  3.6810  2.3760  1.4482
 6498SOL    HW230954   1.759   2.790  15.932  1.2874  1.1483  2.0707
 6499SOL     OW30955   2.591   1.587   8.496  0.2726 -0.2111  0.0117
 6499SOL    HW130956   2.660   1.633   8.543 -0.9034  2.1647 -0.5893
 6499SOL    HW230957   2.543   1.659   8.456  0.2804 -0.2827 -0.1300
 6500SOL     OW30958   2.969   3.289  11.614  0.5746  0.0218  0.4406
 6500SOL    HW130959   2.970   3.279  11.519  1.7987 -0.8840  0.5497
 6500SOL    HW230960   2.912   3.214  11.628 -0.4303  0.7661  0.3502
 6501SOL     OW30961   0.140   1.695   6.893 -0.5890 -0.4826  0.0133
 6501SOL    HW130962   0.229   1.690   6.927 -0.8087 -1.0839  0.4912
 6501SOL    HW230963   0.142   1.614   6.842 -0.8652 -1.1609  1.0650
 6502SOL     OW30964   1.033   4.418   7.006 -0.5922  0.3802  0.0701
 6502SOL    HW130965   1.064   4.387   6.921  0.0406 -0.7233  0.6895
 6502SOL    HW230966   0.980   4.486   6.965 -0.6916 -0.7103 -1.6022
 6503SOL     OW30967   4.285   1.017   0.668 -0.0981 -0.2608 -0.0833
 6503SOL    HW130968   4.328   0.943   0.710 -1.9293 -1.3347 -0.1011
 6503SOL    HW230969   4.240   1.051   0.746 -2.1503 -3.6193  0.1881
 6504SOL     OW30970   4.291   4.112   2.980 -0.3544 -0.2792  0.2893
 6504SOL    HW130971   4.259   4.177   2.918  0.5284 -1.2375 -1.1444
 6504SOL    HW230972   4.231   4.040   2.958 -0.7133  0.4459 -1.0659
 6505SOL     OW30973   1.881   2.592   8.410  0.3251  0.2574  0.1380
 6505SOL    HW130974   1.873   2.664   8.473 -1.5418  0.6601 -0.5495
 6505SOL    HW230975   1.911   2.528   8.474 -1.5984 -0.7251  0.0702
 6506SOL     OW30976   0.140   1.679   4.215  0.7178  0.5856 -0.2114
 6506SOL    HW130977   0.160   1.586   4.225  2.3422  0.8459 -1.0994
 6506SOL    HW230978   0.216   1.693   4.159  1.3954  0.3616  0.6390
 6507SOL     OW30979   2.875   1.974  12.576  0.2700 -0.3884  0.2045
 6507SOL    HW130980   2.953   1.930  12.609  0.1917 -2.5599 -2.4833
 6507SOL    HW230981   2.809   1.906  12.584  0.6248 -0.6872  0.5700
 6508SOL     OW30982   3.710   1.702   6.761  0.2894  0.1584  0.6670
 6508SOL    HW130983   3.786   1.745   6.800 -0.3724  1.2755  0.7356
 6508SOL    HW230984   3.691   1.638   6.830  1.6112 -1.2329 -0.2712
 6509SOL     OW30985   4.546   4.031   2.665 -0.0019  0.0218 -0.6986
 6509SOL    HW130986   4.454   4.056   2.655 -0.2472 -0.7485 -0.4053
 6509SOL    HW230987   4.566   4.124   2.662  1.2593 -0.1549  2.4250
 6510SOL     OW30988   2.337   4.402   6.662  0.7475  0.7176  0.1695
 6510SOL    HW130989   2.291   4.360   6.589 -0.9076  3.7124 -0.5490
 6510SOL    HW230990   2.266   4.456   6.697  0.2499  1.0617 -1.3367
 6511SOL     OW30991   3.264   2.804   5.365 -0.2437  0.2343  0.4342
 6511SOL    HW130992   3.314   2.867   5.417 -0.7813  0.7398  0.3499
 6511SOL    HW230993   3.305   2.722   5.390  1.4055  0.9045 -0.1068
 6512SOL     OW30994   0.940   1.038  14.707  0.0358 -0.2728 -0.5411
 6512SOL    HW130995   0.954   0.990  14.789  0.7032  0.3114 -0.3170
 6512SOL    HW230996   1.000   0.987  14.653 -1.8263 -1.2283 -1.7074
 6513SOL     OW30997   2.068   1.132  14.474  0.5856 -0.4423 -0.3788
 6513SOL    HW130998   1.998   1.149  14.411 -0.0776  0.1808  0.5267
 6513SOL    HW230999   2.085   1.222  14.500 -1.7664 -1.0966  3.3151
 6514SOL     OW31000   3.685   1.965   6.991  0.2016  0.1677  0.5170
 6514SOL    HW131001   3.618   2.019   7.033  1.0884  1.1138  0.7233
 6514SOL    HW231002   3.689   1.991   6.899 -1.3722  0.4082  0.5289
 6515SOL     OW31003   2.254   0.057   4.923  0.0739  0.2663 -0.3026
 6515SOL    HW131004   2.252   0.148   4.894 -0.6938  0.3249 -0.0846
 6515SOL    HW231005   2.348   0.043   4.925 -0.2667 -1.9369  0.1000
 6516SOL     OW31006   1.816   4.576   5.369 -0.1118  0.5067  0.4556
 6516SOL    HW131007   1.859   4.581   5.454 -0.4511  0.6348  0.6215
 6516SOL    HW231008   1.818   4.668   5.342  0.3221  0.4058  0.1550
 6517SOL     OW31009   2.303   0.751   5.873 -0.4600 -0.0576  0.5209
 6517SOL    HW131010   2.241   0.790   5.935 -1.5350 -1.7189  0.4825
 6517SOL    HW231011   2.387   0.761   5.918 -1.0843  1.1491  1.4312
 6518SOL     OW31012   1.687   0.549   4.069  0.1610  0.2637 -0.0926
 6518SOL    HW131013   1.685   0.455   4.051  1.6642  0.0716  0.7705
 6518SOL    HW231014   1.670   0.548   4.163  2.7690  0.0682  0.3710
 6519SOL     OW31015   0.630   0.417   2.198  0.1147  0.0354  0.0404
 6519SOL    HW131016   0.718   0.437   2.230  0.3864  0.4048 -0.9323
 6519SOL    HW231017   0.638   0.450   2.108  0.8738 -3.1621 -1.0851
 6520SOL     OW31018   0.243   3.205  10.385 -0.1437  0.1472 -0.0866
 6520SOL    HW131019   0.323   3.258  10.387 -1.2794  1.8887 -0.6128
 6520SOL    HW231020   0.179   3.260  10.432  0.1787 -0.3879  0.9807
 6521SOL     OW31021   0.405   4.385   5.376 -0.0784 -0.8502 -0.3977
 6521SOL    HW131022   0.349   4.458   5.403  0.3107  0.1169 -2.1802
 6521SOL    HW231023   0.359   4.357   5.296  1.3062  0.7466 -1.7405
 6522SOL     OW31024   1.595   2.941   7.979 -0.0153  0.1359  0.3091
 6522SOL    HW131025   1.635   2.890   7.908  0.4338  2.4520 -1.1026
 6522SOL    HW231026   1.670   2.972   8.030 -0.1939 -0.9333  1.2187
 6523SOL     OW31027   0.458   0.533   2.393  0.0975 -0.2363  0.0722
 6523SOL    HW131028   0.500   0.499   2.314 -1.4055 -2.1658  0.1051
 6523SOL    HW231029   0.532   0.582   2.430 -0.2951 -0.1820  0.7828
 6524SOL     OW31030   0.257   0.206   5.891 -0.4440 -0.0072  0.4361
 6524SOL    HW131031   0.253   0.289   5.939 -0.4366  0.6823 -0.7537
 6524SOL    HW231032   0.168   0.169   5.890  0.3967 -2.1193  3.7253
 6525SOL     OW31033   1.668   3.478  13.078 -0.6467  0.2195  0.1874
 6525SOL    HW131034   1.614   3.400  13.066 -0.0845  0.3013 -2.8959
 6525SOL    HW231035   1.750   3.442  13.042 -1.7664 -1.4224 -0.7270
 6526SOL     OW31036   0.649   0.802  12.998  0.0525 -0.0119  0.7569
 6526SOL    HW131037   0.556   0.779  12.990 -0.5261  2.6945 -0.3186
 6526SOL    HW231038   0.654   0.843  13.084  0.6029  0.2710  0.5941
 6527SOL     OW31039   0.243   3.326   4.570  0.5040 -0.5392  0.6564
 6527SOL    HW131040   0.323   3.338   4.621  1.2889 -1.6610 -0.3070
 6527SOL    HW231041   0.256   3.236   4.541  1.4665 -0.2201  0.0990
 6528SOL     OW31042   0.546   2.793   7.868  0.0107  0.0551 -0.0902
 6528SOL    HW131043   0.488   2.781   7.944  0.2833  0.5838  0.2031
 6528SOL    HW231044   0.631   2.774   7.908  0.2458  2.9021  0.7622
 6529SOL     OW31045   4.362   2.413  16.621  0.4078  0.0970 -0.3387
 6529SOL    HW131046   4.423   2.441  16.553 -0.0787 -1.4072 -1.3786
 6529SOL    HW231047   4.309   2.492  16.624 -0.1246 -0.2460 -0.6849
 6530SOL     OW31048   0.727   0.866  17.275  0.0952 -0.0326 -0.0593
 6530SOL    HW131049   0.745   0.814  17.353  0.8456 -0.6986 -0.6690
 6530SOL    HW231050   0.804   0.921  17.282 -0.9813  1.3731  0.6446
 6531SOL     OW31051   3.417   2.380  12.982  0.0402  0.2716 -0.3495
 6531SOL    HW131052   3.356   2.324  13.031  2.3942 -1.4443  0.6185
 6531SOL    HW231053   3.370   2.462  12.968 -2.4865 -0.6073  2.8135
 6532SOL     OW31054   0.568   0.287   9.186 -0.1160  0.8032  0.5483
 6532SOL    HW131055   0.481   0.248   9.195  0.0775  0.6421  1.7406
 6532SOL    HW231056   0.598   0.242   9.108 -1.6405 -1.8095  1.4775
 6533SOL     OW31057   1.006   1.271   3.608 -0.7905 -0.1902  0.0039
 6533SOL    HW131058   0.980   1.351   3.652 -1.4734 -0.0187 -0.7051
 6533SOL    HW231059   1.022   1.216   3.684 -2.9197  0.3640  0.8555
 6534SOL     OW31060   0.835   2.010  13.900  0.0701  0.1549  0.5730
 6534SOL    HW131061   0.871   1.966  13.977  1.4468 -0.3767 -0.3641
 6534SOL    HW231062   0.762   1.950  13.887 -0.3823  0.7410  0.3837
 6535SOL     OW31063   0.298   4.637   2.294 -0.5660  0.0657 -0.0901
 6535SOL    HW131064   0.392   4.643   2.275 -0.7855  1.0026 -0.9158
 6535SOL    HW231065   0.264   4.677   2.214  2.1342  1.6542 -0.4538
 6536SOL     OW31066   0.373   4.233   3.607  0.3860 -0.7594 -0.5746
 6536SOL    HW131067   0.427   4.245   3.685  1.5963 -0.8225 -1.4056
 6536SOL    HW231068   0.399   4.313   3.561  0.4862  0.2182  1.1631
 6537SOL     OW31069   1.860   0.374  17.188  0.3260 -0.1001  0.1536
 6537SOL    HW131070   1.890   0.438  17.124  0.8731 -2.2544 -1.7487
 6537SOL    HW231071   1.775   0.415  17.204  0.3893  1.2146 -2.9245
 6538SOL     OW31072   0.407   2.049   7.426 -0.2948 -0.7522 -0.1052
 6538SOL    HW131073   0.451   2.003   7.497  0.1967 -1.6249 -0.9569
 6538SOL    HW231074   0.449   2.016   7.345  1.0952 -0.6701  0.5797
 6539SOL     OW31075   0.758   3.437   1.869  0.3171  0.0975 -0.3499
 6539SOL    HW131076   0.799   3.403   1.949  2.0703  1.1015 -0.8254
 6539SOL    HW231077   0.821   3.397   1.810  0.9997 -0.4241  0.7444
 6540SOL     OW31078   0.565   2.751   0.060  0.3722 -0.5226  0.1033
 6540SOL    HW131079   0.599   2.704   0.136  0.2302 -0.7804  0.0057
 6540SOL    HW231080   0.473   2.768   0.082  0.6788  0.2976  0.7577
 6541SOL     OW31081   1.061   4.432  10.396  0.6293 -0.0650  0.0737
 6541SOL    HW131082   1.128   4.480  10.347  1.4450  0.1622  1.4241
 6541SOL    HW231083   1.025   4.494  10.459  4.3428  1.9286  0.2354
 6542SOL     OW31084   4.635   3.448   5.569 -0.1116  0.0121  0.4090
 6542SOL    HW131085   4.718   3.411   5.539  0.6446  0.3112  2.1402
 6542SOL    HW231086   4.648   3.453   5.664 -0.0578 -2.0334  0.5134
 6543SOL     OW31087   1.276   0.324   8.248  0.3471 -0.6278  0.1096
 6543SOL    HW131088   1.272   0.382   8.172  0.2725 -0.1917  0.4472
 6543SOL    HW231089   1.233   0.382   8.311 -1.1991 -0.6744 -0.8970
 6544SOL     OW31090   3.034   0.527   8.449 -0.0951 -0.3399  0.3240
 6544SOL    HW131091   3.121   0.504   8.414 -0.0107  1.1434 -0.4332
 6544SOL    HW231092   3.053   0.620   8.456  1.0974 -0.5652  0.1732
 6545SOL     OW31093   2.336   3.292  10.006 -0.2219 -0.1370 -0.6406
 6545SOL    HW131094   2.309   3.379   9.976 -0.2149 -0.0762 -0.4736
 6545SOL    HW231095   2.255   3.241  10.015 -1.6574  2.0823 -0.7352
 6546SOL     OW31096   2.022   1.142  12.546  0.1553  0.0736 -1.0836
 6546SOL    HW131097   2.093   1.145  12.610 -0.8100  1.1012 -0.0638
 6546SOL    HW231098   2.037   1.051  12.520 -0.9886 -0.7770  1.2376
 6547SOL     OW31099   0.452   4.070   8.452 -0.5126  0.6169  0.0675
 6547SOL    HW131100   0.437   3.977   8.468  0.2745  0.2691 -1.2531
 6547SOL    HW231101   0.369   4.110   8.478 -1.1412 -0.1375 -0.7696
 6548SOL     OW31102   1.896   0.676  11.183 -0.0332  0.4687  0.2892
 6548SOL    HW131103   1.894   0.635  11.096  1.1423  1.4323 -0.1981
 6548SOL    HW231104   1.864   0.764  11.165 -1.3696 -0.0698 -0.0000
 6549SOL     OW31105   4.721   4.053  17.135  0.0697 -0.1647 -0.4935
 6549SOL    HW131106   0.086   4.029  17.109  0.2876 -1.2614  1.2917
 6549SOL    HW231107   4.721   4.147  17.116  1.4184  0.1600  1.1785
 6550SOL     OW31108   2.257   1.397   5.493  0.2008  0.0658  0.5060
 6550SOL    HW131109   2.247   1.354   5.408 -2.7896 -0.1824  0.9770
 6550SOL    HW231110   2.221   1.322   5.543  0.4091  0.0921  0.6935
 6551SOL     OW31111   2.845   2.531  17.480 -0.2568  0.2977 -0.2259
 6551SOL    HW131112   2.920   2.522  17.422  1.3274  1.3191  1.6749
 6551SOL    HW231113   2.853   2.445  17.520 -1.0193  1.2824  2.0305
 6552SOL     OW31114   4.303   1.539   4.286 -0.1012  0.1661  0.2103
 6552SOL    HW131115   4.379   1.578   4.243 -1.0547  0.1982 -1.4566
 6552SOL    HW231116   4.346   1.489   4.356  0.2715 -0.5623 -0.5387
 6553SOL     OW31117   0.840   1.427   6.182 -0.1113  0.3265  0.3498
 6553SOL    HW131118   0.907   1.384   6.128  0.4554  0.0001  1.3048
 6553SOL    HW231119   0.777   1.453   6.115  2.3095  1.7629 -1.3827
 6554SOL     OW31120   0.867   1.174   7.063 -0.3014 -0.4758 -0.0559
 6554SOL    HW131121   0.819   1.250   7.030  0.1590 -1.0254 -1.9815
 6554SOL    HW231122   0.955   1.206   7.044 -0.3009 -0.5679 -0.2060
 6555SOL     OW31123   2.865   0.297  15.899  0.1226 -0.2549 -0.2684
 6555SOL    HW131124   2.953   0.275  15.929  0.6188 -0.8678 -2.1688
 6555SOL    HW231125   2.846   0.351  15.976  0.9455  1.6293 -1.3873
 6556SOL     OW31126   3.901   3.591  11.578 -0.0294  0.5467 -0.4008
 6556SOL    HW131127   3.893   3.524  11.646 -2.0320  0.3924 -0.7642
 6556SOL    HW231128   3.948   3.667  11.612  0.6829  0.9446 -2.2576
 6557SOL     OW31129   2.588   1.846   7.877 -0.5464  0.6040 -0.1835
 6557SOL    HW131130   2.567   1.827   7.969 -2.0355 -1.5860 -0.9601
 6557SOL    HW231131   2.610   1.760   7.841  0.0081  1.1668 -1.1654
 6558SOL     OW31132   3.804   4.429   5.304 -0.0081 -0.0536  0.2974
 6558SOL    HW131133   3.751   4.355   5.334  2.3802 -1.3797  1.3002
 6558SOL    HW231134   3.837   4.468   5.385  2.4623  0.0996 -0.7697
 6559SOL     OW31135   4.554   1.361   6.663 -0.2600 -0.0241  0.6114
 6559SOL    HW131136   4.518   1.309   6.591  1.3759 -1.5423  0.8882
 6559SOL    HW231137   4.623   1.307   6.702  0.6220  0.4401 -0.3360
 6560SOL     OW31138   0.656   0.147   6.768  0.1594  0.0520  0.4209
 6560SOL    HW131139   0.576   0.197   6.751 -0.0010  0.4535  2.3827
 6560SOL    HW231140   0.644   0.097   6.687  0.5510 -1.7359  1.4484
 6561SOL     OW31141   1.671   2.102   8.437  0.8654  0.5652 -0.0269
 6561SOL    HW131142   1.694   2.012   8.416 -1.2859 -0.1974  0.8515
 6561SOL    HW231143   1.576   2.093   8.431  0.9522 -0.2080 -0.1765
 6562SOL     OW31144   0.638   3.952   4.609 -0.1054 -0.6395  0.0665
 6562SOL    HW131145   0.636   4.030   4.552  0.4005 -0.7226 -0.0655
 6562SOL    HW231146   0.636   3.888   4.537  1.1839  1.8694 -2.2000
 6563SOL     OW31147   3.840   2.487   6.412 -0.3370  0.8460  0.0726
 6563SOL    HW131148   3.905   2.423   6.381  1.6940  3.1501 -0.4250
 6563SOL    HW231149   3.764   2.430   6.408  0.8781 -0.5930 -2.4860
 6564SOL     OW31150   3.823   4.020   8.158  0.2831 -0.2156  0.0318
 6564SOL    HW131151   3.850   3.928   8.154 -1.9949 -0.8651 -0.2673
 6564SOL    HW231152   3.731   4.000   8.139  0.2302 -1.6361  1.8101
 6565SOL     OW31153   1.625   1.716  10.645  0.1812 -0.0603  0.2008
 6565SOL    HW131154   1.655   1.690  10.732  0.2580 -1.2303 -0.1777
 6565SOL    HW231155   1.665   1.644  10.597  2.3094  1.1085  0.2389
 6566SOL     OW31156   4.264   0.616   6.273 -0.3391  0.1617 -0.2937
 6566SOL    HW131157   4.259   0.521   6.283 -1.4872  0.0711 -1.6513
 6566SOL    HW231158   4.213   0.643   6.349 -0.3979  0.4555 -0.4397
 6567SOL     OW31159   1.593   4.491   5.180  0.0597 -0.8343  0.2762
 6567SOL    HW131160   1.607   4.515   5.272  2.4631  0.7016 -0.4763
 6567SOL    HW231161   1.626   4.569   5.136  1.0443  0.4581  3.2702
 6568SOL     OW31162   4.548   0.313   4.229  0.8705  0.5168 -0.3434
 6568SOL    HW131163   4.512   0.373   4.164 -0.0838  0.1678 -0.1315
 6568SOL    HW231164   4.517   0.351   4.311  0.2032  2.3369 -1.4336
 6569SOL     OW31165   1.898   0.760  15.808  0.7871  0.6695 -0.1992
 6569SOL    HW131166   1.844   0.789  15.734  0.1071 -2.0075 -0.7611
 6569SOL    HW231167   1.933   0.841  15.844 -0.2168  1.4729 -1.0194
 6570SOL     OW31168   4.461   4.097   1.474 -0.0095 -0.6775  0.0102
 6570SOL    HW131169   4.393   4.155   1.508  1.3353 -0.3096  2.0604
 6570SOL    HW231170   4.434   4.084   1.383  0.7788  1.0175 -0.4769
 6571SOL     OW31171   4.055   1.352   2.735 -0.1219  0.3764 -0.1453
 6571SOL    HW131172   4.002   1.287   2.690  0.5919  0.1566 -0.6769
 6571SOL    HW231173   4.063   1.412   2.660 -0.9359  1.6826  0.8026
 6572SOL     OW31174   0.799   1.028   0.913 -0.3188  0.2007 -0.2039
 6572SOL    HW131175   0.853   1.040   0.835 -1.0841  0.8024 -0.6538
 6572SOL    HW231176   0.842   0.955   0.956 -0.0612  0.4805  0.0180
 6573SOL     OW31177   2.282   1.767   2.440  0.0568  0.0470  0.5442
 6573SOL    HW131178   2.297   1.692   2.382 -1.3656 -0.7768  1.2497
 6573SOL    HW231179   2.189   1.767   2.462 -0.2410 -2.5011 -0.6626
 6574SOL     OW31180   1.435   1.573  16.375 -0.5431  0.0266 -0.4576
 6574SOL    HW131181   1.457   1.587  16.467  0.7561 -0.8437 -0.6288
 6574SOL    HW231182   1.481   1.650  16.341 -0.2129 -0.1731 -0.4709
 6575SOL     OW31183   0.051   2.812   3.202  0.5212  0.3440 -1.3661
 6575SOL    HW131184   0.028   2.889   3.151  0.7825  0.0501 -1.9260
 6575SOL    HW231185   0.003   2.754   3.142  1.9695 -1.7594 -0.4942
 6576SOL     OW31186   3.823   0.108   5.393 -0.1896 -0.1183  0.7885
 6576SOL    HW131187   3.848   0.115   5.301 -1.4880  0.7755  0.5205
 6576SOL    HW231188   3.751   0.169   5.407 -1.0234 -0.7824 -0.5467
 6577SOL     OW31189   2.815   3.393  17.657  0.1615 -0.0574  0.2519
 6577SOL    HW131190   2.827   3.485  17.679  1.1600 -0.2858  0.6753
 6577SOL    HW231191   2.731   3.373  17.698  0.4628  0.4026  1.0970
 6578SOL     OW31192   2.642   2.470  11.651  0.1507  0.2256 -0.8400
 6578SOL    HW131193   2.631   2.385  11.608 -1.2812 -0.6758  1.2562
 6578SOL    HW231194   2.589   2.527  11.596 -0.6288 -2.2289 -2.6562
 6579SOL     OW31195   3.778   3.721  12.336 -0.8011 -0.6038  0.4334
 6579SOL    HW131196   3.806   3.754  12.422  1.4007 -0.1819 -0.4398
 6579SOL    HW231197   3.833   3.764  12.270 -2.1982 -0.7124 -0.7948
 6580SOL     OW31198   1.725   1.399   4.538 -0.4984 -0.4410 -0.4413
 6580SOL    HW131199   1.786   1.445   4.481 -0.1438 -0.6545 -0.2402
 6580SOL    HW231200   1.785   1.374   4.608 -2.1030 -0.7787  0.8233
 6581SOL     OW31201   3.408   0.144  11.672 -1.0742  0.0443  0.0562
 6581SOL    HW131202   3.326   0.174  11.634 -0.4195 -1.0005 -2.2063
 6581SOL    HW231203   3.375   0.105  11.753 -1.1332  0.1707  0.0917
 6582SOL     OW31204   2.944   3.443  13.661 -0.4062  0.5300  0.4937
 6582SOL    HW131205   3.038   3.456  13.652 -0.6114  0.0640 -2.5482
 6582SOL    HW231206   2.923   3.518  13.605 -2.1976  0.2670  0.8096
 6583SOL     OW31207   1.099   2.573   5.525  0.3649 -0.6025  0.3398
 6583SOL    HW131208   1.007   2.599   5.514  0.7548  0.9861  0.8154
 6583SOL    HW231209   1.128   2.615   5.444  0.5371  0.4298  0.9356
 6584SOL     OW31210   1.093   3.689   3.068  0.1251  0.4807 -0.2507
 6584SOL    HW131211   1.033   3.614   3.061 -1.2681  1.5303  0.3180
 6584SOL    HW231212   1.103   3.688   3.163 -0.9667  1.9221 -0.1351
 6585SOL     OW31213   4.430   2.394  17.039  0.0203  0.2483 -0.3034
 6585SOL    HW131214   4.466   2.369  17.124 -0.3352 -0.6727 -0.4277
 6585SOL    HW231215   4.460   2.319  16.988  0.6547 -1.3287  2.3908
 6586SOL     OW31216   1.446   2.479   8.467 -0.3468 -0.3475  0.1698
 6586SOL    HW131217   1.372   2.540   8.473  1.9933  2.1135  3.7216
 6586SOL    HW231218   1.446   2.447   8.557  0.4791  2.4440  1.1717
 6587SOL     OW31219   2.963   0.351   2.072  0.2389  0.1655 -0.0227
 6587SOL    HW131220   2.942   0.324   1.982 -0.3441  2.1564 -0.4734
 6587SOL    HW231221   3.057   0.367   2.066  0.0265  1.3963 -0.0293
 6588SOL     OW31222   1.657   0.549   4.772  0.8623 -0.3437 -0.3206
 6588SOL    HW131223   1.642   0.627   4.826  3.1957 -0.2697  0.2142
 6588SOL    HW231224   1.670   0.483   4.839  1.4814 -0.3210 -0.4244
 6589SOL     OW31225   1.140   3.435   1.157  0.0227  0.0068  0.2157
 6589SOL    HW131226   1.138   3.516   1.106  1.3086 -0.3951 -0.4443
 6589SOL    HW231227   1.218   3.387   1.132 -0.0048  0.9388 -1.6135
 6590SOL     OW31228   0.303   2.676   3.024  0.0594  0.0813 -0.6703
 6590SOL    HW131229   0.243   2.651   3.093  1.0595  0.5313  0.3634
 6590SOL    HW231230   0.332   2.588   3.002 -0.3635  0.1194 -1.3782
 6591SOL     OW31231   3.198   3.998   8.992 -0.2831  0.1424 -0.4651
 6591SOL    HW131232   3.175   4.085   8.960 -0.7455  0.2291  0.0943
 6591SOL    HW231233   3.199   4.010   9.087  0.0524 -1.5415 -0.2594
 6592SOL     OW31234   3.866   3.375  12.098  0.4255  0.4660  0.1096
 6592SOL    HW131235   3.861   3.377  12.194 -0.3324  0.9055  0.0615
 6592SOL    HW231236   3.785   3.332  12.073  1.6038  0.0257 -2.9470
 6593SOL     OW31237   1.916   2.664   6.151 -0.1443  0.1987  0.0817
 6593SOL    HW131238   1.890   2.620   6.070  1.8503  1.0453 -1.0204
 6593SOL    HW231239   2.001   2.692   6.116 -0.4599  2.2643  0.9397
 6594SOL     OW31240   4.494   1.579   9.090 -0.2131  0.0278  0.3180
 6594SOL    HW131241   4.551   1.638   9.140 -0.6637  0.7138  0.0170
 6594SOL    HW231242   4.427   1.569   9.157 -2.0658  0.1882 -1.5252
 6595SOL     OW31243   4.504   4.670   9.224 -0.0627 -0.0282 -0.3022
 6595SOL    HW131244   4.595   4.691   9.247 -0.3815  0.2056  0.7655
 6595SOL    HW231245   4.463   0.015   9.276 -0.6821 -0.4344 -0.2549
 6596SOL     OW31246   2.677   3.467   0.703 -0.2114 -0.1561 -0.3974
 6596SOL    HW131247   2.640   3.488   0.789  0.6076 -2.2788  0.4815
 6596SOL    HW231248   2.764   3.507   0.707 -0.1645 -0.3700  0.7746
 6597SOL     OW31249   1.583   3.547   7.085  0.9820 -0.7941 -0.0225
 6597SOL    HW131250   1.643   3.559   7.012  0.7587 -2.7994 -0.5305
 6597SOL    HW231251   1.604   3.457   7.109  1.0178 -0.6991  0.3143
 6598SOL     OW31252   3.514   1.521   4.666  0.0677  0.5741  0.4509
 6598SOL    HW131253   3.573   1.597   4.668 -0.6943  1.0923  3.1400
 6598SOL    HW231254   3.576   1.453   4.691  0.1434  1.8604  3.8130
 6599SOL     OW31255   0.464   2.764   3.383  0.2374 -0.7175 -0.0774
 6599SOL    HW131256   0.529   2.729   3.321  0.9554 -0.0131  0.2790
 6599SOL    HW231257   0.390   2.776   3.324 -0.1678 -2.8177  0.0269
 6600SOL     OW31258   3.168   0.237   1.207  0.3738 -0.2995 -0.2952
 6600SOL    HW131259   3.155   0.323   1.167 -2.0282 -0.2861  0.5264
 6600SOL    HW231260   3.230   0.263   1.275 -1.9535 -1.1824  2.1331
 6601SOL     OW31261   3.424   2.183   8.969 -0.3218 -0.0802  0.1958
 6601SOL    HW131262   3.340   2.229   8.975  0.1224  0.8747 -1.0342
 6601SOL    HW231263   3.401   2.090   8.970  3.1523 -0.9197  0.9322
 6602SOL     OW31264   2.911   2.824   8.406  0.2453 -0.0405  0.5763
 6602SOL    HW131265   2.821   2.794   8.395 -0.3338  2.1268 -0.7127
 6602SOL    HW231266   2.966   2.750   8.429 -0.0733 -0.3731  0.2717
 6603SOL     OW31267   2.743   3.724   9.557  0.4261  0.2448  0.8053
 6603SOL    HW131268   2.730   3.630   9.567  2.2408 -0.2161 -1.1812
 6603SOL    HW231269   2.697   3.749   9.477 -1.5893  0.4970  2.0369
 6604SOL     OW31270   3.337   0.637   3.031 -0.2424  0.2969 -0.4481
 6604SOL    HW131271   3.276   0.627   3.104  0.2231 -0.1868 -0.1260
 6604SOL    HW231272   3.325   0.730   3.012 -2.8843  0.1638  0.6445
 6605SOL     OW31273   1.839   0.943  11.165 -0.0941  0.0274 -0.3607
 6605SOL    HW131274   1.874   1.026  11.199  1.5346 -0.2355 -1.3873
 6605SOL    HW231275   1.758   0.988  11.139  0.0345  1.2524  1.3697
 6606SOL     OW31276   1.251   2.137   8.764 -0.6885 -0.2556  0.0873
 6606SOL    HW131277   1.344   2.150   8.786 -0.1693 -2.4711 -0.8623
 6606SOL    HW231278   1.214   2.202   8.824  0.9379  0.5752  0.1994
 6607SOL     OW31279   2.132   3.441   8.005 -0.4843  0.7247 -0.1480
 6607SOL    HW131280   2.075   3.364   7.995 -1.0090  0.7616  2.7620
 6607SOL    HW231281   2.099   3.481   7.924 -0.0067 -0.4615 -0.9301
 6608SOL     OW31282   1.357   0.567   9.632  0.0658 -0.0150 -0.1554
 6608SOL    HW131283   1.428   0.630   9.620 -2.5330  2.7979 -0.7654
 6608SOL    HW231284   1.284   0.621   9.603  0.5324  1.1258  0.8125
 6609SOL     OW31285   2.787   1.247  16.430 -0.0679 -0.1106 -0.2830
 6609SOL    HW131286   2.755   1.215  16.346  2.2208 -1.0671 -0.8116
 6609SOL    HW231287   2.856   1.185  16.455 -1.6893 -1.8933 -0.1970
 6610SOL     OW31288   1.541   1.549   7.656 -0.5383 -0.1820  0.1471
 6610SOL    HW131289   1.555   1.583   7.745  0.5189  0.5121 -0.2924
 6610SOL    HW231290   1.503   1.464   7.679  1.4430 -1.0709  0.1285
 6611SOL     OW31291   2.468   2.615   1.444  0.4961  0.1148 -0.4714
 6611SOL    HW131292   2.377   2.619   1.413  0.0046  1.4338  1.1519
 6611SOL    HW231293   2.507   2.619   1.357  0.2038 -0.5864 -0.6370
 6612SOL     OW31294   0.668   4.490  10.043  0.3008  0.0752 -0.1950
 6612SOL    HW131295   0.747   4.451  10.083  0.0000 -0.2820  0.0553
 6612SOL    HW231296   0.602   4.442  10.093  0.5633  0.4410  0.5085
 6613SOL     OW31297   1.225   3.779   6.471 -0.4769  0.1376  0.0496
 6613SOL    HW131298   1.279   3.709   6.434 -1.3860 -0.1934 -0.6695
 6613SOL    HW231299   1.250   3.776   6.563 -2.3191 -0.0863  0.5436
 6614SOL     OW31300   3.221   3.391   6.975  0.1804  0.2093  0.3372
 6614SOL    HW131301   3.238   3.442   7.054 -1.9394  1.5389 -0.0402
 6614SOL    HW231302   3.195   3.307   7.013  1.1911  1.5371  3.9415
 6615SOL     OW31303   1.593   4.553   6.143 -0.3298 -0.5544 -0.0737
 6615SOL    HW131304   1.538   4.478   6.165 -3.4973  1.8160  0.1329
 6615SOL    HW231305   1.526   4.620   6.132  0.5970  0.3014 -0.5040
 6616SOL     OW31306   1.643   3.336   0.732 -0.2406  0.2387 -0.2477
 6616SOL    HW131307   1.618   3.294   0.814  0.5843 -1.1820 -0.7148
 6616SOL    HW231308   1.713   3.275   0.705 -1.0505 -0.7138 -0.1903
 6617SOL     OW31309   0.162   0.281   4.832 -0.0132  0.4683 -0.4699
 6617SOL    HW131310   0.112   0.200   4.827  2.1415 -1.0229  2.2267
 6617SOL    HW231311   0.118   0.323   4.906 -1.3116 -1.4762 -0.1546
 6618SOL     OW31312   3.444   4.389  14.137 -0.6196 -0.2323 -0.0441
 6618SOL    HW131313   3.411   4.335  14.065  3.1731 -1.9613 -0.5127
 6618SOL    HW231314   3.452   4.477  14.101  0.5658 -0.6693 -0.8382
 6619SOL     OW31315   0.578   3.789   7.604  0.3465 -0.2232  0.0749
 6619SOL    HW131316   0.512   3.751   7.547 -0.4160 -0.2740  0.9945
 6619SOL    HW231317   0.637   3.823   7.536  0.6391  0.1705  0.5228
 6620SOL     OW31318   1.612   0.583   7.931  0.1606  0.1254  0.6465
 6620SOL    HW131319   1.586   0.631   8.009  1.7901  0.5532  0.9172
 6620SOL    HW231320   1.705   0.605   7.926  0.1420 -0.0533 -0.5618
 6621SOL     OW31321   1.033   3.812   2.847 -0.2018  0.1039  0.4655
 6621SOL    HW131322   1.048   3.763   2.927 -0.1584 -1.3865 -0.4701
 6621SOL    HW231323   0.959   3.769   2.803 -0.7701  0.6103  0.9153
 6622SOL     OW31324   3.755   1.717   0.298 -0.1495  0.3162  0.0955
 6622SOL    HW131325   3.711   1.798   0.322 -0.0224  0.5402 -0.4254
 6622SOL    HW231326   3.821   1.754   0.239  3.1181 -0.8777  3.0245
 6623SOL     OW31327   1.335   2.968   8.023  0.3393  0.3131  0.6900
 6623SOL    HW131328   1.429   2.956   8.012  0.3289  1.7043 -0.8318
 6623SOL    HW231329   1.334   3.039   8.087 -0.0518  1.2494 -0.3610
 6624SOL     OW31330   3.723   0.440   4.617 -0.1407 -0.2940 -0.6814
 6624SOL    HW131331   3.812   0.472   4.603 -0.2316 -0.4411 -1.5628
 6624SOL    HW231332   3.688   0.439   4.528 -0.7320 -1.5356 -0.4460
 6625SOL     OW31333   0.859   1.040   6.406  0.3747  0.8124 -0.0289
 6625SOL    HW131334   0.890   1.070   6.321  0.1291  2.4459  0.4397
 6625SOL    HW231335   0.826   1.123   6.443  0.7606  1.0302 -0.1776
 6626SOL     OW31336   4.295   3.539   5.555  0.1673  0.4151 -0.0380
 6626SOL    HW131337   4.358   3.602   5.519  1.0873 -0.6122 -0.2134
 6626SOL    HW231338   4.314   3.531   5.648  1.2353 -0.0143 -0.2870
 6627SOL     OW31339   0.007   0.007   0.242  0.3149 -0.1787 -0.0007
 6627SOL    HW131340   4.656   0.031   0.297  0.4645  0.2297  0.0210
 6627SOL    HW231341   4.708   4.640   0.226 -4.1262  0.7287  1.2564
 6628SOL     OW31342   3.114   1.709   5.227  0.0208  0.3337  0.0261
 6628SOL    HW131343   3.151   1.663   5.152 -4.8250 -0.4172 -1.8932
 6628SOL    HW231344   3.090   1.630   5.276 -1.1540  1.7332  1.7254
 6629SOL     OW31345   1.373   1.552   6.720  0.4756  0.2335 -0.2176
 6629SOL    HW131346   1.339   1.587   6.802 -2.3954 -0.4975 -1.1177
 6629SOL    HW231347   1.354   1.620   6.656 -2.8148 -0.0905  0.4155
 6630SOL     OW31348   2.768   4.241   8.938  0.2645 -0.0543  0.2486
 6630SOL    HW131349   2.807   4.204   9.017  3.5849  1.6007 -0.6323
 6630SOL    HW231350   2.688   4.190   8.929 -1.0124  2.0547 -0.4942
 6631SOL     OW31351   1.132   3.326   4.853 -0.1540  0.3006 -0.3262
 6631SOL    HW131352   1.148   3.340   4.760 -1.7236  0.2948 -0.5931
 6631SOL    HW231353   1.091   3.400   4.898  0.6957  0.4547  0.1935
 6632SOL     OW31354   0.284   3.205   5.131  0.0151  0.7181  0.0072
 6632SOL    HW131355   0.202   3.175   5.171  0.2746  1.0740  0.7852
 6632SOL    HW231356   0.341   3.130   5.149  0.5648  0.8696 -1.1242
 6633SOL     OW31357   2.626   0.076   4.009 -0.1881  0.5097 -0.0613
 6633SOL    HW131358   2.659   0.165   4.020 -0.1045  0.2027  2.1319
 6633SOL    HW231359   2.537   0.090   4.042  0.2347  1.6793  0.5889
 6634SOL     OW31360   4.665   3.915  16.733 -0.1084 -0.3429 -0.1841
 6634SOL    HW131361   4.647   3.921  16.827 -0.7551 -2.7300 -0.1698
 6634SOL    HW231362   4.623   3.833  16.710 -0.5699 -0.4630  1.0883
 6635SOL     OW31363   1.746   2.535   8.035 -0.0872  0.2477 -0.2727
 6635SOL    HW131364   1.792   2.602   8.085  0.1787 -0.7907  0.9124
 6635SOL    HW231365   1.692   2.505   8.109  1.4855 -0.3770  0.6106
 6636SOL     OW31366   1.220   1.880  17.650  0.0461 -0.0220  0.1907
 6636SOL    HW131367   1.165   1.820   0.003 -1.6108 -0.5356 -2.1973
 6636SOL    HW231368   1.257   1.818  17.588  0.8076  0.9386 -0.3043
 6637SOL     OW31369   2.635   4.309   5.822  0.1174 -0.6794  0.1217
 6637SOL    HW131370   2.545   4.318   5.791  0.9296  0.2996 -1.9361
 6637SOL    HW231371   2.674   4.251   5.757 -0.6638 -1.7129  0.5877
 6638SOL     OW31372   2.940   2.800   4.408 -0.4345  0.2139  0.1072
 6638SOL    HW131373   2.985   2.845   4.337 -0.1826  0.4852  0.4388
 6638SOL    HW231374   3.011   2.793   4.472 -0.2871 -0.7955 -0.1680
 6639SOL     OW31375   4.633   1.188   7.797 -0.4911 -0.5407 -0.4055
 6639SOL    HW131376   4.577   1.196   7.720 -0.2358 -0.8191 -0.6230
 6639SOL    HW231377   0.000   1.192   7.769 -0.0581 -0.1529  1.0151
 6640SOL     OW31378   2.191   1.033  15.300 -0.2364  0.1244  0.3154
 6640SOL    HW131379   2.187   1.122  15.335 -1.3144 -0.0135  0.5492
 6640SOL    HW231380   2.118   1.026  15.239  0.2138  0.3179 -0.2364
 6641SOL     OW31381   2.227   0.750  11.795  0.2125  0.2220 -0.3755
 6641SOL    HW131382   2.290   0.706  11.737  1.9757 -0.3004  1.9140
 6641SOL    HW231383   2.155   0.694  11.766  0.3829  1.0025 -2.3115
 6642SOL     OW31384   4.068   1.195   8.105 -0.4358 -0.3064 -0.4715
 6642SOL    HW131385   4.050   1.270   8.049  1.8828 -0.9540 -2.1101
 6642SOL    HW231386   3.981   1.183   8.142 -0.1072 -0.2111  0.3446
 6643SOL     OW31387   1.299   4.667   8.308 -0.2527 -0.3431  0.3286
 6643SOL    HW131388   1.329   4.601   8.371 -0.2068  1.9065  2.6787
 6643SOL    HW231389   1.254   0.008   8.363  0.6639  0.3068  0.2980
 6644SOL     OW31390   1.808   2.322   3.453  0.0343 -0.6670  0.4169
 6644SOL    HW131391   1.811   2.241   3.402 -1.4935 -0.5455  0.1453
 6644SOL    HW231392   1.720   2.356   3.441  0.5644  0.1756 -1.0729
 6645SOL     OW31393   2.666   3.077  11.850  0.0078 -0.4747  0.5112
 6645SOL    HW131394   2.661   3.169  11.824  2.4004 -0.4836 -0.0213
 6645SOL    HW231395   2.602   3.068  11.920  0.8283  0.3351  1.3649
 6646SOL     OW31396   2.904   1.428   4.270  0.0407  0.0576  0.7848
 6646SOL    HW131397   2.884   1.502   4.213 -1.3885 -0.3564  0.7643
 6646SOL    HW231398   2.814   1.424   4.302 -0.4748 -1.4020 -0.8805
 6647SOL     OW31399   0.240   2.123  15.514 -0.2511 -0.1652 -0.7986
 6647SOL    HW131400   0.335   2.133  15.508 -0.1720 -0.6444 -0.3744
 6647SOL    HW231401   0.215   2.185  15.445  0.4370 -2.1139 -2.8051
 6648SOL     OW31402   2.822   1.686  17.143 -0.3701 -0.0317  0.7742
 6648SOL    HW131403   2.862   1.600  17.153  2.3409  1.1086 -0.3039
 6648SOL    HW231404   2.735   1.664  17.177 -0.2520  0.4782  1.3960
 6649SOL     OW31405   1.133   4.491   2.105  0.1729 -0.3371  0.2297
 6649SOL    HW131406   1.090   4.549   2.167 -0.8299  0.1303 -0.9325
 6649SOL    HW231407   1.132   4.545   2.027  0.0532 -1.7127 -0.7194
 6650SOL     OW31408   2.166   2.558   6.573  0.2575  0.9317 -0.1103
 6650SOL    HW131409   2.127   2.508   6.501  1.6224  0.7498 -0.7103
 6650SOL    HW231410   2.131   2.642   6.545  0.3239  0.8416 -0.4662
 6651SOL     OW31411   3.117   4.655  15.445  0.1336 -0.1785  0.2380
 6651SOL    HW131412   3.197   4.604  15.452 -0.0827 -0.5569 -0.0559
 6651SOL    HW231413   3.075   4.634  15.529  1.0466  1.7115  1.1711
 6652SOL     OW31414   4.389   1.676   6.314 -0.0725 -0.2632 -0.5127
 6652SOL    HW131415   4.441   1.596   6.311 -0.5476 -0.6098  0.4309
 6652SOL    HW231416   4.430   1.723   6.387  0.7219 -0.8724 -0.5668
 6653SOL     OW31417   1.086   0.240  11.801 -0.2128 -0.6015  0.1041
 6653SOL    HW131418   1.148   0.262  11.871  1.3708 -2.6397 -0.6663
 6653SOL    HW231419   1.098   0.320  11.750 -0.1203 -0.2432  0.6829
 6654SOL     OW31420   4.392   0.435   3.689 -0.3868  0.2461  0.1691
 6654SOL    HW131421   4.409   0.466   3.600  1.8438 -1.3083  0.0404
 6654SOL    HW231422   4.300   0.449   3.709  0.1156  0.1955  2.5455
 6655SOL     OW31423   2.046   3.606   3.409 -0.2475  0.1853  0.6928
 6655SOL    HW131424   1.986   3.535   3.389 -0.5370  1.0433 -1.5028
 6655SOL    HW231425   2.004   3.689   3.385  1.8012  1.3546  1.1358
 6656SOL     OW31426   4.456   3.225   6.210 -0.1782 -0.0631  0.6360
 6656SOL    HW131427   4.459   3.136   6.245  0.1849  0.0286  0.8380
 6656SOL    HW231428   4.443   3.211   6.117 -2.9287 -0.9158  1.1415
 6657SOL     OW31429   2.976   2.596  15.070  0.2273  0.2621 -0.0139
 6657SOL    HW131430   2.929   2.562  14.994  0.8317 -2.1670  0.6801
 6657SOL    HW231431   3.028   2.666  15.031  3.0274 -0.2616  2.7317
 6658SOL     OW31432   1.411   1.856  10.520  0.7399  0.0997  1.0217
 6658SOL    HW131433   1.494   1.809  10.526  0.1783 -1.1240 -0.8944
 6658SOL    HW231434   1.382   1.850  10.429 -0.6518  0.3119  1.4577
 6659SOL     OW31435   2.052   2.242   6.262  0.3892 -0.0401 -0.0120
 6659SOL    HW131436   2.011   2.319   6.301  0.3208 -0.4317  0.7050
 6659SOL    HW231437   2.110   2.213   6.332  0.1829  0.9786  0.5728
 6660SOL     OW31438   4.173   2.075   4.824 -0.0272  0.2349  0.5689
 6660SOL    HW131439   4.198   2.089   4.732  1.7626  2.1898  1.3567
 6660SOL    HW231440   4.258   2.080   4.867  1.0098 -0.7682 -1.3817
 6661SOL     OW31441   0.653   3.414   2.761  0.5984 -0.3012 -0.0182
 6661SOL    HW131442   0.585   3.430   2.826  1.5963 -1.3928  1.3216
 6661SOL    HW231443   0.596   3.408   2.685  0.6621 -1.5192  0.0305
 6662SOL     OW31444   0.617   3.207  15.343  0.1943  0.1566  0.1823
 6662SOL    HW131445   0.582   3.146  15.409 -0.6646  0.0541 -0.3699
 6662SOL    HW231446   0.550   3.199  15.276  0.6352 -0.2227 -0.2187
 6663SOL     OW31447   0.380   3.754   3.209  0.0538 -0.4312  0.3599
 6663SOL    HW131448   0.296   3.756   3.256  0.0187 -2.3160  0.3828
 6663SOL    HW231449   0.427   3.717   3.283 -0.4767 -2.0302 -0.0975
 6664SOL     OW31450   3.107   2.031   9.636  0.0272 -0.5396  0.5616
 6664SOL    HW131451   3.017   1.999   9.649  0.9814 -2.4233  2.5186
 6664SOL    HW231452   3.097   2.121   9.605  2.4261  1.2246  4.9724
 6665SOL     OW31453   4.648   2.297   8.203 -0.2421  0.1281 -0.1723
 6665SOL    HW131454   4.662   2.326   8.112 -1.9882  0.7573 -0.2401
 6665SOL    HW231455   4.685   2.373   8.249  0.5668 -1.3527  1.6071
 6666SOL     OW31456   2.119   1.121  14.002 -0.0924 -0.2814  0.0369
 6666SOL    HW131457   2.035   1.081  13.979 -0.2483  0.2380 -0.2764
 6666SOL    HW231458   2.173   1.112  13.924 -0.4807  0.3875 -0.2995
 6667SOL     OW31459   4.494   4.020   0.348 -0.3776 -0.2218  0.6083
 6667SOL    HW131460   4.443   4.090   0.307  1.5731 -0.3583 -2.0516
 6667SOL    HW231461   4.462   4.032   0.437 -2.5899 -1.1931 -0.0484
 6668SOL     OW31462   4.207   2.628   4.007  0.2148 -0.2341  0.0993
 6668SOL    HW131463   4.163   2.654   3.926  1.0063  2.9727  0.7045
 6668SOL    HW231464   4.156   2.551   4.033 -0.7082  0.5682  0.6407
 6669SOL     OW31465   0.337   3.048   6.075 -0.1105  0.1977  0.1682
 6669SOL    HW131466   0.263   2.989   6.093  0.0376 -0.1474 -0.3476
 6669SOL    HW231467   0.319   3.069   5.983  0.7490  1.4921  0.3071
 6670SOL     OW31468   3.350   1.018   3.474 -0.4285 -0.1715  0.6413
 6670SOL    HW131469   3.302   0.960   3.532 -2.6664 -0.4928 -1.5149
 6670SOL    HW231470   3.299   1.099   3.476 -0.7860 -0.3822 -0.0567
 6671SOL     OW31471   0.783   0.826   5.238 -0.1035 -0.2964  0.4151
 6671SOL    HW131472   0.738   0.760   5.185 -0.4073  1.0379 -0.9962
 6671SOL    HW231473   0.869   0.794   5.266  0.7555  0.1008 -1.8044
 6672SOL     OW31474   1.410   1.498  15.941  0.3158  0.9708  0.5521
 6672SOL    HW131475   1.424   1.413  15.983  0.3973  0.6748 -0.0822
 6672SOL    HW231476   1.400   1.551  16.020 -2.1321 -0.3504  1.1146
 6673SOL     OW31477   3.229   4.324   8.070 -0.1525  0.1568  0.5606
 6673SOL    HW131478   3.245   4.394   8.007 -1.4459  1.3247  1.5368
 6673SOL    HW231479   3.134   4.321   8.076 -0.2081 -0.0845 -0.4704
 6674SOL     OW31480   2.298   3.859   5.974  0.3618  0.1170 -0.5149
 6674SOL    HW131481   2.367   3.792   5.976 -0.6054 -0.7883  2.2454
 6674SOL    HW231482   2.274   3.875   6.065 -0.5239 -2.3221 -0.3071
 6675SOL     OW31483   2.813   2.626  10.752 -0.4639  0.2926  0.5178
 6675SOL    HW131484   2.877   2.586  10.693 -0.5033  0.0189  0.6586
 6675SOL    HW231485   2.812   2.718  10.724 -0.0685  0.1982  0.1775
 6676SOL     OW31486   1.665   2.395   6.057 -0.1991  0.1385 -0.6871
 6676SOL    HW131487   1.666   2.469   5.996 -1.0116  0.4399 -0.3366
 6676SOL    HW231488   1.756   2.374   6.036  0.7182  0.7396  2.6633
 6677SOL     OW31489   2.202   1.624   9.785 -0.0230 -0.2931 -0.7243
 6677SOL    HW131490   2.201   1.589   9.874  2.6498 -2.3178 -1.4963
 6677SOL    HW231491   2.237   1.711   9.805 -2.4876  0.1539  1.5648
 6678SOL     OW31492   2.554   1.855   5.753  0.0369  0.3706 -0.2583
 6678SOL    HW131493   2.603   1.845   5.834 -0.3438  1.4663  0.1144
 6678SOL    HW231494   2.631   1.874   5.699  0.2344 -2.5028 -0.9849
 6679SOL     OW31495   4.147   1.139   8.403  0.1094  0.5138 -0.2855
 6679SOL    HW131496   4.061   1.134   8.445 -0.0079  1.4527 -0.4112
 6679SOL    HW231497   4.130   1.137   8.309 -0.5435 -0.9369 -0.1392
 6680SOL     OW31498   2.016   1.886   3.868  0.5503 -0.1776 -0.2828
 6680SOL    HW131499   1.934   1.934   3.877  1.3369  0.8159  1.5653
 6680SOL    HW231500   2.002   1.825   3.940 -1.1607  0.9311  0.3161
 6681SOL     OW31501   1.989   4.115   6.536 -0.0600  0.6017  0.2719
 6681SOL    HW131502   1.908   4.068   6.517 -0.1542  0.8288  0.1185
 6681SOL    HW231503   1.980   4.191   6.479  0.8587  0.5724  0.0959
 6682SOL     OW31504   1.351   4.557   0.247  0.0412 -0.2888  0.3761
 6682SOL    HW131505   1.437   4.593   0.264  0.7446 -1.5802 -0.4098
 6682SOL    HW231506   1.364   4.527   0.157 -0.3237  0.4129  0.0878
 6683SOL     OW31507   0.954   1.685  13.514  0.3922 -0.0161 -0.0992
 6683SOL    HW131508   0.997   1.600  13.527  1.3319  0.2767 -1.2248
 6683SOL    HW231509   0.894   1.690  13.588  2.0019 -2.9965  1.4219
 6684SOL     OW31510   3.535   0.014  12.828 -0.2355 -0.4048  0.2505
 6684SOL    HW131511   3.589   0.040  12.754  0.5455 -2.3351  0.1676
 6684SOL    HW231512   3.555   0.088  12.886  1.5393 -0.0698 -0.8098
 6685SOL     OW31513   2.477   0.193  16.760 -0.1455  0.1908 -0.1445
 6685SOL    HW131514   2.571   0.212  16.766  0.0045 -0.2810 -1.0795
 6685SOL    HW231515   2.484   0.110  16.714  0.7137 -1.5702  3.1821
 6686SOL     OW31516   3.721   1.605   2.787  0.3915  0.0056 -0.6033
 6686SOL    HW131517   3.688   1.599   2.698 -3.0741 -0.2370  0.6758
 6686SOL    HW231518   3.785   1.673   2.770  0.2568  0.0921 -0.7620
 6687SOL     OW31519   4.208   0.846   4.297  0.1467 -0.4033  0.7082
 6687SOL    HW131520   4.175   0.761   4.327  0.2521 -0.5064  0.5291
 6687SOL    HW231521   4.260   0.821   4.221  1.7817 -0.4180  1.8128
 6688SOL     OW31522   3.209   4.608   6.742 -0.0336  0.2649  0.0396
 6688SOL    HW131523   3.131   4.663   6.756 -0.8935 -0.5333 -1.6518
 6688SOL    HW231524   3.209   4.596   6.647  0.4981 -0.4528  0.1360
 6689SOL     OW31525   0.806   0.658   2.255 -0.3950  0.6955  0.3036
 6689SOL    HW131526   0.867   0.730   2.240  0.9089 -0.1362  1.6011
 6689SOL    HW231527   0.819   0.610   2.174  0.2622 -0.7379  1.2542
 6690SOL     OW31528   1.987   4.688   8.326 -0.0755  0.0017  0.3118
 6690SOL    HW131529   2.036   0.044   8.346 -0.0702  0.1901 -0.4615
 6690SOL    HW231530   2.053   4.625   8.297 -0.8487 -1.5470  1.8614
 6691SOL     OW31531   1.790   0.820  11.466 -0.3812 -0.2927  0.0268
 6691SOL    HW131532   1.839   0.894  11.429 -1.2147 -0.7582 -2.0188
 6691SOL    HW231533   1.759   0.783  11.383  1.1980  1.0277 -1.1578
 6692SOL     OW31534   1.568   0.817   2.622 -0.1397  0.2636  0.0601
 6692SOL    HW131535   1.504   0.755   2.587  0.7583 -0.6156  0.0110
 6692SOL    HW231536   1.599   0.763   2.695  2.3916  0.4831 -0.8819
 6693SOL     OW31537   3.916   1.701   0.792 -0.1301  0.0425 -0.2149
 6693SOL    HW131538   3.969   1.779   0.807 -0.5663  0.3167 -0.0819
 6693SOL    HW231539   3.882   1.724   0.706 -0.3228 -0.6964 -0.3309
 6694SOL     OW31540   4.563   1.445   3.090 -0.2952  0.0626 -0.1581
 6694SOL    HW131541   4.500   1.374   3.078 -1.6718  1.2333  0.0389
 6694SOL    HW231542   4.577   1.484   3.004  1.2343  0.1102  0.1254
 6695SOL     OW31543   1.042   0.739  17.363  0.0493 -0.1424  0.0370
 6695SOL    HW131544   0.977   0.681  17.402  0.5482  0.3365  1.6081
 6695SOL    HW231545   1.081   0.774  17.444  0.8440 -2.2503  0.5527
 6696SOL     OW31546   0.114   4.124   2.045 -0.1279  0.4353  0.1165
 6696SOL    HW131547   0.187   4.185   2.034  0.7599 -0.7968 -0.7080
 6696SOL    HW231548   0.109   4.118   2.141 -1.1938 -4.1042 -0.2601
 6697SOL     OW31549   2.295   4.037   1.593 -0.0845 -0.3913 -0.4570
 6697SOL    HW131550   2.326   4.046   1.683  0.4366  3.8996 -1.0476
 6697SOL    HW231551   2.302   4.128   1.564 -3.6214 -0.2588 -0.8568
 6698SOL     OW31552   1.334   2.034   1.440  0.2896  0.1803 -0.1291
 6698SOL    HW131553   1.388   2.092   1.493  0.3642 -0.4278  0.4726
 6698SOL    HW231554   1.282   1.988   1.507  0.4756  1.3887  0.8312
 6699SOL     OW31555   3.841   3.271  17.239 -0.3053 -0.0586 -0.2024
 6699SOL    HW131556   3.888   3.353  17.222 -0.5547  0.2428  0.5512
 6699SOL    HW231557   3.908   3.222  17.288 -0.1192  1.0699  0.6855
 6700SOL     OW31558   2.622   4.597   2.881  0.1992  0.0612  0.2803
 6700SOL    HW131559   2.532   4.566   2.867  0.3710 -0.0585 -0.5483
 6700SOL    HW231560   2.663   4.521   2.921  2.1870  0.2452 -1.3972
 6701SOL     OW31561   1.151   0.759   7.875  0.1995 -0.4911 -0.4029
 6701SOL    HW131562   1.237   0.752   7.833  0.1434 -0.8079 -0.4655
 6701SOL    HW231563   1.101   0.708   7.811  0.9385 -1.7867  0.0385
 6702SOL     OW31564   0.660   0.381  16.319  0.2111 -0.0838 -0.0064
 6702SOL    HW131565   0.654   0.472  16.348 -0.2566  0.2246 -1.0515
 6702SOL    HW231566   0.613   0.376  16.236  0.2037  1.1388 -0.0763
 6703SOL     OW31567   4.527   0.634   8.781  0.1331 -0.2123 -0.2012
 6703SOL    HW131568   4.563   0.719   8.754  0.7003 -1.0194 -2.0152
 6703SOL    HW231569   4.446   0.619   8.732  0.0506 -0.0958 -0.0987
 6704SOL     OW31570   3.638   4.234   7.130  0.2797 -1.0723 -0.5570
 6704SOL    HW131571   3.661   4.324   7.150  2.6378 -1.5683 -1.0990
 6704SOL    HW231572   3.709   4.194   7.180 -0.0954 -0.1504  0.7093
 6705SOL     OW31573   2.642   3.509   2.913 -0.1401  0.2865  0.3517
 6705SOL    HW131574   2.602   3.513   2.826 -1.7604  0.4598  1.0911
 6705SOL    HW231575   2.718   3.567   2.908  1.1755 -1.3934  0.8809
 6706SOL     OW31576   1.645   3.148   5.404 -0.2536 -0.1218 -0.3731
 6706SOL    HW131577   1.643   3.227   5.350  0.6934 -0.5182 -0.9912
 6706SOL    HW231578   1.712   3.096   5.359  0.6636 -0.6184  1.5820
 6707SOL     OW31579   2.371   2.673   7.191  0.4081  0.1452 -0.2608
 6707SOL    HW131580   2.282   2.702   7.211 -0.4948 -0.8136 -2.8645
 6707SOL    HW231581   2.389   2.722   7.110  0.2849 -1.5484 -1.3159
 6708SOL     OW31582   1.137   2.158   5.803 -0.3215  0.2566 -0.1462
 6708SOL    HW131583   1.138   2.190   5.893  3.7842  1.8141 -0.7617
 6708SOL    HW231584   1.132   2.241   5.756  0.2867  1.3247  1.7236
 6709SOL     OW31585   3.194   1.636  17.235  0.1368 -0.2162  0.1424
 6709SOL    HW131586   3.130   1.608  17.300  0.4649 -0.6220  0.2913
 6709SOL    HW231587   3.198   1.730  17.253 -1.9104 -0.6921  3.1035
 6710SOL     OW31588   2.063   0.865   4.633  0.1262 -0.2936 -0.1513
 6710SOL    HW131589   2.106   0.869   4.548 -0.0788  0.2085 -0.2271
 6710SOL    HW231590   2.020   0.949   4.642 -1.0240 -0.9068  0.0853
 6711SOL     OW31591   0.845   3.158  15.221 -0.3962 -0.4039  0.5515
 6711SOL    HW131592   0.791   3.091  15.179  2.4283 -0.9933 -2.0523
 6711SOL    HW231593   0.776   3.208  15.265  0.4120 -1.3146  2.8952
 6712SOL     OW31594   1.039   3.642   3.895  0.7447  0.3213  0.0973
 6712SOL    HW131595   1.117   3.665   3.844  2.5918 -0.5133  2.5194
 6712SOL    HW231596   0.985   3.579   3.848  0.5349 -0.1880  1.0129
 6713SOL     OW31597   1.430   4.075   1.374 -0.2547  0.3916 -0.3111
 6713SOL    HW131598   1.486   4.080   1.297  0.7206 -2.4772  0.2279
 6713SOL    HW231599   1.390   3.989   1.365 -0.1873  0.3701 -0.4047
 6714SOL     OW31600   1.887   1.468   0.888 -0.0277  0.1595  0.1733
 6714SOL    HW131601   1.961   1.501   0.837 -0.2326 -1.3950 -1.1239
 6714SOL    HW231602   1.814   1.523   0.858  1.8803  2.4352 -0.3530
 6715SOL     OW31603   1.825   1.216   3.330 -0.0053 -0.1985 -0.2708
 6715SOL    HW131604   1.797   1.158   3.400 -2.8512  1.9091  0.3413
 6715SOL    HW231605   1.746   1.248   3.286  0.0176 -1.3747 -1.1496
 6716SOL     OW31606   3.300   2.568  11.313  0.7984 -0.5164  0.0231
 6716SOL    HW131607   3.263   2.654  11.330  2.2761  0.2800 -0.8437
 6716SOL    HW231608   3.361   2.580  11.240 -0.1685  1.7778 -0.3836
 6717SOL     OW31609   2.287   4.313   1.533 -0.0562  0.0877  0.6581
 6717SOL    HW131610   2.332   4.393   1.507 -1.3482  0.1279 -1.4484
 6717SOL    HW231611   2.213   4.327   1.474  1.4246  0.7591 -1.0190
 6718SOL     OW31612   4.112   2.759   3.785  0.0585  0.1117 -0.2982
 6718SOL    HW131613   4.158   2.829   3.739 -0.0043 -0.4045 -1.1363
 6718SOL    HW231614   4.028   2.794   3.814 -0.7575 -0.1579 -2.3753
 6719SOL     OW31615   1.956   1.423   3.034  0.6921 -0.1359 -0.3237
 6719SOL    HW131616   1.897   1.480   2.984  0.6683  1.5717  1.6564
 6719SOL    HW231617   1.926   1.334   3.015  0.2111 -0.3603  1.4851
 6720SOL     OW31618   0.533   2.532   9.088 -0.1181 -0.2933  0.6214
 6720SOL    HW131619   0.578   2.511   9.006  0.8251  1.7738  0.5928
 6720SOL    HW231620   0.440   2.514   9.070  0.1258 -1.1839  0.2871
 6721SOL     OW31621   0.976   0.246  10.850  0.1920  0.3920 -0.1265
 6721SOL    HW131622   1.006   0.332  10.819 -1.8355  0.9727 -0.5050
 6721SOL    HW231623   0.900   0.225  10.796  0.0096 -0.1161  0.3352
 6722SOL     OW31624   0.827   2.221   1.465  0.5214  0.0434  0.0218
 6722SOL    HW131625   0.798   2.163   1.394  0.9812 -0.1507 -0.0109
 6722SOL    HW231626   0.885   2.166   1.518  0.4158 -0.8778 -0.8088
 6723SOL     OW31627   2.511   1.521   8.102  0.1070 -0.0672 -0.4298
 6723SOL    HW131628   2.538   1.493   8.189 -2.9265 -0.6851  0.3336
 6723SOL    HW231629   2.487   1.613   8.117 -0.1032 -0.2418  0.2955
 6724SOL     OW31630   2.828   1.706   4.384 -0.0719  0.0489  0.2332
 6724SOL    HW131631   2.922   1.709   4.401 -0.0317  1.0833 -0.2036
 6724SOL    HW231632   2.835   1.617   4.348 -1.1592 -0.3560  1.0228
 6725SOL     OW31633   1.963   4.410   5.226 -0.0323 -0.2394  0.1321
 6725SOL    HW131634   2.038   4.469   5.222  0.2758 -0.5729  0.8762
 6725SOL    HW231635   1.911   4.467   5.282  1.2798 -0.5253  1.6781
 6726SOL     OW31636   0.201   3.749   2.714 -0.7595 -0.3749 -0.8024
 6726SOL    HW131637   0.296   3.759   2.715 -0.7150 -0.7814 -0.9383
 6726SOL    HW231638   0.172   3.832   2.677 -1.7972 -1.2118 -1.8647
 6727SOL     OW31639   3.230   2.550   8.975 -0.1510 -0.4307  0.2915
 6727SOL    HW131640   3.188   2.632   8.949 -1.2648 -1.3538 -0.7903
 6727SOL    HW231641   3.296   2.583   9.037  0.0952  0.6351 -0.5308
 6728SOL     OW31642   1.982   3.446   0.512 -0.4774 -0.5084 -0.1564
 6728SOL    HW131643   1.947   3.370   0.559  1.8506 -0.4050  1.7559
 6728SOL    HW231644   2.060   3.404   0.475 -1.8479  0.0950 -3.7122
 6729SOL     OW31645   3.070   2.186   2.755 -0.3853 -0.1264  0.2659
 6729SOL    HW131646   3.021   2.244   2.814  0.5606  0.6666  0.2677
 6729SOL    HW231647   3.004   2.119   2.736 -2.1270  1.3370  1.0872
 6730SOL     OW31648   4.425   2.757  11.331 -0.1717  0.3946 -0.0510
 6730SOL    HW131649   4.505   2.713  11.361 -0.2393 -0.4377 -1.0853
 6730SOL    HW231650   4.363   2.744  11.402 -1.2063 -0.2478 -1.0704
 6731SOL     OW31651   0.004   3.021   2.285  0.1050  0.3641 -0.3930
 6731SOL    HW131652   0.070   3.019   2.215  1.8506 -0.0982  1.2606
 6731SOL    HW231653   4.673   3.091   2.250 -1.2194 -0.8710 -0.7879
 6732SOL     OW31654   2.043   0.412   3.960  0.1103 -0.2747 -0.0400
 6732SOL    HW131655   1.958   0.379   3.933 -0.7604  0.0494  2.2913
 6732SOL    HW231656   2.092   0.366   3.892 -0.2142 -1.0031  0.2207
 6733SOL     OW31657   4.282   0.861   7.535  0.3179 -0.1080 -0.1608
 6733SOL    HW131658   4.376   0.874   7.534  0.0072  2.1463  0.2238
 6733SOL    HW231659   4.263   0.889   7.445  1.5620  2.5859  0.4297
 6734SOL     OW31660   1.891   3.039   1.898  0.7180  0.3789 -0.6716
 6734SOL    HW131661   1.909   3.118   1.848  1.3467  0.8556  0.3077
 6734SOL    HW231662   1.949   3.053   1.973 -0.7292  1.2747  0.2754
 6735SOL     OW31663   4.678   2.787  13.346 -0.1353 -0.0080  0.3882
 6735SOL    HW131664   4.649   2.737  13.423  0.8399  0.6765  1.2101
 6735SOL    HW231665   4.713   2.716  13.292 -0.4288  3.4900 -4.4015
 6736SOL     OW31666   4.250   3.268   4.700 -0.1891  0.6510 -0.4937
 6736SOL    HW131667   4.258   3.289   4.793  1.1581  1.6131 -0.8320
 6736SOL    HW231668   4.219   3.177   4.706  0.5302  0.2270 -2.8456
 6737SOL     OW31669   2.069   0.680  15.579 -0.0214 -0.3706 -0.2135
 6737SOL    HW131670   2.030   0.616  15.519  0.2693  2.8683 -3.7894
 6737SOL    HW231671   2.002   0.697  15.646  2.3220 -0.9288  2.2668
 6738SOL     OW31672   0.799   2.472  13.802 -0.8539  0.2975  0.3674
 6738SOL    HW131673   0.786   2.496  13.894 -0.7310 -0.8749  0.6814
 6738SOL    HW231674   0.843   2.552  13.773 -0.3109  0.3868  1.4583
 6739SOL     OW31675   0.468   3.210   3.466 -1.1049  0.0900  0.1873
 6739SOL    HW131676   0.395   3.220   3.405 -0.9730 -0.5444 -0.0730
 6739SOL    HW231677   0.544   3.250   3.424  0.5275 -1.3668  1.7396
 6740SOL     OW31678   1.725   2.645   2.908  0.2105 -0.0641 -0.0991
 6740SOL    HW131679   1.752   2.733   2.883 -3.6394  1.2330  0.4352
 6740SOL    HW231680   1.777   2.628   2.987 -1.3928  0.9641  1.1646
 6741SOL     OW31681   1.104   0.085   2.206 -0.1017  0.1731  0.3064
 6741SOL    HW131682   1.154   0.117   2.281  0.8705  1.0854 -0.7248
 6741SOL    HW231683   1.168   0.090   2.134 -1.0305 -2.7938 -0.6954
 6742SOL     OW31684   2.261   4.083   3.808  0.0864 -0.4502 -0.7631
 6742SOL    HW131685   2.300   4.163   3.774  0.4780 -0.0265  0.6867
 6742SOL    HW231686   2.300   4.077   3.895  0.8906 -3.5207 -1.3084
 6743SOL     OW31687   4.723   1.410  10.362  0.3140 -0.6525  0.0067
 6743SOL    HW131688   4.688   1.477  10.302 -0.9618  0.4636  1.9872
 6743SOL    HW231689   0.007   1.458  10.445 -1.6029 -0.7504  0.2633
 6744SOL     OW31690   1.992   0.244   2.005  0.6676 -0.1781  0.6013
 6744SOL    HW131691   2.063   0.259   2.068  2.0455  4.1627 -1.9638
 6744SOL    HW231692   2.037   0.221   1.924  1.8053  1.1771  0.8484
 6745SOL     OW31693   4.374   2.692  12.874  0.8404 -0.2168 -0.9499
 6745SOL    HW131694   4.292   2.691  12.824 -0.4127  3.8947  1.0029
 6745SOL    HW231695   4.349   2.717  12.963 -1.7063 -0.3971 -1.6081
 6746SOL     OW31696   3.947   2.094   3.592 -0.2093 -0.3830 -0.1323
 6746SOL    HW131697   3.916   2.052   3.512 -1.7377  1.8789 -0.7357
 6746SOL    HW231698   3.936   2.029   3.662  1.1959  0.6261  1.0209
 6747SOL     OW31699   3.802   4.644   3.595  0.0146  0.3713 -0.1518
 6747SOL    HW131700   3.823   4.723   3.545  0.4646  0.9603  0.9696
 6747SOL    HW231701   3.875   4.593   3.560  1.0951  0.2640  2.2800
 6748SOL     OW31702   2.079   2.026   4.323  0.6085 -0.1970  0.0715
 6748SOL    HW131703   2.021   2.075   4.265  1.8737  0.1055 -0.9493
 6748SOL    HW231704   2.024   2.002   4.397  0.3585 -3.0198 -1.0401
 6749SOL     OW31705   2.630   4.288   1.413 -0.1585 -0.0279 -0.4577
 6749SOL    HW131706   2.557   4.237   1.450  0.5033  0.0339  0.9225
 6749SOL    HW231707   2.703   4.254   1.464 -1.1896 -1.6042 -0.0280
 6750SOL     OW31708   0.491   3.232   8.695 -0.0230 -0.0376 -0.2385
 6750SOL    HW131709   0.431   3.231   8.769  1.2026 -2.3450  0.7166
 6750SOL    HW231710   0.507   3.326   8.701  2.0119 -0.4123  0.4477
 6751SOL     OW31711   0.113   4.272  10.562 -0.2505  0.0230  0.4219
 6751SOL    HW131712   0.059   4.216  10.505  1.0478  0.5637 -1.3386
 6751SOL    HW231713   0.165   4.309  10.491  1.5622  0.7822  2.1510
 6752SOL     OW31714   0.124   2.124  15.202 -1.0528 -0.5908  0.7406
 6752SOL    HW131715   0.084   2.105  15.118  1.5816 -0.0508 -0.6322
 6752SOL    HW231716   0.189   2.054  15.198 -1.9010 -1.3935  0.8787
 6753SOL     OW31717   0.382   1.225   7.862 -0.4839 -0.1709 -0.5051
 6753SOL    HW131718   0.419   1.277   7.934 -0.9364 -1.0444  0.3547
 6753SOL    HW231719   0.368   1.298   7.802  1.5270  1.3841  0.9150
 6754SOL     OW31720   2.740   1.827   8.396  0.7387  0.1477  0.0026
 6754SOL    HW131721   2.683   1.902   8.377 -1.0986 -1.2873 -0.2189
 6754SOL    HW231722   2.773   1.801   8.310  1.8407  2.2136 -0.2161
 6755SOL     OW31723   2.158   4.456   3.309  0.4735  0.2197  0.3143
 6755SOL    HW131724   2.247   4.463   3.275 -0.0216  1.4955 -0.7454
 6755SOL    HW231725   2.141   4.382   3.250  2.0812 -0.2232  0.4134
 6756SOL     OW31726   1.676   1.851   3.924  0.5210  0.0219  0.1098
 6756SOL    HW131727   1.655   1.758   3.932 -0.6590  0.2445 -0.3208
 6756SOL    HW231728   1.766   1.855   3.955 -0.0868  0.1982  1.8757
 6757SOL     OW31729   3.897   0.056  10.742 -0.2454 -0.2092 -0.8042
 6757SOL    HW131730   3.841   4.714  10.784  2.4774 -3.0708 -1.6937
 6757SOL    HW231731   3.848   0.093  10.668  0.4927  4.7001  1.1356
 6758SOL     OW31732   2.592   3.857   8.418 -0.0729  0.4837  0.2614
 6758SOL    HW131733   2.510   3.822   8.453  0.0383  1.2423  1.3031
 6758SOL    HW231734   2.660   3.796   8.445  0.4022  0.8349 -0.1398
 6759SOL     OW31735   4.059   3.492   9.270  0.1679  0.3035 -0.3677
 6759SOL    HW131736   4.007   3.571   9.282 -1.1936 -0.5119 -0.8203
 6759SOL    HW231737   3.993   3.423   9.261  1.0914 -0.6654  0.2088
 6760SOL     OW31738   2.309   0.631   5.082  0.1827 -0.4369  0.3147
 6760SOL    HW131739   2.388   0.653   5.031 -0.3261  1.6652  0.4457
 6760SOL    HW231740   2.253   0.679   5.022  0.9744 -0.5056 -0.4913
 6761SOL     OW31741   1.125   1.031   1.644  0.4039  0.1504 -0.3507
 6761SOL    HW131742   1.072   1.032   1.564  0.5820 -0.6946 -0.4896
 6761SOL    HW231743   1.200   0.975   1.621 -1.0052 -0.6321 -3.0885
 6762SOL     OW31744   3.998   4.592  12.248  0.0020  0.4107  0.4371
 6762SOL    HW131745   4.043   4.665  12.205 -0.2842  0.1717 -0.2763
 6762SOL    HW231746   3.910   4.630  12.241 -0.0462  0.2571  0.2063
 6763SOL     OW31747   1.953   3.391   3.632 -0.3465 -0.1707 -0.0475
 6763SOL    HW131748   1.936   3.305   3.670 -2.3424  0.2800  0.0468
 6763SOL    HW231749   1.900   3.441   3.694  0.9130 -0.5319  1.3387
 6764SOL     OW31750   3.622   4.449   2.963  0.6350  0.3775 -0.1440
 6764SOL    HW131751   3.563   4.393   2.912  1.2864 -0.9785  0.5891
 6764SOL    HW231752   3.666   4.486   2.887 -1.0524  1.7294 -0.4571
 6765SOL     OW31753   0.764   4.323   3.903 -0.2359 -0.0663 -0.6786
 6765SOL    HW131754   0.835   4.325   3.967  1.4457 -0.5988 -2.5261
 6765SOL    HW231755   0.809   4.312   3.819 -0.1538 -0.9187 -0.5284
 6766SOL     OW31756   1.815   3.184   4.656  0.1002 -0.7328 -0.0581
 6766SOL    HW131757   1.835   3.278   4.653  0.2784 -0.7913 -0.6081
 6766SOL    HW231758   1.867   3.143   4.587 -0.8788  1.0393 -1.8337
 6767SOL     OW31759   2.866   1.368   5.324  0.2327  0.0258  0.5158
 6767SOL    HW131760   2.797   1.305   5.346  0.2903  0.3696  1.7195
 6767SOL    HW231761   2.934   1.344   5.388 -1.3122  0.0885  2.1620
 6768SOL     OW31762   2.934   0.665   1.154  0.2801 -0.6614 -0.0282
 6768SOL    HW131763   2.844   0.632   1.162  0.4664 -0.6663  1.9281
 6768SOL    HW231764   2.926   0.760   1.167  1.4691 -0.2960 -2.0638
 6769SOL     OW31765   4.551   4.523   4.759 -0.2230 -0.0020  0.0914
 6769SOL    HW131766   4.469   4.520   4.807 -0.2914 -3.1012 -0.2621
 6769SOL    HW231767   4.532   4.450   4.701 -0.9322  0.2167  0.0474
 6770SOL     OW31768   2.659   1.438   4.392 -0.0098 -0.3567  0.6854
 6770SOL    HW131769   2.659   1.421   4.486  1.0121 -3.4119  0.1394
 6770SOL    HW231770   2.569   1.410   4.376  0.1320  0.6206 -1.8501
 6771SOL     OW31771   4.363   3.911  16.555  0.1840  0.3564  0.0112
 6771SOL    HW131772   4.285   3.860  16.574  1.3127 -1.5005 -0.3607
 6771SOL    HW231773   4.410   3.853  16.496 -1.0861 -0.8978  0.2480
 6772SOL     OW31774   3.023   3.174   3.324 -0.4263  0.3444 -0.0493
 6772SOL    HW131775   2.995   3.258   3.290  0.4332  0.2154 -1.0693
 6772SOL    HW231776   2.944   3.122   3.308 -0.4600  0.6920 -1.0302
 6773SOL     OW31777   1.500   2.580   9.881 -0.4485 -0.6395 -0.0624
 6773SOL    HW131778   1.583   2.613   9.914 -0.3089  0.3227 -1.3453
 6773SOL    HW231779   1.458   2.583   9.967 -3.0750 -1.3605 -1.3109
 6774SOL     OW31780   0.837   3.440   4.811 -0.1313 -0.2473 -0.3346
 6774SOL    HW131781   0.807   3.528   4.785  1.1627  0.4396  0.4751
 6774SOL    HW231782   0.905   3.468   4.873  0.4201 -0.3340 -0.9003
 6775SOL     OW31783   3.101   4.716   2.944  0.4934  0.0707 -0.1741
 6775SOL    HW131784   3.028   4.716   3.006  0.8764  1.9322  0.2674
 6775SOL    HW231785   3.170   0.002   3.010  1.3821 -2.5634 -0.6858
 6776SOL     OW31786   4.129   4.692  10.974  0.3996 -0.0231 -0.2791
 6776SOL    HW131787   4.163   0.009  10.895  0.2018 -0.8583 -0.7978
 6776SOL    HW231788   4.057   4.637  10.941 -1.0720 -1.0232  4.5157
 6777SOL     OW31789   1.809   3.507   2.710 -0.1761  0.9101  0.1865
 6777SOL    HW131790   1.899   3.480   2.728  0.3757  1.1200 -2.2485
 6777SOL    HW231791   1.809   3.585   2.655 -1.7359  1.0144  0.3208
 6778SOL     OW31792   1.027   1.990   9.586 -0.6629 -0.2488 -0.1584
 6778SOL    HW131793   1.094   2.057   9.595  1.6938 -2.9095  1.9415
 6778SOL    HW231794   0.960   2.018   9.649  0.1742 -1.9226  1.4758
 6779SOL     OW31795   0.905   3.843   8.029  0.0593 -0.0434  0.4942
 6779SOL    HW131796   0.878   3.881   7.945 -4.0855  0.0995  1.9097
 6779SOL    HW231797   0.815   3.819   8.051 -0.1223  0.7647  0.6211
 6780SOL     OW31798   3.441   0.253  12.587  0.5447  0.2892 -0.1274
 6780SOL    HW131799   3.416   0.181  12.527  1.0931 -0.6322  0.7528
 6780SOL    HW231800   3.527   0.225  12.618 -0.2937 -2.8441 -0.5908
 6781SOL     OW31801   3.124   3.906  11.458 -0.2016 -0.2409  0.0311
 6781SOL    HW131802   3.036   3.932  11.485  0.3814  1.6249  0.1225
 6781SOL    HW231803   3.144   3.961  11.382 -0.5318  0.9642  0.8144
 6782SOL     OW31804   4.344   0.949  10.797  0.2287 -0.0204 -0.0552
 6782SOL    HW131805   4.345   1.015  10.727  2.7808 -0.5146 -0.5083
 6782SOL    HW231806   4.373   0.998  10.874  1.3245  0.6494 -0.8834
 6783SOL     OW31807   3.494   2.829   6.804 -0.2317  0.1985 -0.4948
 6783SOL    HW131808   3.457   2.799   6.887 -0.2612  0.3115 -0.4663
 6783SOL    HW231809   3.586   2.803   6.802 -0.5097 -0.8351  0.8856
 6784SOL     OW31810   3.623   1.359   8.252 -0.5164  0.6069 -0.4112
 6784SOL    HW131811   3.626   1.342   8.158 -2.4073 -0.0956 -0.3338
 6784SOL    HW231812   3.633   1.269   8.282  0.9677  0.5264 -1.1165
 6785SOL     OW31813   0.997   4.364   8.483 -0.4416  0.0411  0.2192
 6785SOL    HW131814   0.936   4.431   8.452 -0.4421 -0.5495 -1.0734
 6785SOL    HW231815   0.956   4.341   8.566 -0.4387 -1.0116 -0.0745
 6786SOL     OW31816   2.304   2.704   2.826  0.1616 -0.0348  0.1290
 6786SOL    HW131817   2.393   2.734   2.846 -0.0794  0.6978  0.0952
 6786SOL    HW231818   2.262   2.772   2.878 -0.5262 -1.3103  1.2345
 6787SOL     OW31819   4.041   0.265  17.603 -0.2230  0.0822  0.1900
 6787SOL    HW131820   4.080   0.311  17.677  1.6429 -2.3409  0.7280
 6787SOL    HW231821   4.013   0.186  17.649  0.5371 -0.0650  0.4029
 6788SOL     OW31822   1.048   0.379   2.573  0.0556 -0.0239 -0.1389
 6788SOL    HW131823   1.087   0.438   2.637 -0.4864 -0.5374  0.6582
 6788SOL    HW231824   1.037   0.439   2.500  0.1477  1.4432  1.0629
 6789SOL     OW31825   3.581   0.600   4.775 -0.2497 -0.9306  0.6276
 6789SOL    HW131826   3.511   0.649   4.732 -0.6649 -1.3873  0.7899
 6789SOL    HW231827   3.595   0.535   4.707 -0.7160 -0.9536  0.5553
 6790SOL     OW31828   2.553   3.320   6.464 -0.1173  0.3228  0.4289
 6790SOL    HW131829   2.630   3.273   6.433 -1.0209 -1.5177  1.0012
 6790SOL    HW231830   2.482   3.288   6.409  1.0072 -0.3368 -0.6329
 6791SOL     OW31831   1.616   2.825  14.468  0.6956 -0.7387  0.8981
 6791SOL    HW131832   1.606   2.737  14.433 -0.8845 -0.1649 -0.1232
 6791SOL    HW231833   1.527   2.836  14.499  0.7215 -1.4258  1.2065
 6792SOL     OW31834   4.138   4.305   3.917  0.3908 -0.5141 -0.4831
 6792SOL    HW131835   4.174   4.374   3.973 -0.3095  1.6402 -2.6990
 6792SOL    HW231836   4.128   4.239   3.985 -0.7937  0.1122 -0.0423
 6793SOL     OW31837   2.437   0.381   2.053 -0.7246  0.1745 -0.3401
 6793SOL    HW131838   2.484   0.377   2.137  2.2940  4.1584 -1.8617
 6793SOL    HW231839   2.506   0.349   1.996 -0.2697  0.0134  0.2957
 6794SOL     OW31840   3.783   3.901   5.573 -0.0042 -0.3108  0.1729
 6794SOL    HW131841   3.783   3.975   5.512 -0.0701  0.2438  0.8455
 6794SOL    HW231842   3.875   3.889   5.595 -0.0100  0.2522  0.5098
 6795SOL     OW31843   2.192   1.009   6.712 -0.4078  0.0320  0.7114
 6795SOL    HW131844   2.105   1.032   6.679  0.3457  3.7008  1.2858
 6795SOL    HW231845   2.233   1.092   6.687  0.6039 -1.0030 -1.0613
 6796SOL     OW31846   1.414   3.874   4.307  0.1326 -0.1101 -0.0547
 6796SOL    HW131847   1.430   3.963   4.339  0.8243 -1.1922  2.5920
 6796SOL    HW231848   1.472   3.871   4.231  0.0295 -0.9286 -0.0948
 6797SOL     OW31849   0.089   0.166   7.102 -0.0796 -0.2889 -0.5423
 6797SOL    HW131850   0.184   0.155   7.100 -0.0238  0.0540  0.2416
 6797SOL    HW231851   0.081   0.246   7.155 -2.7894 -0.6142 -0.4863
 6798SOL     OW31852   1.469   2.669  10.184  0.0676 -0.3477  0.5716
 6798SOL    HW131853   1.419   2.751  10.194  1.7038  0.7782 -0.5356
 6798SOL    HW231854   1.553   2.702  10.215  0.5172 -0.5237 -0.4753
 6799SOL     OW31855   0.552   2.888   9.615 -0.0836 -0.0362 -0.8310
 6799SOL    HW131856   0.516   2.826   9.679  0.2399 -2.1413 -2.6732
 6799SOL    HW231857   0.560   2.961   9.677 -0.4698 -0.1724 -0.6160
 6800SOL     OW31858   4.269   2.193  11.089 -0.0388 -0.5960  0.0862
 6800SOL    HW131859   4.247   2.268  11.144 -1.1180 -0.4493 -0.5448
 6800SOL    HW231860   4.187   2.178  11.041 -0.5854 -2.2577  1.4922
 6801SOL     OW31861   3.257   0.992   3.858 -0.0821  0.2805  0.4002
 6801SOL    HW131862   3.220   0.905   3.874 -0.8525  0.2034 -1.6753
 6801SOL    HW231863   3.337   0.953   3.823 -0.6948 -1.8125  1.3462
 6802SOL     OW31864   1.239   2.568  12.571 -0.5186  0.0547 -0.4521
 6802SOL    HW131865   1.312   2.630  12.576  0.0604 -0.5283 -1.5939
 6802SOL    HW231866   1.189   2.584  12.651  0.3117  0.2124  0.0259
 6803SOL     OW31867   0.537   1.902  14.133 -0.9455 -0.3111 -0.4964
 6803SOL    HW131868   0.457   1.930  14.178 -0.0739  0.8787  0.3117
 6803SOL    HW231869   0.566   1.988  14.104 -2.2279  0.0764 -0.6343
 6804SOL     OW31870   3.366   1.765   6.783  0.2734  0.2543 -0.3188
 6804SOL    HW131871   3.387   1.858   6.770  1.6781  0.2058  1.6869
 6804SOL    HW231872   3.420   1.718   6.720 -0.1028 -1.5133  0.6672
 6805SOL     OW31873   2.117   4.574   2.400 -0.3175 -0.7767  0.5102
 6805SOL    HW131874   2.198   4.589   2.448 -0.2412 -1.2762  0.5399
 6805SOL    HW231875   2.125   4.628   2.322 -1.5641 -1.3903 -0.0515
 6806SOL     OW31876   1.187   0.748   0.249 -0.3115  0.2968  0.6527
 6806SOL    HW131877   1.166   0.679   0.312 -1.8384  2.5290  2.6019
 6806SOL    HW231878   1.149   0.701   0.175  0.4746  1.0992 -0.2606
 6807SOL     OW31879   2.335   0.171   3.195 -0.0606 -0.3158  0.3433
 6807SOL    HW131880   2.378   0.255   3.180 -0.1281 -0.5361 -1.0799
 6807SOL    HW231881   2.360   0.119   3.119  1.5723 -0.2758  0.8571
 6808SOL     OW31882   0.039   2.197  13.615  0.1644  0.1048  0.2254
 6808SOL    HW131883   0.033   2.132  13.684 -1.8977 -0.3436 -0.3861
 6808SOL    HW231884   0.124   2.174  13.576  0.4054  1.0832  0.1616
 6809SOL     OW31885   2.422   1.190  10.136 -0.3010  0.6184  0.5798
 6809SOL    HW131886   2.429   1.285  10.125 -3.1443  0.7517 -0.1093
 6809SOL    HW231887   2.356   1.165  10.071  1.4702  0.2413 -1.0804
 6810SOL     OW31888   4.490   3.941   8.939 -0.5869 -0.3091  0.2378
 6810SOL    HW131889   4.540   3.926   9.020  1.3368  0.8832 -0.7401
 6810SOL    HW231890   4.425   4.000   8.978 -0.5050 -0.2877  0.3429
 6811SOL     OW31891   3.604   0.887  13.433  0.0343 -0.2785  0.4717
 6811SOL    HW131892   3.681   0.877  13.376 -0.7421 -1.2140 -0.4182
 6811SOL    HW231893   3.551   0.946  13.381  1.2339  0.0899 -0.3334
 6812SOL     OW31894   4.510   0.290   7.247  0.6420  0.1607 -0.4356
 6812SOL    HW131895   4.605   0.288   7.263  0.6729 -0.8477 -0.7352
 6812SOL    HW231896   4.473   0.315   7.331 -0.7205  0.8168 -1.2363
 6813SOL     OW31897   1.516   1.879   1.157 -0.1524  0.2858 -0.3083
 6813SOL    HW131898   1.540   1.949   1.096  1.4378 -0.0595 -0.0720
 6813SOL    HW231899   1.562   1.806   1.116  0.9819  0.5653  0.4667
 6814SOL     OW31900   0.497   3.129   5.436 -0.2666 -0.0172 -0.1847
 6814SOL    HW131901   0.470   3.165   5.520  0.2673  0.6370 -0.2914
 6814SOL    HW231902   0.493   3.208   5.381 -1.4589  0.2560  0.2920
 6815SOL     OW31903   0.141   3.765   3.349 -0.6306  0.3566  0.0757
 6815SOL    HW131904   0.094   3.683   3.334  0.1530 -0.0005 -0.3835
 6815SOL    HW231905   0.105   3.789   3.434 -2.4046  0.2075 -0.6265
 6816SOL     OW31906   1.057   0.061   1.733  0.2301  0.0029  0.7797
 6816SOL    HW131907   1.030   4.718   1.670  0.9558 -0.6585  1.1756
 6816SOL    HW231908   1.116   0.005   1.783  1.8392 -0.5564 -1.7570
 6817SOL     OW31909   4.414   4.127   6.397  0.2439 -0.1280  0.4467
 6817SOL    HW131910   4.335   4.148   6.348  1.5022  1.6314 -0.8378
 6817SOL    HW231911   4.411   4.193   6.466 -0.1594  0.2098  0.1065
 6818SOL     OW31912   1.366   2.973   9.193  0.0295  0.2115  0.0020
 6818SOL    HW131913   1.351   2.911   9.122  0.4560 -1.2958  1.2175
 6818SOL    HW231914   1.328   3.052   9.153  3.1748  1.9272  0.3640
 6819SOL     OW31915   2.807   2.681   2.653 -0.3543 -0.9342  0.3417
 6819SOL    HW131916   2.863   2.711   2.725  0.6222 -1.9765  0.0212
 6819SOL    HW231917   2.804   2.586   2.657  0.8399 -0.9994 -0.2374
 6820SOL     OW31918   1.848   0.772   0.933  0.4578 -0.0124 -0.7135
 6820SOL    HW131919   1.823   0.838   0.868 -0.0890 -0.3157 -0.8112
 6820SOL    HW231920   1.833   0.821   1.014 -0.4980 -0.3870 -0.6657
 6821SOL     OW31921   2.687   3.730   6.781 -0.0925  0.3908 -0.4310
 6821SOL    HW131922   2.780   3.753   6.771  0.7006 -1.8617  1.8436
 6821SOL    HW231923   2.673   3.674   6.705  0.3168 -2.1345  1.3476
 6822SOL     OW31924   3.676   2.835   3.249 -1.0197  0.3761  0.0288
 6822SOL    HW131925   3.659   2.927   3.268 -1.3706 -0.4660  3.8318
 6822SOL    HW231926   3.728   2.809   3.325 -0.7462  0.0699 -0.2623
 6823SOL     OW31927   3.262   3.129   7.374 -0.3015 -0.1089 -0.1912
 6823SOL    HW131928   3.231   3.068   7.441  1.4135  0.4009  1.0803
 6823SOL    HW231929   3.355   3.124   7.397  0.0440 -1.1830 -1.8771
 6824SOL     OW31930   0.221   2.582   3.643  0.3149  0.6261 -0.6761
 6824SOL    HW131931   0.129   2.584   3.670  1.0666 -0.5228  1.9157
 6824SOL    HW231932   0.225   2.511   3.579  0.0421  0.3886 -0.4289
 6825SOL     OW31933   1.723   3.877   7.325 -0.1226 -0.5193 -0.0626
 6825SOL    HW131934   1.684   3.816   7.389 -0.5956 -3.3464 -3.0463
 6825SOL    HW231935   1.815   3.858   7.346  0.2672 -2.2492 -3.4073
 6826SOL     OW31936   3.673   0.362   6.952  0.2346  0.7411 -0.0631
 6826SOL    HW131937   3.741   0.427   6.969 -0.4060  1.5941 -0.7799
 6826SOL    HW231938   3.718   0.284   6.982 -1.5123 -0.7546 -1.3401
 6827SOL     OW31939   0.948   2.130   6.107 -0.2573  0.2871  0.3328
 6827SOL    HW131940   1.035   2.167   6.092  0.2569 -0.3131  1.8367
 6827SOL    HW231941   0.909   2.207   6.147 -3.1813 -0.1736 -1.6017
 6828SOL     OW31942   1.446   0.969   4.633  0.5062  0.3935  0.3668
 6828SOL    HW131943   1.532   1.000   4.663  0.3384  1.6692 -0.4928
 6828SOL    HW231944   1.396   1.050   4.641  0.5434  0.1199  3.4520
 6829SOL     OW31945   1.289   0.817   1.620  0.2384  0.0144  0.4930
 6829SOL    HW131946   1.354   0.804   1.689  0.4702 -0.3519  0.2053
 6829SOL    HW231947   1.309   0.741   1.565  0.5770 -0.1579  0.8485
 6830SOL     OW31948   3.956   1.270  12.191 -0.0026 -0.2301 -0.2608
 6830SOL    HW131949   4.009   1.216  12.250 -2.4758  0.0036  2.1793
 6830SOL    HW231950   4.020   1.268  12.120  0.5671 -1.8968  0.2914
 6831SOL     OW31951   1.570   1.666   3.486 -0.3340 -0.1606 -0.5481
 6831SOL    HW131952   1.494   1.675   3.429 -0.6812 -0.0383 -0.0629
 6831SOL    HW231953   1.574   1.758   3.510 -2.3444 -0.1126 -0.4128
 6832SOL     OW31954   4.649   4.275   3.946  0.8518  0.3121  0.0011
 6832SOL    HW131955   4.704   4.310   4.016 -0.2569  1.0838  0.5068
 6832SOL    HW231956   4.716   4.275   3.878  0.2500 -1.0415 -0.5804
 6833SOL     OW31957   4.553   2.098  13.380  0.5282 -0.0590  0.2059
 6833SOL    HW131958   4.598   2.022  13.418  1.0805  0.7519  1.1490
 6833SOL    HW231959   4.622   2.151  13.341  0.1730 -1.2243 -2.0281
 6834SOL     OW31960   3.967   0.595   3.113 -0.6288  0.6578  0.5623
 6834SOL    HW131961   4.033   0.663   3.103  0.5971 -0.9193 -2.2251
 6834SOL    HW231962   3.941   0.582   3.022 -0.8579 -0.5140  0.7924
 6835SOL     OW31963   2.858   2.425   4.368  0.1520 -0.3127 -0.6274
 6835SOL    HW131964   2.785   2.470   4.325  0.1526 -0.6178 -0.9501
 6835SOL    HW231965   2.911   2.391   4.296  0.1811  1.1832 -1.3031
 6836SOL     OW31966   0.620   0.821   2.070 -0.3209 -0.4656 -0.4665
 6836SOL    HW131967   0.650   0.772   2.146 -0.1034 -0.1650 -0.3582
 6836SOL    HW231968   0.527   0.809   2.088 -0.6568  0.2547 -1.7438
 6837SOL     OW31969   4.662   4.301  16.750 -0.4524  0.5269 -0.6111
 6837SOL    HW131970   4.650   4.388  16.713  1.2955  0.5946 -0.9870
 6837SOL    HW231971   4.618   4.247  16.683  0.9626 -1.1541 -0.1899
 6838SOL     OW31972   3.109   2.956   7.509 -0.1352 -0.0662 -0.3411
 6838SOL    HW131973   3.050   2.990   7.577 -1.5240 -0.6875 -1.2424
 6838SOL    HW231974   3.135   2.875   7.552 -1.9813 -0.7590 -0.5058
 6839SOL     OW31975   2.221   4.182   7.195 -0.1009 -0.0470  0.5111
 6839SOL    HW131976   2.216   4.102   7.143 -0.4017  0.7235 -0.6478
 6839SOL    HW231977   2.150   4.168   7.259  0.4903  1.0729  1.4222
 6840SOL     OW31978   0.316   1.511   7.021 -0.3311  0.1094 -0.5983
 6840SOL    HW131979   0.341   1.430   7.066 -0.5936  0.7269  0.6300
 6840SOL    HW231980   0.278   1.467   6.945 -0.6523 -2.6165  1.1253
 6841SOL     OW31981   1.756   2.564  10.002 -0.1253  0.7224 -0.3675
 6841SOL    HW131982   1.821   2.634  10.004  1.0255 -0.3001 -1.3367
 6841SOL    HW231983   1.805   2.505   9.944 -0.5558 -1.2051  1.2504
 6842SOL     OW31984   4.137   3.350   6.283  0.0927  0.1658  0.5058
 6842SOL    HW131985   4.112   3.392   6.365 -0.8237  0.4040  0.1136
 6842SOL    HW231986   4.182   3.422   6.240 -0.0600 -2.3570 -3.8755
 6843SOL     OW31987   3.681   3.115   3.346 -0.5452  0.2144 -0.5222
 6843SOL    HW131988   3.596   3.123   3.303 -1.1294  0.7948  0.7389
 6843SOL    HW231989   3.724   3.199   3.330 -2.6786  1.0973 -1.6440
 6844SOL     OW31990   3.629   1.227   1.999 -0.0037 -0.5156  0.3321
 6844SOL    HW131991   3.572   1.154   2.020 -0.0406 -0.2399  1.1890
 6844SOL    HW231992   3.687   1.221   2.075 -0.4290  1.0997  0.7875
 6845SOL     OW31993   1.012   3.340  14.216  0.5957  0.0846  0.5003
 6845SOL    HW131994   0.984   3.287  14.292 -1.9081 -0.2981 -0.6734
 6845SOL    HW231995   1.106   3.336  14.230  0.7488  1.3045 -0.1981
 6846SOL     OW31996   2.406   3.671   7.459  0.2545  0.5174 -0.6506
 6846SOL    HW131997   2.490   3.640   7.495 -0.3854 -1.2630 -0.6801
 6846SOL    HW231998   2.410   3.641   7.369 -0.8148 -0.6873 -0.2915
 6847SOL     OW31999   1.875   2.848  14.534  0.4639 -0.3467  0.0168
 6847SOL    HW132000   1.786   2.823  14.509  0.7445  0.4080 -1.7798
 6847SOL    HW232001   1.870   2.844  14.629 -0.3318  2.1562  0.0894
 6848SOL     OW32002   0.151   2.996   3.455 -0.2605 -0.1227  0.3620
 6848SOL    HW132003   0.167   3.082   3.416  1.7096 -0.3746  0.6012
 6848SOL    HW232004   0.139   2.953   3.371  1.0421  0.7980 -0.2928
 6849SOL     OW32005   1.507   1.854   7.987  0.6732 -0.0300  0.3463
 6849SOL    HW132006   1.554   1.772   7.972  0.2042  0.0586 -1.5844
 6849SOL    HW232007   1.478   1.871   7.898  0.5854  0.4111  0.4595
 6850SOL     OW32008   4.102   1.619   9.439  0.4203  0.3146 -0.1496
 6850SOL    HW132009   4.038   1.574   9.383 -0.2474  2.9193 -1.4490
 6850SOL    HW232010   4.069   1.708   9.427  0.7461  0.7284  1.9817
 6851SOL     OW32011   1.157   1.500   4.331 -0.2374  0.8363  0.3822
 6851SOL    HW132012   1.065   1.512   4.306 -0.3468  1.9495  1.3176
 6851SOL    HW232013   1.176   1.562   4.401  2.4473 -1.8662  2.0407
 6852SOL     OW32014   4.669   1.979   2.495  0.0786 -0.0173 -0.2971
 6852SOL    HW132015   4.575   1.970   2.513 -0.0866  1.4884 -0.3750
 6852SOL    HW232016   4.696   1.917   2.427 -1.5750 -1.1044  0.0257
 6853SOL     OW32017   0.177   2.792   6.048  0.0358 -0.0466  0.3876
 6853SOL    HW132018   0.089   2.821   6.025  0.2096  0.3093  0.1862
 6853SOL    HW232019   0.171   2.793   6.144 -0.4200 -3.5756  0.4119
 6854SOL     OW32020   2.554   1.495  12.767  0.4035  0.2081  0.3912
 6854SOL    HW132021   2.479   1.435  12.769 -0.4326  1.2293 -0.4757
 6854SOL    HW232022   2.628   1.439  12.744 -0.2702 -1.3433  1.9569
 6855SOL     OW32023   0.028   3.493  10.270  0.3578 -0.1102  0.0404
 6855SOL    HW132024   0.109   3.447  10.247  0.1211 -0.0586 -0.8665
 6855SOL    HW232025   0.029   3.480  10.365 -2.2047 -0.9201 -0.0379
 6856SOL     OW32026   4.223   2.044   6.105 -0.3708  0.0374  0.0644
 6856SOL    HW132027   4.131   2.022   6.092 -0.1048 -1.5193  0.7641
 6856SOL    HW232028   4.257   2.014   6.021  0.9708  2.7510 -0.3564
 6857SOL     OW32029   0.541   2.318   6.717  0.5655  0.1654  0.4814
 6857SOL    HW132030   0.552   2.396   6.772 -0.2886  0.2269  0.5718
 6857SOL    HW232031   0.570   2.246   6.773 -0.8301  0.0573  1.0727
 6858SOL     OW32032   3.664   1.055   3.035 -0.0800  0.1162  0.5702
 6858SOL    HW132033   3.599   1.047   3.105 -3.0694 -3.0185 -2.5536
 6858SOL    HW232034   3.716   1.124   3.077  1.0986  1.1785 -2.6701
 6859SOL     OW32035   3.636   0.977  15.728 -0.2899 -0.1670  0.3243
 6859SOL    HW132036   3.716   0.931  15.704 -1.0404 -0.0387 -2.4111
 6859SOL    HW232037   3.589   0.904  15.768  0.4183 -0.9826 -0.3402
 6860SOL     OW32038   4.105   3.758  13.386 -0.3810  0.5728  0.0696
 6860SOL    HW132039   4.093   3.789  13.296  1.3107  0.1821 -0.2893
 6860SOL    HW232040   4.051   3.679  13.381  1.4605 -0.6054 -1.2754
 6861SOL     OW32041   1.582   3.700   7.591  0.0125 -0.4358  0.5482
 6861SOL    HW132042   1.664   3.704   7.639  0.7094  1.4327 -0.7786
 6861SOL    HW232043   1.536   3.776   7.629 -0.4131  0.7079 -2.2651
 6862SOL     OW32044   4.220   0.778   4.714 -0.3261  0.2296  0.1134
 6862SOL    HW132045   4.274   0.738   4.646 -3.1408 -0.1494 -1.8964
 6862SOL    HW232046   4.289   0.809   4.772  0.0252  0.3345 -0.3647
 6863SOL     OW32047   3.234   2.788  10.289  0.5812 -0.2035 -0.2243
 6863SOL    HW132048   3.184   2.864  10.258 -0.6529  0.3171  3.1103
 6863SOL    HW232049   3.233   2.749  10.201 -0.1890 -1.7398  0.4761
 6864SOL     OW32050   2.154   1.749   3.240  0.2411  0.3357 -0.2939
 6864SOL    HW132051   2.127   1.691   3.169  1.6428 -1.7219  0.8576
 6864SOL    HW232052   2.075   1.752   3.293  0.6145 -2.1589  0.3970
 6865SOL     OW32053   3.624   3.641   2.431  0.8037 -0.0780  0.0684
 6865SOL    HW132054   3.587   3.702   2.495  1.6119  0.9217 -0.4076
 6865SOL    HW232055   3.688   3.699   2.388  0.0057 -0.2810 -1.3801
 6866SOL     OW32056   4.394   3.765   0.343 -0.0192  0.0298  0.2167
 6866SOL    HW132057   4.416   3.858   0.352 -0.6956  0.0916  1.2344
 6866SOL    HW232058   4.395   3.755   0.248 -0.0815 -1.0016  0.3257
 6867SOL     OW32059   2.428   1.020   9.825 -0.3079  0.7146 -0.4323
 6867SOL    HW132060   2.466   1.106   9.812 -1.9597  1.2804 -1.4607
 6867SOL    HW232061   2.341   1.035   9.863  0.6615 -0.4629  2.2624
 6868SOL     OW32062   4.240   2.721   6.622 -0.4271  0.0682 -0.1398
 6868SOL    HW132063   4.238   2.626   6.631 -1.1417 -0.0074 -1.1799
 6868SOL    HW232064   4.318   2.734   6.568 -0.0316 -3.9501 -0.5633
 6869SOL     OW32065   4.322   0.450  11.843  0.5297  0.6259  0.2626
 6869SOL    HW132066   4.231   0.422  11.833  1.0251 -0.8674  0.0477
 6869SOL    HW232067   4.375   0.380  11.805  0.1246  1.7841 -2.4276
 6870SOL     OW32068   0.535   1.262   3.689  0.0798 -0.0525  0.1149
 6870SOL    HW132069   0.608   1.199   3.688 -0.3831 -0.5847  0.3300
 6870SOL    HW232070   0.507   1.250   3.598  0.3965  0.3350 -0.0378
 6871SOL     OW32071   1.308   1.289   6.666 -0.2162  0.4137  0.6085
 6871SOL    HW132072   1.338   1.377   6.684  0.8748 -0.2214  1.8754
 6871SOL    HW232073   1.216   1.316   6.659 -0.0861  0.8337  0.5268
 6872SOL     OW32074   1.572   0.099  11.037 -0.2672 -0.3366 -0.3965
 6872SOL    HW132075   1.615   0.119  11.119 -0.4432  0.9393 -0.6198
 6872SOL    HW232076   1.558   0.005  11.048  0.3169 -0.2088  1.4498
 6873SOL     OW32077   1.486   0.725   3.434 -0.0229  0.4461 -0.2690
 6873SOL    HW132078   1.457   0.670   3.507  0.1649 -1.9784 -2.0343
 6873SOL    HW232079   1.457   0.814   3.454 -0.1115  0.1577  0.8942
 6874SOL     OW32080   3.245   3.601   7.143 -0.1595  0.4485  0.5291
 6874SOL    HW132081   3.173   3.641   7.095 -1.9308  1.0345  3.6664
 6874SOL    HW232082   3.218   3.608   7.235  0.2402 -0.0835  0.6865
 6875SOL     OW32083   3.210   1.389   2.748 -0.0067  0.3414 -0.2477
 6875SOL    HW132084   3.298   1.351   2.749 -0.3294 -0.4137 -0.9524
 6875SOL    HW232085   3.155   1.314   2.723  0.2574  0.3383 -0.8085
 6876SOL     OW32086   0.964   0.652  15.213  0.4035  0.2946 -0.0170
 6876SOL    HW132087   0.938   0.568  15.252  0.7262 -0.2823 -1.0405
 6876SOL    HW232088   0.970   0.614  15.125 -0.4466  1.9085 -0.7857
 6877SOL     OW32089   2.135   0.591   5.269 -0.1866 -0.1796 -0.5784
 6877SOL    HW132090   2.196   0.545   5.326 -2.6299 -1.6684  0.7964
 6877SOL    HW232091   2.185   0.588   5.187 -0.2497 -0.9301 -0.5864
 6878SOL     OW32092   2.339   0.248   8.555 -0.1587 -0.5203  0.7734
 6878SOL    HW132093   2.287   0.245   8.635 -0.1573  0.7692  0.8181
 6878SOL    HW232094   2.344   0.341   8.533 -0.3038 -0.4890  0.8749
 6879SOL     OW32095   3.349   1.909   4.487  0.1884 -0.0221  0.7419
 6879SOL    HW132096   3.421   1.938   4.542 -1.1977  5.0698 -0.1170
 6879SOL    HW232097   3.282   1.975   4.508  1.3607  1.5124 -0.3064
 6880SOL     OW32098   1.984   0.356   9.489 -0.6621 -0.3362 -0.4932
 6880SOL    HW132099   1.906   0.301   9.489 -1.1314  0.3249  1.8626
 6880SOL    HW232100   1.938   0.438   9.468  1.2581  0.3606 -2.0484
 6881SOL     OW32101   3.262   0.833   1.042 -0.2305 -0.3088 -0.3252
 6881SOL    HW132102   3.203   0.861   1.112  0.9045 -1.0989  0.9507
 6881SOL    HW232103   3.340   0.804   1.091  1.2544 -0.0984 -2.5749
 6882SOL     OW32104   0.021   3.414   1.736  1.0638 -0.3755 -0.0480
 6882SOL    HW132105   0.054   3.415   1.646  0.9659 -0.8369 -0.0907
 6882SOL    HW232106   0.087   3.462   1.786  0.0842  0.6948  0.2139
 6883SOL     OW32107   3.510   1.879   8.825 -1.1298 -0.0497 -0.3430
 6883SOL    HW132108   3.440   1.818   8.845  0.6768 -1.8353  0.6131
 6883SOL    HW232109   3.560   1.868   8.907 -0.5525  1.2659 -0.5070
 6884SOL     OW32110   3.207   0.201   6.234 -0.6838  0.3051 -0.3752
 6884SOL    HW132111   3.150   0.186   6.310 -0.4412  1.0074 -0.0538
 6884SOL    HW232112   3.215   0.114   6.195 -0.8171  0.7992 -1.4782
 6885SOL     OW32113   2.963   4.468   6.993  0.3232  0.2302  0.2642
 6885SOL    HW132114   3.048   4.437   7.024  0.9139 -0.1400 -1.7479
 6885SOL    HW232115   2.934   4.395   6.939  1.4987  0.3571 -0.5385
 6886SOL     OW32116   4.132   3.753   9.039  0.9729  0.0415  0.0285
 6886SOL    HW132117   4.088   3.772   9.122 -0.7427  0.0158 -0.8779
 6886SOL    HW232118   4.074   3.683   9.011  1.0139  0.1071 -0.2261
 6887SOL     OW32119   4.257   3.468  11.426  0.2906 -0.0374  0.9806
 6887SOL    HW132120   4.308   3.537  11.382  1.3882 -0.5057  1.5112
 6887SOL    HW232121   4.231   3.529  11.495 -1.5763  0.2572 -0.0021
 6888SOL     OW32122   0.807   3.900   3.185 -0.6278  0.5685 -0.1117
 6888SOL    HW132123   0.841   3.965   3.123  0.6884  0.2162  0.2471
 6888SOL    HW232124   0.890   3.866   3.218 -0.2453  0.5784 -1.0624
 6889SOL     OW32125   0.369   0.665   6.101 -0.5655 -0.0054  0.0420
 6889SOL    HW132126   0.329   0.654   6.187 -2.1627  1.7756 -0.4607
 6889SOL    HW232127   0.405   0.753   6.111 -3.2142  1.4444 -3.1985
 6890SOL     OW32128   4.552   4.665   0.463  0.1576  1.0223 -0.7337
 6890SOL    HW132129   4.459   4.640   0.467  1.5101 -4.2729 -2.5068
 6890SOL    HW232130   4.583   4.579   0.490  0.3729  1.4745  0.4267
 6891SOL     OW32131   4.230   2.989   4.634 -0.5620  0.4570  0.6227
 6891SOL    HW132132   4.312   2.983   4.584 -0.7713 -1.3598  0.5063
 6891SOL    HW232133   4.167   2.994   4.563  1.1475  2.3557 -0.7492
 6892SOL     OW32134   1.676   2.459   8.312 -0.0190  0.8661  0.1394
 6892SOL    HW132135   1.598   2.482   8.362 -0.3466  1.9193 -0.8629
 6892SOL    HW232136   1.745   2.495   8.367 -0.9117 -0.1754  1.9523
 6893SOL     OW32137   0.356   4.345   2.370 -0.5750 -0.4039 -0.7958
 6893SOL    HW132138   0.343   4.438   2.356  0.0247  0.0158  1.4444
 6893SOL    HW232139   0.441   4.344   2.413 -0.8643 -0.3505 -0.2197
 6894SOL     OW32140   1.194   2.817   2.291 -0.1488  0.2757 -0.5712
 6894SOL    HW132141   1.199   2.821   2.196  1.5843 -1.5064 -0.5472
 6894SOL    HW232142   1.151   2.732   2.300  0.2039  0.0195 -1.3111
 6895SOL     OW32143   4.605   1.791  15.501 -0.1198  0.2195 -0.3891
 6895SOL    HW132144   4.645   1.801  15.415 -1.8419  1.3714 -1.0397
 6895SOL    HW232145   4.647   1.713  15.537  0.6200  1.0946  0.6631
 6896SOL     OW32146   3.966   2.507  15.639  0.2082  0.0046  0.1887
 6896SOL    HW132147   4.016   2.491  15.719  1.9647 -0.2315 -0.9561
 6896SOL    HW232148   3.878   2.494  15.673  0.9948 -3.3492  0.8769
 6897SOL     OW32149   3.291   2.511   3.406  0.5415 -0.5829  0.2565
 6897SOL    HW132150   3.268   2.472   3.321 -1.2390  0.9184  0.0655
 6897SOL    HW232151   3.313   2.598   3.373  0.3378 -0.1682  1.2334
 6898SOL     OW32152   0.236   2.540   4.521 -0.5283 -0.1446  0.0286
 6898SOL    HW132153   0.243   2.445   4.518  0.8745 -0.0614  0.3347
 6898SOL    HW232154   0.316   2.568   4.475  0.1852 -0.4737  1.0739
 6899SOL     OW32155   0.037   3.835   8.347  0.3726 -0.2288 -0.6801
 6899SOL    HW132156   0.034   3.888   8.427  0.9434  2.0020 -2.1686
 6899SOL    HW232157   0.042   3.743   8.374 -0.7413 -0.0361  0.2067
 6900SOL     OW32158   2.695   1.169   5.380 -0.3892  0.0699 -0.6164
 6900SOL    HW132159   2.642   1.160   5.460 -1.0355  0.2307 -1.0227
 6900SOL    HW232160   2.631   1.178   5.309 -1.3232 -0.0773  0.2051
 6901SOL     OW32161   4.537   2.500  11.027 -0.0574  0.3642  0.3935
 6901SOL    HW132162   4.591   2.562  10.978 -0.1217 -0.0826 -0.2479
 6901SOL    HW232163   4.470   2.497  10.959  1.3705 -1.2120 -0.9807
 6902SOL     OW32164   3.737   3.657   8.322  0.3365  0.2981  0.1493
 6902SOL    HW132165   3.719   3.713   8.398  0.6978 -1.8084  1.7950
 6902SOL    HW232166   3.809   3.707   8.284  1.4699 -1.4995 -0.0292
 6903SOL     OW32167   3.007   2.593   2.041  0.0675  0.3778 -0.2303
 6903SOL    HW132168   3.033   2.652   1.971  0.3760  0.8142  0.2479
 6903SOL    HW232169   3.027   2.512   1.995  0.0690  0.2007  0.0782
 6904SOL     OW32170   1.953   0.866   1.398  0.3486 -0.2672 -0.1849
 6904SOL    HW132171   1.937   0.802   1.330 -1.3278 -1.9276  1.7629
 6904SOL    HW232172   1.929   0.816   1.476  0.1948  0.3246  0.1512
 6905SOL     OW32173   0.407   3.594  14.563 -0.3766 -0.6681 -0.0860
 6905SOL    HW132174   0.408   3.688  14.549  2.6739 -1.0700 -2.6025
 6905SOL    HW232175   0.486   3.586  14.616  0.2358  1.5047 -0.6709
 6906SOL     OW32176   2.781   4.071   8.208 -0.0964 -0.4122  0.8696
 6906SOL    HW132177   2.756   4.008   8.274 -0.0762  0.0560  1.3246
 6906SOL    HW232178   2.712   4.134   8.229  0.6652  0.8600 -0.3947
 6907SOL     OW32179   2.598   4.503   7.265 -0.8356  0.1596  0.3772
 6907SOL    HW132180   2.540   4.427   7.270 -1.4658  0.7063  1.5391
 6907SOL    HW232181   2.637   4.498   7.178 -2.4229  0.1042 -0.3432
 6908SOL     OW32182   1.489   2.832   3.796  0.4581 -0.4158 -0.4767
 6908SOL    HW132183   1.584   2.838   3.801  0.5756  0.2503 -3.4169
 6908SOL    HW232184   1.469   2.758   3.853  2.3391  0.3517  1.1630
 6909SOL     OW32185   1.909   2.632   4.492 -0.3175  0.5691  0.4822
 6909SOL    HW132186   1.979   2.619   4.429 -0.6535 -1.8850  0.6084
 6909SOL    HW232187   1.966   2.636   4.568 -1.3744  1.5613  1.2280
 6910SOL     OW32188   2.538   2.994   7.078  0.3199 -0.4491  0.4693
 6910SOL    HW132189   2.566   3.042   7.000  1.8942  0.5468  1.6538
 6910SOL    HW232190   2.460   2.958   7.035  0.5083  0.0679 -0.3113
 6911SOL     OW32191   0.266   4.542   2.653 -0.2944  0.0374 -0.0159
 6911SOL    HW132192   0.332   4.548   2.722 -0.9857  0.9310  0.5771
 6911SOL    HW232193   0.254   4.447   2.657 -1.8321  0.2084 -0.6841
 6912SOL     OW32194   4.188   3.494   3.282  0.5483  0.7545  0.0353
 6912SOL    HW132195   4.179   3.478   3.376 -1.5318  1.2770 -0.0774
 6912SOL    HW232196   4.159   3.585   3.274 -1.6256  0.2589  2.4175
 6913SOL     OW32197   4.570   3.443   6.783  0.0981 -0.3326 -0.0324
 6913SOL    HW132198   4.635   3.403   6.840  0.0934 -1.0250 -0.5215
 6913SOL    HW232199   4.531   3.365   6.744 -3.8148  1.5609  0.1459
 6914SOL     OW32200   2.671   1.860   5.033  0.2928  0.5542 -0.5312
 6914SOL    HW132201   2.703   1.813   5.110  0.1102  1.8358  0.3330
 6914SOL    HW232202   2.644   1.794   4.969 -1.1544  0.4559  0.1734
 6915SOL     OW32203   3.175   3.639   3.989 -0.5741 -0.5223  0.2293
 6915SOL    HW132204   3.233   3.582   3.938 -0.7219 -1.0335  0.6378
 6915SOL    HW232205   3.115   3.651   3.915  0.9427  1.0576 -0.7449
 6916SOL     OW32206   4.592   0.267   1.231  0.2305  0.4497 -0.7067
 6916SOL    HW132207   4.642   0.347   1.219  0.1416  0.7324  0.8799
 6916SOL    HW232208   4.661   0.203   1.247 -1.5275 -1.4049 -0.4365
 6917SOL     OW32209   0.187   2.840   6.320  0.1077  0.5844 -0.6101
 6917SOL    HW132210   0.260   2.875   6.371 -0.1396  0.4247 -0.1509
 6917SOL    HW232211   0.122   2.883   6.375  1.4181  2.4693 -0.5170
 6918SOL     OW32212   2.237   4.710   1.688 -0.0106  0.4782  0.4318
 6918SOL    HW132213   2.277   0.048   1.748 -1.4081  0.7611  1.0724
 6918SOL    HW232214   2.224   0.042   1.611  0.2617  1.3147  0.9954
 6919SOL     OW32215   3.182   0.369   8.153  0.3811 -0.0479  0.7238
 6919SOL    HW132216   3.231   0.440   8.194  0.0734 -0.0225  1.0586
 6919SOL    HW232217   3.094   0.408   8.149  0.5510  0.1643 -0.9008
 6920SOL     OW32218   0.920   4.374   4.363  0.0986 -0.1759 -0.2882
 6920SOL    HW132219   0.992   4.405   4.418 -1.2526 -0.7916  1.8409
 6920SOL    HW232220   0.851   4.438   4.381 -0.6410 -1.7796  2.6034
 6921SOL     OW32221   1.120   3.404   8.225  0.2380  0.1282  0.6519
 6921SOL    HW132222   1.159   3.403   8.312 -1.6264  1.4096  1.5130
 6921SOL    HW232223   1.136   3.498   8.217  0.3012 -0.1048 -1.8937
 6922SOL     OW32224   4.709   2.537   8.332 -0.2623  0.3157 -0.7602
 6922SOL    HW132225   0.059   2.596   8.321  1.1850 -1.2898  0.4222
 6922SOL    HW232226   0.002   2.506   8.421 -0.1412 -1.0148 -1.2424
 6923SOL     OW32227   1.177   4.672   3.642  0.6029  0.0096 -0.2000
 6923SOL    HW132228   1.214   0.025   3.685  1.7246 -0.3974 -0.4498
 6923SOL    HW232229   1.150   4.703   3.555  0.6315  0.2514 -0.1221
 6924SOL     OW32230   3.980   0.568  11.938  0.3891 -0.1177  0.3083
 6924SOL    HW132231   4.031   0.646  11.918 -1.9638  1.9443  2.4335
 6924SOL    HW232232   3.998   0.514  11.860  1.4947 -0.2330  0.6462
 6925SOL     OW32233   4.455   0.825   7.090  0.2467 -0.1452 -0.9533
 6925SOL    HW132234   4.469   0.741   7.046  0.7772  0.2231 -1.4968
 6925SOL    HW232235   4.454   0.878   7.011  1.6684 -0.6457 -1.3026
 6926SOL     OW32236   3.004   1.725  11.081 -0.0873  0.6803  0.6554
 6926SOL    HW132237   2.928   1.766  11.121 -0.6819  0.5053 -0.2882
 6926SOL    HW232238   3.066   1.730  11.154  0.2463  0.1707  0.4169
 6927SOL     OW32239   0.000   0.323  11.422  0.5138  0.4661  0.0014
 6927SOL    HW132240   0.011   0.231  11.446 -1.3265  0.1608 -0.3285
 6927SOL    HW232241   4.705   0.316  11.328 -0.3260 -0.9484  0.2728
 6928SOL     OW32242   2.911   2.869   5.093  0.0901  0.3061 -0.6665
 6928SOL    HW132243   2.844   2.815   5.050 -0.5526  0.2901  0.3404
 6928SOL    HW232244   2.926   2.807   5.165 -1.1289 -0.8430 -1.3963
 6929SOL     OW32245   2.168   4.254   2.097 -0.7426 -0.0142 -0.1491
 6929SOL    HW132246   2.228   4.180   2.106 -1.8107 -0.7940  0.6806
 6929SOL    HW232247   2.161   4.254   2.002  1.4939 -1.9547 -0.3202
 6930SOL     OW32248   2.575   3.776  11.099 -0.2559  0.3043  0.4912
 6930SOL    HW132249   2.550   3.733  11.018 -1.0462  0.3717  0.7000
 6930SOL    HW232250   2.622   3.854  11.071  1.2812  0.2338  2.8034
 6931SOL     OW32251   1.405   4.392  13.398 -0.1313  0.0006 -0.5624
 6931SOL    HW132252   1.430   4.337  13.472 -1.3133 -0.1285 -0.2649
 6931SOL    HW232253   1.462   4.469  13.401 -0.4133 -0.0099  3.9530
 6932SOL     OW32254   3.052   3.481   8.237 -0.2112  0.4561 -0.0381
 6932SOL    HW132255   3.118   3.544   8.265  2.3435 -0.9690 -2.8432
 6932SOL    HW232256   3.047   3.422   8.313 -0.3659 -0.9096 -1.1110
 6933SOL     OW32257   0.151   4.066  16.314 -0.5419 -0.2511  0.4338
 6933SOL    HW132258   0.246   4.058  16.326  0.0089  1.9747 -2.6768
 6933SOL    HW232259   0.133   4.121  16.391  1.0804 -1.1227  1.4481
 6934SOL     OW32260   1.092   0.716  12.853  0.5567 -0.5102  0.4727
 6934SOL    HW132261   1.135   0.706  12.938  1.5494 -1.6765 -0.1686
 6934SOL    HW232262   1.009   0.669  12.863  0.1019  0.0641 -0.6446
 6935SOL     OW32263   1.507   2.878   1.894  0.3955  0.6851  0.2043
 6935SOL    HW132264   1.530   2.965   1.926  1.5811 -0.0030  1.2451
 6935SOL    HW232265   1.585   2.868   1.839 -0.1477  1.4963 -0.7075
 6936SOL     OW32266   1.550   0.987  16.986 -0.0448  0.0707 -0.4021
 6936SOL    HW132267   1.585   0.900  17.003 -0.9614 -0.3163 -0.5158
 6936SOL    HW232268   1.604   1.032  17.051 -0.6261  2.4067 -1.5204
 6937SOL     OW32269   0.169   4.104   3.910  0.2272  0.4736  0.3371
 6937SOL    HW132270   0.145   4.027   3.962 -2.4590  0.3501 -1.0720
 6937SOL    HW232271   0.170   4.168   3.980  2.2168  0.2086  0.5310
 6938SOL     OW32272   4.312   4.525   3.487  0.4246 -0.2393  0.1807
 6938SOL    HW132273   4.291   4.433   3.470 -0.7560 -0.1774  1.3145
 6938SOL    HW232274   4.372   4.541   3.414 -0.3871  1.2299 -0.1709
 6939SOL     OW32275   4.614   0.967   3.449  0.0092  0.1378  0.4347
 6939SOL    HW132276   4.673   0.960   3.374  0.2448 -0.7601  0.7028
 6939SOL    HW232277   4.680   0.935   3.511  2.4741  0.3269 -2.0938
 6940SOL     OW32278   4.651   0.528  14.518 -0.4167 -0.1176 -0.2454
 6940SOL    HW132279   4.701   0.567  14.446 -0.2013 -0.2526 -0.1669
 6940SOL    HW232280   4.675   0.574  14.599  0.5649  1.1849 -1.2684
 6941SOL     OW32281   4.154   0.577  13.877 -0.0442 -0.4188  0.2085
 6941SOL    HW132282   4.185   0.666  13.859 -0.5035 -0.0179  1.3723
 6941SOL    HW232283   4.237   0.531  13.890 -0.7203 -1.1642  1.8933
 6942SOL     OW32284   1.091   4.666   7.169 -0.5486  0.1404 -0.3121
 6942SOL    HW132285   1.145   4.594   7.137 -0.8021 -0.3804  0.4408
 6942SOL    HW232286   1.001   4.635   7.175 -1.2043  2.1118 -0.0217
 6943SOL     OW32287   2.908   4.316  17.084  0.5195 -0.5621 -0.3823
 6943SOL    HW132288   2.883   4.341  17.173  0.2125 -1.7954 -0.1322
 6943SOL    HW232289   2.994   4.276  17.103  1.2891  0.7792 -1.0634
 6944SOL     OW32290   3.330   2.045  12.190  0.1137 -0.2286  0.2632
 6944SOL    HW132291   3.325   1.949  12.196  0.0332 -0.2311  0.1635
 6944SOL    HW232292   3.242   2.079  12.210  0.1502 -0.1120  0.2246
 6945SOL     OW32293   2.399   1.386   8.579  0.5694  0.0250 -0.1018
 6945SOL    HW132294   2.430   1.339   8.656  1.2597 -0.6323 -0.7850
 6945SOL    HW232295   2.464   1.456   8.570 -0.1437  0.6480 -0.4582
 6946SOL     OW32296   2.924   1.227   5.767 -0.0899  0.2750  0.2415
 6946SOL    HW132297   3.010   1.215   5.807  1.2249  0.5120 -2.5125
 6946SOL    HW232298   2.889   1.299   5.819  1.3570  0.1703  1.3627
 6947SOL     OW32299   3.734   0.222   4.805 -0.2569 -0.4447 -0.3424
 6947SOL    HW132300   3.811   0.230   4.862  1.2959 -1.0978 -2.3428
 6947SOL    HW232301   3.729   0.308   4.762  1.5990 -0.0694  0.2081
 6948SOL     OW32302   3.783   0.898   7.032 -0.2720 -0.0901 -0.0608
 6948SOL    HW132303   3.690   0.879   7.041 -0.1378 -1.1900 -1.0866
 6948SOL    HW232304   3.817   0.859   7.113 -1.3452  0.4587  0.6605
 6949SOL     OW32305   4.069   3.858   2.501 -0.8800 -0.1168  0.5139
 6949SOL    HW132306   4.051   3.885   2.411  1.5332  0.8953  0.3472
 6949SOL    HW232307   4.148   3.805   2.494 -0.2435  1.0410 -1.1294
 6950SOL     OW32308   2.064   4.273   1.358 -0.1490  0.3729  0.1757
 6950SOL    HW132309   1.990   4.281   1.298 -2.1241 -1.1092  2.4176
 6950SOL    HW232310   2.044   4.350   1.410  0.1428  0.1019  0.6975
 6951SOL     OW32311   4.177   4.128   0.446 -0.4043  0.2579 -0.3450
 6951SOL    HW132312   4.096   4.104   0.491 -0.3387 -0.3766 -0.5632
 6951SOL    HW232313   4.244   4.092   0.504 -0.2860 -1.4406 -1.5265
 6952SOL     OW32314   2.734   0.701   5.309  0.0639  0.4437  0.2479
 6952SOL    HW132315   2.792   0.778   5.314  0.2672  0.3986 -1.4238
 6952SOL    HW232316   2.679   0.728   5.382 -1.4831 -3.5497  0.5121
 6953SOL     OW32317   2.564   3.107  12.554 -0.4249 -0.8018 -0.0713
 6953SOL    HW132318   2.621   3.099  12.631  0.1053 -0.7337 -0.4592
 6953SOL    HW232319   2.554   3.201  12.570 -1.2661 -1.0893  1.0873
 6954SOL     OW32320   2.158   2.711  16.245 -0.2421  0.6665  0.2524
 6954SOL    HW132321   2.247   2.720  16.279  0.0896  0.8848 -0.6728
 6954SOL    HW232322   2.134   2.804  16.251  1.0514  1.0123 -0.0901
 6955SOL     OW32323   1.354   4.361   9.559 -0.2107  0.1991 -0.6850
 6955SOL    HW132324   1.444   4.396   9.563 -1.0042  2.1577  0.2479
 6955SOL    HW232325   1.338   4.365   9.465 -1.7509  1.6207 -0.3627
 6956SOL     OW32326   0.435   4.315  16.690 -0.0306 -0.2425 -0.7300
 6956SOL    HW132327   0.378   4.299  16.614  0.9658 -0.8769 -1.3520
 6956SOL    HW232328   0.515   4.265  16.673  0.5763 -0.7226  3.5534
 6957SOL     OW32329   1.160   3.022   4.216  0.1748 -0.5053 -0.3438
 6957SOL    HW132330   1.245   3.004   4.256 -0.9700 -0.0351  2.3552
 6957SOL    HW232331   1.139   2.948   4.160 -0.6103  0.2543 -1.0621
 6958SOL     OW32332   1.224   0.295   1.760  0.5020  0.5371 -0.0620
 6958SOL    HW132333   1.172   0.215   1.757  1.5897 -0.2059  1.1648
 6958SOL    HW232334   1.166   0.363   1.793  1.4087  2.3544 -2.1298
 6959SOL     OW32335   4.670   2.134   1.100  0.0916 -0.3128  0.8774
 6959SOL    HW132336   0.008   2.199   1.134  1.2250 -2.7482  3.4984
 6959SOL    HW232337   4.587   2.174   1.125  0.8235  2.1599 -0.6087
 6960SOL     OW32338   0.098   3.749  16.211  0.2282  0.2564  0.2737
 6960SOL    HW132339   0.042   3.824  16.193 -0.7954 -0.7160 -0.5754
 6960SOL    HW232340   0.107   3.761  16.306 -0.9352 -0.1776  0.4481
 6961SOL     OW32341   4.182   3.188   2.513 -0.1038  0.1483 -0.0809
 6961SOL    HW132342   4.186   3.217   2.604 -0.3468 -2.1510  0.6722
 6961SOL    HW232343   4.143   3.268   2.479 -1.4521  0.2191  1.6776
 6962SOL     OW32344   0.508   3.057   4.328 -0.2334 -0.0051  0.4653
 6962SOL    HW132345   0.524   3.129   4.266  0.8807 -1.9283 -1.4689
 6962SOL    HW232346   0.413   3.056   4.311 -0.0673  0.4092 -0.5254
 6963SOL     OW32347   3.971   3.573   5.629 -0.2285  0.3107  0.2030
 6963SOL    HW132348   4.065   3.589   5.644  0.1316 -1.3073 -0.3281
 6963SOL    HW232349   3.947   3.613   5.545  1.6943 -0.4766 -0.7353
 6964SOL     OW32350   2.111   3.419   6.742  0.0763 -0.0166 -0.4290
 6964SOL    HW132351   2.074   3.465   6.667  1.0377 -1.3960 -1.7595
 6964SOL    HW232352   2.189   3.471   6.762  0.4501 -1.0064  0.6982
 6965SOL     OW32353   3.194   3.811  17.063  0.1738 -0.1624 -0.2198
 6965SOL    HW132354   3.155   3.805  16.976  0.7769  2.2879 -0.6841
 6965SOL    HW232355   3.254   3.885  17.055 -1.0872  0.9922  0.7827
 6966SOL     OW32356   4.089   1.840   9.835  0.1980  0.1041  0.1275
 6966SOL    HW132357   4.036   1.882   9.902 -2.4663  1.7486 -2.9894
 6966SOL    HW232358   4.019   1.800   9.783  0.1183 -1.8119  1.7226
 6967SOL     OW32359   1.809   0.290   9.139 -0.3078 -0.7516  0.5593
 6967SOL    HW132360   1.857   0.372   9.152  0.3814 -1.0323 -0.2630
 6967SOL    HW232361   1.721   0.314   9.169 -1.4395 -3.2409 -0.8363
 6968SOL     OW32362   1.114   0.522   2.097  0.3842  0.2904  0.3800
 6968SOL    HW132363   1.022   0.510   2.119  0.8168 -1.4997  1.2171
 6968SOL    HW232364   1.106   0.556   2.007 -0.3276 -0.9928 -0.0446
 6969SOL     OW32365   1.895   2.857   2.808 -0.0220 -0.4854  0.0436
 6969SOL    HW132366   1.976   2.811   2.827  1.8923  2.0537 -1.9972
 6969SOL    HW232367   1.898   2.857   2.712 -0.7210  2.9731  0.0393
 6970SOL     OW32368   1.209   2.896   1.683  0.3535  0.0501 -0.4112
 6970SOL    HW132369   1.133   2.933   1.727  0.8836 -0.0853  0.6126
 6970SOL    HW232370   1.187   2.804   1.700 -0.6775  0.3913  0.0823
 6971SOL     OW32371   4.701   1.725   7.834  0.3795 -0.7891 -0.0325
 6971SOL    HW132372   0.030   1.645   7.832  1.9659  0.3061 -1.7635
 6971SOL    HW232373   4.711   1.755   7.744 -1.2501 -0.0910  0.0121
 6972SOL     OW32374   2.568   1.382   8.321 -0.4306 -0.3525 -0.0467
 6972SOL    HW132375   2.607   1.318   8.381 -2.7978 -0.5847  1.2338
 6972SOL    HW232376   2.563   1.452   8.386  0.7169 -1.4095  1.1547
 6973SOL     OW32377   3.328   3.278  17.227  0.5954  0.4079  0.7208
 6973SOL    HW132378   3.269   3.341  17.186  0.7802 -0.3745 -0.7239
 6973SOL    HW232379   3.343   3.221  17.151  1.0419 -0.2116  1.2711
 6974SOL     OW32380   2.806   3.492   1.009 -0.0295 -0.2730 -0.1518
 6974SOL    HW132381   2.748   3.562   0.980 -0.2444 -0.2092  0.4362
 6974SOL    HW232382   2.744   3.419   1.022 -0.3933 -0.0991 -0.8941
 6975SOL     OW32383   2.581   4.181   8.029  0.2528 -0.3395 -0.1078
 6975SOL    HW132384   2.629   4.258   8.059  0.2234 -0.9136  1.4408
 6975SOL    HW232385   2.496   4.223   8.036  0.3198 -0.1628 -0.3740
 6976SOL     OW32386   2.315   2.033   6.235  0.3535  0.0574 -0.8245
 6976SOL    HW132387   2.271   2.109   6.273  0.1762 -1.4821  2.0775
 6976SOL    HW232388   2.261   1.959   6.263  0.6764  0.0097 -0.3325
 6977SOL     OW32389   2.167   1.799   1.516  0.3348 -0.1630  0.4462
 6977SOL    HW132390   2.150   1.713   1.552 -2.9540 -0.2561 -1.3087
 6977SOL    HW232391   2.219   1.776   1.439  0.9214 -0.2475  0.8709
 6978SOL     OW32392   4.447   3.218   2.293 -0.3298 -0.1736  0.0473
 6978SOL    HW132393   4.384   3.290   2.298 -0.9802 -0.8861  2.1010
 6978SOL    HW232394   4.435   3.182   2.381 -0.8406 -2.0753 -0.8055
 6979SOL     OW32395   1.573   0.701   9.554  0.3920 -0.3295  0.2707
 6979SOL    HW132396   1.621   0.634   9.604  0.0165  1.9128  3.6318
 6979SOL    HW232397   1.610   0.701   9.465 -3.6060  1.3084 -1.3644
 6980SOL     OW32398   2.983   2.209  12.887  0.3317  0.2835  0.5799
 6980SOL    HW132399   2.918   2.210  12.817  2.8538  1.2711 -1.7414
 6980SOL    HW232400   2.967   2.297  12.922 -1.5045  0.9583 -2.0023
 6981SOL     OW32401   1.926   3.199   0.646 -0.3907  0.5897  0.3430
 6981SOL    HW132402   1.996   3.159   0.595 -0.1493  1.2950  0.1239
 6981SOL    HW232403   1.968   3.201   0.732  0.2132 -0.0611  0.0622
 6982SOL     OW32404   0.130   3.484   1.474 -0.3052  0.2635 -0.1634
 6982SOL    HW132405   0.208   3.535   1.450 -0.6086 -0.2611 -2.2595
 6982SOL    HW232406   0.146   3.392   1.453  2.4042  0.5923  0.4324
 6983SOL     OW32407   2.880   3.828  16.104 -0.0078  0.6575 -0.0860
 6983SOL    HW132408   2.838   3.785  16.030 -0.8902  1.6799 -0.1805
 6983SOL    HW232409   2.907   3.758  16.164 -0.7340  0.6994  0.2961
 6984SOL     OW32410   3.722   0.642   7.465 -0.2237  0.2822  0.3032
 6984SOL    HW132411   3.692   0.561   7.424 -0.6229  0.3419  0.4724
 6984SOL    HW232412   3.647   0.701   7.453 -0.3779 -0.1495 -0.8391
 6985SOL     OW32413   0.822   1.472   3.498 -0.6398 -0.0675 -0.1195
 6985SOL    HW132414   0.913   1.446   3.481 -0.1238  1.4271  0.3761
 6985SOL    HW232415   0.775   1.432   3.425 -0.2113  0.0699 -0.4727
 6986SOL     OW32416   4.478   1.216   6.442 -0.1348 -0.0868  0.0741
 6986SOL    HW132417   4.542   1.175   6.383  0.5053  0.3423  0.4584
 6986SOL    HW232418   4.401   1.232   6.388 -0.3264  0.0398  0.3830
 6987SOL     OW32419   3.033   4.384   7.383 -0.0168 -0.2876 -0.5428
 6987SOL    HW132420   3.113   4.435   7.398 -0.9978  1.2376 -0.5298
 6987SOL    HW232421   3.019   4.330   7.461  0.2653 -0.3497 -0.5348
 6988SOL     OW32422   3.864   0.057   5.122 -0.3035  0.8084  0.0716
 6988SOL    HW132423   3.891   0.129   5.066 -3.5245  1.3951 -0.7587
 6988SOL    HW232424   3.943   0.003   5.119 -0.3045  0.6724  2.2134
 6989SOL     OW32425   1.043   0.923   1.858 -0.1573  0.4441  0.0373
 6989SOL    HW132426   1.082   0.946   1.774 -0.6504 -0.2278 -0.3745
 6989SOL    HW232427   0.950   0.942   1.845  0.0793  1.4358 -0.2229
 6990SOL     OW32428   3.928   4.449   1.951 -0.2386  0.0747  0.7309
 6990SOL    HW132429   3.833   4.462   1.954 -0.6382 -2.0516 -2.9676
 6990SOL    HW232430   3.954   4.460   2.043 -1.9202 -1.5606  1.3912
 6991SOL     OW32431   2.812   3.064   7.581 -0.0310  0.6105  0.2782
 6991SOL    HW132432   2.718   3.050   7.586  0.2004 -0.7085  1.0440
 6991SOL    HW232433   2.826   3.071   7.487  0.5503  1.8231  0.4413
 6992SOL     OW32434   0.080   0.861   3.610 -0.0808  0.2398 -0.7126
 6992SOL    HW132435   0.142   0.891   3.677 -2.1897  0.3902  1.1638
 6992SOL    HW232436   0.020   0.820   3.672  1.3535 -1.4350 -0.4069
 6993SOL     OW32437   3.798   3.478   2.544  0.7861  0.5040  0.5569
 6993SOL    HW132438   3.734   3.543   2.515 -1.4656 -3.6842 -3.6786
 6993SOL    HW232439   3.735   3.425   2.593  0.8237  0.7103  0.8288
 6994SOL     OW32440   0.861   3.426   8.810 -0.5748 -0.4496  0.1932
 6994SOL    HW132441   0.850   3.431   8.715  0.2896  0.7958  0.1632
 6994SOL    HW232442   0.943   3.475   8.816 -0.9477 -0.0161  1.7644
 6995SOL     OW32443   4.531   2.521  15.047 -0.0873 -0.5080  0.3349
 6995SOL    HW132444   4.436   2.504  15.045 -0.2490  0.3130  1.8323
 6995SOL    HW232445   4.555   2.437  15.008 -2.1076 -0.8906 -0.1053
 6996SOL     OW32446   2.250   0.276   7.759  0.1671 -0.3717 -0.2033
 6996SOL    HW132447   2.168   0.281   7.709  1.1938 -0.5844 -1.9296
 6996SOL    HW232448   2.253   0.181   7.769 -0.2237 -0.5117 -1.3291
 6997SOL     OW32449   4.267   2.038   0.243  0.0643  0.6270 -0.3908
 6997SOL    HW132450   4.300   2.113   0.194  2.0094  0.1932  0.2533
 6997SOL    HW232451   4.289   1.972   0.177 -0.1285  1.0322 -0.8644
 6998SOL     OW32452   4.669   4.193  17.418 -0.4401 -0.3758 -0.5254
 6998SOL    HW132453   4.587   4.222  17.379 -0.3828  1.3710  0.6356
 6998SOL    HW232454   4.682   4.103  17.388  1.9530  0.2284 -1.3322
 6999SOL     OW32455   4.689   0.447   2.836  0.1185  0.2965  0.2827
 6999SOL    HW132456   4.633   0.386   2.884 -1.0716 -0.6513 -2.3027
 6999SOL    HW232457   4.720   0.396   2.761  1.8418  1.7812  0.0007
 7000SOL     OW32458   4.507   1.625   7.027 -0.1127  0.2978 -0.0572
 7000SOL    HW132459   4.585   1.569   7.029 -1.7463 -2.0066 -0.8495
 7000SOL    HW232460   4.468   1.572   6.957  2.1651 -0.0597 -1.0586
 7001SOL     OW32461   2.439   2.293  11.294 -0.0101 -0.1425  0.7815
 7001SOL    HW132462   2.351   2.305  11.330 -0.3060 -0.0744  0.0343
 7001SOL    HW232463   2.482   2.285  11.379 -1.4395 -1.6274  1.3593
 7002SOL     OW32464   1.597   2.195   6.268  0.0506  0.0920 -0.3176
 7002SOL    HW132465   1.520   2.149   6.234 -0.7382  1.6771 -0.7258
 7002SOL    HW232466   1.576   2.236   6.352 -0.7148  0.0800 -0.4976
 7003SOL     OW32467   1.399   3.900   0.361  0.2539  0.3693  0.7610
 7003SOL    HW132468   1.420   3.914   0.453  0.2814 -0.7920  0.9255
 7003SOL    HW232469   1.411   3.806   0.349  1.2976  0.6737 -0.5571
 7004SOL     OW32470   1.876   2.641   6.691 -0.2022 -0.0103 -0.1968
 7004SOL    HW132471   1.809   2.572   6.692  0.6487 -0.8287  0.0363
 7004SOL    HW232472   1.887   2.648   6.785 -0.0075 -2.1630 -0.0535
 7005SOL     OW32473   1.379   1.496   3.602  0.1222 -0.5791  0.2944
 7005SOL    HW132474   1.335   1.513   3.518 -2.0867  0.6717  1.7122
 7005SOL    HW232475   1.454   1.550   3.577  1.2860 -1.6154  1.5636
 7006SOL     OW32476   2.332   0.594   3.501  0.4512 -0.0079 -0.9360
 7006SOL    HW132477   2.314   0.589   3.595  0.4994 -0.7649 -0.9676
 7006SOL    HW232478   2.401   0.659   3.490 -0.4772  1.2592  0.7014
 7007SOL     OW32479   0.929   4.204  10.532  0.4247  0.2082  0.2682
 7007SOL    HW132480   0.991   4.245  10.473  0.8516 -0.8170  0.0038
 7007SOL    HW232481   0.980   4.139  10.581 -0.2977 -1.3518 -1.0586
 7008SOL     OW32482   3.137   4.684  17.127  0.3033  0.2694 -0.0686
 7008SOL    HW132483   3.197   4.705  17.199  0.7337 -0.3099 -0.2681
 7008SOL    HW232484   3.055   4.706  17.174  0.3972 -0.4984  0.4507
 7009SOL     OW32485   0.564   1.539  12.388 -0.3208  0.6722  0.6276
 7009SOL    HW132486   0.552   1.597  12.313 -0.5176  0.2604  0.3428
 7009SOL    HW232487   0.569   1.602  12.460 -0.1188  0.2099  1.0196
 7010SOL     OW32488   2.750   0.224   5.927 -0.0370  0.0179 -0.0087
 7010SOL    HW132489   2.826   0.167   5.919 -1.1786 -1.4499 -0.3236
 7010SOL    HW232490   2.783   0.313   5.913  2.1167 -0.7938 -0.0296
 7011SOL     OW32491   0.723   1.597   3.732  0.3305  0.0992  0.0897
 7011SOL    HW132492   0.752   1.554   3.651 -0.3890 -0.7111  0.2686
 7011SOL    HW232493   0.719   1.689   3.704  1.9600  0.9855  2.7356
 7012SOL     OW32494   2.105   0.160   2.941 -0.2475  0.2583 -0.3542
 7012SOL    HW132495   2.189   0.119   2.918 -0.0859 -0.6818  1.9033
 7012SOL    HW232496   2.046   0.100   2.897 -2.9465  2.8120 -0.2227
 7013SOL     OW32497   1.723   2.616   4.196  0.5237 -0.3545 -0.2703
 7013SOL    HW132498   1.767   2.601   4.113 -0.1431  1.3174 -0.9270
 7013SOL    HW232499   1.799   2.625   4.254  0.8101 -0.4410 -0.6360
 7014SOL     OW32500   2.324   4.142   2.529 -0.2663  0.0935 -0.4190
 7014SOL    HW132501   2.255   4.170   2.468 -1.9633 -2.1308  0.4818
 7014SOL    HW232502   2.382   4.216   2.511 -1.6998  0.4857 -3.4200
 7015SOL     OW32503   4.235   0.019   9.869  0.1883  0.0615  0.3332
 7015SOL    HW132504   4.288   0.096   9.886  0.7922 -0.3082  0.1199
 7015SOL    HW232505   4.159   0.036   9.925  0.0266  0.3974  0.0047
 7016SOL     OW32506   4.403   3.854  15.439 -0.1633 -0.4800  0.0362
 7016SOL    HW132507   4.439   3.935  15.401 -0.8275  0.2853  1.0264
 7016SOL    HW232508   4.312   3.881  15.432 -0.7650 -1.8337  2.8343
 7017SOL     OW32509   1.516   1.165   6.509 -0.3123  0.0058  0.1106
 7017SOL    HW132510   1.531   1.246   6.558 -0.7360  0.2146 -0.1010
 7017SOL    HW232511   1.443   1.184   6.449 -0.5329 -1.9731 -0.2434
 7018SOL     OW32512   2.996   3.983   7.704  0.1250  0.2104  0.2093
 7018SOL    HW132513   2.939   4.020   7.771  0.1733  2.1038 -0.7957
 7018SOL    HW232514   3.005   4.066   7.658  1.3774  0.2172  0.4640
 7019SOL     OW32515   3.110   3.267  11.338  0.7168 -0.0597  0.9330
 7019SOL    HW132516   3.185   3.291  11.284  0.0993 -0.2416 -0.0151
 7019SOL    HW232517   3.059   3.205  11.286  0.9402 -0.7664  1.5551
 7020SOL     OW32518   3.891   1.481   5.310 -0.4643 -0.4043  0.0689
 7020SOL    HW132519   3.853   1.398   5.282 -0.9763 -0.2799  0.4071
 7020SOL    HW232520   3.975   1.454   5.347 -0.4302 -0.9458 -0.4028
 7021SOL     OW32521   1.827   0.022   0.325 -0.4443  0.1162  0.8696
 7021SOL    HW132522   1.757   0.002   0.263 -0.3825  3.2663 -0.2360
 7021SOL    HW232523   1.889   4.674   0.314  0.1064  0.4909  1.5351
 7022SOL     OW32524   1.793   0.757  15.519 -0.4659 -0.2236 -0.5111
 7022SOL    HW132525   1.701   0.728  15.522 -0.5247 -0.0032 -0.2197
 7022SOL    HW232526   1.814   0.724  15.432  0.2711 -0.0389 -0.3970
 7023SOL     OW32527   3.952   4.605   0.229 -0.8490  0.0587  0.9369
 7023SOL    HW132528   4.012   4.534   0.253  0.8049  0.9492 -0.5771
 7023SOL    HW232529   3.864   4.567   0.221 -0.5214 -0.6086  0.5030
 7024SOL     OW32530   0.536   1.117   2.906  0.1199 -0.3537  0.4238
 7024SOL    HW132531   0.583   1.134   2.988 -0.1382 -1.0694  0.7176
 7024SOL    HW232532   0.456   1.169   2.912  0.4133  0.1730 -0.2053
 7025SOL     OW32533   0.838   2.958   8.129  0.2840  0.0931 -0.1291
 7025SOL    HW132534   0.866   3.048   8.148 -1.0828  0.5347 -0.2098
 7025SOL    HW232535   0.751   2.967   8.090  0.2248  0.4325  0.0811
 7026SOL     OW32536   4.006   2.000  10.645  0.0033 -0.1463 -0.1250
 7026SOL    HW132537   4.031   1.955  10.726 -2.1354 -1.0714  0.0285
 7026SOL    HW232538   4.012   1.917  10.598 -0.2165 -0.3576  0.2185
 7027SOL     OW32539   2.137   3.731   5.421 -0.6721 -0.5267  0.8560
 7027SOL    HW132540   2.150   3.824   5.438 -0.6427 -0.4837  0.6030
 7027SOL    HW232541   2.055   3.733   5.373  1.7880 -1.0756 -3.3859
 7028SOL     OW32542   2.163   0.104   0.265  0.0485  0.1143 -0.2187
 7028SOL    HW132543   2.217   0.123   0.188  0.3357  0.4463  0.0631
 7028SOL    HW232544   2.080   0.135   0.230 -2.2746 -1.8442  3.5222
 7029SOL     OW32545   3.203   0.933   2.167  0.1168  0.3050  0.1248
 7029SOL    HW132546   3.108   0.942   2.161 -0.1705 -0.9437  3.0177
 7029SOL    HW232547   3.211   0.865   2.100  1.3879  2.0542 -1.5050
 7030SOL     OW32548   1.035   4.026  13.593 -0.3423 -0.3058  0.7075
 7030SOL    HW132549   0.948   4.008  13.629 -0.5938 -2.3439 -0.9221
 7030SOL    HW232550   1.065   4.086  13.661 -0.7681  0.0933  0.5489
 7031SOL     OW32551   2.203   3.941   1.007  0.2640 -0.4083 -0.2860
 7031SOL    HW132552   2.203   3.951   1.102  1.4946 -0.0909 -0.3232
 7031SOL    HW232553   2.131   4.001   0.984  1.1690  0.9234  0.3569
 7032SOL     OW32554   3.288   3.450   7.941  0.3550 -0.0323 -0.1960
 7032SOL    HW132555   3.278   3.362   7.903  0.1309  0.2679 -0.8250
 7032SOL    HW232556   3.218   3.452   8.007 -1.2718 -1.5838 -1.8842
 7033SOL     OW32557   2.843   2.793   3.429 -0.3213 -0.0716  0.0856
 7033SOL    HW132558   2.933   2.769   3.449 -0.3871  0.3560  0.8998
 7033SOL    HW232559   2.809   2.724   3.371  0.3392  1.1894 -1.7912
 7034SOL     OW32560   1.869   1.691  11.359 -0.2776 -0.2660 -0.2224
 7034SOL    HW132561   1.843   1.697  11.267  0.7083 -0.7810 -0.5419
 7034SOL    HW232562   1.965   1.692  11.364 -0.5083  0.2701  4.2731
 7035SOL     OW32563   4.147   3.910   6.424  0.0983 -0.4474 -0.1464
 7035SOL    HW132564   4.065   3.960   6.425 -0.4790 -1.3735 -0.5722
 7035SOL    HW232565   4.191   3.942   6.503  0.9653 -1.7135 -0.1100
 7036SOL     OW32566   2.983   0.890   1.749 -0.2906 -0.0713  0.4857
 7036SOL    HW132567   2.925   0.890   1.672  0.4267 -0.5399 -0.0598
 7036SOL    HW232568   3.051   0.951   1.719 -0.8981  0.6935  0.6397
 7037SOL     OW32569   2.891   2.423   5.140 -0.4370 -0.3487  0.1187
 7037SOL    HW132570   2.916   2.339   5.180 -2.8525 -0.3778  1.5729
 7037SOL    HW232571   2.940   2.480   5.199 -0.2107  1.8462 -2.2274
 7038SOL     OW32572   0.209   2.250   6.102  0.0938  1.1837  0.1156
 7038SOL    HW132573   0.291   2.300   6.111  1.7588 -1.3343 -0.9981
 7038SOL    HW232574   0.185   2.277   6.014  2.9711 -0.4919 -1.1892
 7039SOL     OW32575   4.511   1.425  11.039  0.4942  0.8031 -0.0718
 7039SOL    HW132576   4.557   1.422  10.955  1.6494 -0.4747  0.5927
 7039SOL    HW232577   4.440   1.488  11.026  1.9269  1.6461 -3.9764
 7040SOL     OW32578   3.448   0.745  10.554  0.6179  0.0645 -0.4686
 7040SOL    HW132579   3.418   0.655  10.542  1.2075 -0.0171 -1.3205
 7040SOL    HW232580   3.532   0.720  10.592  0.4683  0.8385  0.4031
 7041SOL     OW32581   3.877   2.538   0.999  0.3098  0.3561 -0.1864
 7041SOL    HW132582   3.841   2.452   1.022 -0.6684  0.8654  0.1850
 7041SOL    HW232583   3.922   2.562   1.080  0.5451 -1.2947  0.1769
 7042SOL     OW32584   2.495   1.216   5.809  0.0327 -0.6144 -0.0355
 7042SOL    HW132585   2.433   1.276   5.851  0.3046  2.1261 -3.5257
 7042SOL    HW232586   2.514   1.271   5.733 -0.4664  0.8155  0.8644
 7043SOL     OW32587   1.308   1.497   6.227  0.1533 -0.3326 -0.1479
 7043SOL    HW132588   1.258   1.537   6.156 -1.6188 -0.3980  1.0516
 7043SOL    HW232589   1.382   1.557   6.218  0.2105 -0.6606 -1.6932
 7044SOL     OW32590   0.384   2.083   9.881  0.4240  0.2689  0.2033
 7044SOL    HW132591   0.375   2.167   9.926 -0.4017 -1.6070  3.5642
 7044SOL    HW232592   0.397   2.029   9.959  1.8395 -0.4535 -0.5348
 7045SOL     OW32593   3.827   0.178   3.435 -0.2662 -0.1528  0.0981
 7045SOL    HW132594   3.846   0.193   3.343  0.0452  1.4049  0.4082
 7045SOL    HW232595   3.913   0.179   3.477  0.0321 -0.7609 -0.5020
 7046SOL     OW32596   0.151   4.068   7.135  0.3456 -0.0882  0.1286
 7046SOL    HW132597   0.194   3.992   7.172 -0.9801 -1.3361 -0.9144
 7046SOL    HW232598   0.127   4.119   7.212 -1.3758 -0.6693 -0.0271
 7047SOL     OW32599   0.950   2.271   7.819  0.2242 -0.7920 -0.3067
 7047SOL    HW132600   0.860   2.277   7.851  0.0858  2.3946 -1.3372
 7047SOL    HW232601   0.999   2.283   7.900  0.4419 -0.1046 -0.5441
 7048SOL     OW32602   3.932   1.928   1.566  0.4448  0.3144  0.3434
 7048SOL    HW132603   3.981   1.865   1.513 -3.7793 -2.5112 -0.1462
 7048SOL    HW232604   3.847   1.897   1.536  0.5260 -1.4009  1.9396
 7049SOL     OW32605   0.168   0.989   7.666 -0.0151  0.7224  0.4442
 7049SOL    HW132606   0.193   0.912   7.614  2.8539  1.5770  0.5455
 7049SOL    HW232607   0.115   1.030   7.598  0.6258 -0.3348 -0.7001
 7050SOL     OW32608   1.783   3.650   8.173  0.5204  0.3535  0.3728
 7050SOL    HW132609   1.736   3.645   8.090  1.7878 -0.7492 -0.2805
 7050SOL    HW232610   1.869   3.681   8.146  0.6356  1.3798  1.9277
 7051SOL     OW32611   3.724   3.053   2.941 -0.4980 -0.3075 -0.1858
 7051SOL    HW132612   3.735   3.072   2.848  1.4943 -1.4118 -0.1883
 7051SOL    HW232613   3.628   3.055   2.941 -0.4713  0.5796 -0.4742
 7052SOL     OW32614   0.155   4.524   6.526 -0.3588 -0.1080 -0.2544
 7052SOL    HW132615   0.235   4.552   6.570 -0.9385  0.9651  0.1326
 7052SOL    HW232616   0.094   4.515   6.600 -0.7605 -1.1564 -0.7202
 7053SOL     OW32617   0.340   4.542  15.671  0.0485  0.0801 -0.0521
 7053SOL    HW132618   0.265   4.580  15.625  0.8584 -1.1274 -2.4025
 7053SOL    HW232619   0.339   4.576  15.760  2.4647  2.5793 -0.9826
 7054SOL     OW32620   1.128   1.152   4.439 -0.5537  0.2896 -0.2364
 7054SOL    HW132621   1.035   1.162   4.419 -0.8008  0.6760  1.1234
 7054SOL    HW232622   1.162   1.202   4.364  1.4282 -0.8790 -0.1089
 7055SOL     OW32623   4.316   1.166  10.637  0.4897  0.2227  0.2155
 7055SOL    HW132624   4.382   1.178  10.569  1.4738  0.3607  1.1911
 7055SOL    HW232625   4.321   1.247  10.688  2.8617 -0.1493  0.5419
 7056SOL     OW32626   3.752   1.474   6.961  0.4943  0.1511  0.4094
 7056SOL    HW132627   3.798   1.401   7.001  1.7837  1.3597  1.1114
 7056SOL    HW232628   3.745   1.448   6.869 -2.2520  2.5347 -0.0755
 7057SOL     OW32629   2.457   0.992  10.324 -0.1840  0.4200  0.4047
 7057SOL    HW132630   2.418   0.931  10.262  0.7772  0.2841 -0.0658
 7057SOL    HW232631   2.447   1.071  10.271  0.3878 -0.0462 -0.3886
 7058SOL     OW32632   0.977   2.911   5.082 -0.3670  0.4170  0.2893
 7058SOL    HW132633   0.970   2.912   4.987 -1.7481  0.1991  0.3784
 7058SOL    HW232634   0.951   3.002   5.097  0.8045  0.7726  0.1170
 7059SOL     OW32635   1.081   0.817   9.153  0.5137  0.0585  0.0426
 7059SOL    HW132636   1.156   0.868   9.123  0.3641  0.1310 -0.2059
 7059SOL    HW232637   1.116   0.729   9.164 -2.5146 -1.0977  0.5069
 7060SOL     OW32638   3.761   4.318   3.394 -0.6179  0.2940  0.2626
 7060SOL    HW132639   3.668   4.300   3.408 -0.4788 -0.6061 -0.0172
 7060SOL    HW232640   3.777   4.394   3.336 -0.4620  0.7117  0.8559
 7061SOL     OW32641   1.818   3.741   7.751 -0.1897 -0.1008 -0.0014
 7061SOL    HW132642   1.886   3.779   7.695 -1.5852  1.0697 -0.8884
 7061SOL    HW232643   1.820   3.810   7.817 -1.3715 -1.2917  1.2838
 7062SOL     OW32644   3.533   2.628   8.930 -0.1328  0.5060 -0.3780
 7062SOL    HW132645   3.621   2.649   8.961 -0.6662  1.8968  0.2082
 7062SOL    HW232646   3.541   2.533   8.938 -3.0605  0.1791 -1.3859
 7063SOL     OW32647   0.700   0.770   9.153 -0.0235  0.0366 -0.2748
 7063SOL    HW132648   0.702   0.752   9.247 -0.2543  1.7608  0.0595
 7063SOL    HW232649   0.609   0.793   9.133 -0.2388 -0.0233  0.6514
 7064SOL     OW32650   1.740   0.415  10.262 -0.5567  0.0440 -0.1879
 7064SOL    HW132651   1.777   0.477  10.200  1.4237  1.1464  2.0849
 7064SOL    HW232652   1.705   0.476  10.326  0.9393 -0.9934  1.6250
 7065SOL     OW32653   4.230   0.638   3.943 -0.1044 -0.5651 -1.1928
 7065SOL    HW132654   4.138   0.661   3.935 -0.2090 -0.3678  0.6972
 7065SOL    HW232655   4.277   0.720   3.958  0.4948 -1.0405 -0.4633
 7066SOL     OW32656   3.546   4.592  13.533  0.1539  0.2793  0.1065
 7066SOL    HW132657   3.548   4.654  13.460 -1.6553 -0.1293 -0.2704
 7066SOL    HW232658   3.456   4.607  13.562 -0.7976 -1.2188 -2.1474
 7067SOL     OW32659   0.551   3.004  15.094 -0.3944  0.1904 -0.2037
 7067SOL    HW132660   0.614   2.939  15.124 -0.8927  0.2352  0.9559
 7067SOL    HW232661   0.555   2.981  15.001 -0.5058 -0.5005 -0.0366
 7068SOL     OW32662   2.843   1.360   8.137 -0.0922  0.0049 -0.2412
 7068SOL    HW132663   2.750   1.380   8.130 -0.2841 -1.1189 -0.8397
 7068SOL    HW232664   2.842   1.284   8.195  0.4699 -0.2222 -0.5276
 7069SOL     OW32665   2.810   0.906   0.189  0.0168 -0.1422  0.9372
 7069SOL    HW132666   2.863   0.846   0.241  0.0626 -1.5656 -0.7476
 7069SOL    HW232667   2.840   0.986   0.231  0.5452  0.1657 -0.0374
 7070SOL     OW32668   0.906   3.070  13.078 -0.1476  0.4496 -0.2286
 7070SOL    HW132669   0.861   3.115  13.006  0.3977 -2.7132 -2.5391
 7070SOL    HW232670   0.871   3.097  13.163  0.0692 -1.1140  0.3477
 7071SOL     OW32671   3.595   0.229  12.982 -0.4907 -0.5007  0.0308
 7071SOL    HW132672   3.684   0.238  13.016 -0.5559  0.5440 -0.0763
 7071SOL    HW232673   3.549   0.197  13.060 -1.8959 -1.3130 -1.1446
 7072SOL     OW32674   3.476   0.169  13.580  0.1316 -0.1172  0.2457
 7072SOL    HW132675   3.527   0.141  13.504 -2.8219 -3.7297 -0.3711
 7072SOL    HW232676   3.400   0.113  13.562  0.7917 -0.7456 -0.6124
 7073SOL     OW32677   4.460   2.476  13.909 -0.7070  0.5836  0.5027
 7073SOL    HW132678   4.402   2.400  13.909  0.3487 -0.2192  0.0296
 7073SOL    HW232679   4.436   2.506  13.997 -1.4832 -0.1366  0.5314
 7074SOL     OW32680   2.603   4.371   1.725  0.2215  0.1644  0.1204
 7074SOL    HW132681   2.564   4.450   1.762  0.7415  0.6558 -0.3940
 7074SOL    HW232682   2.607   4.395   1.633 -1.2725  1.8904  0.5240
 7075SOL     OW32683   4.226   0.195   3.128 -0.3435  0.2296  0.4407
 7075SOL    HW132684   4.190   0.268   3.179 -1.7068 -1.4276  1.8354
 7075SOL    HW232685   4.207   0.218   3.037 -0.4286 -1.7631 -0.0299
 7076SOL     OW32686   1.490   3.236  10.695  0.3314 -1.0158  0.3736
 7076SOL    HW132687   1.579   3.201  10.702  0.4594 -0.3209  2.4463
 7076SOL    HW232688   1.473   3.250  10.788  0.6103  1.2848  0.0818
 7077SOL     OW32689   2.301   0.713  14.431 -0.5370  0.4049  0.6229
 7077SOL    HW132690   2.297   0.793  14.378 -2.5115 -0.8463 -1.1117
 7077SOL    HW232691   2.298   0.650  14.360  1.0121  0.6281  0.3519
 7078SOL     OW32692   0.737   1.237   8.248  0.1620 -0.1776 -0.2190
 7078SOL    HW132693   0.661   1.180   8.244  0.4627 -0.7282  1.8861
 7078SOL    HW232694   0.802   1.201   8.188  0.1514  0.4898 -0.6335
 7079SOL     OW32695   4.553   2.110   3.836  0.0819 -0.9406  0.2948
 7079SOL    HW132696   4.647   2.099   3.823  0.2238 -0.6634  1.0364
 7079SOL    HW232697   4.561   2.168   3.912  0.0784 -1.3962  0.6436
 7080SOL     OW32698   4.440   2.866   3.157  0.0302 -0.2273 -0.1554
 7080SOL    HW132699   4.459   2.804   3.227 -0.8513 -1.6454 -1.1585
 7080SOL    HW232700   4.370   2.824   3.107  0.6962 -1.0376 -0.4036
 7081SOL     OW32701   0.069   2.430  13.725  0.3413  0.7124  0.2136
 7081SOL    HW132702   0.023   2.468  13.649  0.1061  2.0947  1.0406
 7081SOL    HW232703   0.071   2.338  13.699  0.5022  1.3490 -2.0551
 7082SOL     OW32704   3.699   2.684   0.856 -0.4993  0.3728 -0.0519
 7082SOL    HW132705   3.750   2.617   0.901  0.3508  0.0764 -1.4724
 7082SOL    HW232706   3.709   2.764   0.908  1.5354  1.0159 -1.4378
 7083SOL     OW32707   3.754   4.362   6.856 -0.0796  0.2517 -0.8494
 7083SOL    HW132708   3.803   4.427   6.907  0.0103 -1.4566  1.2275
 7083SOL    HW232709   3.687   4.416   6.814 -1.1949  0.2021  0.8461
 7084SOL     OW32710   1.486   2.743   9.637  0.3838  0.2995 -0.1576
 7084SOL    HW132711   1.507   2.692   9.715 -0.4540  0.7194  0.3359
 7084SOL    HW232712   1.410   2.799   9.650  1.1628  1.5678 -1.0001
 7085SOL     OW32713   3.002   3.072   4.661  0.3527 -0.8650 -0.2860
 7085SOL    HW132714   3.042   2.988   4.683  1.1253 -0.6156 -0.7378
 7085SOL    HW232715   2.908   3.065   4.676 -0.0402  0.1945 -2.2555
 7086SOL     OW32716   4.600   1.140   0.908  0.5486  0.0650 -0.0721
 7086SOL    HW132717   4.544   1.214   0.884 -1.9915 -2.1530 -0.8834
 7086SOL    HW232718   4.546   1.077   0.956 -1.4129  1.4808 -0.3940
 7087SOL     OW32719   2.844   2.378   6.568 -0.5140  0.7323  0.5865
 7087SOL    HW132720   2.934   2.351   6.587  0.2706  0.9414 -2.8197
 7087SOL    HW232721   2.821   2.417   6.652 -0.1004  0.0910  0.9939
 7088SOL     OW32722   1.849   2.380   8.928  0.4333  0.1455  0.2737
 7088SOL    HW132723   1.763   2.422   8.936 -0.5924 -1.6159 -1.4461
 7088SOL    HW232724   1.857   2.374   8.832 -1.5163 -2.1914  0.2589
 7089SOL     OW32725   1.642   3.083   3.185  0.5144 -0.4859  0.1861
 7089SOL    HW132726   1.593   3.163   3.169 -0.5442 -0.7743  1.9570
 7089SOL    HW232727   1.696   3.068   3.107  0.5831 -1.4785  0.4173
 7090SOL     OW32728   3.926   3.561   4.132  0.4138  0.2659  0.3587
 7090SOL    HW132729   3.993   3.608   4.181  0.1859  0.5899  0.3547
 7090SOL    HW232730   3.894   3.618   4.062  1.0468  1.2406  0.8741
 7091SOL     OW32731   4.477   1.724   3.509  0.3529  0.3179  0.4740
 7091SOL    HW132732   4.507   1.658   3.446  0.0878  1.6019 -0.9977
 7091SOL    HW232733   4.404   1.773   3.470  0.1405 -0.4594 -0.1090
 7092SOL     OW32734   0.286   1.771  10.693 -0.2027  0.4038  0.7322
 7092SOL    HW132735   0.353   1.711  10.725 -1.4472 -0.8834  0.9113
 7092SOL    HW232736   0.255   1.808  10.776  0.3357 -0.8188  1.4757
 7093SOL     OW32737   2.168   1.029   8.447 -0.1590 -0.0282 -0.0512
 7093SOL    HW132738   2.154   1.069   8.532  1.7861 -1.3365  0.8698
 7093SOL    HW232739   2.086   1.052   8.404  0.4180  1.7174 -0.2465
 7094SOL     OW32740   1.375   0.848   5.750 -0.2148 -0.2578 -0.7261
 7094SOL    HW132741   1.414   0.830   5.664 -0.2447  1.6695 -1.1353
 7094SOL    HW232742   1.455   0.873   5.796 -0.3277 -1.6188  0.2228
 7095SOL     OW32743   0.915   0.380   0.901 -0.0323 -0.8591  0.0253
 7095SOL    HW132744   0.875   0.293   0.896 -1.5523 -0.0936 -0.9165
 7095SOL    HW232745   0.969   0.391   0.823  1.5858 -0.1572  1.2498
 7096SOL     OW32746   1.116   4.438  10.729 -0.0846 -0.3070  0.0250
 7096SOL    HW132747   1.097   4.388  10.808  1.3118  0.1622  0.6571
 7096SOL    HW232748   1.150   4.519  10.766  0.8678  0.7505 -3.1709
 7097SOL     OW32749   4.311   1.145   4.735  0.5051 -0.1499 -0.1910
 7097SOL    HW132750   4.311   1.186   4.821 -2.5837 -0.8207  0.1135
 7097SOL    HW232751   4.235   1.087   4.738  0.6058 -0.3773 -1.7105
 7098SOL     OW32752   1.398   1.029   9.888 -0.2144 -0.3996 -0.6856
 7098SOL    HW132753   1.427   0.969   9.819 -0.3872 -2.6642  1.2365
 7098SOL    HW232754   1.460   1.002   9.955 -1.7646 -3.5123 -0.5070
 7099SOL     OW32755   0.898   4.295  15.168  0.2768 -0.1079  0.2111
 7099SOL    HW132756   0.878   4.274  15.077 -0.2105  0.2366  0.2332
 7099SOL    HW232757   0.841   4.225  15.201 -2.6262  0.8956 -2.6965
 7100SOL     OW32758   4.103   2.477   2.384  0.5047  0.8305  0.1074
 7100SOL    HW132759   4.160   2.549   2.358 -0.0574  1.6383  1.0791
 7100SOL    HW232760   4.115   2.410   2.317  0.0400 -0.4471  1.2965
 7101SOL     OW32761   0.786   0.980   6.806  0.5549  0.0782 -0.1784
 7101SOL    HW132762   0.835   0.903   6.835  0.7479  0.7019  1.1103
 7101SOL    HW232763   0.710   0.961   6.751 -0.3317  0.9378  0.7632
 7102SOL     OW32764   0.833   3.653   5.260  0.0520  0.6808 -0.5109
 7102SOL    HW132765   0.746   3.633   5.225 -0.2286 -0.4327  0.8219
 7102SOL    HW232766   0.860   3.724   5.201  2.0736  1.6688  1.6189
 7103SOL     OW32767   3.667   2.931   2.147 -0.3915 -0.0663  0.0842
 7103SOL    HW132768   3.678   2.849   2.194  1.4603 -0.8621 -1.7430
 7103SOL    HW232769   3.758   2.947   2.119  0.0274 -1.7136  0.5191
 7104SOL     OW32770   0.214   1.940   7.061  0.1560 -0.7248  0.0636
 7104SOL    HW132771   0.183   1.880   6.992  4.8488 -1.9219 -0.9855
 7104SOL    HW232772   0.130   1.958   7.103 -0.1702  1.2491 -1.3990
 7105SOL     OW32773   0.849   0.510   2.018 -0.2301 -0.4719  0.3244
 7105SOL    HW132774   0.898   0.475   1.944  0.2686 -1.3378  1.0658
 7105SOL    HW232775   0.765   0.511   1.972  0.3645 -0.8786 -0.7617
 7106SOL     OW32776   4.360   4.651   5.852  0.0696  0.0829  0.7646
 7106SOL    HW132777   4.322   0.001   5.900  2.0024  1.4871  0.1661
 7106SOL    HW232778   4.419   4.621   5.922  0.8660 -0.4971 -0.1498
 7107SOL     OW32779   3.755   2.690   2.254 -0.2893 -0.4480  0.2058
 7107SOL    HW132780   3.687   2.639   2.299  0.4400  0.1839  2.0328
 7107SOL    HW232781   3.826   2.692   2.319 -0.7590 -1.0210  0.7304
 7108SOL     OW32782   0.268   2.379   3.461 -0.1649 -0.2790 -0.4817
 7108SOL    HW132783   0.196   2.316   3.459 -0.0371 -0.4574  0.5737
 7108SOL    HW232784   0.263   2.406   3.369  0.6308 -0.2127 -0.5061
 7109SOL     OW32785   2.991   0.707  17.614 -0.1759  0.5040 -0.2684
 7109SOL    HW132786   2.938   0.646  17.562 -1.0578  2.9157 -2.2425
 7109SOL    HW232787   2.978   0.676   0.005  0.1968 -0.3125 -0.4985
 7110SOL     OW32788   1.286   4.028   2.953  0.8146  0.7105  0.5731
 7110SOL    HW132789   1.284   4.096   2.885  0.9838  0.0675 -0.0823
 7110SOL    HW232790   1.270   3.948   2.903 -0.7219  1.1646  0.3205
 7111SOL     OW32791   4.455   4.062   3.902 -0.1335 -0.1497  0.1385
 7111SOL    HW132792   4.512   4.139   3.896 -1.8402  1.0721 -0.3795
 7111SOL    HW232793   4.387   4.098   3.846 -2.1613 -0.6498  2.2427
 7112SOL     OW32794   2.331   4.044   2.147  0.7203 -0.1279  0.2484
 7112SOL    HW132795   2.344   3.958   2.108  1.0864 -0.7466  1.7526
 7112SOL    HW232796   2.423   4.063   2.164  0.6306  0.5279  0.0125
 7113SOL     OW32797   1.492   0.891   5.487  0.3412  0.3474  0.1379
 7113SOL    HW132798   1.475   0.969   5.433 -0.7691  1.1048  1.5623
 7113SOL    HW232799   1.585   0.906   5.501  0.8067 -1.3551 -1.2126
 7114SOL     OW32800   0.587   2.874  11.862  0.0980  0.2418 -0.2697
 7114SOL    HW132801   0.658   2.925  11.902 -0.2349  0.6909 -0.2557
 7114SOL    HW232802   0.592   2.789  11.905 -0.5075  0.4995  0.2997
 7115SOL     OW32803   4.544   2.924   5.473  0.1698  0.6332  0.2484
 7115SOL    HW132804   4.616   2.914   5.410 -1.2390  3.1357 -1.7359
 7115SOL    HW232805   4.493   2.989   5.426  0.8493 -0.8233 -2.4799
 7116SOL     OW32806   0.136   1.809   5.739 -0.0085  0.0215 -0.2073
 7116SOL    HW132807   0.171   1.886   5.695  0.4112  1.2544  2.2644
 7116SOL    HW232808   0.163   1.834   5.828  0.2758 -1.5172  0.1514
 7117SOL     OW32809   0.019   3.388   7.720  0.5072  0.0468  0.0068
 7117SOL    HW132810   4.687   3.403   7.644  0.2508  1.0366  0.3834
 7117SOL    HW232811   0.035   3.294   7.712 -0.7454 -0.2682  1.3235
 7118SOL     OW32812   1.749   2.859   1.754 -0.3791  0.5888  0.1582
 7118SOL    HW132813   1.797   2.778   1.768  0.1190  0.6648 -1.1301
 7118SOL    HW232814   1.806   2.926   1.793 -0.0702  0.9559 -0.9263
 7119SOL     OW32815   2.180   1.819   7.761 -0.5970  0.0257  0.4728
 7119SOL    HW132816   2.125   1.742   7.747  0.6735 -0.7208 -0.4360
 7119SOL    HW232817   2.141   1.885   7.704  1.0497  0.6934  0.1382
 7120SOL     OW32818   2.044   3.761   8.077  0.5321  0.6424 -0.7307
 7120SOL    HW132819   2.135   3.754   8.105  0.5343  1.8057 -0.4355
 7120SOL    HW232820   2.055   3.846   8.034  2.0765 -0.1895 -1.9991
 7121SOL     OW32821   3.488   3.057  17.362  0.1094  0.1935  0.1361
 7121SOL    HW132822   3.405   3.091  17.328  0.6624  2.2985  0.8461
 7121SOL    HW232823   3.485   3.070  17.456  1.2107  0.3414  0.1562
 7122SOL     OW32824   2.776   4.264   3.706 -0.7335 -0.5793 -0.0886
 7122SOL    HW132825   2.854   4.244   3.757 -0.6788  0.2747  0.1510
 7122SOL    HW232826   2.748   4.172   3.697  1.5394 -1.4014  1.3008
 7123SOL     OW32827   2.705   3.299   4.822 -0.2127  0.6975  0.8464
 7123SOL    HW132828   2.694   3.357   4.898  0.3547  1.9912 -0.0616
 7123SOL    HW232829   2.744   3.224   4.868  0.3505  0.0275 -0.7208
 7124SOL     OW32830   4.308   0.173   5.987  0.5899 -0.1602 -0.3060
 7124SOL    HW132831   4.251   0.213   5.921 -0.4158 -4.2142 -1.9013
 7124SOL    HW232832   4.365   0.242   6.019 -2.0159  1.5583  0.6406
 7125SOL     OW32833   2.340   3.537   8.172  0.4391 -0.9784 -0.3688
 7125SOL    HW132834   2.319   3.630   8.186  1.1427 -0.9687  0.6215
 7125SOL    HW232835   2.258   3.514   8.129 -1.1745  2.5956  0.7464
 7126SOL     OW32836   2.515   0.650  17.380 -0.0879 -0.0598 -0.1710
 7126SOL    HW132837   2.542   0.563  17.410 -1.3349 -0.3615  0.1150
 7126SOL    HW232838   2.584   0.671  17.318  1.0510 -1.5034  0.6167
 7127SOL     OW32839   2.644   0.310   2.227  0.5752 -0.1078 -0.3537
 7127SOL    HW132840   2.620   0.317   2.319  0.4108 -1.7323 -0.2747
 7127SOL    HW232841   2.708   0.381   2.221  3.0047 -2.1676  1.0729
 7128SOL     OW32842   3.762   1.012   4.729  0.9970 -0.3993  0.2110
 7128SOL    HW132843   3.781   1.096   4.687  0.7234 -1.3116 -1.7451
 7128SOL    HW232844   3.780   0.949   4.659  0.4581 -0.1047 -0.1917
 7129SOL     OW32845   0.497   3.769   8.041 -0.0376 -0.2400 -0.4977
 7129SOL    HW132846   0.409   3.802   8.020  0.9542  2.6900 -0.0373
 7129SOL    HW232847   0.497   3.695   7.980 -2.8508 -1.8371  1.4379
 7130SOL     OW32848   2.544   2.184  16.977  0.3870 -0.2233  0.0843
 7130SOL    HW132849   2.512   2.133  17.051 -1.5900 -1.7486 -1.7925
 7130SOL    HW232850   2.596   2.117  16.932  0.7151 -0.8988  1.4708
 7131SOL     OW32851   3.616   4.282   7.894  0.1143  0.0197 -0.3422
 7131SOL    HW132852   3.541   4.222   7.892 -1.8979  2.4151  1.9645
 7131SOL    HW232853   3.639   4.270   7.986 -1.2987 -3.3505 -0.4533
 7132SOL     OW32854   1.112   0.024   6.327 -0.1946  0.3341  0.0804
 7132SOL    HW132855   1.121   0.099   6.385 -0.7150  0.6969 -0.3149
 7132SOL    HW232856   1.023   4.715   6.341 -0.0819  0.0376  0.1126
 7133SOL     OW32857   1.083   1.705   7.173  0.4565 -0.3063  0.3317
 7133SOL    HW132858   1.021   1.758   7.223  1.1146  1.7711 -1.0792
 7133SOL    HW232859   1.165   1.729   7.215 -0.1003  1.7884  0.2060
 7134SOL     OW32860   3.450   0.021  16.051  0.0097 -0.8415  0.5713
 7134SOL    HW132861   3.533   4.711  16.018 -0.4930 -1.6431  0.1428
 7134SOL    HW232862   3.393   4.670  16.039  2.1967 -2.1341 -1.6061
 7135SOL     OW32863   1.307   0.546   1.505  0.2244 -0.4962 -0.8456
 7135SOL    HW132864   1.394   0.519   1.533  0.8592  0.2657 -2.0349
 7135SOL    HW232865   1.294   0.486   1.431 -0.9809  0.9021 -1.7934
 7136SOL     OW32866   0.009   4.407   5.557  0.1672  0.3283  0.3652
 7136SOL    HW132867   4.710   4.315   5.545 -1.2939  0.7724 -0.2895
 7136SOL    HW232868   4.659   4.447   5.510  0.3536 -0.3393 -0.5019
 7137SOL     OW32869   1.535   1.190  11.885 -0.5697  0.4559  0.8923
 7137SOL    HW132870   1.517   1.182  11.978  1.3598 -2.8897  0.9809
 7137SOL    HW232871   1.466   1.255  11.872  0.4224  1.7168  1.8713
 7138SOL     OW32872   1.471   3.419   6.153  0.3667 -0.1294  0.3752
 7138SOL    HW132873   1.562   3.390   6.145 -0.1361 -1.6968  0.2584
 7138SOL    HW232874   1.452   3.438   6.061  0.0544  3.5589  1.2148
 7139SOL     OW32875   3.974   1.171   6.571  0.1221  0.1957 -0.1615
 7139SOL    HW132876   3.949   1.122   6.649  1.4028 -0.0201  0.1193
 7139SOL    HW232877   3.895   1.212   6.536 -0.2317 -0.2714  0.0974
 7140SOL     OW32878   2.962   2.024   7.891 -0.0541 -0.2133 -0.0366
 7140SOL    HW132879   2.874   2.061   7.888  0.4028  0.7521 -1.8846
 7140SOL    HW232880   3.019   2.101   7.884  1.6651 -1.6210 -1.3393
 7141SOL     OW32881   3.639   3.487   4.101 -0.4038 -0.0440  0.1300
 7141SOL    HW132882   3.668   3.564   4.052  0.1386 -1.4752 -1.7874
 7141SOL    HW232883   3.647   3.527   4.188  2.2330  1.7190 -0.9328
 7142SOL     OW32884   3.195   4.513  16.195  0.8297  0.1169 -0.3739
 7142SOL    HW132885   3.171   4.558  16.113 -0.5207  0.3768  0.1673
 7142SOL    HW232886   3.230   4.577  16.257  1.7705  0.4609 -1.2710
 7143SOL     OW32887   3.157   0.273  15.194  0.1122 -0.1092 -0.0608
 7143SOL    HW132888   3.244   0.235  15.204 -0.7570 -2.9388 -3.6123
 7143SOL    HW232889   3.103   0.210  15.241  0.1033  0.5497  0.8064
 7144SOL     OW32890   1.612   4.013   8.146 -0.3257 -0.5225  0.3057
 7144SOL    HW132891   1.699   3.985   8.172 -0.4809 -0.4802  0.8626
 7144SOL    HW232892   1.598   4.095   8.192  1.0087  0.4054 -0.9457
 7145SOL     OW32893   1.383   1.879   3.963  0.3165 -0.0754  0.2313
 7145SOL    HW132894   1.424   1.951   3.915  0.3812 -0.6445 -0.5680
 7145SOL    HW232895   1.449   1.859   4.029  0.1468 -3.1167 -0.5285
 7146SOL     OW32896   2.425   0.663   2.128 -0.3551  0.5562  0.1209
 7146SOL    HW132897   2.488   0.688   2.060  0.2690 -0.8516  0.2013
 7146SOL    HW232898   2.364   0.614   2.072  0.0380 -2.0091  1.9637
 7147SOL     OW32899   2.752   2.773   7.660 -0.0972  0.2575  0.0615
 7147SOL    HW132900   2.802   2.743   7.736  0.1108  1.4791  0.4141
 7147SOL    HW232901   2.815   2.838   7.627  1.8317 -2.6685 -1.9674
 7148SOL     OW32902   3.367   2.375   5.237  0.0762  0.2670 -0.2177
 7148SOL    HW132903   3.364   2.432   5.160  0.9636  3.3846  2.0380
 7148SOL    HW232904   3.453   2.397   5.273 -0.5364  0.7417  0.9508
 7149SOL     OW32905   0.615   1.922   4.070  0.1127  0.2963 -0.1753
 7149SOL    HW132906   0.553   1.849   4.068  0.4621 -0.0030  0.0061
 7149SOL    HW232907   0.574   1.979   4.004  1.0492  1.0185 -0.1374
 7150SOL     OW32908   0.308   2.094  11.190  0.8366  0.5465 -0.5020
 7150SOL    HW132909   0.242   2.070  11.255 -1.3824  3.5128 -1.6883
 7150SOL    HW232910   0.331   2.187  11.192 -2.0661  1.2738 -1.2012
 7151SOL     OW32911   3.920   3.494   7.743  0.0011  0.1763  0.1243
 7151SOL    HW132912   3.962   3.421   7.697 -1.1043  0.2484 -0.9905
 7151SOL    HW232913   3.935   3.465   7.834  0.5192 -3.2593 -1.0517
 7152SOL     OW32914   3.242   2.683  10.519  0.8655 -0.0563  0.1237
 7152SOL    HW132915   3.254   2.717  10.430 -0.3698 -0.4724 -0.2092
 7152SOL    HW232916   3.332   2.667  10.545  1.4801  0.9875 -1.3540
 7153SOL     OW32917   1.148   3.790  15.606 -0.0418  0.4276 -0.5466
 7153SOL    HW132918   1.087   3.719  15.585  0.1498 -0.1292  0.7894
 7153SOL    HW232919   1.096   3.865  15.579  0.6868  1.3105  0.5451
 7154SOL     OW32920   2.123   3.001   7.457  0.1293 -0.0293  0.3103
 7154SOL    HW132921   2.216   3.004   7.479  0.0418  2.6870  0.2966
 7154SOL    HW232922   2.087   3.023   7.543  2.6745 -1.2108  1.6811
 7155SOL     OW32923   3.133   3.795  12.795  0.3566 -0.2378  0.0460
 7155SOL    HW132924   3.116   3.881  12.833 -1.0033 -0.1979 -0.6485
 7155SOL    HW232925   3.075   3.791  12.719  0.3830  0.9413 -0.0423
 7156SOL     OW32926   4.145   2.600   1.441  0.0856  0.0150  0.4367
 7156SOL    HW132927   4.240   2.604   1.444  0.1367 -1.1677  0.4277
 7156SOL    HW232928   4.128   2.667   1.508 -1.3523 -1.0894  1.1800
 7157SOL     OW32929   3.873   0.133   5.975 -0.2027  0.4728 -0.0688
 7157SOL    HW132930   3.861   0.153   5.882 -0.1723  1.2468  0.0923
 7157SOL    HW232931   3.787   0.121   6.016 -0.6585  0.7288 -0.9336
 7158SOL     OW32932   0.618   2.543   6.897 -0.0115  0.0941  0.5780
 7158SOL    HW132933   0.588   2.552   6.987  0.5493  1.1183  0.6636
 7158SOL    HW232934   0.697   2.491   6.908  0.2188  0.4756  0.7368
 7159SOL     OW32935   0.389   1.744   9.878 -0.5247 -0.0695  0.5130
 7159SOL    HW132936   0.415   1.654   9.860 -0.2438 -0.4110  2.6242
 7159SOL    HW232937   0.430   1.764   9.963 -0.8775  2.7118  0.0493
 7160SOL     OW32938   1.055   2.954   7.211  0.2592 -0.1833  0.3403
 7160SOL    HW132939   0.991   3.023   7.192 -0.0932  0.1419  2.6671
 7160SOL    HW232940   1.012   2.877   7.174 -0.7318  1.4677 -1.9145
 7161SOL     OW32941   3.045   1.556   7.409 -0.5741  0.4933 -0.0603
 7161SOL    HW132942   3.039   1.461   7.398  3.2783  0.3196 -0.5261
 7161SOL    HW232943   2.952   1.578   7.412 -0.5761  0.6580 -1.2376
 7162SOL     OW32944   1.434   3.668   4.702 -0.0060  0.2086 -0.0489
 7162SOL    HW132945   1.343   3.695   4.710 -1.1083 -3.2914 -0.7975
 7162SOL    HW232946   1.428   3.665   4.607 -0.5892 -2.1784  0.0821
 7163SOL     OW32947   3.942   4.433  12.027  0.6590  0.0212 -0.1767
 7163SOL    HW132948   4.031   4.460  12.004  1.4689 -2.3622  0.1712
 7163SOL    HW232949   3.937   4.471  12.115  0.1981  1.5340 -0.8477
 7164SOL     OW32950   0.304   3.032   9.795  0.5425 -0.0541  0.2412
 7164SOL    HW132951   0.378   2.997   9.846  1.1234 -0.4249 -0.8476
 7164SOL    HW232952   0.355   3.091   9.740  0.0765  0.6695  0.5811
 7165SOL     OW32953   3.973   3.017   6.303 -0.0868  0.1008 -0.2250
 7165SOL    HW132954   3.981   2.928   6.336 -2.3614  1.1770  3.1897
 7165SOL    HW232955   4.062   3.047   6.320 -0.2381  0.5828 -0.2797
 7166SOL     OW32956   2.372   4.598   8.022 -0.5423  0.4743 -0.0908
 7166SOL    HW132957   2.440   4.659   7.994 -1.0361  1.7871  1.5792
 7166SOL    HW232958   2.375   4.527   7.957 -0.0791  1.5292 -1.2025
 7167SOL     OW32959   4.723   0.503   7.612  0.4205  0.1176 -0.7496
 7167SOL    HW132960   4.705   0.432   7.551  0.9832  0.2736 -1.0964
 7167SOL    HW232961   0.047   0.454   7.678 -2.5920  0.3755  1.6350
 7168SOL     OW32962   4.087   2.935   8.838  0.0606 -0.4240 -0.0567
 7168SOL    HW132963   4.041   2.854   8.862 -0.8044 -0.1747 -0.8787
 7168SOL    HW232964   4.145   2.947   8.913  0.6886  0.2204 -0.6420
 7169SOL     OW32965   3.024   1.289   7.559 -0.1045  0.6310  0.0416
 7169SOL    HW132966   2.981   1.324   7.637 -0.3077 -0.2775  0.3342
 7169SOL    HW232967   3.065   1.211   7.598 -0.4896  0.4348  0.0455
 7170SOL     OW32968   2.582   4.394   6.793 -0.3421 -0.4846  0.1622
 7170SOL    HW132969   2.514   4.399   6.726 -2.1249  0.9906  2.0515
 7170SOL    HW232970   2.584   4.301   6.816  0.1351 -1.0094 -2.0642
 7171SOL     OW32971   3.695   1.065   6.628 -0.1109 -0.2719  0.1036
 7171SOL    HW132972   3.758   1.048   6.698 -0.5737 -1.0264  0.3256
 7171SOL    HW232973   3.629   1.130   6.656  0.2309  0.2596 -0.3278
 7172SOL     OW32974   3.139   0.601   7.178  0.0780 -0.1311  0.0736
 7172SOL    HW132975   3.105   0.673   7.233 -1.0436 -1.8221  1.6167
 7172SOL    HW232976   3.130   0.531   7.242 -1.0560 -1.5164 -1.6018
 7173SOL     OW32977   3.797   3.263   3.787 -0.0003  0.4643 -0.2825
 7173SOL    HW132978   3.759   3.207   3.719  0.2983 -0.8842  0.6638
 7173SOL    HW232979   3.751   3.344   3.765 -1.3726 -0.2530 -0.0554
 7174SOL     OW32980   1.778   0.808   4.671  0.2552 -0.5634  0.7724
 7174SOL    HW132981   1.769   0.897   4.705 -0.7668 -0.0436 -0.8253
 7174SOL    HW232982   1.712   0.763   4.724  1.7622 -1.4104  1.9162
 7175SOL     OW32983   3.271   1.077   3.172  0.7404  0.1654 -0.3123
 7175SOL    HW132984   3.310   1.068   3.258 -2.3749  0.8128  1.1738
 7175SOL    HW232985   3.317   1.153   3.136  1.0073 -0.4861 -1.3536
 7176SOL     OW32986   1.707   2.562  16.805 -0.0415  0.0087 -0.1321
 7176SOL    HW132987   1.660   2.632  16.761 -0.9634  0.3057  1.3638
 7176SOL    HW232988   1.777   2.544  16.741  1.8186  0.7488  1.7217
 7177SOL     OW32989   4.677   3.285   4.374 -0.2677  1.1151  0.0547
 7177SOL    HW132990   4.629   3.206   4.349  0.6814  0.7026 -0.4650
 7177SOL    HW232991   4.637   3.306   4.459 -1.5847  2.5538 -0.9253
 7178SOL     OW32992   0.998   4.476   4.677  0.0723 -0.0313  0.3529
 7178SOL    HW132993   0.984   4.551   4.618 -1.4722 -0.6468 -0.0636
 7178SOL    HW232994   1.078   4.499   4.724 -0.2971 -0.4488  1.1805
 7179SOL     OW32995   0.387   0.111  17.476  0.0416 -0.5514  0.4495
 7179SOL    HW132996   0.356   0.127  17.565  0.2745  0.4804  0.3410
 7179SOL    HW232997   0.382   0.016  17.462  2.0169 -0.9447  2.4658
 7180SOL     OW32998   0.245   3.096   4.326  0.2648  0.0428 -0.1276
 7180SOL    HW132999   0.224   3.179   4.284  0.7032  0.6711  0.9047
 7180SOL    HW233000   0.198   3.031   4.273  2.1159 -1.1543 -0.2928
 7181SOL     OW33001   3.675   0.446   3.778 -0.3184  0.6914 -0.1576
 7181SOL    HW133002   3.654   0.362   3.737 -1.2517 -0.0376  1.8047
 7181SOL    HW233003   3.589   0.488   3.789  0.8009  2.8965  0.0723
 7182SOL     OW33004   1.981   1.112  15.558 -0.5845 -0.6039  0.4807
 7182SOL    HW133005   2.004   1.157  15.476 -0.0172 -1.0482  0.3933
 7182SOL    HW233006   1.972   1.184  15.621 -1.0636 -0.8125  0.6502
 7183SOL     OW33007   2.164   2.653   5.172 -0.1114  0.2076  0.5642
 7183SOL    HW133008   2.222   2.725   5.196  1.3249 -0.4647 -0.8988
 7183SOL    HW233009   2.221   2.577   5.165  0.1743  0.5814 -1.2214
 7184SOL     OW33010   1.693   4.488  17.621  0.0946  0.2917  0.3954
 7184SOL    HW133011   1.609   4.498  17.577  0.8961 -1.6240 -1.6089
 7184SOL    HW233012   1.682   4.410  17.675  0.0433 -0.3685 -0.5668
 7185SOL     OW33013   2.379   1.331  16.744 -0.3732 -0.1557 -0.8177
 7185SOL    HW133014   2.449   1.354  16.683 -0.1319  1.3345  0.0274
 7185SOL    HW233015   2.416   1.246  16.766 -2.5623 -0.7934  0.3986
 7186SOL     OW33016   4.160   1.638  16.834  0.7176 -0.2424 -0.0821
 7186SOL    HW133017   4.213   1.590  16.769  0.3262  1.2313 -1.4913
 7186SOL    HW233018   4.107   1.563  16.861  1.0585 -1.3967 -2.6000
 7187SOL     OW33019   3.551   2.706   4.302 -0.1583 -0.4068 -0.1315
 7187SOL    HW133020   3.611   2.741   4.367  0.9351 -0.8577 -0.8995
 7187SOL    HW233021   3.598   2.623   4.293  0.2046 -0.1707 -0.4267
 7188SOL     OW33022   0.759   2.431   5.723 -0.6948 -0.1357 -0.1995
 7188SOL    HW133023   0.693   2.469   5.780 -0.8249 -0.8386  0.1152
 7188SOL    HW233024   0.786   2.501   5.664 -0.4053  0.1686  0.2997
 7189SOL     OW33025   2.778   3.377  16.970 -0.0910 -0.0616 -0.5992
 7189SOL    HW133026   2.730   3.295  16.958  0.6032 -0.6438  0.5770
 7189SOL    HW233027   2.859   3.342  17.006 -1.4979 -0.3821  2.2783
 7190SOL     OW33028   0.429   3.713   8.364 -0.4847 -0.0043  0.8387
 7190SOL    HW133029   0.394   3.751   8.445 -2.1382  1.4230 -0.5669
 7190SOL    HW233030   0.516   3.754   8.364  0.4645 -2.0311  1.8825
 7191SOL     OW33031   1.309   3.090   2.314 -0.0979  0.5751 -0.1432
 7191SOL    HW133032   1.283   3.081   2.222  2.8900 -0.1001 -0.9398
 7191SOL    HW233033   1.282   3.002   2.342 -0.8270  0.6741 -0.5512
 7192SOL     OW33034   1.962   0.148  10.144  0.5216  0.4963 -0.0701
 7192SOL    HW133035   1.891   0.115  10.199 -0.4628 -0.4007 -1.9027
 7192SOL    HW233036   1.991   0.220  10.201  1.1132  1.0543 -1.0883
 7193SOL     OW33037   0.263   4.554   4.049  0.1756 -0.1384  0.2112
 7193SOL    HW133038   0.356   4.572   4.034  0.1938 -0.5424 -0.1576
 7193SOL    HW233039   0.229   4.592   3.968 -0.4952 -0.0748  0.5229
 7194SOL     OW33040   3.102   1.565   4.716 -0.5777  1.1349  0.3798
 7194SOL    HW133041   3.073   1.493   4.660 -1.5594  1.5561  0.3364
 7194SOL    HW233042   3.052   1.634   4.673  0.8048  1.2711 -0.9922
 7195SOL     OW33043   1.992   0.710  12.012  0.1763  0.5063  0.1507
 7195SOL    HW133044   1.899   0.720  11.992 -0.5794 -1.7385  2.5959
 7195SOL    HW233045   2.019   0.672  11.928  1.0474  1.2808  0.0773
 7196SOL     OW33046   0.606   3.277   4.192  0.2097 -0.2857 -0.0637
 7196SOL    HW133047   0.685   3.248   4.239 -0.7203 -3.2151 -0.2723
 7196SOL    HW233048   0.649   3.308   4.112 -1.8618  0.8575 -0.7331
 7197SOL     OW33049   1.922   4.034   5.679 -0.0472  0.4760  0.0663
 7197SOL    HW133050   1.914   4.049   5.584  0.0356 -2.1427 -0.3701
 7197SOL    HW233051   1.829   4.035   5.700 -0.5400 -0.5431 -2.0015
 7198SOL     OW33052   3.555   1.686   7.156  0.2551 -0.1630 -0.9742
 7198SOL    HW133053   3.519   1.774   7.169 -0.5121 -0.2016 -2.9259
 7198SOL    HW233054   3.638   1.703   7.203 -1.1546 -0.2506  1.5763
 7199SOL     OW33055   3.133   2.147   3.853 -0.2690  0.0087 -0.2018
 7199SOL    HW133056   3.194   2.153   3.927  1.3450  0.6077 -1.5866
 7199SOL    HW233057   3.167   2.208   3.789 -0.4427  0.0617 -0.2448
 7200SOL     OW33058   2.733   2.239   3.067 -0.2955  0.0309  0.5332
 7200SOL    HW133059   2.657   2.192   3.033 -0.0882  0.5880 -0.6970
 7200SOL    HW233060   2.754   2.181   3.141  0.5571  1.1308  1.1476
 7201SOL     OW33061   3.060   1.310   5.522 -0.1145 -0.1107 -0.0577
 7201SOL    HW133062   3.003   1.272   5.589  1.4797 -1.1051  0.7353
 7201SOL    HW233063   3.128   1.243   5.520  1.5977  1.6189  0.1949
 7202SOL     OW33064   4.585   3.566   7.905  0.0900 -0.1987 -0.2064
 7202SOL    HW133065   4.628   3.539   7.986  2.1291  0.3267 -1.0959
 7202SOL    HW233066   4.622   3.502   7.843  1.4318  1.3301 -0.9936
 7203SOL     OW33067   0.868   1.475   1.897  0.5983 -0.3728  0.2396
 7203SOL    HW133068   0.844   1.418   1.970 -2.7911 -1.1418 -1.5035
 7203SOL    HW233069   0.828   1.431   1.822  1.0721 -0.8099  0.2397
 7204SOL     OW33070   3.323   0.250  11.016 -0.1339 -0.1658  0.5604
 7204SOL    HW133071   3.314   0.205  10.932  1.4713  1.8111 -0.6743
 7204SOL    HW233072   3.263   0.324  11.005 -0.0812 -0.3112 -0.7454
 7205SOL     OW33073   2.330   2.311   6.934 -0.3626  0.8812  0.5393
 7205SOL    HW133074   2.371   2.364   7.003 -0.6725  1.3268  0.3823
 7205SOL    HW233075   2.247   2.356   6.919  0.5238  2.8414  1.4129
 7206SOL     OW33076   2.344   1.362   3.786  0.2406 -0.7945  0.0159
 7206SOL    HW133077   2.411   1.340   3.851  1.9068  1.5541 -0.9421
 7206SOL    HW233078   2.323   1.273   3.757 -0.7721 -0.5154 -0.1069
 7207SOL     OW33079   0.336   2.004   4.849  0.1488 -0.3768  0.1185
 7207SOL    HW133080   0.294   1.973   4.929  2.7257 -0.5731  1.4190
 7207SOL    HW233081   0.330   2.099   4.851 -0.4391 -0.3715 -2.8110
 7208SOL     OW33082   1.699   0.430   3.531 -0.0142  0.3767  0.1953
 7208SOL    HW133083   1.626   0.433   3.593 -1.0609 -2.5451 -0.9168
 7208SOL    HW233084   1.664   0.382   3.456  0.0082 -0.0532  0.4577
 7209SOL     OW33085   1.190   4.569   4.869 -0.2117  0.0048  0.5539
 7209SOL    HW133086   1.236   4.653   4.877 -0.8035  0.2204  1.6980
 7209SOL    HW233087   1.229   4.512   4.935  0.4100 -0.1758  0.0325
 7210SOL     OW33088   4.453   3.489  11.663 -0.4379  0.3875  0.5015
 7210SOL    HW133089   4.366   3.450  11.673 -0.7909  0.6513 -1.5777
 7210SOL    HW233090   4.483   3.463  11.576  0.1648 -0.1475  0.8686
 7211SOL     OW33091   3.187   0.397  16.767 -0.0588  0.1143 -0.2917
 7211SOL    HW133092   3.199   0.453  16.690  0.3260  1.0222  0.4250
 7211SOL    HW233093   3.270   0.349  16.775 -0.6538 -0.4415  2.5701
 7212SOL     OW33094   3.405   1.987   2.783 -0.1181  0.3625  0.4145
 7212SOL    HW133095   3.390   2.079   2.759  0.8554  0.2491 -0.6421
 7212SOL    HW233096   3.323   1.939   2.793  0.1667 -0.5320 -1.4298
 7213SOL     OW33097   1.812   3.285   7.482  0.0641 -0.7095  0.8886
 7213SOL    HW133098   1.884   3.295   7.419  0.6043  1.2392  1.8352
 7213SOL    HW233099   1.782   3.201   7.448 -2.3356  0.7749 -0.6252
 7214SOL     OW33100   2.099   2.974   5.778  0.0616 -0.2442 -0.4221
 7214SOL    HW133101   2.140   3.060   5.765 -1.7802  0.6484 -0.3741
 7214SOL    HW233102   2.156   2.916   5.730  0.4490  0.1683 -0.4634
 7215SOL     OW33103   2.169   2.073  16.326  0.7310  0.4106 -0.1780
 7215SOL    HW133104   2.084   2.106  16.297  1.1183  2.7864  1.3365
 7215SOL    HW233105   2.152   2.077  16.420  0.8840  1.2874 -0.1855
 7216SOL     OW33106   1.513   2.390   7.795 -0.0584 -0.1158  0.2778
 7216SOL    HW133107   1.484   2.413   7.707 -2.0559  1.4262  1.3321
 7216SOL    HW233108   1.441   2.420   7.850 -0.5862 -0.3131 -0.3136
 7217SOL     OW33109   1.133   3.614   9.502  0.0199  0.4101 -0.4156
 7217SOL    HW133110   1.167   3.668   9.431  2.3207  1.4420  1.4595
 7217SOL    HW233111   1.077   3.548   9.461 -1.3230 -0.2992  2.5615
 7218SOL     OW33112   1.740   3.107   9.944  0.4167  0.5773 -0.3818
 7218SOL    HW133113   1.712   3.197   9.965  0.2157  0.1247  1.2885
 7218SOL    HW233114   1.662   3.054   9.959  0.1107  1.0497 -0.2981
 7219SOL     OW33115   0.297   3.296   2.785 -1.4146 -0.1167 -0.1883
 7219SOL    HW133116   0.333   3.224   2.734  0.0118  0.9697 -0.7220
 7219SOL    HW233117   0.230   3.249   2.834 -1.8053 -0.7835 -1.3647
 7220SOL     OW33118   1.311   0.508  11.788 -0.9996  0.1695  0.0203
 7220SOL    HW133119   1.342   0.533  11.701  2.1915 -3.3879  0.1540
 7220SOL    HW233120   1.231   0.559  11.804  0.0528  1.5996  0.6535
 7221SOL     OW33121   0.396   2.335  10.006 -0.0823  0.1769 -0.5224
 7221SOL    HW133122   0.470   2.392   9.986  2.1907 -2.6775 -0.0726
 7221SOL    HW233123   0.319   2.386   9.979  0.0625 -0.1997 -1.6357
 7222SOL     OW33124   2.750   3.450   8.463  0.0630  0.0279  0.0847
 7222SOL    HW133125   2.840   3.418   8.467  0.1187  0.1681 -0.0912
 7222SOL    HW233126   2.721   3.412   8.380  0.1543  0.3754 -0.1032
 7223SOL     OW33127   0.796   4.079   6.619 -0.1865  0.4722  0.1620
 7223SOL    HW133128   0.706   4.054   6.641 -0.7089  2.0992 -0.0786
 7223SOL    HW233129   0.787   4.175   6.619  0.1180  0.4994  0.1410
 7224SOL     OW33130   3.875   2.953   6.575  0.0420  0.6999  0.1977
 7224SOL    HW133131   3.826   2.979   6.497 -2.1934  0.7316  1.5862
 7224SOL    HW233132   3.874   3.038   6.620  2.1558  1.0583 -0.4708
 7225SOL     OW33133   4.268   0.920   7.281  0.1740  0.0053  0.1824
 7225SOL    HW133134   4.224   0.985   7.227 -1.0566  0.6465  1.9622
 7225SOL    HW233135   4.331   0.885   7.218  2.4434  0.8670  1.9741
 7226SOL     OW33136   1.674   3.585   3.565 -0.3050 -0.0463  0.4099
 7226SOL    HW133137   1.638   3.539   3.489  2.3070  0.8790 -1.4017
 7226SOL    HW233138   1.587   3.618   3.589 -0.5551 -1.2319  1.1235
 7227SOL     OW33139   2.938   3.384   5.942 -0.4459 -0.4071 -0.6343
 7227SOL    HW133140   2.886   3.317   5.899 -1.0711  0.5025 -1.3045
 7227SOL    HW233141   2.896   3.393   6.028  0.9053  1.3049 -0.1542
 7228SOL     OW33142   3.493   1.845   7.656 -0.0911 -0.3098  0.0451
 7228SOL    HW133143   3.456   1.933   7.667  0.1003 -0.1032 -1.0005
 7228SOL    HW233144   3.536   1.858   7.572 -1.0212  1.3834 -0.1761
 7229SOL     OW33145   1.962   1.100   8.304  0.4033  0.1406 -0.0249
 7229SOL    HW133146   1.919   1.077   8.221 -0.8909  0.4012  0.5769
 7229SOL    HW233147   1.888   1.074   8.359  0.5042 -0.7027 -0.2837
 7230SOL     OW33148   1.403   4.713  16.824 -0.6416 -0.3344 -0.0318
 7230SOL    HW133149   1.377   4.631  16.865  0.6462 -2.0195 -2.5707
 7230SOL    HW233150   1.334   0.052  16.843 -0.1701 -0.3755  1.7775
 7231SOL     OW33151   3.150   4.092  11.252  0.0465  0.2281  0.9872
 7231SOL    HW133152   3.241   4.079  11.279  0.1559 -2.1306 -0.5912
 7231SOL    HW233153   3.138   4.185  11.273 -1.4640  1.1262 -3.9495
 7232SOL     OW33154   3.631   1.620   3.833  0.2133  0.6897  0.4605
 7232SOL    HW133155   3.645   1.714   3.836 -1.3955  1.0115 -2.8353
 7232SOL    HW233156   3.715   1.580   3.857 -0.4390 -2.2029 -2.0355
 7233SOL     OW33157   4.089   0.328  13.997 -0.1566  0.5006 -0.0315
 7233SOL    HW133158   4.096   0.424  13.989  1.9053  0.2347 -1.2911
 7233SOL    HW233159   4.032   0.313  13.921 -0.8203  0.8437  0.4011
 7234SOL     OW33160   1.479   4.247   2.669 -0.0078  0.5409  0.4965
 7234SOL    HW133161   1.431   4.165   2.657 -1.5735  1.2638  1.6826
 7234SOL    HW233162   1.443   4.307   2.603  0.7029 -0.5786 -0.9028
 7235SOL     OW33163   1.491   3.570   8.291 -0.5840  0.6167 -0.0744
 7235SOL    HW133164   1.556   3.604   8.230 -0.5940  4.0881  1.8580
 7235SOL    HW233165   1.506   3.475   8.294 -2.3244  0.3357 -0.2560
 7236SOL     OW33166   3.569   2.166   5.520  0.0345 -0.7149 -0.0746
 7236SOL    HW133167   3.506   2.099   5.495 -1.4747  0.3955  0.7149
 7236SOL    HW233168   3.600   2.199   5.436 -0.0744 -0.9126 -0.1925
 7237SOL     OW33169   0.841   0.545  12.310 -0.2869 -0.2537 -0.0828
 7237SOL    HW133170   0.782   0.488  12.260 -1.1470 -0.2248  0.8821
 7237SOL    HW233171   0.868   0.479  12.374 -0.7673  0.5285  0.9261
 7238SOL     OW33172   3.377   1.673  15.150 -0.0607 -1.3356 -0.3355
 7238SOL    HW133173   3.374   1.768  15.154 -0.6024 -1.3647  0.0341
 7238SOL    HW233174   3.294   1.654  15.105  0.1677 -1.7775 -0.5658
 7239SOL     OW33175   2.732   3.917   2.430 -0.2753 -0.3851  0.0968
 7239SOL    HW133176   2.755   3.942   2.519 -2.0994 -0.2120  0.5256
 7239SOL    HW233177   2.636   3.912   2.432 -0.3030 -0.8652 -2.6224
 7240SOL     OW33178   4.056   1.663   8.418  0.0371  0.4371  0.2460
 7240SOL    HW133179   3.981   1.660   8.358  0.2476  0.4444 -0.0147
 7240SOL    HW233180   4.029   1.651   8.509  0.6152  0.5606  0.4291
 7241SOL     OW33181   3.648   0.401   8.594 -0.0458 -0.2319  0.7411
 7241SOL    HW133182   3.561   0.366   8.613 -0.6290  0.7929 -0.0137
 7241SOL    HW233183   3.654   0.436   8.683  1.6026 -0.9676  0.9140
 7242SOL     OW33184   3.011   4.209   6.233 -0.1751 -0.4639  0.3264
 7242SOL    HW133185   3.002   4.119   6.203  1.1724 -0.3995 -0.2239
 7242SOL    HW233186   2.984   4.186   6.323  0.9114 -0.4089  0.6574
 7243SOL     OW33187   4.605   3.302   9.924  0.3916 -0.4308 -0.4338
 7243SOL    HW133188   4.573   3.324   9.837 -1.8319  0.0907  0.5235
 7243SOL    HW233189   4.692   3.267   9.904  0.3109 -1.0849  0.3645
 7244SOL     OW33190   1.639   4.555  16.959 -0.5925  0.1709  0.3224
 7244SOL    HW133191   1.609   4.508  16.881  1.0517  0.3953 -0.4411
 7244SOL    HW233192   1.733   4.539  16.965 -0.9613 -2.6065 -1.1442
 7245SOL     OW33193   4.599   3.878   4.650 -0.3454 -0.2653 -0.0115
 7245SOL    HW133194   4.584   3.914   4.562 -1.4645 -1.2298 -0.2146
 7245SOL    HW233195   4.561   3.791   4.636 -0.4656  0.0513 -1.6647
 7246SOL     OW33196   1.132   2.245   9.002 -0.3900  0.4248  0.0362
 7246SOL    HW133197   1.159   2.177   9.063  0.7216  0.6437 -0.1979
 7246SOL    HW233198   1.071   2.285   9.064 -2.5180 -0.2565 -1.6077
 7247SOL     OW33199   2.560   1.611  16.467 -0.3145  0.2519  0.4590
 7247SOL    HW133200   2.572   1.524  16.506  0.2333 -0.2632 -0.8708
 7247SOL    HW233201   2.610   1.661  16.532  0.4054  1.5665 -1.1158
 7248SOL     OW33202   3.844   0.877   7.350  0.1395  0.2169 -0.2447
 7248SOL    HW133203   3.830   0.786   7.376  2.0579  0.1855  0.7187
 7248SOL    HW233204   3.923   0.902   7.398 -0.3683 -1.1348  1.3138
 7249SOL     OW33205   3.555   3.728   3.577 -0.0335 -0.2407  0.0750
 7249SOL    HW133206   3.532   3.677   3.500 -0.4796  0.2124 -0.0916
 7249SOL    HW233207   3.636   3.774   3.556  0.4348 -0.5572  1.1806
 7250SOL     OW33208   1.759   0.177   6.202  0.4868  0.1855  0.0024
 7250SOL    HW133209   1.681   0.195   6.149  0.2509  2.4020  1.0824
 7250SOL    HW233210   1.775   0.270   6.218  2.0871 -0.4315  1.9008
 7251SOL     OW33211   1.521   4.245  10.031  0.5037  0.5005  0.4857
 7251SOL    HW133212   1.601   4.251   9.980 -0.5699  0.0266 -1.2352
 7251SOL    HW233213   1.543   4.283  10.116 -0.9233  0.2146  0.9912
 7252SOL     OW33214   2.310   1.613   5.121  0.4850  0.8302  0.3166
 7252SOL    HW133215   2.225   1.597   5.161 -0.2893  0.5981 -1.3871
 7252SOL    HW233216   2.351   1.659   5.194  3.5610  1.7557 -1.9803
 7253SOL     OW33217   0.546   3.827   1.731 -0.0195 -0.2315  0.1901
 7253SOL    HW133218   0.535   3.747   1.680  0.3915 -1.8552  2.6565
 7253SOL    HW233219   0.460   3.828   1.773 -0.3492 -2.7125 -0.4480
 7254SOL     OW33220   2.152   2.230   8.329 -0.0279  0.5149 -0.1222
 7254SOL    HW133221   2.064   2.255   8.303 -0.8495 -1.1874  1.0283
 7254SOL    HW233222   2.148   2.134   8.326 -0.6121  0.5574 -0.6668
 7255SOL     OW33223   2.028   3.342  17.025  0.5855  0.0675  0.4077
 7255SOL    HW133224   1.974   3.286  16.970  0.7643  0.7039 -0.4059
 7255SOL    HW233225   2.083   3.277  17.070  0.2179 -0.7972 -0.3937
 7256SOL     OW33226   2.802   4.043   7.873  0.2307  0.0303  0.2145
 7256SOL    HW133227   2.777   3.957   7.840 -0.7126  0.8629 -1.2385
 7256SOL    HW233228   2.768   4.046   7.962  1.2235  0.3322  0.5896
 7257SOL     OW33229   0.646   0.524   4.408  0.5268 -0.2869  0.2362
 7257SOL    HW133230   0.710   0.593   4.425 -0.6789  0.6094  1.1779
 7257SOL    HW233231   0.640   0.502   4.315  0.2943 -0.3109  0.2567
 7258SOL     OW33232   4.076   0.072  12.436 -0.3536  0.1858  0.7420
 7258SOL    HW133233   4.044   0.149  12.389  0.6682  1.1548  1.6327
 7258SOL    HW233234   4.042   4.717  12.395 -0.5092  1.5512 -1.8180
 7259SOL     OW33235   4.581   1.901  11.387 -0.3744  0.7794  0.6554
 7259SOL    HW133236   4.545   1.943  11.309  0.6359  1.4635  0.5541
 7259SOL    HW233237   4.513   1.931  11.448  0.5570  1.6411  1.2596
 7260SOL     OW33238   3.562   0.553   5.042  0.1510  0.3518  0.6428
 7260SOL    HW133239   3.537   0.462   5.023  6.1301 -1.2173  0.4482
 7260SOL    HW233240   3.572   0.586   4.953 -3.7339  0.6983  0.3039
 7261SOL     OW33241   3.792   2.825   1.802 -0.1837  0.5295 -0.0913
 7261SOL    HW133242   3.807   2.842   1.709  0.0305  0.9271  0.0170
 7261SOL    HW233243   3.885   2.835   1.823 -0.6379  0.5701  1.9701
 7262SOL     OW33244   3.380   1.165   4.300 -0.1978  0.1035  0.2348
 7262SOL    HW133245   3.352   1.256   4.311 -0.3236  0.0877  0.0393
 7262SOL    HW233246   3.369   1.158   4.205  0.8924  0.5085  0.0697
 7263SOL     OW33247   0.797   3.930  16.569 -0.2521  0.2582  0.0112
 7263SOL    HW133248   0.780   3.975  16.486 -1.6569 -1.7499 -0.7852
 7263SOL    HW233249   0.720   3.950  16.622  0.6742  3.2721  0.2495
 7264SOL     OW33250   1.757   1.787   7.346  0.2958 -0.6469 -0.1564
 7264SOL    HW133251   1.796   1.857   7.294 -0.4850 -1.1382 -1.4061
 7264SOL    HW233252   1.739   1.716   7.284 -1.4445 -0.8011  0.5325
 7265SOL     OW33253   2.000   4.617  10.057 -0.4148  0.6359 -0.7238
 7265SOL    HW133254   1.960   4.701  10.035 -0.6297 -0.1113 -3.1577
 7265SOL    HW233255   2.083   4.644  10.095 -0.9062  2.7603 -1.1328
 7266SOL     OW33256   1.495   0.285   7.088  0.4146  0.6585  0.2435
 7266SOL    HW133257   1.444   0.320   7.015  2.1240  1.3981 -0.5917
 7266SOL    HW233258   1.577   0.256   7.047  0.4841  2.2566 -0.7463
 7267SOL     OW33259   4.306   2.697   7.271 -0.2990  0.0062  0.3887
 7267SOL    HW133260   4.302   2.788   7.240  0.9919 -0.0845 -0.0565
 7267SOL    HW233261   4.354   2.698   7.354 -0.6665  1.8890  0.5680
 7268SOL     OW33262   4.508   4.608   8.758 -0.6373  0.1883 -0.3913
 7268SOL    HW133263   4.479   4.554   8.684 -0.3233  0.1134 -0.4605
 7268SOL    HW233264   4.442   4.677   8.763  0.6326  1.2547  1.5955
 7269SOL     OW33265   2.773   4.160  10.488 -0.0554 -0.4158 -0.1792
 7269SOL    HW133266   2.721   4.081  10.498 -1.9078  0.5123 -2.3859
 7269SOL    HW233267   2.824   4.162  10.569 -0.9793 -3.2072  0.4679
 7270SOL     OW33268   3.627   0.161   2.033  0.2007  0.8810 -0.4216
 7270SOL    HW133269   3.707   0.166   2.085 -1.2583 -0.2634  1.9310
 7270SOL    HW233270   3.652   0.233   1.976  0.1255  1.7172  0.6042
 7271SOL     OW33271   0.283   3.494   5.675 -0.7294 -0.6921  0.3596
 7271SOL    HW133272   0.254   3.436   5.605 -1.9165 -2.1282  2.0392
 7271SOL    HW233273   0.244   3.571   5.633 -1.1941 -0.9104  0.3862
 7272SOL     OW33274   0.588   1.188  16.891 -0.0897 -0.1625  0.2457
 7272SOL    HW133275   0.537   1.126  16.943 -0.9942 -0.2064 -0.6744
 7272SOL    HW233276   0.674   1.149  16.878 -0.1534 -0.2946  0.2128
 7273SOL     OW33277   3.873   3.777  17.266 -0.4610 -0.4149  0.3085
 7273SOL    HW133278   3.803   3.780  17.201 -1.8445  0.2897  1.8607
 7273SOL    HW233279   3.946   3.819  17.220 -0.3633 -1.0034 -0.0791
 7274SOL     OW33280   3.725   4.469   6.219  0.1087  0.4275  0.2128
 7274SOL    HW133281   3.711   4.428   6.133 -0.1623  0.7704  0.0932
 7274SOL    HW233282   3.633   4.471   6.245  0.0145  1.1149 -0.1630
 7275SOL     OW33283   1.733   0.119  17.376  0.2062 -1.3607 -0.1714
 7275SOL    HW133284   1.723   0.055  17.306  0.2906  1.7013 -2.9819
 7275SOL    HW233285   1.676   0.193  17.353 -0.7697 -1.3284  2.3297
 7276SOL     OW33286   4.172   3.801  13.698  0.1306 -0.6573  0.5428
 7276SOL    HW133287   4.120   3.790  13.777  1.4767  0.1161  1.5382
 7276SOL    HW233288   4.227   3.723  13.693  0.1086 -0.5937 -0.8173
 7277SOL     OW33289   0.543   1.947   3.770 -0.3321  0.5499  0.2711
 7277SOL    HW133290   0.517   2.038   3.782 -0.5940  0.1376  2.7830
 7277SOL    HW233291   0.471   1.895   3.807  0.7089  1.1399  3.0813
 7278SOL     OW33292   2.455   2.153  16.277  0.1969 -0.0881  0.2166
 7278SOL    HW133293   2.451   2.063  16.245  0.0974 -0.7409  2.0569
 7278SOL    HW233294   2.362   2.173  16.283  0.1352  0.1761 -1.6275
 7279SOL     OW33295   2.655   0.789   2.858  0.4180 -0.3143 -0.1765
 7279SOL    HW133296   2.749   0.771   2.865  0.1510 -1.1993  1.1103
 7279SOL    HW233297   2.654   0.843   2.779  1.3715 -0.1983 -0.1130
 7280SOL     OW33298   4.536   1.994  12.057 -0.2302  0.5586  0.0405
 7280SOL    HW133299   4.560   2.067  12.114 -0.7929  1.6066 -1.0582
 7280SOL    HW233300   4.481   1.948  12.121  2.1018 -0.8799  1.0139
 7281SOL     OW33301   1.824   3.028   8.174  0.3540 -0.2599  0.1683
 7281SOL    HW133302   1.879   3.088   8.124 -1.2680  2.4181  1.5871
 7281SOL    HW233303   1.807   3.083   8.250 -1.0064 -2.3060  1.3498
 7282SOL     OW33304   1.000   3.893   3.703 -0.3377 -0.4882 -0.4585
 7282SOL    HW133305   0.985   3.973   3.754 -1.5298  0.3952 -2.1739
 7282SOL    HW233306   0.907   3.882   3.680  0.3343 -1.0575 -2.8695
 7283SOL     OW33307   4.282   2.890   5.839 -0.4544  0.1593 -0.3601
 7283SOL    HW133308   4.237   2.854   5.763 -0.5632 -0.1296 -0.1595
 7283SOL    HW233309   4.208   2.889   5.901  0.8817  2.4883  1.3149
 7284SOL     OW33310   0.322   2.660   4.011 -1.0467  0.4640  0.9964
 7284SOL    HW133311   0.395   2.722   4.006 -0.6873  0.0108  0.5339
 7284SOL    HW233312   0.255   2.728   4.019 -0.1761  1.3229  0.9912
 7285SOL     OW33313   0.367   4.231   2.043 -0.1263  0.9027  0.6239
 7285SOL    HW133314   0.413   4.211   2.125  1.2014 -0.3568 -0.4209
 7285SOL    HW233315   0.409   4.314   2.020 -0.3737  1.3703  1.8113
 7286SOL     OW33316   2.561   2.859   2.967  0.4853 -0.7012  0.1396
 7286SOL    HW133317   2.576   2.948   2.998  1.0705 -0.4683 -0.8007
 7286SOL    HW233318   2.645   2.821   2.993 -0.0041 -2.8514 -1.3864
 7287SOL     OW33319   1.632   1.253   3.128  0.8952 -0.0425  0.2067
 7287SOL    HW133320   1.542   1.224   3.116  1.0484 -1.2402  2.0471
 7287SOL    HW233321   1.623   1.345   3.152 -2.1965 -0.7061  1.6085
 7288SOL     OW33322   1.567   1.350  10.241 -0.1418 -0.2751 -0.2738
 7288SOL    HW133323   1.497   1.343  10.305 -0.7218  0.9524 -0.7753
 7288SOL    HW233324   1.610   1.267  10.262  0.7242 -0.1594 -1.5654
 7289SOL     OW33325   3.198   3.039  13.458 -0.3987 -0.3442  0.1643
 7289SOL    HW133326   3.181   3.109  13.395  1.1528 -0.2268 -0.1302
 7289SOL    HW233327   3.293   3.026  13.462 -0.4107 -0.6805 -0.6489
 7290SOL     OW33328   3.585   0.583   1.718 -0.3725  0.1472 -0.0217
 7290SOL    HW133329   3.560   0.632   1.796  0.5082  0.1423  0.2725
 7290SOL    HW233330   3.571   0.650   1.652  1.3835 -0.0318 -0.5840
 7291SOL     OW33331   3.736   2.564  11.050 -0.0290 -0.9118  0.2839
 7291SOL    HW133332   3.648   2.580  11.085 -1.4875  2.0211 -4.7698
 7291SOL    HW233333   3.785   2.574  11.131 -1.3538 -0.2111  0.9968
 7292SOL     OW33334   1.766   4.633   7.869 -0.2609 -0.2599 -0.0713
 7292SOL    HW133335   1.750   4.707   7.809 -0.6714  0.7124  1.2437
 7292SOL    HW233336   1.702   4.664   7.934  1.6640 -0.8962  2.0863
 7293SOL     OW33337   2.736   3.459   9.532 -0.1763 -0.2117 -0.1787
 7293SOL    HW133338   2.801   3.398   9.565 -0.1601 -0.3305 -0.4288
 7293SOL    HW233339   2.760   3.441   9.441 -0.0180 -0.0404 -0.1710
 7294SOL     OW33340   2.269   3.204   2.281  0.7203  0.1949 -0.1705
 7294SOL    HW133341   2.325   3.272   2.319  1.2136 -0.6039  0.5380
 7294SOL    HW233342   2.337   3.144   2.249  0.7479  0.2737 -0.2569
 7295SOL     OW33343   2.987   0.399   4.481  0.2254  0.0828 -0.3214
 7295SOL    HW133344   3.060   0.375   4.424  1.4247 -1.2425  1.7638
 7295SOL    HW233345   3.018   0.383   4.570  0.0174  2.1439  0.1309
 7296SOL     OW33346   0.810   2.893   6.269  0.5492 -0.8097  0.5639
 7296SOL    HW133347   0.735   2.905   6.210  0.4691 -0.5212  0.7228
 7296SOL    HW233348   0.852   2.979   6.273 -1.8841  0.5177 -2.3624
 7297SOL     OW33349   1.233   1.297  12.781  0.1394 -0.5173  0.4051
 7297SOL    HW133350   1.143   1.282  12.753 -0.3484  1.3267  0.9806
 7297SOL    HW233351   1.229   1.385  12.818 -3.6755 -1.5334  2.4738
 7298SOL     OW33352   2.855   4.579   3.960  0.2746  0.0623  0.1081
 7298SOL    HW133353   2.936   4.538   3.989 -0.0007  0.8912  2.0328
 7298SOL    HW233354   2.818   4.619   4.039 -1.1961  1.3291 -1.2084
 7299SOL     OW33355   1.449   2.171  10.296  0.0754  0.1142  0.0816
 7299SOL    HW133356   1.472   2.257  10.261  0.3799  0.5364  1.3070
 7299SOL    HW233357   1.372   2.158  10.240 -0.7388  0.9376  1.0020
 7300SOL     OW33358   2.717   2.773   8.721  0.4566 -0.2586  0.0853
 7300SOL    HW133359   2.698   2.867   8.725 -2.4728 -0.8948  0.8073
 7300SOL    HW233360   2.686   2.750   8.633  0.5798 -0.4933  0.1024
 7301SOL     OW33361   3.337   3.663   7.814 -0.1474 -0.9871  0.2688
 7301SOL    HW133362   3.332   3.579   7.858 -0.3515 -0.2202  1.6998
 7301SOL    HW233363   3.431   3.681   7.822  0.1461 -1.8991 -1.1758
 7302SOL     OW33364   4.706   4.207   4.656 -0.1480  0.3391  0.3083
 7302SOL    HW133365   0.037   4.129   4.652  0.9769  1.1006  0.8962
 7302SOL    HW233366   0.045   4.271   4.690  2.4354 -0.5725 -2.8589
 7303SOL     OW33367   0.928   3.160   6.239 -0.1208  0.2351 -0.2956
 7303SOL    HW133368   1.002   3.176   6.181  3.2036  0.9255  4.1740
 7303SOL    HW233369   0.974   3.133   6.318 -0.4576  2.8473  0.7722
 7304SOL     OW33370   0.609   2.162   5.337  0.5322 -0.6008  0.0636
 7304SOL    HW133371   0.645   2.234   5.285  0.0333 -0.6328 -0.3238
 7304SOL    HW233372   0.573   2.202   5.416  1.3791 -0.9998  0.6530
 7305SOL     OW33373   1.527   3.800   1.003  0.2014 -0.4947 -0.6427
 7305SOL    HW133374   1.468   3.724   1.009 -1.5732  0.7188 -2.6874
 7305SOL    HW233375   1.607   3.749   0.987  0.8115  0.6664 -1.2950
 7306SOL     OW33376   3.601   4.057  13.888 -0.0861  0.3569  0.8757
 7306SOL    HW133377   3.527   4.071  13.947 -0.7836  2.4706 -0.5233
 7306SOL    HW233378   3.555   4.013  13.816 -0.5524 -1.4421  2.2691
 7307SOL     OW33379   3.323   2.797   1.694  0.0998  0.0905  0.2326
 7307SOL    HW133380   3.318   2.705   1.721 -0.2446  0.6506  2.1318
 7307SOL    HW233381   3.411   2.825   1.720 -0.3906  2.1120 -0.2836
 7308SOL     OW33382   3.806   2.084   0.159 -0.0917 -0.5168  0.1556
 7308SOL    HW133383   3.755   2.165   0.160  1.5138  0.5077 -1.6073
 7308SOL    HW233384   3.820   2.067   0.066  1.1852  0.9061  0.0914
 7309SOL     OW33385   1.019   3.695   7.820 -0.4332 -0.1930  0.1347
 7309SOL    HW133386   1.027   3.738   7.906 -0.3475  0.8260 -0.3809
 7309SOL    HW233387   0.958   3.760   7.785 -0.5198 -0.0255  0.5889
 7310SOL     OW33388   0.348   1.381  14.274  0.3741  0.1684 -0.4832
 7310SOL    HW133389   0.401   1.325  14.218  0.3267 -0.9577  0.5972
 7310SOL    HW233390   0.402   1.460  14.274 -2.8092  2.3328 -1.3387
 7311SOL     OW33391   1.359   3.308   1.067  0.1954  0.1769 -0.3324
 7311SOL    HW133392   1.362   3.249   0.992 -1.9445 -0.3635  0.0164
 7311SOL    HW233393   1.436   3.281   1.117 -0.3391 -1.6239 -0.5057
 7312SOL     OW33394   2.338   2.477   9.312 -0.0344  0.2348 -0.5195
 7312SOL    HW133395   2.306   2.394   9.347  0.9604 -0.8988 -2.2772
 7312SOL    HW233396   2.277   2.545   9.341 -0.8645 -0.9103  0.3968
 7313SOL     OW33397   3.798   2.870   8.085  0.4999  0.3925  0.0446
 7313SOL    HW133398   3.861   2.851   8.154  0.1889  0.8713  0.4650
 7313SOL    HW233399   3.719   2.851   8.137 -0.5531  0.5734 -1.4943
 7314SOL     OW33400   3.097   2.901   9.915  0.1288 -0.5473  0.0848
 7314SOL    HW133401   3.062   2.870   9.999  0.2918  1.2414  0.8122
 7314SOL    HW233402   3.185   2.866   9.929  1.8695  3.0682 -1.8624
 7315SOL     OW33403   2.960   0.635  17.210  0.3231 -0.1931 -0.0570
 7315SOL    HW133404   2.965   0.626  17.306  0.8632 -2.0056 -0.2416
 7315SOL    HW233405   3.050   0.614  17.185  0.1928 -0.3115 -0.4197
 7316SOL     OW33406   2.229   3.107  13.476  0.1269 -0.0095  0.4661
 7316SOL    HW133407   2.146   3.059  13.476  0.4012 -0.4837  0.7822
 7316SOL    HW233408   2.282   3.052  13.534  3.5704  1.2313 -1.5081
 7317SOL     OW33409   4.376   2.149  15.260 -0.4830 -0.0779 -0.1613
 7317SOL    HW133410   4.454   2.178  15.307 -0.2187 -2.5211  0.8858
 7317SOL    HW233411   4.420   2.120  15.180 -1.7587  1.2189 -1.3437
 7318SOL     OW33412   0.325   1.693   0.226 -0.2234 -0.0170  0.8387
 7318SOL    HW133413   0.338   1.633   0.152  0.5316  2.0871 -0.7373
 7318SOL    HW233414   0.310   1.623   0.290 -0.9493  2.5349  3.4339
 7319SOL     OW33415   4.561   1.049   0.230 -0.3817 -0.1745  0.1390
 7319SOL    HW133416   4.496   0.981   0.248 -1.1254  1.1442  2.5076
 7319SOL    HW233417   4.574   1.039   0.136 -1.2509  0.0857 -0.0101
 7320SOL     OW33418   4.074   2.452  15.893  0.3839  0.0271 -0.6466
 7320SOL    HW133419   4.113   2.516  15.952 -0.3250 -1.1139  1.0681
 7320SOL    HW233420   4.099   2.364  15.919 -2.4749 -0.2811  0.9954
 7321SOL     OW33421   0.131   2.197   3.831 -0.1816 -0.0260 -0.3415
 7321SOL    HW133422   0.125   2.293   3.830  2.0865  0.1167  0.4530
 7321SOL    HW233423   0.217   2.186   3.792 -0.4570 -2.3264 -0.2628
 7322SOL     OW33424   3.903   4.106   6.574  0.4935  0.0791  0.4179
 7322SOL    HW133425   3.852   4.042   6.526  2.3549  0.4397 -2.0416
 7322SOL    HW233426   3.872   4.180   6.523 -0.3789 -1.9830 -2.0117
 7323SOL     OW33427   4.043   1.356  10.666  0.4583  0.1584 -0.0124
 7323SOL    HW133428   4.137   1.343  10.671  0.6245  0.9920 -1.1514
 7323SOL    HW233429   4.029   1.431  10.724  0.1742 -0.7778  1.1355
 7324SOL     OW33430   0.802   0.690   1.152 -0.4504 -0.3552 -0.2062
 7324SOL    HW133431   0.852   0.744   1.090 -0.4043  0.3512  0.4478
 7324SOL    HW233432   0.722   0.742   1.152 -0.4162 -0.2904 -1.1151
 7325SOL     OW33433   3.015   0.367   9.489 -0.3176  0.0288 -0.1229
 7325SOL    HW133434   3.004   0.272   9.489  0.8123 -0.1030  0.0683
 7325SOL    HW233435   3.031   0.391   9.580  0.6319 -1.4960  0.1216
 7326SOL     OW33436   3.390   2.077   1.167  0.2269 -0.9174 -0.0036
 7326SOL    HW133437   3.310   2.107   1.210  0.5613 -1.6046  1.1234
 7326SOL    HW233438   3.361   2.010   1.106  1.1916  0.0493 -1.5141
 7327SOL     OW33439   3.580   0.943   8.014 -0.2872 -0.1515  0.2972
 7327SOL    HW133440   3.667   0.963   7.981 -0.5332  1.7146  0.8266
 7327SOL    HW233441   3.571   0.847   8.010 -0.0693 -0.1592  0.0739
 7328SOL     OW33442   4.590   4.484   0.192 -0.2928  0.0542 -0.1315
 7328SOL    HW133443   4.498   4.455   0.190 -0.7099  1.4385 -0.4916
 7328SOL    HW233444   4.622   4.453   0.108  1.2111  1.7598 -0.1682
 7329SOL     OW33445   3.311   0.722   4.780  0.2442 -0.0767  0.9962
 7329SOL    HW133446   3.351   0.778   4.714 -2.0794  1.3100  0.7402
 7329SOL    HW233447   3.221   0.755   4.781  0.3948  0.4030 -1.1741
 7330SOL     OW33448   1.766   2.329   6.497  0.4868  0.7645  0.0821
 7330SOL    HW133449   1.847   2.291   6.532 -0.5535 -0.5610  1.0229
 7330SOL    HW233450   1.729   2.381   6.568  2.6337  1.7698  0.4799
 7331SOL     OW33451   0.317   2.092  10.316 -0.1150 -0.2791 -0.5265
 7331SOL    HW133452   0.288   2.015  10.365 -1.4674  1.5432  1.5392
 7331SOL    HW233453   0.349   2.054  10.234  0.3024 -1.4414  0.1825
 7332SOL     OW33454   2.281   2.270   3.936  0.1487  0.1061 -0.3763
 7332SOL    HW133455   2.291   2.187   3.890  0.8906 -0.9837  1.7612
 7332SOL    HW233456   2.284   2.325   3.857 -1.9276 -0.4099 -0.8245
 7333SOL     OW33457   2.692   4.609   5.787  0.1769 -0.0587 -0.3743
 7333SOL    HW133458   2.692   4.529   5.840 -1.1569 -0.9009 -1.6209
 7333SOL    HW233459   2.712   4.677   5.851 -0.6921 -0.4385  0.3137
 7334SOL     OW33460   3.597   1.364  17.042  0.3018 -0.1731  0.0797
 7334SOL    HW133461   3.654   1.312  16.985 -0.3639 -0.5291 -0.2604
 7334SOL    HW233462   3.527   1.372  16.978 -0.2780 -2.4331  0.4250
 7335SOL     OW33463   1.762   2.563   1.433 -0.5025  0.0285  0.0220
 7335SOL    HW133464   1.710   2.642   1.448  0.2518  0.9790 -2.2455
 7335SOL    HW233465   1.745   2.510   1.511 -0.0658  1.5393  1.1600
 7336SOL     OW33466   2.578   3.169   6.069  0.1492 -0.2497  1.1584
 7336SOL    HW133467   2.523   3.247   6.065 -0.1252 -0.5803 -1.4317
 7336SOL    HW233468   2.532   3.115   6.134  1.3414 -0.5958  1.7325
 7337SOL     OW33469   3.996   3.849  12.177  0.2566  0.3843 -0.4351
 7337SOL    HW133470   3.950   3.877  12.098 -0.4184  0.4154 -0.0387
 7337SOL    HW233471   4.087   3.863  12.154  0.2327 -0.3092 -0.9534
 7338SOL     OW33472   0.467   4.128   7.318 -0.4092 -0.1846 -0.0491
 7338SOL    HW133473   0.562   4.134   7.312 -0.5170 -1.5784 -2.9923
 7338SOL    HW233474   0.445   4.202   7.375  2.2105  0.6664 -0.1319
 7339SOL     OW33475   2.660   0.393   4.127  0.1278  0.4216  0.0796
 7339SOL    HW133476   2.729   0.355   4.073 -1.1054 -2.4674  0.5500
 7339SOL    HW233477   2.683   0.377   4.218  0.7503 -0.5258 -0.2402
 7340SOL     OW33478   4.124   0.854   5.806  0.0665 -0.1688  0.0648
 7340SOL    HW133479   4.125   0.780   5.867 -1.1286  0.0807  0.3764
 7340SOL    HW233480   4.117   0.806   5.723  0.2998 -0.4588  0.2123
 7341SOL     OW33481   0.404   4.049   4.378  0.7376  0.1354 -0.2418
 7341SOL    HW133482   0.419   4.084   4.291 -2.6585 -1.7651 -1.5940
 7341SOL    HW233483   0.479   4.089   4.422  0.8191  0.0745 -0.3271
 7342SOL     OW33484   4.247   2.269  15.972 -0.2878  0.7097 -0.0986
 7342SOL    HW133485   4.261   2.229  15.886  0.5152  0.2192  0.2615
 7342SOL    HW233486   4.265   2.184  16.014  1.8833  0.9870 -0.4988
 7343SOL     OW33487   2.404   4.244   4.011  0.8370  0.3428 -0.3275
 7343SOL    HW133488   2.345   4.313   3.980  0.5015  1.9432  3.8301
 7343SOL    HW233489   2.492   4.280   4.005  1.2869 -0.5290  1.2158
 7344SOL     OW33490   0.230   3.779   7.210  0.5450  0.0666 -0.3039
 7344SOL    HW133491   0.205   3.710   7.271  3.1355  1.1126  1.9690
 7344SOL    HW233492   0.248   3.731   7.129  0.7779  2.4284 -1.6761
 7345SOL     OW33493   1.434   0.532   3.610  0.1488 -0.6198  0.3219
 7345SOL    HW133494   1.431   0.524   3.706 -0.8217 -0.1270  0.3407
 7345SOL    HW233495   1.339   0.532   3.594  0.6040  1.1258 -2.3580
 7346SOL     OW33496   3.133   4.577  16.898  0.0463 -0.4322  0.0368
 7346SOL    HW133497   3.041   4.555  16.904 -0.3228  0.6791 -1.6007
 7346SOL    HW233498   3.145   4.597  16.991 -1.0132 -1.5641  0.4114
 7347SOL     OW33499   1.006   4.080   7.051  0.3414  0.1443 -0.1340
 7347SOL    HW133500   0.960   4.038   6.978 -0.1467  1.2082 -0.4416
 7347SOL    HW233501   0.961   4.164   7.056  0.2903 -0.0047  1.6621
 7348SOL     OW33502   2.020   3.095   2.613 -0.6360  0.2323  0.4672
 7348SOL    HW133503   2.048   3.118   2.701  0.9685  2.3955 -0.6082
 7348SOL    HW233504   1.927   3.119   2.614 -0.4304  0.9554  1.9903
 7349SOL     OW33505   2.333   2.261   5.547  0.3530  0.0408  0.1664
 7349SOL    HW133506   2.242   2.282   5.564 -0.1630 -2.3995  0.4166
 7349SOL    HW233507   2.348   2.215   5.630  1.8903 -0.1317 -0.2009
 7350SOL     OW33508   4.157   0.752   8.483  0.2222  0.2440  0.0172
 7350SOL    HW133509   4.203   0.675   8.516  1.3616  0.0884 -1.9221
 7350SOL    HW233510   4.173   0.816   8.552 -2.1967 -0.5554  1.3270
 7351SOL     OW33511   1.801   0.467   6.264 -0.2623 -0.0042 -0.5268
 7351SOL    HW133512   1.758   0.504   6.187 -1.6032 -0.0882  0.1892
 7351SOL    HW233513   1.761   0.501   6.344 -2.0581  0.7777 -1.7725
 7352SOL     OW33514   1.351   0.621   4.446 -0.6144 -0.5111  0.4432
 7352SOL    HW133515   1.370   0.552   4.510  1.1716  0.8560  1.3565
 7352SOL    HW233516   1.292   0.680   4.493  0.7891 -0.9330  2.7282
 7353SOL     OW33517   0.809   4.680   8.822 -0.0588  0.4805  0.4227
 7353SOL    HW133518   0.770   4.628   8.752  2.6891 -1.5264  0.4148
 7353SOL    HW233519   0.843   0.028   8.770  0.2425  1.7947  2.4447
 7354SOL     OW33520   4.419   0.992  10.378 -0.2067  0.5738  0.1829
 7354SOL    HW133521   4.414   1.084  10.353  0.9548  0.7999  0.7897
 7354SOL    HW233522   4.510   0.965  10.390  0.0369  1.3804  0.1470
 7355SOL     OW33523   3.173   1.460   5.331 -0.2857  0.7509  0.2771
 7355SOL    HW133524   3.160   1.389   5.393 -0.0896 -1.2532 -1.9669
 7355SOL    HW233525   3.212   1.418   5.254 -0.8897 -0.0748  0.4217
 7356SOL     OW33526   0.390   2.353  13.057 -0.3337 -0.1543 -0.2431
 7356SOL    HW133527   0.340   2.410  12.998 -1.3833  1.0585  1.8187
 7356SOL    HW233528   0.361   2.399  13.136  0.3747 -0.9834  0.4933
 7357SOL     OW33529   3.284   4.167  12.792 -0.3286  0.3714 -0.8088
 7357SOL    HW133530   3.252   4.254  12.769  0.5613  1.0444  0.5263
 7357SOL    HW233531   3.377   4.185  12.805  0.1409 -1.5273 -1.4608
 7358SOL     OW33532   3.250   4.148   5.057 -0.2891  0.3359  0.2181
 7358SOL    HW133533   3.283   4.077   5.001 -2.7747  1.2831 -2.4831
 7358SOL    HW233534   3.313   4.129   5.127  0.4655 -0.5961 -0.7097
 7359SOL     OW33535   3.277   2.114   6.239 -0.0561  0.4770 -0.0513
 7359SOL    HW133536   3.199   2.154   6.278  0.7784  2.4704 -0.4420
 7359SOL    HW233537   3.250   2.076   6.155  1.3043  0.1844 -0.3647
 7360SOL     OW33538   3.805   0.817   8.543  0.6376  0.2928  0.2507
 7360SOL    HW133539   3.817   0.776   8.629  0.5299 -3.1895 -1.4043
 7360SOL    HW233540   3.838   0.906   8.552 -1.0741  0.8997  0.6449
 7361SOL     OW33541   3.081   1.343   8.397 -0.5106 -0.4564  0.0071
 7361SOL    HW133542   3.011   1.315   8.339 -0.4526  1.5985 -1.0526
 7361SOL    HW233543   3.093   1.268   8.455  0.1400 -1.2268 -1.1155
 7362SOL     OW33544   4.430   2.170   6.257 -0.1061  0.1941  0.2230
 7362SOL    HW133545   4.523   2.191   6.252 -0.1078 -0.2786 -1.6262
 7362SOL    HW233546   4.427   2.074   6.250  1.8144  0.0086  2.0095
 7363SOL     OW33547   0.112   2.049  14.916  0.0436 -0.0997 -0.3227
 7363SOL    HW133548   0.148   1.961  14.919 -1.8224 -0.8684 -0.7603
 7363SOL    HW233549   0.035   2.044  14.860 -1.1676  3.1810  0.9788
 7364SOL     OW33550   0.853   0.816   8.945  0.6600  0.9491 -0.2077
 7364SOL    HW133551   0.920   0.865   8.993  0.9933  1.6245 -1.3461
 7364SOL    HW233552   0.789   0.798   9.014 -0.2894  0.9170 -1.0969
 7365SOL     OW33553   2.622   3.770   7.078 -0.1504  0.0544 -0.0680
 7365SOL    HW133554   2.601   3.687   7.120 -1.8360  2.1794  3.2820
 7365SOL    HW233555   2.613   3.744   6.987 -0.1177 -0.6962  0.1423
 7366SOL     OW33556   3.686   2.129  12.795 -0.7683 -0.3552 -0.1917
 7366SOL    HW133557   3.596   2.136  12.763 -0.0188 -0.3851 -2.3045
 7366SOL    HW233558   3.681   2.104  12.887  1.2453  0.1447  0.0444
 7367SOL     OW33559   2.037   1.833   6.371 -0.1140 -0.2707  0.1148
 7367SOL    HW133560   1.973   1.900   6.392 -2.0657 -3.0622  3.0770
 7367SOL    HW233561   1.998   1.745   6.376  0.7045 -0.6007  0.7841
 7368SOL     OW33562   1.327   4.681   1.619  0.3106 -0.3457  0.1437
 7368SOL    HW133563   1.369   4.674   1.534 -0.8315  0.6663 -0.4924
 7368SOL    HW233564   1.277   0.038   1.607  1.8200  0.7845  1.5115
 7369SOL     OW33565   0.227   3.083   7.887 -0.1581 -0.3383  0.2947
 7369SOL    HW133566   0.269   3.022   7.827 -1.6927 -0.9262 -0.1892
 7369SOL    HW233567   0.142   3.080   7.843  0.0014 -0.7558  0.0173
 7370SOL     OW33568   2.358   4.438   3.155 -0.0288 -0.0816  0.4489
 7370SOL    HW133569   2.345   4.424   3.061  2.5613 -0.0342  0.0820
 7370SOL    HW233570   2.451   4.428   3.171  0.3712 -0.1467 -1.9744
 7371SOL     OW33571   0.905   2.902   4.815  0.0734  0.1368  0.5389
 7371SOL    HW133572   0.892   2.991   4.781  0.1965  0.6946  1.9569
 7371SOL    HW233573   0.812   2.879   4.805 -0.3486  2.5975 -1.3541
 7372SOL     OW33574   1.321   4.586   2.763  0.4624 -0.2155 -0.4988
 7372SOL    HW133575   1.383   4.538   2.707  0.5179 -1.3627  0.5509
 7372SOL    HW233576   1.265   4.511   2.785 -0.9632  0.9757 -0.0600
 7373SOL     OW33577   1.430   2.150  15.013 -0.5514  0.1206  0.3695
 7373SOL    HW133578   1.489   2.187  15.078  1.5589 -1.7387 -0.4636
 7373SOL    HW233579   1.458   2.058  15.021  1.1890  0.5168 -1.2159
 7374SOL     OW33580   0.472   1.709   9.393 -0.5792 -0.1313  0.0922
 7374SOL    HW133581   0.534   1.726   9.322 -0.2501 -1.5926  0.0281
 7374SOL    HW233582   0.535   1.680   9.459 -0.0530 -0.4032 -0.5267
 7375SOL     OW33583   0.290   2.559   9.788  0.2982  0.2757  0.4880
 7375SOL    HW133584   0.210   2.544   9.838  0.2014 -1.3478 -0.1701
 7375SOL    HW233585   0.277   2.651   9.764 -0.3057 -0.0314 -0.3663
 7376SOL     OW33586   3.624   1.550   1.981 -0.3208  0.3306  0.4869
 7376SOL    HW133587   3.664   1.533   1.896  2.3811  0.4963  1.6987
 7376SOL    HW233588   3.532   1.559   1.956 -0.1517 -2.7900 -1.1827
 7377SOL     OW33589   2.207   1.336  16.505  0.2909  0.0975  0.0262
 7377SOL    HW133590   2.259   1.258  16.527  1.4311  0.6094 -0.9158
 7377SOL    HW233591   2.187   1.309  16.416 -2.8350 -0.8010  0.9940
 7378SOL     OW33592   2.793   0.554   1.833 -0.1500  0.1476  0.6879
 7378SOL    HW133593   2.801   0.575   1.740 -1.3020 -0.2987  0.4947
 7378SOL    HW233594   2.882   0.540   1.864  0.5315  2.9890  0.0444
 7379SOL     OW33595   0.786   0.192   0.545 -0.9161 -0.2506  0.0107
 7379SOL    HW133596   0.872   0.149   0.551 -0.3303  0.8877 -0.3794
 7379SOL    HW233597   0.771   0.188   0.640  1.9201 -0.1728  0.4636
 7380SOL     OW33598   3.488   1.125  15.893  0.1400 -0.1478 -0.6594
 7380SOL    HW133599   3.568   1.077  15.870  2.2046  1.7102  2.6217
 7380SOL    HW233600   3.427   1.080  15.835  0.8164 -1.3074 -0.4707
 7381SOL     OW33601   4.158   1.562   7.468  0.0084 -0.4090 -0.2260
 7381SOL    HW133602   4.183   1.643   7.423  2.0121 -1.2464 -0.6427
 7381SOL    HW233603   4.179   1.502   7.396 -2.1618 -2.1969  0.6120
 7382SOL     OW33604   0.244   2.533   9.053  0.3324  0.0417  0.3949
 7382SOL    HW133605   0.183   2.487   8.996  0.2193  0.1292  0.4456
 7382SOL    HW233606   0.239   2.458   9.113  1.3842 -0.1679  0.2173
 7383SOL     OW33607   2.480   2.092   8.636  0.2861 -0.2022  0.3672
 7383SOL    HW133608   2.553   2.057   8.687  1.2827  0.5600 -0.5252
 7383SOL    HW233609   2.445   2.157   8.697  1.1557  1.6556 -1.1299
 7384SOL     OW33610   0.500   1.588   5.574 -0.2198 -0.0087 -0.3643
 7384SOL    HW133611   0.408   1.560   5.576 -0.2850  0.2745  0.6593
 7384SOL    HW233612   0.478   1.676   5.545  1.0892  0.4344 -0.0230
 7385SOL     OW33613   4.363   0.084  13.022 -0.4499 -0.1443  0.2016
 7385SOL    HW133614   4.378   0.132  13.104  1.2918  0.2306 -0.3383
 7385SOL    HW233615   4.356   0.155  12.958 -0.5260 -0.7344 -0.4429
 7386SOL     OW33616   4.045   1.997   5.601  0.8639  0.2918  0.5909
 7386SOL    HW133617   3.990   2.071   5.629 -0.2121  0.0591 -0.9212
 7386SOL    HW233618   4.069   2.031   5.515 -1.4765  0.5287  0.0438
 7387SOL     OW33619   0.014   0.942   2.719 -0.0224 -0.6954 -0.2473
 7387SOL    HW133620   0.011   0.847   2.708 -0.5921 -0.6583 -0.3996
 7387SOL    HW233621   0.091   0.960   2.665  0.7281  0.0808  1.0840
 7388SOL     OW33622   1.356   3.255  17.073  0.0301  0.0105  0.6970
 7388SOL    HW133623   1.411   3.288  17.143 -1.4236  1.9279  0.9147
 7388SOL    HW233624   1.332   3.172  17.115 -0.4439 -0.1877  0.0312
 7389SOL     OW33625   0.481   3.458   1.913 -0.5280 -0.0992 -0.4100
 7389SOL    HW133626   0.575   3.447   1.902 -0.3668 -0.3976  1.2964
 7389SOL    HW233627   0.467   3.484   2.004  0.3089  0.5417 -0.4605
 7390SOL     OW33628   0.788   1.232   5.200  0.7065  0.3466 -0.1340
 7390SOL    HW133629   0.864   1.208   5.253  0.3011 -0.2398  0.1828
 7390SOL    HW233630   0.721   1.256   5.264 -1.8682 -0.6134 -2.4957
 7391SOL     OW33631   3.654   4.055   3.141  0.9867 -0.2137  0.2466
 7391SOL    HW133632   3.743   4.042   3.173  0.9656 -0.1108  0.3468
 7391SOL    HW233633   3.628   4.131   3.193  2.2228  1.7506 -1.9832
 7392SOL     OW33634   1.656   0.893   7.604 -0.0629  0.1209  0.0881
 7392SOL    HW133635   1.659   0.798   7.602 -0.4994  0.1432 -1.9742
 7392SOL    HW233636   1.563   0.908   7.585 -0.2127 -3.6904 -2.0220
 7393SOL     OW33637   0.398   1.445   2.257 -0.0609  0.0903  0.2474
 7393SOL    HW133638   0.352   1.512   2.206 -2.4877 -0.2945  1.9371
 7393SOL    HW233639   0.487   1.473   2.234 -0.4633  0.6642 -0.6298
 7394SOL     OW33640   2.847   4.587   6.390 -0.0910  0.5041 -0.4186
 7394SOL    HW133641   2.825   4.527   6.318 -1.4900 -1.0594  1.3311
 7394SOL    HW233642   2.796   4.661   6.357 -0.1068  1.8599  2.6836
 7395SOL     OW33643   0.718   2.684   8.071 -0.0318  0.0976 -0.1153
 7395SOL    HW133644   0.810   2.709   8.063  0.1756  0.0726  2.3112
 7395SOL    HW233645   0.696   2.722   8.156 -0.6322 -2.3689  0.8540
 7396SOL     OW33646   4.523   3.100   8.129  0.2145 -0.4178  0.4107
 7396SOL    HW133647   4.479   3.176   8.168  1.5873  1.3987 -1.5194
 7396SOL    HW233648   4.611   3.101   8.166  0.8258  2.2483 -1.0643
 7397SOL     OW33649   2.854   1.856   9.369 -0.2416 -0.3700  0.3514
 7397SOL    HW133650   2.898   1.794   9.311 -1.1374 -1.7008  1.1105
 7397SOL    HW233651   2.878   1.932   9.315  1.4973 -0.6712  0.6822
 7398SOL     OW33652   1.528   2.260  10.644 -0.3680  0.3863 -0.0634
 7398SOL    HW133653   1.612   2.286  10.683  0.6691  0.9774 -2.6740
 7398SOL    HW233654   1.539   2.315  10.566  1.9834  2.4403  1.6806
 7399SOL     OW33655   1.043   3.955  13.071  0.5252 -0.3060 -0.4865
 7399SOL    HW133656   0.978   4.023  13.086  0.8374  0.5202 -2.8910
 7399SOL    HW233657   1.119   4.009  13.051  1.2783 -0.8443  0.9099
 7400SOL     OW33658   1.011   0.676   7.629 -0.6610 -0.6729 -0.6577
 7400SOL    HW133659   0.944   0.657   7.564 -1.9462  1.0253  0.1714
 7400SOL    HW233660   1.051   0.760   7.606  0.2828 -1.2529 -1.1099
 7401SOL     OW33661   1.064   2.653  12.768  0.1665 -0.2575  0.3767
 7401SOL    HW133662   0.993   2.713  12.747  1.7334  0.2577 -3.4961
 7401SOL    HW233663   1.019   2.578  12.807 -1.7444  0.6975  0.0261
 7402SOL     OW33664   4.575   0.522   7.941  0.3253 -0.4974  0.6745
 7402SOL    HW133665   4.528   0.464   8.001 -0.5910 -0.5735 -0.1088
 7402SOL    HW233666   4.518   0.527   7.864 -0.5261  3.9947  1.5754
 7403SOL     OW33667   0.569   3.261   5.082  0.2876 -0.1463 -0.1608
 7403SOL    HW133668   0.595   3.283   4.993 -1.2008  0.0895 -0.5308
 7403SOL    HW233669   0.477   3.282   5.069  0.2008 -0.2653  0.2474
 7404SOL     OW33670   2.008   1.304  14.996 -0.5260 -0.0011 -0.2193
 7404SOL    HW133671   1.963   1.222  15.016  0.7629 -0.6452  0.0712
 7404SOL    HW233672   2.066   1.320  15.070  0.1847  1.3898 -1.0630
 7405SOL     OW33673   3.253   1.899   6.510  0.1305 -0.4237  0.5444
 7405SOL    HW133674   3.289   1.810   6.518 -2.2052 -1.2714  1.5897
 7405SOL    HW233675   3.217   1.897   6.421 -0.3159  1.7224  0.6899
 7406SOL     OW33676   0.295   0.951  16.092 -0.0737  0.4112  0.3177
 7406SOL    HW133677   0.274   0.860  16.111  0.7326  0.4086  1.1955
 7406SOL    HW233678   0.279   0.990  16.178 -1.7449 -1.5771  0.9334
 7407SOL     OW33679   3.451   0.328  16.714  0.0192 -0.3952  0.3974
 7407SOL    HW133680   3.474   0.418  16.739  2.9146 -0.2605 -2.8249
 7407SOL    HW233681   3.465   0.328  16.619 -3.4123 -1.4653 -0.0978
 7408SOL     OW33682   2.946   1.009   6.306 -0.1717  0.3826 -0.0845
 7408SOL    HW133683   2.931   1.010   6.400 -1.3701 -0.2403 -0.2682
 7408SOL    HW233684   2.986   0.922   6.307 -0.6276  0.2026  2.3578
 7409SOL     OW33685   1.600   0.165   1.751  0.0824 -0.6079 -0.8506
 7409SOL    HW133686   1.547   0.238   1.721 -2.0287 -1.6106  0.4312
 7409SOL    HW233687   1.635   0.130   1.669  0.0960  2.0734 -1.9631
 7410SOL     OW33688   3.600   4.097  13.477  0.4558  0.9458 -0.0920
 7410SOL    HW133689   3.554   4.050  13.547 -1.5048  2.6398 -0.2351
 7410SOL    HW233690   3.581   4.036  13.405 -1.8201  0.7111  0.6960
 7411SOL     OW33691   1.340   0.763  13.859 -0.8305 -0.2321 -0.1610
 7411SOL    HW133692   1.302   0.700  13.797 -0.5547  0.5800 -1.1600
 7411SOL    HW233693   1.400   0.711  13.913 -1.4926 -0.5739  0.2406
 7412SOL     OW33694   0.847   0.091   5.998 -0.5057 -0.0041  0.3885
 7412SOL    HW133695   0.852   0.060   5.907  0.3824  0.1302  0.3853
 7412SOL    HW233696   0.935   0.127   6.010 -0.1967 -0.4755 -0.4714
 7413SOL     OW33697   4.295   2.916   4.921  0.4335 -0.2131 -0.4094
 7413SOL    HW133698   4.243   2.880   4.849 -1.1915  0.6790  0.3053
 7413SOL    HW233699   4.247   2.998   4.935 -0.4049 -1.1746  2.3542
 7414SOL     OW33700   2.229   1.448   4.125  0.2140  0.6692 -0.1775
 7414SOL    HW133701   2.212   1.460   4.031  1.8258 -2.7320 -0.8950
 7414SOL    HW233702   2.295   1.515   4.140  2.8599 -1.5766 -1.6795
 7415SOL     OW33703   3.783   1.574   8.340 -0.5342 -0.2894  0.3468
 7415SOL    HW133704   3.715   1.641   8.337 -0.5597 -0.3864 -1.2987
 7415SOL    HW233705   3.753   1.512   8.274 -1.2113  2.0634 -1.5616
 7416SOL     OW33706   4.389   2.040   5.298  0.0712  0.0216 -0.8305
 7416SOL    HW133707   4.323   2.069   5.235 -2.3169  0.5640  1.9041
 7416SOL    HW233708   4.421   1.969   5.244 -2.0716 -2.3781  1.0754
 7417SOL     OW33709   0.556   0.936   8.543 -0.0908  0.1382 -0.1854
 7417SOL    HW133710   0.496   0.862   8.548  0.5051 -0.3832 -0.7597
 7417SOL    HW233711   0.521   0.979   8.464  0.4738  1.3651  0.2216
 7418SOL     OW33712   1.639   2.799  16.980 -0.7564 -0.2204  0.0941
 7418SOL    HW133713   1.572   2.867  16.982 -3.1542 -2.5949  1.9875
 7418SOL    HW233714   1.573   2.729  16.980  1.8808 -2.7230 -0.0126
 7419SOL     OW33715   2.823   3.039  11.633 -0.2671 -0.8460 -0.4204
 7419SOL    HW133716   2.761   3.053  11.562 -0.9688 -1.7673  0.0117
 7419SOL    HW233717   2.770   3.046  11.712 -0.2732 -0.6034 -0.4473
 7420SOL     OW33718   4.020   3.726   5.922 -0.3571 -0.0107 -0.1749
 7420SOL    HW133719   4.052   3.640   5.895 -1.7982 -0.3765 -0.7506
 7420SOL    HW233720   4.060   3.767   5.846 -1.4042 -0.8665 -1.1865
 7421SOL     OW33721   3.489   1.286   2.410  0.0650  0.1161  0.0214
 7421SOL    HW133722   3.453   1.371   2.384 -0.9840 -0.2862  0.1206
 7421SOL    HW233723   3.417   1.228   2.383  0.6585 -0.2970 -0.6723
 7422SOL     OW33724   2.045   1.413   2.303  0.0092 -0.0630 -0.3114
 7422SOL    HW133725   2.131   1.387   2.269 -0.2901 -1.4633 -0.0246
 7422SOL    HW233726   2.014   1.334   2.348 -0.0005 -0.1327 -0.4393
 7423SOL     OW33727   4.497   1.252   5.817 -0.0589  0.4855 -1.0995
 7423SOL    HW133728   4.426   1.244   5.881  2.2266 -2.4986  1.0501
 7423SOL    HW233729   4.527   1.342   5.830 -0.5634  0.4579  0.3035
 7424SOL     OW33730   3.353   3.737   0.751  0.1789 -0.1358  0.4058
 7424SOL    HW133731   3.297   3.809   0.780 -0.9490 -0.2099 -1.6026
 7424SOL    HW233732   3.420   3.732   0.820  0.5835 -0.9679 -0.0493
 7425SOL     OW33733   1.511   4.576  15.966  0.1045  0.0526 -0.4328
 7425SOL    HW133734   1.454   4.631  16.020  1.1492 -1.9865  2.7713
 7425SOL    HW233735   1.588   4.564  16.023 -0.4854  0.8233  0.5166
 7426SOL     OW33736   3.884   2.321   3.738 -0.2996  0.1999 -0.5119
 7426SOL    HW133737   3.949   2.391   3.723  1.2491 -1.0001  0.5509
 7426SOL    HW233738   3.909   2.247   3.683 -2.2084  0.2280 -1.4100
 7427SOL     OW33739   0.239   4.269   2.650  0.2385  0.0987  0.1050
 7427SOL    HW133740   0.157   4.273   2.601  0.7300  0.9853 -0.6246
 7427SOL    HW233741   0.211   4.206   2.716  0.2390 -0.7413 -0.6997
 7428SOL     OW33742   0.926   3.811  12.472 -0.3559  0.1965 -0.2128
 7428SOL    HW133743   1.018   3.833  12.456 -0.7828  1.1827 -1.2792
 7428SOL    HW233744   0.923   3.783  12.563  0.9831 -0.4495 -0.3673
 7429SOL     OW33745   3.538   3.206   1.863  0.9603 -1.4045  0.1898
 7429SOL    HW133746   3.555   3.113   1.856  3.6223 -0.9976  1.6949
 7429SOL    HW233747   3.510   3.226   1.773  0.2131  3.6901  1.5500
 7430SOL     OW33748   3.111   3.837   4.782  0.0210 -0.1959 -0.6477
 7430SOL    HW133749   3.115   3.903   4.712 -0.4823  1.1127  0.5596
 7430SOL    HW233750   3.024   3.837   4.821  0.3487 -1.0844  0.0530
 7431SOL     OW33751   1.444   3.233   1.788  0.2185  0.4759  0.2227
 7431SOL    HW133752   1.435   3.163   1.723  0.0049  1.2208 -0.5410
 7431SOL    HW233753   1.503   3.198   1.856  0.3486 -0.2808 -0.2771
 7432SOL     OW33754   1.616   4.386  13.602  0.0438  0.2092  0.1992
 7432SOL    HW133755   1.645   4.466  13.647  1.9436  0.8364 -2.1025
 7432SOL    HW233756   1.699   4.339  13.596  0.9430  2.1288 -2.6655
 7433SOL     OW33757   1.091   3.956   0.895 -0.5120 -0.5047 -0.3476
 7433SOL    HW133758   1.136   4.020   0.840 -0.3776 -0.5408 -0.2780
 7433SOL    HW233759   1.032   4.026   0.924  2.7161  2.0864  0.0539
 7434SOL     OW33760   1.345   1.896  12.239 -0.6006  0.1421 -0.3584
 7434SOL    HW133761   1.372   1.986  12.221 -0.6749  0.3133  0.3730
 7434SOL    HW233762   1.432   1.855  12.234 -0.0246  1.2785  0.3852
 7435SOL     OW33763   2.077   0.726   5.655  0.2186  0.3756  0.0684
 7435SOL    HW133764   2.149   0.757   5.710 -0.6897  1.2946  0.7478
 7435SOL    HW233765   2.070   0.784   5.579  1.7284  0.2227 -0.1905
 7436SOL     OW33766   0.291   1.909   9.698  0.4991 -0.0382  0.5893
 7436SOL    HW133767   0.333   1.829   9.728 -1.2946 -0.4115  2.0979
 7436SOL    HW233768   0.308   1.963   9.774  0.5433  1.3620 -0.4078
 7437SOL     OW33769   4.713   4.063  12.368 -0.1112 -0.2153 -0.0801
 7437SOL    HW133770   0.016   4.058  12.460 -1.4197  2.2682  0.4565
 7437SOL    HW233771   4.633   4.011  12.371  1.5536 -2.7985 -0.6005
 7438SOL     OW33772   0.057   3.088   6.773  0.1187 -0.8305  0.0097
 7438SOL    HW133773   0.077   3.027   6.845  0.8404 -0.2249  0.3228
 7438SOL    HW233774   4.696   3.124   6.798  0.8728  1.8236 -1.2995
 7439SOL     OW33775   3.885   0.640   6.373  0.1827  0.0218  0.4246
 7439SOL    HW133776   3.830   0.666   6.448  0.8052  1.2064  0.4710
 7439SOL    HW233777   3.943   0.715   6.383 -0.1531  0.1895  1.1232
 7440SOL     OW33778   1.068   0.726  10.026  0.0116  0.1274  0.6265
 7440SOL    HW133779   1.162   0.708  10.036  0.5930  3.5510  1.2063
 7440SOL    HW233780   1.054   0.773   9.944  0.6373 -0.8669 -0.0629
 7441SOL     OW33781   2.018   1.215   1.926 -1.2274 -0.0868 -0.4071
 7441SOL    HW133782   2.097   1.259   1.896 -0.7986 -0.4101  0.2478
 7441SOL    HW233783   1.988   1.175   1.844 -0.4345  0.0659 -0.7727
 7442SOL     OW33784   0.956   4.554   9.207 -0.6264 -0.0942  0.0005
 7442SOL    HW133785   0.914   4.528   9.290  0.3258 -0.7244  0.2813
 7442SOL    HW233786   1.011   4.624   9.242 -0.9216  1.6000 -2.9002
 7443SOL     OW33787   1.439   0.610   6.044 -0.6380 -0.0708 -0.4572
 7443SOL    HW133788   1.375   0.615   6.115  1.0933 -0.6744  1.1410
 7443SOL    HW233789   1.517   0.562   6.073 -0.3403  1.3354  1.0744
 7444SOL     OW33790   1.440   4.663  11.330 -0.4554 -0.2542 -0.2072
 7444SOL    HW133791   1.491   4.614  11.266 -0.8411 -1.7860  0.6488
 7444SOL    HW233792   1.359   4.671  11.279  1.3161  0.9072 -2.7977
 7445SOL     OW33793   3.321   3.019  16.507  0.0028  0.1596  0.2775
 7445SOL    HW133794   3.274   3.035  16.589  1.0954 -1.2317  1.1798
 7445SOL    HW233795   3.370   3.101  16.501  1.0257 -0.3213  2.0496
 7446SOL     OW33796   4.308   2.445   7.172  0.5318 -0.0693  0.0683
 7446SOL    HW133797   4.340   2.409   7.255  0.7949  0.3047  0.1255
 7446SOL    HW233798   4.321   2.538   7.188 -0.9183 -0.0433  1.1296
 7447SOL     OW33799   2.546   3.703   5.956  0.4926  0.0887  0.2492
 7447SOL    HW133800   2.587   3.642   6.017  0.8933 -0.0283 -0.1391
 7447SOL    HW233801   2.590   3.683   5.874 -1.9990 -2.1351 -0.5619
 7448SOL     OW33802   3.984   0.869   8.939  0.8496 -0.3834  0.3952
 7448SOL    HW133803   4.018   0.808   8.873  0.1882  2.6989 -2.7817
 7448SOL    HW233804   3.989   0.948   8.885  0.5337  1.7856  3.4854
 7449SOL     OW33805   2.938   0.085   3.847  0.3750  0.4463  0.0523
 7449SOL    HW133806   2.888   0.007   3.871  1.4211 -0.6044 -1.1492
 7449SOL    HW233807   3.029   0.055   3.848 -0.5480 -2.5018 -3.4893
 7450SOL     OW33808   2.401   4.569   5.904  0.7539 -0.2225 -0.5995
 7450SOL    HW133809   2.372   4.478   5.909 -1.2253  0.4112 -0.6331
 7450SOL    HW233810   2.442   4.576   5.818 -0.1606  2.7391 -0.7720
 7451SOL     OW33811   0.327   4.565   5.785  0.3048  0.3118 -0.0190
 7451SOL    HW133812   0.372   4.559   5.869  1.8103 -3.1175 -1.0929
 7451SOL    HW233813   0.237   4.591   5.807  0.5846  1.0186  0.3040
 7452SOL     OW33814   2.779   2.099  16.776  0.0193  0.0819 -0.1958
 7452SOL    HW133815   2.762   2.193  16.779 -0.4079  0.0844 -2.6204
 7452SOL    HW233816   2.785   2.078  16.683  2.1435 -0.7939  0.1478
 7453SOL     OW33817   4.010   4.607   2.850 -0.1969  0.1732 -0.4353
 7453SOL    HW133818   3.994   4.643   2.763  1.6741  0.6455 -0.5823
 7453SOL    HW233819   3.948   4.661   2.899 -0.0600  1.5067 -1.7089
 7454SOL     OW33820   0.502   2.185   9.143 -0.2714 -0.2018 -0.2144
 7454SOL    HW133821   0.469   2.236   9.217 -1.3871  1.6974 -2.0346
 7454SOL    HW233822   0.438   2.115   9.129  0.7000 -1.0135 -0.6241
 7455SOL     OW33823   2.194   0.093   7.467  0.1728  0.1905 -0.3518
 7455SOL    HW133824   2.123   0.107   7.405 -1.5295 -3.1942  0.8370
 7455SOL    HW233825   2.260   0.045   7.416 -1.2222 -2.7722  0.6057
 7456SOL     OW33826   3.584   3.375   4.958  0.3341  0.1838 -0.4027
 7456SOL    HW133827   3.531   3.317   5.012 -0.1471  0.4982 -0.5342
 7456SOL    HW233828   3.529   3.371   4.880  0.4000  0.7767 -0.4801
 7457SOL     OW33829   2.321   4.010   6.205  0.7523  0.8838  0.1946
 7457SOL    HW133830   2.400   3.979   6.249 -0.9094 -0.6099  2.1026
 7457SOL    HW233831   2.252   3.987   6.267  1.4385  0.0353  0.6393
 7458SOL     OW33832   4.154   2.318  12.785  0.1161 -0.1480 -0.3983
 7458SOL    HW133833   4.072   2.340  12.828 -0.4737  0.1267 -1.6546
 7458SOL    HW233834   4.136   2.381  12.716  1.3719 -0.3929 -0.9529
 7459SOL     OW33835   0.749   1.920   7.487  0.1402 -0.1676  0.1513
 7459SOL    HW133836   0.777   1.856   7.552 -0.3140  0.1263  0.6427
 7459SOL    HW233837   0.755   2.007   7.527  0.1143  0.0948 -0.4089
 7460SOL     OW33838   4.351   0.617   6.675  0.1926  0.3430  0.5865
 7460SOL    HW133839   4.400   0.583   6.600 -0.7019 -0.6856  0.4868
 7460SOL    HW233840   4.262   0.588   6.658  0.2977 -0.3369  1.2518
 7461SOL     OW33841   3.540   3.779   6.603 -0.1865 -0.6450  0.1243
 7461SOL    HW133842   3.602   3.706   6.603 -1.2804 -1.6018 -3.0905
 7461SOL    HW233843   3.528   3.790   6.508  2.0151  2.8753  0.2466
 7462SOL     OW33844   0.015   4.644   6.318  0.3225 -0.3719 -0.1580
 7462SOL    HW133845   4.674   4.578   6.295  0.3098 -0.4884  0.2288
 7462SOL    HW233846   0.053   4.620   6.402 -0.1830 -2.2589 -0.4698
 7463SOL     OW33847   2.580   4.167  12.924 -0.3622  0.1913 -0.8000
 7463SOL    HW133848   2.658   4.137  12.971 -0.5501  0.0509 -0.5756
 7463SOL    HW233849   2.616   4.158  12.836 -1.8342 -2.8679 -1.0996
 7464SOL     OW33850   0.132   4.029   4.316 -0.0563 -0.6286 -0.6326
 7464SOL    HW133851   0.176   4.000   4.235 -1.2524  0.8831 -1.8119
 7464SOL    HW233852   0.213   4.042   4.366 -0.7917 -0.2032  0.4262
 7465SOL     OW33853   4.009   1.387   3.247  0.0839 -0.1191 -0.3444
 7465SOL    HW133854   3.991   1.475   3.214  2.3247  0.8847  1.0822
 7465SOL    HW233855   4.072   1.403   3.317 -0.1309  1.0170 -0.4098
 7466SOL     OW33856   2.288   0.536   6.124  0.1952 -0.1225 -0.3453
 7466SOL    HW133857   2.253   0.620   6.152  0.6834  0.1152 -0.4496
 7466SOL    HW233858   2.378   0.526   6.155 -0.4305 -2.2010  0.7546
 7467SOL     OW33859   4.122   0.630   6.920 -0.0262 -0.7981 -0.6756
 7467SOL    HW133860   4.204   0.585   6.898  0.1576  0.6558 -2.8823
 7467SOL    HW233861   4.114   0.594   7.009 -2.0723  0.3113 -0.4171
 7468SOL     OW33862   4.496   4.487  13.790 -0.5260 -0.7658 -0.1866
 7468SOL    HW133863   4.456   4.561  13.745 -0.8067  0.3049  1.8060
 7468SOL    HW233864   4.478   4.513  13.880 -1.0413  0.7470 -0.7259
 7469SOL     OW33865   1.006   3.851   4.127 -0.7194 -0.0627  0.3091
 7469SOL    HW133866   1.042   3.939   4.116 -0.0000 -0.5289 -1.0355
 7469SOL    HW233867   1.022   3.811   4.042  0.4154  0.5196  0.2482
 7470SOL     OW33868   1.081   1.244   7.358  0.5962 -0.5268  0.3426
 7470SOL    HW133869   1.103   1.267   7.448  1.9317 -0.7826  0.0693
 7470SOL    HW233870   1.045   1.329   7.331  0.7003 -0.7621 -0.5155
 7471SOL     OW33871   4.044   3.969   0.904 -0.1750  0.6440 -0.2216
 7471SOL    HW133872   4.126   3.987   0.859 -0.3497 -0.0713 -0.8287
 7471SOL    HW233873   4.017   4.057   0.930  0.7676  0.9461 -0.2851
 7472SOL     OW33874   2.979   2.477   7.090  0.6881  0.2620 -0.0421
 7472SOL    HW133875   2.936   2.562   7.078  0.7723  0.5068  1.4300
 7472SOL    HW233876   2.947   2.437   7.009  0.1496  1.2335 -0.3174
 7473SOL     OW33877   1.996   0.484   9.148  0.9254 -0.0971  0.4103
 7473SOL    HW133878   2.038   0.428   9.083 -1.0084 -0.2585 -0.7022
 7473SOL    HW233879   2.073   0.522   9.189 -0.4222  1.8843  1.0692
 7474SOL     OW33880   0.116   3.935   4.997 -0.0670  0.1900 -0.3262
 7474SOL    HW133881   0.172   4.010   4.976  0.1028  0.0865 -0.2410
 7474SOL    HW233882   0.179   3.864   5.008 -1.1559 -0.7894 -0.3991
 7475SOL     OW33883   3.788   4.578   3.856 -0.7726 -0.2442 -0.4291
 7475SOL    HW133884   3.706   4.627   3.860 -0.7548 -0.3672  1.2959
 7475SOL    HW233885   3.801   4.591   3.762 -0.1560  0.0982 -0.2984
 7476SOL     OW33886   1.922   2.362   5.964 -0.0609 -0.3384 -0.7112
 7476SOL    HW133887   2.007   2.398   5.940 -0.8928  2.3773  0.4628
 7476SOL    HW233888   1.938   2.268   5.968 -0.7905 -0.4586 -0.5523
 7477SOL     OW33889   3.068   0.944   1.252  0.3456 -0.2559  0.6904
 7477SOL    HW133890   3.067   1.013   1.318  1.5770  0.4347 -0.0144
 7477SOL    HW233891   2.993   0.974   1.202  0.6140 -1.3053 -0.3528
 7478SOL     OW33892   4.412   2.657   1.441 -0.3176 -0.0525  0.2619
 7478SOL    HW133893   4.406   2.745   1.404  0.2500  0.3729  1.1947
 7478SOL    HW233894   4.468   2.683   1.514  0.8479  2.9015 -1.6909
 7479SOL     OW33895   0.733   4.065  16.326 -0.0369 -0.1510 -0.2750
 7479SOL    HW133896   0.701   4.072  16.236 -0.3024 -0.0775 -0.1746
 7479SOL    HW233897   0.804   4.129  16.318 -0.0273  0.1058  2.0052
 7480SOL     OW33898   4.187   1.117   2.864  0.2020  0.2587  0.0177
 7480SOL    HW133899   4.144   1.115   2.949 -0.4772 -0.1568 -0.3339
 7480SOL    HW233900   4.152   1.194   2.820  1.4375  0.8255  0.0343
 7481SOL     OW33901   0.251   1.922  10.936 -0.9527  0.3061  0.0734
 7481SOL    HW133902   0.294   1.874  11.008  0.7327  0.8935 -0.5376
 7481SOL    HW233903   0.179   1.975  10.971 -0.7275  0.4713  0.2888
 7482SOL     OW33904   3.012   1.043   4.400 -0.2015 -0.3286 -0.6710
 7482SOL    HW133905   3.027   1.116   4.340 -1.1726  1.0361  0.7412
 7482SOL    HW233906   2.917   1.037   4.411 -0.1683  2.1275  0.9927
 7483SOL     OW33907   2.317   4.543  11.086 -0.8191  0.7960  0.0903
 7483SOL    HW133908   2.321   4.481  11.159  1.7053  1.9526  0.9163
 7483SOL    HW233909   2.231   4.576  11.111 -0.9373 -0.9710  2.0478
 7484SOL     OW33910   1.254   2.069   5.418  0.7302  0.1563 -0.3595
 7484SOL    HW133911   1.338   2.079   5.373 -0.3719  0.2615 -2.3640
 7484SOL    HW233912   1.237   2.163   5.422 -0.5870 -0.0384 -1.3397
 7485SOL     OW33913   3.946   3.859   8.617 -0.7158 -0.2457 -0.7616
 7485SOL    HW133914   3.858   3.844   8.651 -0.5093  0.4141  0.0659
 7485SOL    HW233915   3.935   3.953   8.604 -0.8730 -0.2573 -0.7127
 7486SOL     OW33916   1.784   0.050   4.702 -0.4981  0.1748 -0.3987
 7486SOL    HW133917   1.692   0.071   4.716 -0.5411 -0.1543 -0.1846
 7486SOL    HW233918   1.820   0.134   4.673 -1.8730  1.2327  0.9825
 7487SOL     OW33919   2.218   4.626   0.709  0.5711 -0.3231  0.8531
 7487SOL    HW133920   2.175   4.578   0.779  0.2225 -1.0834  0.1182
 7487SOL    HW233921   2.145   4.657   0.654 -0.1170 -0.7186  1.5385
 7488SOL     OW33922   4.142   0.265   5.814 -0.0602 -0.3108 -0.1819
 7488SOL    HW133923   4.091   0.317   5.877  1.1210 -0.3204  0.7799
 7488SOL    HW233924   4.082   0.254   5.741 -1.2838 -0.3982  0.8270
 7489SOL     OW33925   1.409   0.031   6.109  0.2069 -0.1857 -0.4459
 7489SOL    HW133926   1.460   0.100   6.069  0.0775 -0.3770 -0.9363
 7489SOL    HW233927   1.392   0.074   6.193  0.5851 -1.5803  0.3489
 7490SOL     OW33928   1.417   0.229   3.637 -0.3082 -0.6859  0.3028
 7490SOL    HW133929   1.486   0.164   3.651 -0.1533 -0.3440  1.1317
 7490SOL    HW233930   1.438   0.256   3.548  1.5462  1.3452  1.3607
 7491SOL     OW33931   2.808   0.192   4.641 -0.0535  0.4285  0.0775
 7491SOL    HW133932   2.862   0.114   4.629 -1.2749 -0.5246  0.8157
 7491SOL    HW233933   2.873   0.258   4.668 -0.8697  2.0439 -1.9638
 7492SOL     OW33934   1.049   0.193   7.982  0.3937 -0.0112 -0.0103
 7492SOL    HW133935   0.985   0.127   8.009 -0.1680  0.8056  0.6623
 7492SOL    HW233936   1.118   0.130   7.960 -0.9179 -0.8007 -1.7901
 7493SOL     OW33937   0.277   0.890   3.775 -0.1603 -0.5715 -0.0163
 7493SOL    HW133938   0.280   0.983   3.750 -1.0803 -0.8261 -1.0626
 7493SOL    HW233939   0.287   0.900   3.869 -1.0020 -1.7096  0.1834
 7494SOL     OW33940   0.292   3.662   6.725  0.0241 -0.3262 -0.7492
 7494SOL    HW133941   0.312   3.750   6.695  1.9991  0.2579  2.3089
 7494SOL    HW233942   0.199   3.660   6.701 -0.5627  2.9305  1.2451
 7495SOL     OW33943   1.239   0.348   4.898  0.0946  0.5078 -0.2551
 7495SOL    HW133944   1.287   0.402   4.961 -0.2985 -0.5875  0.9828
 7495SOL    HW233945   1.154   0.393   4.900  0.5493  1.3512  0.2416
 7496SOL     OW33946   3.591   3.989   2.134  0.2343 -0.2504  0.1293
 7496SOL    HW133947   3.530   4.057   2.162 -0.2773 -0.0747 -1.4504
 7496SOL    HW233948   3.604   4.008   2.042  0.1540  1.3558  0.4549
 7497SOL     OW33949   4.410   0.671   1.765 -0.5663 -0.0313  0.7236
 7497SOL    HW133950   4.420   0.765   1.747 -0.8371 -0.0850  0.3107
 7497SOL    HW233951   4.456   0.659   1.848  0.4957 -0.1293  0.1178
 7498SOL     OW33952   2.402   0.970   0.041 -0.1119  0.6582  0.0992
 7498SOL    HW133953   2.313   0.943   0.063 -0.7629  1.8558 -1.0730
 7498SOL    HW233954   2.449   0.987   0.123 -0.3728 -0.9947  0.5920
 7499SOL     OW33955   4.221   4.065   5.954  0.4344  0.0403  0.5182
 7499SOL    HW133956   4.147   4.113   5.918  0.8609  1.2686  1.3094
 7499SOL    HW233957   4.278   4.077   5.878  1.7771  4.1177  2.2113
 7500SOL     OW33958   2.708   4.392   5.400 -0.1857  0.2015 -0.2878
 7500SOL    HW133959   2.654   4.383   5.322 -1.7489  1.9222  0.5947
 7500SOL    HW233960   2.715   4.299   5.422 -0.4151  0.7068  1.8966
 7501SOL     OW33961   3.606   3.542   9.427 -0.5596 -0.0732 -0.0742
 7501SOL    HW133962   3.624   3.450   9.444 -1.2110  0.0589  1.3226
 7501SOL    HW233963   3.534   3.562   9.487  0.2792 -0.9859  1.2255
 7502SOL     OW33964   1.734   1.367   5.837 -1.2221 -0.0174 -0.0213
 7502SOL    HW133965   1.782   1.415   5.905 -3.0501  1.8675 -0.0376
 7502SOL    HW233966   1.647   1.392   5.870 -1.2798 -1.9087  1.2564
 7503SOL     OW33967   4.581   0.644  13.570  0.1317 -0.2148 -0.5923
 7503SOL    HW133968   4.562   0.639  13.664 -1.1969  2.6050 -0.7149
 7503SOL    HW233969   4.676   0.648  13.567  0.2119 -2.3899 -0.9756
 7504SOL     OW33970   0.898   4.641   6.596 -0.7282 -0.3186  0.4180
 7504SOL    HW133971   0.898   0.011   6.583  0.6518 -0.5307 -1.1507
 7504SOL    HW233972   0.866   4.637   6.686  0.5257 -0.9599  0.8327
 7505SOL     OW33973   1.338   2.416   4.835  0.4476 -0.3977  0.4641
 7505SOL    HW133974   1.349   2.368   4.917 -0.9195 -2.2112 -0.4317
 7505SOL    HW233975   1.430   2.430   4.813  0.5762 -2.2966 -0.1964
 7506SOL     OW33976   2.080   0.285  12.998 -0.0445 -0.0329 -0.5634
 7506SOL    HW133977   1.991   0.266  12.970 -0.2461 -3.2293  2.2272
 7506SOL    HW233978   2.132   0.258  12.922 -1.5525 -0.7214 -1.3567
 7507SOL     OW33979   1.278   2.108  10.498 -0.7280 -0.0061 -0.4788
 7507SOL    HW133980   1.310   2.019  10.511  0.1994  0.5429  1.0193
 7507SOL    HW233981   1.356   2.139  10.451 -0.0927  0.3435  0.8250
 7508SOL     OW33982   3.119   0.620   7.953  0.1271  0.1902  0.0072
 7508SOL    HW133983   3.158   0.679   8.017 -1.4237  0.5653  0.5823
 7508SOL    HW233984   3.048   0.584   8.005 -0.0520  1.5621  0.7136
 7509SOL     OW33985   4.640   1.319   6.077  0.1281  0.3464  0.6139
 7509SOL    HW133986   4.595   1.364   6.149 -2.4259 -1.0490 -0.1051
 7509SOL    HW233987   4.609   1.375   6.006 -0.9594  0.3075  1.0596
 7510SOL     OW33988   1.968   4.265   3.879  0.1545  0.2381  0.1886
 7510SOL    HW133989   1.892   4.234   3.830 -0.2418 -1.8506  2.1666
 7510SOL    HW233990   1.939   4.340   3.931 -1.6032 -1.6657  1.9485
 7511SOL     OW33991   2.778   1.829  13.682  0.6555  0.1210  0.0769
 7511SOL    HW133992   2.709   1.837  13.748  1.8158  2.0563  1.0595
 7511SOL    HW233993   2.720   1.828  13.605 -1.4289  1.0070  1.6305
 7512SOL     OW33994   0.811   1.546   2.333 -0.6944  0.2243 -0.1426
 7512SOL    HW133995   0.750   1.551   2.260  0.6855  0.9026 -1.2591
 7512SOL    HW233996   0.838   1.455   2.320  1.9367  0.9536  0.0647
 7513SOL     OW33997   1.187   3.186   9.158  0.4794  0.3371 -0.2801
 7513SOL    HW133998   1.221   3.255   9.215  1.1382  0.4677 -0.8414
 7513SOL    HW233999   1.127   3.238   9.105 -1.2468  1.2889  2.5832
 7514SOL     OW34000   3.691   1.920   8.071 -0.2955 -0.1896  0.4769
 7514SOL    HW134001   3.652   1.999   8.033 -0.1679 -1.9818 -3.3550
 7514SOL    HW234002   3.741   1.886   7.997 -0.7853  0.4784 -0.1591
 7515SOL     OW34003   3.425   3.668   5.415 -0.7587  0.0755 -0.2073
 7515SOL    HW134004   3.521   3.662   5.417 -0.8889 -1.6984  0.2905
 7515SOL    HW234005   3.402   3.628   5.331  0.7645  1.2159 -1.1820
 7516SOL     OW34006   3.196   2.514  10.068  0.2419  0.3826 -0.2164
 7516SOL    HW134007   3.112   2.548  10.036  0.3735  0.8726 -0.0427
 7516SOL    HW234008   3.248   2.481   9.995  1.3640  1.4016  0.1211
 7517SOL     OW34009   4.136   0.581   4.368  0.6018  0.4520 -0.0644
 7517SOL    HW134010   4.175   0.512   4.422  0.5402  0.8049  0.4333
 7517SOL    HW234011   4.126   0.530   4.288  1.5902 -1.7917  1.2471
 7518SOL     OW34012   3.402   2.627   8.262  0.0923 -0.0266  0.0570
 7518SOL    HW134013   3.367   2.568   8.328 -1.1763 -1.1526 -1.6048
 7518SOL    HW234014   3.475   2.579   8.224  0.8992 -0.1464  1.7545
 7519SOL     OW34015   0.680   2.197   2.513  0.0196  0.0910 -0.6340
 7519SOL    HW134016   0.718   2.231   2.432  1.3249  1.2959  0.4872
 7519SOL    HW234017   0.728   2.115   2.524 -1.0342 -0.5892 -1.1930
 7520SOL     OW34018   2.094   4.685   3.482  0.2067  0.2048 -0.0798
 7520SOL    HW134019   2.148   4.678   3.561  0.9269 -0.9246 -0.6662
 7520SOL    HW234020   2.152   4.635   3.424 -0.8986 -1.1451 -0.0145
 7521SOL     OW34021   2.834   4.060  16.230  0.1630 -0.0300  0.1337
 7521SOL    HW134022   2.850   3.971  16.200 -1.4242  0.3045 -1.6943
 7521SOL    HW234023   2.815   4.037  16.321 -2.7543 -0.0753 -0.4652
 7522SOL     OW34024   4.329   1.391   8.070 -0.4674  0.4234 -0.0265
 7522SOL    HW134025   4.239   1.379   8.098  0.0095 -0.4529  1.1379
 7522SOL    HW234026   4.339   1.342   7.989  0.3991  1.2279 -0.4046
 7523SOL     OW34027   4.194   2.639  15.299 -0.0568 -0.7650  0.2140
 7523SOL    HW134028   4.200   2.680  15.213  2.1112  0.7503  1.1036
 7523SOL    HW234029   4.114   2.588  15.281  0.1885  0.0785 -3.2769
 7524SOL     OW34030   2.873   1.970   2.932 -0.2344 -0.2507  0.0304
 7524SOL    HW134031   2.805   1.971   3.000 -0.1849 -1.0411  0.1010
 7524SOL    HW234032   2.822   1.997   2.855  1.7072  1.7165 -0.5423
 7525SOL     OW34033   0.148   4.298   3.746  0.5959  0.7007  0.0565
 7525SOL    HW134034   0.157   4.224   3.806 -1.7440  1.2923  1.1244
 7525SOL    HW234035   0.229   4.294   3.695 -1.4256 -0.8156 -3.0512
 7526SOL     OW34036   1.339   3.493   0.786 -0.9388  0.1147  0.4012
 7526SOL    HW134037   1.318   3.586   0.787  0.6647  0.4611  1.5492
 7526SOL    HW234038   1.363   3.478   0.877  1.0712  0.1086 -0.1294
 7527SOL     OW34039   0.308   2.340   8.242  0.1869  0.2299 -0.5733
 7527SOL    HW134040   0.270   2.265   8.287  2.4523 -0.9131 -0.6171
 7527SOL    HW234041   0.398   2.343   8.274  0.7435  2.0237 -2.3337
 7528SOL     OW34042   4.344   3.087   7.017  0.4981 -0.6850 -0.5000
 7528SOL    HW134043   4.382   3.002   7.038  0.6053 -0.9705 -1.8616
 7528SOL    HW234044   4.252   3.071   7.000  0.4248  0.6048 -1.3344
 7529SOL     OW34045   4.337   3.382   7.039  0.3891  0.0797  0.2172
 7529SOL    HW134046   4.256   3.396   6.991 -0.8918 -1.0894  2.0410
 7529SOL    HW234047   4.329   3.288   7.058 -1.3396  0.0401 -0.7186
 7530SOL     OW34048   3.754   3.611   6.020 -0.8113 -0.3436  0.0667
 7530SOL    HW134049   3.817   3.668   5.976 -0.6223  0.2244  1.0658
 7530SOL    HW234050   3.675   3.643   5.977 -0.0800  1.2957 -0.0491
 7531SOL     OW34051   3.471   2.631   5.422  0.2567  0.1123 -0.1486
 7531SOL    HW134052   3.505   2.559   5.369  0.1920  0.5299 -0.7559
 7531SOL    HW234053   3.527   2.701   5.389 -1.0419  0.7907 -0.9251
 7532SOL     OW34054   1.110   4.461  10.011  0.6403 -0.2579 -0.6218
 7532SOL    HW134055   1.058   4.539   9.992 -1.5761 -1.3720  0.8660
 7532SOL    HW234056   1.198   4.496  10.024  0.5830 -0.2145 -0.3508
 7533SOL     OW34057   1.908   2.216   0.145 -0.5217  0.5879  0.2908
 7533SOL    HW134058   1.927   2.237   0.237  0.9324 -1.9455  0.5691
 7533SOL    HW234059   1.960   2.137   0.134  0.1522  1.3348 -1.8864
 7534SOL     OW34060   0.377   0.706   8.596 -0.0603 -0.0180 -0.0185
 7534SOL    HW134061   0.400   0.697   8.689 -0.3032  1.3344  0.1705
 7534SOL    HW234062   0.284   0.721   8.608  0.4495  1.5908  1.8632
 7535SOL     OW34063   1.830   4.098   2.012  0.4356 -0.2918  0.1701
 7535SOL    HW134064   1.900   4.160   1.991 -0.4032  0.3626 -0.7321
 7535SOL    HW234065   1.819   4.068   1.922 -2.4886 -2.6182  1.3172
 7536SOL     OW34066   4.675   0.316   9.935 -0.1070  0.0213 -0.2849
 7536SOL    HW134067   4.604   0.376   9.960  0.7736  0.3195  1.4888
 7536SOL    HW234068   4.636   0.229   9.932 -0.6705  0.2640 -0.0164
 7537SOL     OW34069   2.446   3.672   2.305  0.1796  0.1615  0.1776
 7537SOL    HW134070   2.536   3.673   2.272  0.2185  1.8336  0.3358
 7537SOL    HW234071   2.421   3.756   2.344 -0.1317  0.0629  0.1906
 7538SOL     OW34072   4.362   4.450   5.071 -0.4835 -0.3311 -0.2574
 7538SOL    HW134073   4.382   4.397   5.148 -0.7201  0.4470  0.3397
 7538SOL    HW234074   4.432   4.515   5.078 -2.7800  1.8920  2.0257
 7539SOL     OW34075   0.056   1.313   2.485 -0.0029  0.7215  0.1239
 7539SOL    HW134076   0.136   1.275   2.519 -1.1256 -0.4086  1.4967
 7539SOL    HW234077   4.715   1.243   2.497 -0.7596  1.3267 -0.4515
 7540SOL     OW34078   4.516   3.992   7.759 -0.8628 -0.2135 -0.0703
 7540SOL    HW134079   4.485   3.938   7.686  0.8570 -2.1312  0.5971
 7540SOL    HW234080   4.448   3.978   7.824  0.3167  0.7930  1.3754
 7541SOL     OW34081   1.489   3.682   3.195 -0.0203 -0.1540 -0.1266
 7541SOL    HW134082   1.584   3.672   3.194  0.2270  2.1560  0.8842
 7541SOL    HW234083   1.472   3.776   3.193  2.4462  0.3354  1.7338
 7542SOL     OW34084   1.171   0.530   5.226  0.8173 -0.5806  0.7391
 7542SOL    HW134085   1.134   0.456   5.275 -2.0601 -1.0806 -2.1752
 7542SOL    HW234086   1.103   0.544   5.160  2.1817  3.1435  0.1132
 7543SOL     OW34087   3.323   1.698   3.819 -0.4963  0.3471  0.1553
 7543SOL    HW134088   3.362   1.777   3.857  0.8586  1.1035 -2.8102
 7543SOL    HW234089   3.316   1.721   3.727 -0.2228 -3.1367 -0.7380
 7544SOL     OW34090   1.272   1.816   5.231 -0.4675  0.2679 -0.2278
 7544SOL    HW134091   1.365   1.829   5.249 -0.1566 -1.1667 -0.8154
 7544SOL    HW234092   1.265   1.866   5.150 -0.6187 -0.2786 -0.5490
 7545SOL     OW34093   1.723   4.070   4.254  1.3280 -0.6462  0.1449
 7545SOL    HW134094   1.809   4.111   4.244  1.2905 -0.4216  0.7370
 7545SOL    HW234095   1.684   4.097   4.171  1.3091 -0.2813  0.2674
 7546SOL     OW34096   4.070   1.962   7.963 -0.0313 -0.0969 -0.2676
 7546SOL    HW134097   4.166   1.962   7.973 -0.1313  2.7481  0.4526
 7546SOL    HW234098   4.051   1.882   8.013  0.3131  1.3728  2.1941
 7547SOL     OW34099   4.254   4.180  14.351 -0.7380  0.1324 -0.9170
 7547SOL    HW134100   4.212   4.098  14.378  0.9564 -0.7046 -0.8154
 7547SOL    HW234101   4.247   4.177  14.256  0.4537  0.8937 -1.0189
 7548SOL     OW34102   4.565   2.302  11.335 -0.0952 -1.1128 -0.2314
 7548SOL    HW134103   4.653   2.320  11.304  0.8106 -0.1765  2.8456
 7548SOL    HW234104   4.542   2.382  11.383  0.4640 -1.4713  0.6332
 7549SOL     OW34105   2.072   2.696   9.006  0.4648 -0.4048 -0.4134
 7549SOL    HW134106   2.096   2.773   9.059 -0.6122  0.5501 -1.3001
 7549SOL    HW234107   2.039   2.633   9.070 -2.0473 -1.8642 -3.1661
 7550SOL     OW34108   4.166   4.495   4.637 -0.0794  0.2487 -0.5716
 7550SOL    HW134109   4.215   4.435   4.693 -1.9187 -0.5077  0.2296
 7550SOL    HW234110   4.077   4.513   4.668  0.2334  0.1688  0.3580
 7551SOL     OW34111   3.282   2.704  15.260  0.4757  0.7083  0.1113
 7551SOL    HW134112   3.268   2.667  15.173 -0.7959  1.1797  0.1195
 7551SOL    HW234113   3.217   2.773  15.271  1.0115  0.8544  2.3540
 7552SOL     OW34114   0.375   1.260  13.370 -0.4970 -0.3336 -0.0458
 7552SOL    HW134115   0.378   1.294  13.460 -2.0950  2.5636 -1.0991
 7552SOL    HW234116   0.351   1.343  13.329  0.5610  0.0711  0.1565
 7553SOL     OW34117   3.283   0.990   4.483  0.0707  0.0075  0.4354
 7553SOL    HW134118   3.194   1.024   4.477  0.5796  1.1478 -0.5240
 7553SOL    HW234119   3.315   1.047   4.414  2.0154 -1.2175  0.3246
 7554SOL     OW34120   3.009   2.775   2.879  0.5710 -1.1569  0.1128
 7554SOL    HW134121   3.065   2.802   2.951  0.4738 -1.8882  0.4641
 7554SOL    HW234122   3.067   2.721   2.825  1.0808  0.9057 -1.3801
 7555SOL     OW34123   0.848   3.585   6.168 -0.3208  0.3432 -0.1236
 7555SOL    HW134124   0.911   3.583   6.240  0.2228 -1.8318 -0.6389
 7555SOL    HW234125   0.804   3.501   6.182  1.2643 -0.3722  0.6186
 7556SOL     OW34126   3.900   3.767   3.213  0.2632 -0.7003  0.1393
 7556SOL    HW134127   3.892   3.742   3.121  0.7116 -0.1618 -0.0426
 7556SOL    HW234128   3.994   3.784   3.215  0.1863 -0.4302  1.2430
 7557SOL     OW34129   0.492   2.687   3.674  0.2115 -0.4501 -0.4413
 7557SOL    HW134130   0.406   2.649   3.691 -0.8645  0.4824 -3.7369
 7557SOL    HW234131   0.465   2.704   3.584 -0.2424 -1.5236 -0.5050
 7558SOL     OW34132   0.156   1.322   8.691 -0.1778  0.1199  0.5624
 7558SOL    HW134133   0.164   1.235   8.731 -1.9049 -1.2501 -2.0228
 7558SOL    HW234134   0.239   1.359   8.721  0.4127 -0.6339 -0.1003
 7559SOL     OW34135   1.450   4.359   4.199 -0.2766  0.2760 -0.0074
 7559SOL    HW134136   1.462   4.293   4.266 -1.1892  1.5976  1.4534
 7559SOL    HW234137   1.373   4.404   4.235 -1.7808 -1.6940 -0.7720
 7560SOL     OW34138   1.270   4.032   2.619 -0.3993  0.5787  0.3090
 7560SOL    HW134139   1.185   4.052   2.580  0.1040  1.7272 -0.1831
 7560SOL    HW234140   1.269   3.936   2.625  0.8671  0.5500  0.1331
 7561SOL     OW34141   3.108   2.731   6.803  0.3195  0.8147  0.3904
 7561SOL    HW134142   3.027   2.777   6.826 -1.0678 -0.4630 -2.0063
 7561SOL    HW234143   3.154   2.759   6.883  2.1853  1.1011 -0.7802
 7562SOL     OW34144   2.560   1.720   0.231  0.1894 -0.1788  0.2453
 7562SOL    HW134145   2.623   1.663   0.275  0.2873 -1.0256 -1.0114
 7562SOL    HW234146   2.603   1.804   0.252  1.9148 -1.4182  1.7080
 7563SOL     OW34147   1.227   2.326   3.582 -0.1925 -0.4735 -0.0258
 7563SOL    HW134148   1.151   2.382   3.568 -0.7106 -0.4230  3.0420
 7563SOL    HW234149   1.198   2.266   3.651  1.3320 -0.3471  0.7315
 7564SOL     OW34150   3.744   3.220   8.386 -0.4709 -0.3592  0.4864
 7564SOL    HW134151   3.681   3.212   8.315  1.1617 -0.5138 -0.9236
 7564SOL    HW234152   3.743   3.135   8.430 -0.8080  0.0503  1.2869
 7565SOL     OW34153   3.276   3.019  11.108  0.1108 -0.1476 -0.3787
 7565SOL    HW134154   3.302   3.111  11.105 -1.2816  0.2375 -0.5015
 7565SOL    HW234155   3.219   3.006  11.032  0.1719  1.9369 -0.7802
 7566SOL     OW34156   0.688   0.876   7.536  0.1993  0.1863  0.3881
 7566SOL    HW134157   0.744   0.830   7.474  0.1583  0.1949  0.3450
 7566SOL    HW234158   0.622   0.912   7.477 -0.5392  0.3260  1.2942
 7567SOL     OW34159   0.241   1.209   4.775 -0.0166  0.3346 -0.3432
 7567SOL    HW134160   0.324   1.253   4.791 -1.0285  0.8568  3.5738
 7567SOL    HW234161   0.268   1.124   4.809  0.6306  0.5255 -0.3845
 7568SOL     OW34162   2.378   3.148   4.235  0.4553  0.6116 -0.1518
 7568SOL    HW134163   2.433   3.165   4.159  0.8155  0.0003 -0.0278
 7568SOL    HW234164   2.398   3.056   4.249 -0.0626  0.2667 -1.7185
 7569SOL     OW34165   3.269   3.092   4.163 -0.4783 -0.2489  0.0979
 7569SOL    HW134166   3.196   3.030   4.171 -1.3800  0.9578  1.1427
 7569SOL    HW234167   3.227   3.177   4.168  0.2205  0.2095 -1.5406
 7570SOL     OW34168   2.473   1.806   6.678 -0.0319  0.3925 -0.0413
 7570SOL    HW134169   2.383   1.785   6.653  0.2379 -0.7298 -0.0405
 7570SOL    HW234170   2.468   1.901   6.663 -3.3869  0.2310  0.0176
 7571SOL     OW34171   2.184   1.524  15.535 -0.1854 -0.2939  0.1837
 7571SOL    HW134172   2.201   1.544  15.627  1.0686  0.6163 -0.2576
 7571SOL    HW234173   2.122   1.595  15.518  0.9326  0.6464  0.0466
 7572SOL     OW34174   2.969   1.885   8.947 -0.4174 -0.4053 -0.1460
 7572SOL    HW134175   2.986   1.847   9.033 -0.4312  1.1069  0.5322
 7572SOL    HW234176   3.058   1.878   8.914  0.2694  3.3310  0.9311
 7573SOL     OW34177   1.693   1.327  13.996  0.2149  0.1524  0.2696
 7573SOL    HW134178   1.687   1.247  14.048  0.2277  0.5910  0.9425
 7573SOL    HW234179   1.788   1.340  13.995  0.2778 -0.3425 -0.7734
 7574SOL     OW34180   3.354   1.963   2.067 -0.6223  0.6814 -0.1163
 7574SOL    HW134181   3.404   2.043   2.084 -0.4256  1.0245 -2.2402
 7574SOL    HW234182   3.391   1.923   1.988  0.9726 -0.9328  1.4645
 7575SOL     OW34183   2.497   2.124   2.931 -0.0292  0.1491 -0.2695
 7575SOL    HW134184   2.419   2.122   2.986 -2.1975 -0.5613 -3.3996
 7575SOL    HW234185   2.455   2.141   2.847  1.2440 -3.5828 -1.6718
 7576SOL     OW34186   0.042   2.529   9.926  0.2629  0.1769  0.6894
 7576SOL    HW134187   4.710   2.494   9.858  1.1677 -2.1220  1.1240
 7576SOL    HW234188   4.705   2.595   9.959 -0.7064  0.0059 -0.7715
 7577SOL     OW34189   2.826   0.474   4.835  0.6751 -0.2445 -0.1505
 7577SOL    HW134190   2.806   0.501   4.924  2.3829 -0.8628  0.4196
 7577SOL    HW234191   2.737   0.450   4.807  0.6687  0.1791 -0.4914
 7578SOL     OW34192   2.699   4.418   8.416 -0.2559 -0.1596  0.4148
 7578SOL    HW134193   2.640   4.352   8.453 -1.6081  0.9843  0.2796
 7578SOL    HW234194   2.643   4.484   8.375 -0.0050 -0.6587 -0.7409
 7579SOL     OW34195   1.152   0.869   0.496  0.1549 -0.2841 -0.6516
 7579SOL    HW134196   1.058   0.849   0.497 -0.2776  1.8651  2.0227
 7579SOL    HW234197   1.171   0.860   0.403 -2.5028  0.2856 -1.2646
 7580SOL     OW34198   2.712   4.328   2.943 -0.2775 -0.0595 -0.1832
 7580SOL    HW134199   2.680   4.267   3.010  1.0065 -1.5950 -0.9842
 7580SOL    HW234200   2.795   4.289   2.915  0.0867  1.0100 -0.5969
 7581SOL     OW34201   1.649   1.604   5.275 -0.1464  0.3394 -0.5221
 7581SOL    HW134202   1.567   1.556   5.261 -0.2090 -0.4883  2.6114
 7581SOL    HW234203   1.621   1.695   5.270 -0.6276  0.2201  0.1063
 7582SOL     OW34204   2.917   2.372   2.879  0.1353 -0.4998 -0.6119
 7582SOL    HW134205   2.857   2.361   2.952  0.6990  0.6498  0.0231
 7582SOL    HW234206   2.859   2.361   2.803 -1.5368  0.7934  0.4961
 7583SOL     OW34207   3.653   2.049   2.412 -0.0716  0.2950 -0.5713
 7583SOL    HW134208   3.666   1.966   2.366 -0.8969 -0.0549 -0.1680
 7583SOL    HW234209   3.725   2.099   2.375  0.2217  0.5534  0.3569
 7584SOL     OW34210   3.218   2.359  10.571  0.9378 -0.6442 -0.7921
 7584SOL    HW134211   3.229   2.424  10.640  2.9067  0.0045 -1.7360
 7584SOL    HW234212   3.264   2.392  10.494 -1.0671 -1.3567 -2.3007
 7585SOL     OW34213   3.017   2.009   5.861 -0.0386  0.6953 -0.4806
 7585SOL    HW134214   3.087   2.074   5.861 -0.7281  1.4446 -0.6931
 7585SOL    HW234215   3.010   1.986   5.768  0.5736  2.1519 -0.8899
 7586SOL     OW34216   2.064   4.481   7.730  0.1616  0.0193 -0.0808
 7586SOL    HW134217   1.985   4.468   7.678 -1.4549 -0.6920  2.5582
 7586SOL    HW234218   2.018   4.488   7.814 -1.5508  0.8307 -1.0834
 7587SOL     OW34219   2.872   1.742  11.453 -1.0112  0.1188  0.6407
 7587SOL    HW134220   2.962   1.741  11.418 -0.9844  1.5186  0.6389
 7587SOL    HW234221   2.826   1.751  11.370 -0.1292 -2.4845 -0.1109
 7588SOL     OW34222   4.635   2.628   3.045 -0.1656 -0.5077 -0.0961
 7588SOL    HW134223   4.540   2.613   3.050 -0.3180 -0.0205 -1.3042
 7588SOL    HW234224   4.671   2.540   3.052  0.5672 -0.1692  0.3673
 7589SOL     OW34225   4.280   3.509   0.437  0.4542  0.1562 -0.1651
 7589SOL    HW134226   4.304   3.584   0.383  1.3782 -1.2442 -1.6981
 7589SOL    HW234227   4.329   3.439   0.393 -2.4363 -1.6908 -0.4727
 7590SOL     OW34228   1.082   4.460  12.111  0.0633  0.6363 -0.0145
 7590SOL    HW134229   1.155   4.461  12.173  1.3694  1.1503 -1.5753
 7590SOL    HW234230   1.129   4.474  12.029 -1.2338 -2.6323 -1.3044
 7591SOL     OW34231   0.050   1.992   5.004  1.2126 -0.2839  0.4396
 7591SOL    HW134232   4.721   2.060   4.964 -1.2197 -1.6709  1.2883
 7591SOL    HW234233   0.076   2.031   5.088  2.0080 -1.4522  0.7472
 7592SOL     OW34234   3.285   1.276  12.223  0.3733  0.3587 -0.0436
 7592SOL    HW134235   3.315   1.185  12.222  0.7756  0.4562  4.2548
 7592SOL    HW234236   3.292   1.288  12.318  1.0420 -0.4325  0.0077
 7593SOL     OW34237   3.540   0.799   3.463 -0.1114  1.0232  0.2513
 7593SOL    HW134238   3.474   0.868   3.456  0.2225  1.6635  3.4238
 7593SOL    HW234239   3.607   0.811   3.397 -0.2598  0.3921 -0.0195
 7594SOL     OW34240   1.149   3.441   5.981  0.3567  0.1328 -0.6080
 7594SOL    HW134241   1.140   3.481   6.067  2.3503 -0.7969  0.0500
 7594SOL    HW234242   1.077   3.484   5.936 -0.2806 -0.1479  0.1361
 7595SOL     OW34243   3.029   1.411  10.627 -0.2709 -0.5252 -0.1451
 7595SOL    HW134244   3.107   1.457  10.596 -0.8364 -1.6422 -3.1901
 7595SOL    HW234245   3.021   1.461  10.708 -0.8032  0.1961 -0.6416
 7596SOL     OW34246   1.310   2.115   7.965 -0.3547 -0.5631 -0.1542
 7596SOL    HW134247   1.283   2.203   7.992 -1.5677 -0.9999  0.0267
 7596SOL    HW234248   1.330   2.123   7.871 -2.5161  1.1097 -0.4643
 7597SOL     OW34249   3.288   3.954   0.015  0.0087  0.0496  0.0964
 7597SOL    HW134250   3.218   4.014   0.040 -0.8332 -0.7292 -0.3909
 7597SOL    HW234251   3.338   4.002  17.646 -0.2365 -1.3085 -1.0596
 7598SOL     OW34252   3.013   1.122  16.534 -0.3524 -0.1913 -0.4597
 7598SOL    HW134253   2.975   1.128  16.622  0.6935 -0.2375 -0.0070
 7598SOL    HW234254   3.096   1.167  16.543 -0.2797 -0.1101 -1.5971
 7599SOL     OW34255   4.671   1.740   5.005 -0.0554 -0.3419 -0.2311
 7599SOL    HW134256   4.720   1.821   4.991 -2.3173  0.9755 -0.6319
 7599SOL    HW234257   4.684   1.695   4.922  1.9326  0.7132 -0.5006
 7600SOL     OW34258   2.436   3.756  11.538  0.0789 -0.1109 -0.5763
 7600SOL    HW134259   2.495   3.708  11.596 -2.3731 -1.7181  0.5740
 7600SOL    HW234260   2.352   3.719  11.564 -0.1888 -0.9166 -2.5930
 7601SOL     OW34261   3.282   0.451  10.086 -0.0932  0.3651  0.2109
 7601SOL    HW134262   3.256   0.481   9.999  0.2353  0.6700  0.2221
 7601SOL    HW234263   3.266   0.525  10.145  0.9664  0.7202  0.0342
 7602SOL     OW34264   4.476   1.282   7.594 -0.0083  0.2071  0.8763
 7602SOL    HW134265   4.382   1.268   7.589 -0.1606  1.9407 -1.0898
 7602SOL    HW234266   4.494   1.346   7.526 -0.7283  0.2876  0.7698
 7603SOL     OW34267   3.710   0.777  12.120  0.2316  0.8915  0.2278
 7603SOL    HW134268   3.653   0.797  12.045 -1.5503 -2.2031  0.7725
 7603SOL    HW234269   3.681   0.843  12.182 -0.5785 -1.0436  1.8717
 7604SOL     OW34270   4.453   1.566   5.634 -0.3379 -0.5558 -0.8418
 7604SOL    HW134271   4.369   1.556   5.590 -0.1414  1.3898 -1.6930
 7604SOL    HW234272   4.478   1.656   5.609 -0.0484 -0.4665 -0.2319
 7605SOL     OW34273   1.522   0.064  14.442 -0.7101  0.6631 -0.6876
 7605SOL    HW134274   1.528   0.080  14.536  0.9214 -1.3050 -0.4610
 7605SOL    HW234275   1.518   0.157  14.421 -4.5227  0.4089 -1.0523
 7606SOL     OW34276   2.915   3.775   8.367 -0.2420 -0.0850 -0.1742
 7606SOL    HW134277   2.908   3.740   8.456  0.3824 -1.5693 -0.7099
 7606SOL    HW234278   2.996   3.825   8.365 -1.4778  1.9177 -0.4285
 7607SOL     OW34279   4.399   3.887   4.084  0.2729 -0.0657 -0.2449
 7607SOL    HW134280   4.406   3.933   4.001 -1.7462  0.1288 -0.3038
 7607SOL    HW234281   4.380   3.966   4.135 -0.7222 -1.2844  1.2682
 7608SOL     OW34282   1.932   3.092   4.441  1.1743  0.3392 -0.4292
 7608SOL    HW134283   1.981   3.172   4.420  1.9187 -0.2927 -1.0821
 7608SOL    HW234284   1.894   3.067   4.356 -2.5096  1.5776  0.8531
 7609SOL     OW34285   1.884   3.880  13.529  0.3402  0.3368  0.2842
 7609SOL    HW134286   1.926   3.808  13.482 -1.2746 -0.1954 -0.3152
 7609SOL    HW234287   1.821   3.913  13.465  0.6541  0.9098  0.2679
 7610SOL     OW34288   2.287   0.880   7.240  0.0968 -0.4447  0.5154
 7610SOL    HW134289   2.289   0.786   7.258  1.0270  0.0633  3.0052
 7610SOL    HW234290   2.240   0.885   7.157  0.4128  2.0264  0.4707
 7611SOL     OW34291   1.329   1.375   8.675 -0.2205  0.0287 -0.2641
 7611SOL    HW134292   1.258   1.311   8.684  1.2289 -1.2071  2.3211
 7611SOL    HW234293   1.334   1.417   8.760  0.2222 -0.3417 -0.1078
 7612SOL     OW34294   4.498   2.083   8.484  0.4025  0.1045 -0.0576
 7612SOL    HW134295   4.575   2.049   8.530  0.8763  1.5420  0.1973
 7612SOL    HW234296   4.487   2.019   8.413  0.9558 -0.6305  0.5115
 7613SOL     OW34297   2.159   2.911   2.947  0.3933  0.2166  0.3113
 7613SOL    HW134298   2.221   2.963   2.997 -0.4470  2.0053 -0.4897
 7613SOL    HW234299   2.116   2.981   2.899 -1.9084 -0.4390  1.3758
 7614SOL     OW34300   3.393   2.034   6.801  0.1700  0.2405  0.4622
 7614SOL    HW134301   3.314   2.021   6.852 -0.6039 -1.4444 -1.1446
 7614SOL    HW234302   3.416   2.121   6.831 -0.9940 -0.0592  2.2379
 7615SOL     OW34303   1.841   0.459  15.087 -0.0110 -0.0297  0.0945
 7615SOL    HW134304   1.936   0.455  15.095 -0.0681 -0.5480  0.5666
 7615SOL    HW234305   1.835   0.526  15.019  0.6044 -0.2523 -0.1794
 7616SOL     OW34306   4.705   2.478  17.672 -0.0959  0.3982  0.1666
 7616SOL    HW134307   0.028   2.395  17.664 -0.4999 -0.0072  1.9494
 7616SOL    HW234308   4.693   2.472   0.068  0.7474 -0.8904  0.1905
 7617SOL     OW34309   1.887   0.736  16.819  0.4362  0.1176  0.0623
 7617SOL    HW134310   1.850   0.821  16.796  0.8855  0.7341  1.6205
 7617SOL    HW234311   1.837   0.698  16.891  1.8105 -0.9556  0.4590
 7618SOL     OW34312   2.136   2.344  10.683  0.1719 -0.0179  0.1247
 7618SOL    HW134313   2.067   2.340  10.749 -1.1961 -1.2638 -1.4109
 7618SOL    HW234314   2.136   2.439  10.682  1.5248 -0.0247 -0.3697
 7619SOL     OW34315   2.220   3.710   8.935 -0.2153 -0.9902  0.1136
 7619SOL    HW134316   2.143   3.702   8.991 -2.0330 -2.7243 -2.6116
 7619SOL    HW234317   2.280   3.655   8.984 -0.8528 -0.6953  1.2252
 7620SOL     OW34318   1.026   2.717   7.477  0.0421  0.1248  0.2697
 7620SOL    HW134319   1.006   2.795   7.530 -1.2864 -0.4138  0.5723
 7620SOL    HW234320   1.044   2.648   7.541  0.1130 -0.4200 -0.3498
 7621SOL     OW34321   0.442   3.856  14.627  0.0293 -0.2732 -0.3037
 7621SOL    HW134322   0.388   3.930  14.656  1.7130  2.0469 -3.1306
 7621SOL    HW234323   0.522   3.867  14.678 -0.6211  3.4770 -0.0771
 7622SOL     OW34324   4.112   1.819   9.124  0.2250 -0.1370  0.4476
 7622SOL    HW134325   4.174   1.791   9.057 -0.0194 -0.1202  0.2178
 7622SOL    HW234326   4.047   1.752   9.103  1.8025 -1.2133 -0.9541
 7623SOL     OW34327   1.807   4.463  10.744 -0.1294 -0.0715 -0.4453
 7623SOL    HW134328   1.827   4.540  10.798  1.8404 -0.1504 -1.0646
 7623SOL    HW234329   1.884   4.447  10.689 -1.4938  2.0044 -2.9552
 7624SOL     OW34330   1.280   1.428   4.903  0.2149 -0.0532 -0.0992
 7624SOL    HW134331   1.366   1.458   4.933  0.5367 -0.9934 -0.0713
 7624SOL    HW234332   1.304   1.365   4.835  0.3378  0.3539 -0.4276
 7625SOL     OW34333   0.017   2.336  11.118  0.2794 -0.5253 -0.3914
 7625SOL    HW134334   0.102   2.380  11.128 -0.3274  0.6462 -0.2893
 7625SOL    HW234335   4.678   2.407  11.104  2.0586  0.5311 -3.0931
 7626SOL     OW34336   1.743   1.632  16.752  0.3246  0.5705 -0.0507
 7626SOL    HW134337   1.826   1.603  16.714 -0.3654 -1.1663 -0.2401
 7626SOL    HW234338   1.744   1.598  16.841 -0.4923 -0.9172 -0.6029
 7627SOL     OW34339   0.945   1.383   4.611  0.0786 -0.1034 -0.1116
 7627SOL    HW134340   0.913   1.295   4.592 -0.0717 -0.1144  0.1888
 7627SOL    HW234341   0.924   1.430   4.530  0.7735  0.5254  0.0763
 7628SOL     OW34342   3.243   0.706  15.250 -0.1555  0.0023  0.3750
 7628SOL    HW134343   3.284   0.789  15.277  1.5370 -0.2367 -1.4377
 7628SOL    HW234344   3.299   0.700  15.173 -0.1388  1.1143  0.2983
 7629SOL     OW34345   2.374   2.766   3.395  0.2577 -0.1488  0.1600
 7629SOL    HW134346   2.325   2.733   3.320  1.2427  1.6051 -1.2868
 7629SOL    HW234347   2.462   2.771   3.356  1.1282 -1.8170  1.8903
 7630SOL     OW34348   0.568   1.571   2.976  0.2295  0.1245  0.6692
 7630SOL    HW134349   0.662   1.572   2.958 -0.4187  1.9223 -2.7989
 7630SOL    HW234350   0.554   1.665   2.963  1.5538  0.3514  0.8745
 7631SOL     OW34351   3.395   3.090  14.326 -0.6098 -0.0642 -0.9487
 7631SOL    HW134352   3.300   3.100  14.316 -0.7555 -1.1097 -0.5392
 7631SOL    HW234353   3.422   3.125  14.411  1.2641  3.0560 -2.8346
 7632SOL     OW34354   1.280   2.238  10.737  0.1695  0.2717  0.1052
 7632SOL    HW134355   1.372   2.233  10.712 -0.2301 -2.2474 -0.8699
 7632SOL    HW234356   1.248   2.216  10.650  1.7363 -1.1604 -0.0890
 7633SOL     OW34357   4.407   0.050   8.347 -0.3517  0.0055 -0.6347
 7633SOL    HW134358   4.362   0.134   8.359  1.9579  1.1972 -0.3704
 7633SOL    HW234359   4.338   4.714   8.374  0.9939 -0.1642  2.4401
 7634SOL     OW34360   3.662   1.374   0.401  0.2120 -0.1866 -0.0377
 7634SOL    HW134361   3.582   1.371   0.454  0.2530  0.9867  0.0947
 7634SOL    HW234362   3.638   1.353   0.310  0.5207 -0.1661 -0.1241
 7635SOL     OW34363   1.495   2.120  12.139  0.3035  0.4766 -0.3794
 7635SOL    HW134364   1.493   2.099  12.045  2.5325 -0.4449 -0.1958
 7635SOL    HW234365   1.454   2.207  12.135 -0.7474 -0.0854 -2.0774
 7636SOL     OW34366   3.863   4.306  14.346 -0.5890 -0.1348 -0.3915
 7636SOL    HW134367   3.773   4.275  14.358 -1.0939  1.5898  0.2735
 7636SOL    HW234368   3.867   4.385  14.400  2.2497 -0.5202 -0.0231
 7637SOL     OW34369   2.209   0.635  12.214 -0.1808 -0.6318  0.0815
 7637SOL    HW134370   2.267   0.685  12.157 -1.8863 -1.7202 -2.5969
 7637SOL    HW234371   2.125   0.652  12.171  1.0181  1.5795 -1.3712
 7638SOL     OW34372   4.500   2.191  16.853  0.2152 -0.2786 -0.3168
 7638SOL    HW134373   4.550   2.146  16.921 -0.2260  0.5781  0.5749
 7638SOL    HW234374   4.564   2.197  16.782 -0.0427  0.5130 -0.4837
 7639SOL     OW34375   3.360   4.130  14.762 -0.4872  0.2342 -0.0357
 7639SOL    HW134376   3.346   4.049  14.712 -0.9026 -0.4618  1.2045
 7639SOL    HW234377   3.325   4.187  14.694 -2.2766 -0.1314  0.5829
 7640SOL     OW34378   2.723   2.388  17.077  0.0899  0.1109 -0.2913
 7640SOL    HW134379   2.631   2.410  17.091  0.4951  2.0892 -0.7246
 7640SOL    HW234380   2.717   2.379  16.982 -0.3650 -0.5944 -0.1917
 7641SOL     OW34381   0.883   3.778   5.002  0.6553  0.0774 -0.0944
 7641SOL    HW134382   0.895   3.751   4.911  1.5104  2.3214 -0.6516
 7641SOL    HW234383   0.788   3.782   4.996  0.6624  1.6970  0.8378
 7642SOL     OW34384   1.857   1.185  12.268  0.5681 -0.0353 -0.3063
 7642SOL    HW134385   1.800   1.187  12.345  0.0176  1.7227 -0.7565
 7642SOL    HW234386   1.834   1.266  12.223  2.9511  0.4567 -0.6669
 7643SOL     OW34387   3.869   2.097   8.781 -0.5737  0.2798  0.4203
 7643SOL    HW134388   3.859   2.006   8.753 -1.4024 -0.2174  2.3522
 7643SOL    HW234389   3.952   2.128   8.743 -0.2726 -0.0810  0.7795
 7644SOL     OW34390   0.456   0.150   3.814  0.9298  0.1433  0.1888
 7644SOL    HW134391   0.472   0.233   3.859 -1.9149  0.3536  0.8020
 7644SOL    HW234392   0.364   0.158   3.790  1.9230  3.3271 -2.5704
 7645SOL     OW34393   0.542   4.383  10.385 -0.2245 -0.3219  0.5208
 7645SOL    HW134394   0.615   4.324  10.364 -0.2769  0.8305 -2.8535
 7645SOL    HW234395   0.568   4.420  10.469 -2.7058  0.2822  1.0074
 7646SOL     OW34396   3.427   4.419   3.743 -0.5011  0.9172 -0.7927
 7646SOL    HW134397   3.450   4.422   3.836 -0.0826 -0.8918 -0.8346
 7646SOL    HW234398   3.512   4.399   3.705 -0.4093 -0.4259  0.1024
 7647SOL     OW34399   4.562   1.754  17.636  0.2779  0.3099 -0.3500
 7647SOL    HW134400   4.572   1.763  17.541  1.3998 -0.6764 -0.3115
 7647SOL    HW234401   4.545   1.661  17.649 -4.2185  1.4208  1.7363
 7648SOL     OW34402   2.423   2.724   8.406  0.4150 -0.1522  0.1430
 7648SOL    HW134403   2.399   2.756   8.493  0.3707  1.5365 -0.4879
 7648SOL    HW234404   2.365   2.651   8.385  1.1495 -0.6709 -0.1122
 7649SOL     OW34405   3.246   0.853   0.277  0.9125 -0.3041 -0.3100
 7649SOL    HW134406   3.332   0.866   0.318  0.1964  0.1546  1.0209
 7649SOL    HW234407   3.222   0.771   0.320  1.9990 -0.7804 -0.6109
 7650SOL     OW34408   3.924   1.859   8.606  0.0354  0.1448  0.8172
 7650SOL    HW134409   3.857   1.830   8.544  1.7409 -1.8108 -0.1212
 7650SOL    HW234410   3.886   1.819   8.684 -0.1040  1.6455  1.5229
 7651SOL     OW34411   2.982   2.139  10.879 -0.2016 -0.4580 -0.4248
 7651SOL    HW134412   3.027   2.217  10.911  1.6066 -1.3065 -0.8380
 7651SOL    HW234413   3.043   2.114  10.809  0.5566  0.8252 -0.2209
 7652SOL     OW34414   3.409   0.787   8.558 -0.2145  0.6000  0.1870
 7652SOL    HW134415   3.386   0.727   8.629 -0.0957 -0.6987 -0.8532
 7652SOL    HW234416   3.463   0.721   8.513  0.8797  2.2699 -0.9319
 7653SOL     OW34417   4.679   0.382   0.267  0.4599  0.2521 -0.0251
 7653SOL    HW134418   0.000   0.465   0.280  1.8858 -0.4657 -0.3639
 7653SOL    HW234419   4.714   0.344   0.347  0.7408  0.1615 -0.1883
 7654SOL     OW34420   2.179   0.321   4.386 -0.2746 -0.1281 -0.3357
 7654SOL    HW134421   2.143   0.406   4.359 -2.1182 -1.2002 -1.2386
 7654SOL    HW234422   2.271   0.339   4.405 -0.0137 -0.9992 -0.7749
 7655SOL     OW34423   2.299   0.522   8.489  0.4587 -0.7775  0.8156
 7655SOL    HW134424   2.301   0.618   8.490  0.2031 -0.7740  1.0132
 7655SOL    HW234425   2.215   0.501   8.448  0.1828  3.2098 -0.6836
 7656SOL     OW34426   3.494   0.952  11.423  0.1641  0.4043  0.0328
 7656SOL    HW134427   3.553   0.985  11.356  1.6156  1.7492  1.9488
 7656SOL    HW234428   3.410   0.973  11.382 -0.2435 -1.4382 -0.0544
 7657SOL     OW34429   0.487   3.919  12.551 -0.0053 -0.0663 -0.3238
 7657SOL    HW134430   0.422   3.856  12.521 -1.6966  1.7199 -0.4124
 7657SOL    HW234431   0.564   3.901  12.497  0.4020 -0.8396  0.5092
 7658SOL     OW34432   1.421   4.570  10.069 -0.3536 -0.2797 -0.2075
 7658SOL    HW134433   1.513   4.591  10.083 -0.8329  0.7019  1.4537
 7658SOL    HW234434   1.425   4.529   9.983  2.5314  0.5462 -0.4717
 7659SOL     OW34435   0.601   0.592   8.494 -0.4888  0.8912  0.4015
 7659SOL    HW134436   0.525   0.620   8.545 -1.8452  2.2414 -2.3615
 7659SOL    HW234437   0.584   0.612   8.402  1.2104  0.7126  0.0394
 7660SOL     OW34438   4.482   4.021   5.382 -0.0990  0.7389 -0.6354
 7660SOL    HW134439   4.390   4.013   5.357 -1.1160  1.9886  2.7429
 7660SOL    HW234440   4.521   3.990   5.300 -0.1862  0.2274 -0.4859
 7661SOL     OW34441   3.875   4.334   3.052  0.1229 -0.1684  0.0370
 7661SOL    HW134442   3.907   4.389   3.124  0.1296  0.2377 -0.2795
 7661SOL    HW234443   3.799   4.383   3.024 -0.0439  0.7025  2.0478
 7662SOL     OW34444   1.054   1.425   9.785 -0.0499 -0.1084  0.4866
 7662SOL    HW134445   0.975   1.375   9.805 -1.0352  0.6727 -1.4319
 7662SOL    HW234446   1.095   1.424   9.871  0.4956  0.2692  0.2241
 7663SOL     OW34447   0.998   0.878  16.168  0.0558  0.2054  0.3154
 7663SOL    HW134448   0.991   0.973  16.159 -2.3274 -0.0337 -0.2106
 7663SOL    HW234449   1.093   0.873  16.158 -0.1268 -0.6246 -0.9824
 7664SOL     OW34450   1.824   1.089   5.091 -0.5942  0.5426  0.0384
 7664SOL    HW134451   1.876   1.016   5.127 -1.0190 -0.0877 -0.6493
 7664SOL    HW234452   1.873   1.109   5.011  0.1040 -1.1222  0.0410
 7665SOL     OW34453   3.150   2.358  10.922 -0.0107 -0.0015  0.5827
 7665SOL    HW134454   3.243   2.341  10.938  0.8167  2.2897 -1.8042
 7665SOL    HW234455   3.146   2.452  10.907 -2.0275 -0.2346 -0.3116
 7666SOL     OW34456   0.018   2.141   9.001 -0.7705  0.4629 -0.4458
 7666SOL    HW134457   4.678   2.191   9.052  1.2358  0.2957  2.2090
 7666SOL    HW234458   4.678   2.092   8.948  2.0872 -2.0694 -1.5624
 7667SOL     OW34459   2.768   0.814   5.925  0.0924  0.0253 -0.2919
 7667SOL    HW134460   2.757   0.882   5.992  0.9160 -1.1093  0.9861
 7667SOL    HW234461   2.864   0.808   5.929  0.2399  2.0437 -0.4934
 7668SOL     OW34462   2.224   0.916  16.778 -0.5816 -0.1729  0.1597
 7668SOL    HW134463   2.160   0.924  16.849 -1.0381  2.2628 -0.5287
 7668SOL    HW234464   2.184   0.929  16.692  0.6288 -1.9639 -0.6940
 7669SOL     OW34465   3.930   0.284   4.970 -0.1802 -0.0235 -0.3572
 7669SOL    HW134466   3.925   0.378   4.990 -1.5326 -0.0812 -0.4654
 7669SOL    HW234467   4.018   0.269   4.934  0.0027  0.5145 -0.1504
 7670SOL     OW34468   4.011   3.967   4.332 -0.2563  0.2788 -0.0634
 7670SOL    HW134469   4.069   3.958   4.407 -2.2874  0.0583  1.4769
 7670SOL    HW234470   3.954   3.891   4.345 -0.0768 -0.0264 -1.0277
 7671SOL     OW34471   2.495   4.672   6.715 -0.1160 -0.7487  0.7319
 7671SOL    HW134472   2.442   4.593   6.729  0.7944 -1.8049 -1.8027
 7671SOL    HW234473   2.504   4.704   6.805  0.8274 -0.4568  0.5293
 7672SOL     OW34474   1.342   4.259   6.834 -0.1313 -0.0840  0.4506
 7672SOL    HW134475   1.251   4.274   6.807  0.3017 -2.1745 -2.1818
 7672SOL    HW234476   1.327   4.190   6.898  0.4829 -0.4903  0.1493
 7673SOL     OW34477   3.691   4.664   6.406  0.1747 -0.1219 -0.4334
 7673SOL    HW134478   3.771   4.716   6.398 -0.0844  0.4961  1.1592
 7673SOL    HW234479   3.669   4.646   6.314  0.0224 -0.9696 -0.2309
 7674SOL     OW34480   0.018   2.199   6.560  0.8327 -0.0212  0.0036
 7674SOL    HW134481   4.698   2.258   6.498 -1.1281 -0.4112  1.0092
 7674SOL    HW234482   0.105   2.208   6.521  0.5928 -2.0088 -0.9961
 7675SOL     OW34483   1.887   0.158  14.590 -0.1519  0.0353  0.4342
 7675SOL    HW134484   1.818   0.141  14.653 -2.1275  3.6527 -0.7698
 7675SOL    HW234485   1.883   0.252  14.572 -1.5219 -0.2487 -0.7333
 7676SOL     OW34486   1.110   1.790   9.832 -0.0822  0.1054 -0.2761
 7676SOL    HW134487   1.192   1.829   9.864 -1.2681  0.5426  2.2150
 7676SOL    HW234488   1.040   1.829   9.884 -1.3147 -0.4298 -1.5445
 7677SOL     OW34489   3.862   3.504  14.992  0.2658 -0.3780  0.4417
 7677SOL    HW134490   3.801   3.449  14.944  0.8480 -2.0513  1.6284
 7677SOL    HW234491   3.936   3.444  14.983  0.4050  0.1237 -1.6883
 7678SOL     OW34492   3.729   3.385  16.562 -0.0638 -0.0764  0.0289
 7678SOL    HW134493   3.787   3.461  16.569 -1.3628  0.7690  1.6438
 7678SOL    HW234494   3.799   3.319  16.566 -0.1680 -0.2230 -0.6762
 7679SOL     OW34495   2.237   1.334   5.029  0.2732 -0.3105  0.1643
 7679SOL    HW134496   2.174   1.390   5.075 -0.5595 -1.0877 -0.0417
 7679SOL    HW234497   2.260   1.273   5.098 -0.1972 -0.6802 -0.0035
 7680SOL     OW34498   4.015   4.009   4.824  0.0717 -0.0844 -0.2518
 7680SOL    HW134499   3.935   3.979   4.782 -0.9982  4.3095 -1.3847
 7680SOL    HW234500   4.017   3.982   4.916  0.5030 -0.1805 -0.2875
 7681SOL     OW34501   3.198   4.323   3.869 -0.2013  0.0348  0.2299
 7681SOL    HW134502   3.257   4.370   3.809 -1.2482 -1.2315 -1.8138
 7681SOL    HW234503   3.238   4.236   3.860 -2.3729 -0.8606 -0.8024
 7682SOL     OW34504   4.408   2.867   1.260 -0.0593 -0.4916 -0.3829
 7682SOL    HW134505   4.350   2.917   1.203 -1.7324 -2.0926 -0.0912
 7682SOL    HW234506   4.461   2.818   1.198  0.2701  0.2167 -0.6647
 7683SOL     OW34507   1.284   2.240   1.704 -0.1178  0.3100 -0.8797
 7683SOL    HW134508   1.341   2.279   1.638  1.7203  0.8506  1.0180
 7683SOL    HW234509   1.197   2.275   1.688  0.5499  1.6806 -1.5395
 7684SOL     OW34510   0.353   3.539  11.850 -0.1769 -0.1203 -0.5311
 7684SOL    HW134511   0.394   3.589  11.921 -0.9596 -1.0689  0.5932
 7684SOL    HW234512   0.320   3.605  11.789 -0.3462 -0.9743 -1.3610
 7685SOL     OW34513   4.557   0.279   5.706  0.0478  0.2764 -0.1607
 7685SOL    HW134514   4.621   0.328   5.654 -2.3456  0.6330 -2.7623
 7685SOL    HW234515   4.487   0.343   5.690 -0.2780 -0.6180 -2.3140
 7686SOL     OW34516   2.654   4.720   4.299 -0.0952  0.1253  0.1355
 7686SOL    HW134517   2.636   0.046   4.220  0.4049  1.1911  0.6887
 7686SOL    HW234518   2.749   4.705   4.303 -0.3827 -1.2018  2.0020
 7687SOL     OW34519   4.151   2.467   6.725  0.5832 -0.7469 -0.2082
 7687SOL    HW134520   4.174   2.392   6.670 -0.4408  1.2087 -3.2858
 7687SOL    HW234521   4.208   2.446   6.799 -0.0146  0.1882  0.5128
 7688SOL     OW34522   2.059   2.516   6.325  0.5839  0.1753  0.1065
 7688SOL    HW134523   2.117   2.526   6.250 -0.5104  3.0504 -0.3700
 7688SOL    HW234524   1.985   2.570   6.296  0.0511  0.6826  2.3962
 7689SOL     OW34525   2.519   2.723   6.308 -0.3892  0.1895 -0.4822
 7689SOL    HW134526   2.572   2.679   6.375  1.2524  1.4560 -0.9389
 7689SOL    HW234527   2.434   2.685   6.332  0.7712 -2.4515 -0.6216
 7690SOL     OW34528   0.205   2.666   4.769  0.0702 -0.1439  0.1826
 7690SOL    HW134529   0.208   2.615   4.688 -0.3856 -1.3145  0.9111
 7690SOL    HW234530   0.300   2.677   4.780  0.0208 -1.7851  2.1088
 7691SOL     OW34531   2.329   4.292   3.636 -0.2062 -0.3225 -0.2248
 7691SOL    HW134532   2.352   4.378   3.673  1.3509 -0.5106 -0.7386
 7691SOL    HW234533   2.283   4.317   3.556  0.8910  2.0597 -0.1319
 7692SOL     OW34534   3.853   4.673  11.129 -0.0704  0.1093 -0.3567
 7692SOL    HW134535   3.808   0.032  11.145  0.0274 -0.0039  0.5350
 7692SOL    HW234536   3.941   4.703  11.108  0.6456 -1.1877  0.7977
 7693SOL     OW34537   3.623   0.960   2.551 -0.3516 -0.2696 -0.0884
 7693SOL    HW134538   3.541   0.977   2.504 -1.0689  1.9022  1.9674
 7693SOL    HW234539   3.588   0.948   2.639  1.0186 -0.8566  0.3690
 7694SOL     OW34540   0.017   2.914  17.633  0.6272 -0.4729  0.0893
 7694SOL    HW134541   0.015   3.005  17.604 -1.7424 -1.2143 -2.0900
 7694SOL    HW234542   4.713   2.922   0.026  0.9433  0.6261  0.0869
 7695SOL     OW34543   3.914   3.184   3.082 -1.0328  0.3255  0.3142
 7695SOL    HW134544   3.847   3.249   3.104 -2.4197 -0.5032 -1.4906
 7695SOL    HW234545   3.857   3.114   3.051  1.4999 -1.7949  0.5032
 7696SOL     OW34546   1.488   0.496   6.720 -0.5070  0.3181 -0.2910
 7696SOL    HW134547   1.413   0.497   6.780 -0.1053  2.9294  0.1865
 7696SOL    HW234548   1.560   0.491   6.782 -0.7118 -0.4978 -0.1185
 7697SOL     OW34549   4.215   0.008   8.956 -0.1319  0.2682 -0.6725
 7697SOL    HW134550   4.174   4.657   8.999  1.2070  0.4626  0.9579
 7697SOL    HW234551   4.212   0.067   9.032  1.0599 -1.0770  0.4183
 7698SOL     OW34552   0.511   2.864   5.447  0.0070 -0.1375  0.4304
 7698SOL    HW134553   0.581   2.858   5.511 -0.4165  0.5895  0.9631
 7698SOL    HW234554   0.502   2.959   5.454 -0.3523  0.0628 -2.6404
 7699SOL     OW34555   2.132   0.830   4.914 -0.4246 -0.0871  0.5085
 7699SOL    HW134556   2.135   0.924   4.896 -1.4322 -0.2705 -0.5725
 7699SOL    HW234557   2.134   0.792   4.827  0.1993  0.8332  0.1153
 7700SOL     OW34558   2.390   0.820  16.516  0.3683  0.0557  0.1489
 7700SOL    HW134559   2.364   0.729  16.533 -1.4901  0.6119  0.3360
 7700SOL    HW234560   2.482   0.807  16.496  0.7954  1.1038  1.4795
 7701SOL     OW34561   2.384   4.248   4.276  0.3522  0.3441  0.1963
 7701SOL    HW134562   2.373   4.233   4.182  0.3080  1.3676  0.0465
 7701SOL    HW234563   2.461   4.304   4.267  0.3476  0.2207 -0.6044
 7702SOL     OW34564   1.969   4.700  13.132  0.4285  0.5781  0.3581
 7702SOL    HW134565   2.055   4.670  13.100 -1.1927 -1.1234 -2.4337
 7702SOL    HW234566   1.943   4.623  13.183  0.8499 -0.5471 -1.0800
 7703SOL     OW34567   1.560   2.419   3.827 -0.3159  0.0646 -0.1635
 7703SOL    HW134568   1.637   2.434   3.772 -1.3742 -0.1181 -1.6797
 7703SOL    HW234569   1.537   2.500   3.871 -0.7227  2.1573 -4.2198
 7704SOL     OW34570   0.306   2.769   9.488  0.1298 -0.0551 -0.4090
 7704SOL    HW134571   0.262   2.692   9.451 -1.0578  0.9572 -1.1211
 7704SOL    HW234572   0.250   2.774   9.566  2.1303 -1.6671  1.1244
 7705SOL     OW34573   2.049   4.547   0.897  0.4159  0.1073 -0.0387
 7705SOL    HW134574   2.006   4.500   0.968 -1.7301 -0.6612 -1.8520
 7705SOL    HW234575   2.047   4.636   0.931  1.5231 -0.8481  2.5265
 7706SOL     OW34576   2.134   0.325  10.328 -0.3067  0.0639  0.3320
 7706SOL    HW134577   2.131   0.403  10.272 -1.4481 -0.3061 -0.1084
 7706SOL    HW234578   2.198   0.356  10.393  2.2699 -0.5373 -1.9090
 7707SOL     OW34579   0.067   0.931   9.478 -0.1678  0.2711  1.1998
 7707SOL    HW134580   0.024   0.845   9.484 -1.7483  0.8985 -1.2375
 7707SOL    HW234581   4.716   0.988   9.468  1.0335  1.7864  0.9159
 7708SOL     OW34582   2.969   4.237   4.008  0.0295  0.2359  0.2900
 7708SOL    HW134583   3.044   4.274   3.962  0.2564  0.2402  0.6684
 7708SOL    HW234584   3.013   4.221   4.091 -1.0881 -0.6830  0.7099
 7709SOL     OW34585   4.464   4.650  16.478  0.0223 -0.0726 -0.8821
 7709SOL    HW134586   4.396   4.686  16.535  1.0523  0.2775  0.1117
 7709SOL    HW234587   4.522   4.612  16.543  1.7661  1.9488 -1.2496
 7710SOL     OW34588   0.265   3.520   1.786  0.3323  0.2864 -0.1059
 7710SOL    HW134589   0.302   3.516   1.698 -1.3745 -2.8963 -0.6873
 7710SOL    HW234590   0.339   3.507   1.846  1.2962  2.1310 -0.9127
 7711SOL     OW34591   1.313   1.511   9.644  0.6098 -0.0729  0.8660
 7711SOL    HW134592   1.345   1.433   9.691 -1.0904 -0.4589  1.3774
 7711SOL    HW234593   1.236   1.534   9.697  0.6749  0.3653  0.7673
 7712SOL     OW34594   3.663   2.832   2.562  0.4336  0.1958 -0.3411
 7712SOL    HW134595   3.692   2.912   2.605  1.0267  1.2479 -2.7322
 7712SOL    HW234596   3.746   2.786   2.547  1.2178  1.9877 -1.3923
 7713SOL     OW34597   4.606   4.380  12.802 -0.7490 -0.0932  0.7355
 7713SOL    HW134598   4.569   4.385  12.714 -0.1359  1.2509  0.5440
 7713SOL    HW234599   4.562   4.456  12.841  0.6775  1.8063 -1.3290
 7714SOL     OW34600   2.608   3.208   8.986 -0.6676  0.4843 -0.3482
 7714SOL    HW134601   2.675   3.272   8.963  0.1940  0.0237  0.9055
 7714SOL    HW234602   2.544   3.258   9.035 -0.6968  1.4368 -1.3610
 7715SOL     OW34603   0.100   3.565   2.893  0.1790 -0.0699  0.3409
 7715SOL    HW134604   0.141   3.621   2.827 -0.3316 -1.2720 -0.9884
 7715SOL    HW234605   0.074   3.484   2.849 -1.9097  0.7186  0.1287
 7716SOL     OW34606   4.373   1.452   8.711  0.7255  0.4686 -0.3891
 7716SOL    HW134607   4.449   1.395   8.697  0.3448 -0.0384 -0.3843
 7716SOL    HW234608   4.356   1.469   8.618 -0.9543 -0.0622 -0.1680
 7717SOL     OW34609   1.797   0.851   6.287  0.5056  0.0865 -0.4148
 7717SOL    HW134610   1.754   0.835   6.202 -0.6241 -0.1520  0.2064
 7717SOL    HW234611   1.721   0.888   6.331 -0.0349 -1.9532  0.3700
 7718SOL     OW34612   4.501   1.794   0.855  0.3025  0.1912  0.6779
 7718SOL    HW134613   4.497   1.712   0.904  0.0305  1.0227  2.0771
 7718SOL    HW234614   4.569   1.843   0.903  0.1232  0.2726  0.8488
 7719SOL     OW34615   4.314   1.770   1.663 -0.4399 -0.1545 -0.1270
 7719SOL    HW134616   4.277   1.720   1.590 -0.5701  1.0658 -0.8881
 7719SOL    HW234617   4.390   1.717   1.687 -0.0489  0.4447 -0.0275
 7720SOL     OW34618   0.969   4.178   2.765  0.4602  0.9347  0.2645
 7720SOL    HW134619   0.996   4.132   2.685 -1.4181  0.6875 -0.2408
 7720SOL    HW234620   1.001   4.264   2.740  0.1185  0.6514 -1.1105
 7721SOL     OW34621   0.941   3.378  10.491 -0.0819 -0.1989  0.3520
 7721SOL    HW134622   0.993   3.394  10.412  0.8071  0.7039  1.1033
 7721SOL    HW234623   1.011   3.388  10.556  1.1424 -1.7989 -0.7029
 7722SOL     OW34624   2.900   4.160  10.741  0.5904 -0.1325 -0.1118
 7722SOL    HW134625   2.860   4.174  10.827 -1.3030  2.9155 -1.5266
 7722SOL    HW234626   2.982   4.206  10.760  0.7538  0.4499 -2.2513
 7723SOL     OW34627   3.015   2.436   8.660 -0.0585 -0.1975  0.4391
 7723SOL    HW134628   3.086   2.371   8.660 -1.6742 -1.9535 -0.6813
 7723SOL    HW234629   2.937   2.382   8.650 -0.1211 -0.4459  2.2092
 7724SOL     OW34630   0.238   4.642   3.121  0.3140  0.2892  0.1258
 7724SOL    HW134631   0.225   4.674   3.031  0.8386  5.9284  2.0678
 7724SOL    HW234632   0.189   4.702   3.176  1.1097 -0.3915  1.5620
 7725SOL     OW34633   0.298   4.690   6.084 -0.1223  0.2694  0.7172
 7725SOL    HW134634   0.242   0.027   6.036 -0.4613  0.5222  1.4313
 7725SOL    HW234635   0.273   4.604   6.050 -0.0109  0.4496  0.1887
 7726SOL     OW34636   0.104   4.562   4.387  0.0384  0.0605  0.0078
 7726SOL    HW134637   0.029   4.543   4.331 -1.1083 -0.7504  1.8313
 7726SOL    HW234638   0.151   4.617   4.325 -1.4692 -1.0747 -2.1355
 7727SOL     OW34639   3.013   3.726   7.745  0.3630 -0.0652 -0.4260
 7727SOL    HW134640   3.000   3.821   7.744  0.8306 -0.0020  0.4361
 7727SOL    HW234641   3.107   3.714   7.733  0.6159  0.9688  0.5324
 7728SOL     OW34642   2.714   1.634   5.261 -0.5862  0.0620 -0.2086
 7728SOL    HW134643   2.633   1.607   5.219  0.1498  0.6024 -1.9665
 7728SOL    HW234644   2.760   1.551   5.247  0.5492  0.6089  0.2560
 7729SOL     OW34645   0.543   4.050  12.251  0.4206 -0.2249  0.2679
 7729SOL    HW134646   0.576   3.965  12.222  1.5387  0.1707  0.3908
 7729SOL    HW234647   0.615   4.086  12.303  0.7772 -0.5816  0.0188
 7730SOL     OW34648   3.831   3.072  13.081  0.2714  0.4914 -0.2959
 7730SOL    HW134649   3.898   3.115  13.133  0.0994  0.9226 -0.4257
 7730SOL    HW234650   3.866   3.096  12.995 -0.4318  0.4489 -0.5993
 7731SOL     OW34651   4.674   0.084   8.408  0.0279  0.2255  0.2727
 7731SOL    HW134652   4.679   0.101   8.502  0.6650  0.7621  0.1422
 7731SOL    HW234653   4.580   0.070   8.397  0.1345 -0.4014  0.1500
 7732SOL     OW34654   4.515   3.105   4.136 -0.3226 -0.1256 -0.1315
 7732SOL    HW134655   4.534   3.033   4.075 -1.9742  0.9200 -1.8827
 7732SOL    HW234656   4.507   3.184   4.082  0.5463  0.7087  0.9737
 7733SOL     OW34657   2.011   4.399   5.793  0.0299  0.2611 -0.2592
 7733SOL    HW134658   2.053   4.369   5.873  1.0975 -0.8985 -1.2474
 7733SOL    HW234659   2.080   4.429   5.733  1.7570 -0.3614  1.4394
 7734SOL     OW34660   4.525   0.355   8.865  0.1906  0.1278  0.3773
 7734SOL    HW134661   4.440   0.335   8.823 -0.2076  0.6369  0.9522
 7734SOL    HW234662   4.560   0.427   8.813  1.1048 -0.6893 -0.1385
 7735SOL     OW34663   1.540   3.469   4.952 -0.7174  0.2828  0.0462
 7735SOL    HW134664   1.600   3.406   4.911  0.2986  1.2304  0.1119
 7735SOL    HW234665   1.510   3.516   4.874 -1.5798  0.3893  0.4335
 7736SOL     OW34666   3.790   1.908   6.012  0.1325  0.2507  1.0549
 7736SOL    HW134667   3.752   1.992   6.037 -2.4313 -0.7129  0.3918
 7736SOL    HW234668   3.853   1.937   5.946  1.7643  0.1480  2.5482
 7737SOL     OW34669   3.021   2.308  11.546 -0.2310 -0.1268 -0.5423
 7737SOL    HW134670   2.987   2.306  11.635  0.1319  0.2893 -0.3932
 7737SOL    HW234671   3.000   2.399  11.527 -0.1273 -0.3774 -1.9018
 7738SOL     OW34672   2.423   1.538   1.640 -0.0549  0.4804 -0.5013
 7738SOL    HW134673   2.403   1.570   1.728 -2.5551 -1.7830 -0.2550
 7738SOL    HW234674   2.508   1.573   1.612  0.4650 -1.4661 -1.3548
 7739SOL     OW34675   0.267   0.326  12.936 -0.4412 -0.1962  0.0931
 7739SOL    HW134676   0.341   0.369  12.979  0.3800  1.8546 -3.3352
 7739SOL    HW234677   0.305   0.262  12.875  0.9789  2.3324 -1.6889
 7740SOL     OW34678   3.350   3.976   4.838 -0.7011 -0.5607 -0.3481
 7740SOL    HW134679   3.351   3.881   4.846 -1.6414 -0.3526  2.2772
 7740SOL    HW234680   3.276   3.998   4.782 -0.4550  0.0816 -0.4227
 7741SOL     OW34681   3.140   4.305  10.146 -0.1950 -0.1847  0.1143
 7741SOL    HW134682   3.048   4.291  10.171 -0.2000  1.1591  0.8697
 7741SOL    HW234683   3.123   4.355  10.067 -0.1151 -0.6041 -0.1693
 7742SOL     OW34684   2.668   4.163   4.465  0.0008 -0.0025 -0.1875
 7742SOL    HW134685   2.713   4.150   4.381  0.7091 -1.4590  0.4254
 7742SOL    HW234686   2.599   4.103   4.437  2.1895 -2.3693 -0.5368
 7743SOL     OW34687   1.492   3.872   0.616  0.2585 -0.3381  0.7920
 7743SOL    HW134688   1.548   3.909   0.684  0.0594 -0.8993  1.2598
 7743SOL    HW234689   1.447   3.814   0.678 -1.4078 -1.7951 -1.7761
 7744SOL     OW34690   2.436   2.006   2.457  0.0092 -0.6420 -0.9599
 7744SOL    HW134691   2.379   1.935   2.484 -0.2813 -0.6481 -1.5846
 7744SOL    HW234692   2.505   2.001   2.523  2.3074 -1.6508 -3.4190
 7745SOL     OW34693   3.877   4.205  11.397  0.2748  0.2280 -0.0871
 7745SOL    HW134694   3.824   4.244  11.467 -1.1697 -0.2697 -0.8924
 7745SOL    HW234695   3.855   4.270  11.330 -1.7056  0.2816  0.6295
 7746SOL     OW34696   3.859   3.956  15.008  0.0071 -0.3507 -0.1431
 7746SOL    HW134697   3.845   3.931  14.916 -0.6326 -0.6242  0.0307
 7746SOL    HW234698   3.923   3.892  15.036  2.1745  0.9762 -2.0129
 7747SOL     OW34699   4.174   3.767   6.739 -0.1714 -0.0861  0.1026
 7747SOL    HW134700   4.210   3.855   6.732  1.1457 -0.5401  1.0777
 7747SOL    HW234701   4.208   3.724   6.660 -0.7436 -0.5269  0.0949
 7748SOL     OW34702   4.146   0.447   5.447 -0.0781 -0.2101 -0.2651
 7748SOL    HW134703   4.051   0.445   5.436  0.0917  0.4319 -1.8817
 7748SOL    HW234704   4.169   0.535   5.416  0.1478 -0.3583 -0.5192
 7749SOL     OW34705   4.224   0.656   6.001 -0.0302 -0.0903  0.0894
 7749SOL    HW134706   4.213   0.677   6.094  1.6722 -2.8711  0.9177
 7749SOL    HW234707   4.154   0.592   5.986  0.8125 -1.2194  1.0167
 7750SOL     OW34708   2.383   1.560  11.362  0.3692 -0.2259 -0.1723
 7750SOL    HW134709   2.391   1.465  11.348  1.5772 -0.2268  0.5010
 7750SOL    HW234710   2.398   1.597  11.276  1.8151  1.2461  0.7178
 7751SOL     OW34711   2.461   2.232   7.650 -0.1685  0.1761  0.2532
 7751SOL    HW134712   2.418   2.148   7.668  1.4114 -0.5982  0.4648
 7751SOL    HW234713   2.388   2.291   7.632 -0.3678 -0.3660 -0.7243
 7752SOL     OW34714   0.269   4.563   3.767  0.3393 -0.5148 -0.1722
 7752SOL    HW134715   0.326   4.566   3.690  2.0039 -2.2337  1.0014
 7752SOL    HW234716   0.234   4.474   3.763 -0.8380 -0.0712  0.3236
 7753SOL     OW34717   2.821   0.664  10.601  0.1488 -0.0295 -0.7129
 7753SOL    HW134718   2.735   0.630  10.627  0.6141 -0.9215 -0.3168
 7753SOL    HW234719   2.832   0.726  10.673  0.0558 -0.6577 -0.1536
 7754SOL     OW34720   1.501   3.924  13.566 -0.2969  0.4328  0.5616
 7754SOL    HW134721   1.514   4.002  13.620 -1.6061  0.6338  0.5820
 7754SOL    HW234722   1.537   3.947  13.480  1.1778 -0.5299  0.9378
 7755SOL     OW34723   3.582   4.608   2.035  0.2037  0.8459  0.0345
 7755SOL    HW134724   3.528   4.574   1.963  0.7586 -0.1049  0.0668
 7755SOL    HW234725   3.600   4.701   2.017  0.3184  0.2751 -2.9111
 7756SOL     OW34726   4.586   4.611  15.188  0.0923  0.3993  0.1645
 7756SOL    HW134727   4.666   4.664  15.186 -0.8619  1.7962 -1.0496
 7756SOL    HW234728   4.530   4.671  15.139 -0.6879  1.7267  2.7050
 7757SOL     OW34729   4.544   0.864  11.637  0.3389  0.7129 -0.0520
 7757SOL    HW134730   4.580   0.952  11.626 -0.3309  0.5897 -3.2194
 7757SOL    HW234731   4.487   0.879  11.713  1.7950  1.6883  0.8336
 7758SOL     OW34732   1.554   2.016   9.547  0.6356 -0.4975 -0.2509
 7758SOL    HW134733   1.555   1.935   9.598  2.5591 -0.7184 -0.6480
 7758SOL    HW234734   1.461   2.041   9.548  0.8914  0.4338  1.5053
 7759SOL     OW34735   4.021   3.392   2.412 -0.2555 -0.1912  0.7375
 7759SOL    HW134736   3.965   3.351   2.345 -1.3418  0.6406  1.1379
 7759SOL    HW234737   3.955   3.430   2.470  0.6628 -1.4658  2.6143
 7760SOL     OW34738   2.695   3.990  10.996  0.2275 -0.2602 -0.4016
 7760SOL    HW134739   2.680   4.058  11.061  1.1751  0.0362 -0.4865
 7760SOL    HW234740   2.790   3.989  11.009  0.2620 -0.8740 -0.6988
 7761SOL     OW34741   1.489   4.208   0.362 -0.0582 -0.1890 -0.3032
 7761SOL    HW134742   1.567   4.169   0.402  0.5489 -1.0741 -2.3518
 7761SOL    HW234743   1.435   4.129   0.357  0.0034 -0.2284 -0.3499
 7762SOL     OW34744   1.944   1.701   8.924 -0.3165  0.1768  0.4866
 7762SOL    HW134745   2.024   1.700   8.871  0.2688 -1.4981  1.4127
 7762SOL    HW234746   1.976   1.724   9.011 -2.4030  0.9228  1.0526
 7763SOL     OW34747   3.742   1.117   7.322 -0.4498 -0.8630  1.0026
 7763SOL    HW134748   3.764   1.024   7.324 -2.5980 -1.4191 -1.3530
 7763SOL    HW234749   3.662   1.120   7.376  0.2412  1.0366  1.9059
 7764SOL     OW34750   3.370   4.411   5.784  0.0340 -0.2494  0.1123
 7764SOL    HW134751   3.393   4.319   5.775 -1.7201 -0.6423 -0.4115
 7764SOL    HW234752   3.334   4.426   5.697 -2.2606  0.5799  1.1867
 7765SOL     OW34753   3.992   1.006   7.595 -0.2533  0.2277 -0.2740
 7765SOL    HW134754   3.924   1.072   7.586  0.4171  0.4996 -3.3385
 7765SOL    HW234755   4.065   1.059   7.627 -2.0117  2.7180 -0.3623
 7766SOL     OW34756   4.158   2.331   1.214  0.1664  0.6598 -0.6432
 7766SOL    HW134757   4.116   2.338   1.128 -2.1592  1.6131  0.5770
 7766SOL    HW234758   4.141   2.417   1.251  0.0483 -0.6027  2.1978
 7767SOL     OW34759   1.047   0.488   1.140  0.3313  0.1384  0.1013
 7767SOL    HW134760   1.009   0.488   1.052 -1.4652  2.0241  0.8507
 7767SOL    HW234761   1.062   0.581   1.161 -1.3701  0.3913  0.2379
 7768SOL     OW34762   2.898   3.587   4.979 -0.4651 -0.3763 -0.4775
 7768SOL    HW134763   2.908   3.629   5.064  0.2252  0.3536 -0.9156
 7768SOL    HW234764   2.903   3.494   5.000 -2.5177 -0.1191  1.1025
 7769SOL     OW34765   4.510   2.890   2.066 -0.3639  0.0847 -0.2182
 7769SOL    HW134766   4.520   2.968   2.012 -3.1070  0.7494  0.2408
 7769SOL    HW234767   4.574   2.831   2.027 -1.4309 -0.5185 -1.0362
 7770SOL     OW34768   4.601   2.241   4.090 -0.3913 -0.0360  0.1490
 7770SOL    HW134769   4.689   2.275   4.103 -0.9677  1.9083 -0.9613
 7770SOL    HW234770   4.555   2.325   4.088 -0.7026 -0.2234 -0.8386
 7771SOL     OW34771   1.557   3.800   6.311  0.1428 -0.3879 -0.3612
 7771SOL    HW134772   1.596   3.785   6.225  1.0403  0.9596 -0.1918
 7771SOL    HW234773   1.464   3.780   6.296 -0.5031  1.0170  1.7693
 7772SOL     OW34774   3.826   3.507   8.669 -0.4097 -0.1756 -0.5221
 7772SOL    HW134775   3.848   3.522   8.577 -0.9359 -0.1511 -0.6399
 7772SOL    HW234776   3.847   3.414   8.667  3.9564  0.7918 -0.0803
 7773SOL     OW34777   1.925   1.303   6.303  0.0610  0.3434  0.3450
 7773SOL    HW134778   2.014   1.283   6.274 -0.0443  1.9846 -1.1511
 7773SOL    HW234779   1.870   1.266   6.234  0.2937 -2.5267  1.7298
 7774SOL     OW34780   0.511   1.073  17.252  0.0323  0.4789 -0.1904
 7774SOL    HW134781   0.539   1.129  17.325  1.8405 -1.5793  0.6956
 7774SOL    HW234782   0.570   0.999  17.267  0.6659  1.2664  1.2554
 7775SOL     OW34783   1.990   2.105   5.989  0.0381 -0.4639 -0.0066
 7775SOL    HW134784   1.911   2.064   6.023  2.6261 -3.1319  2.8873
 7775SOL    HW234785   2.027   2.132   6.074  0.9338  1.4187 -0.9935
 7776SOL     OW34786   0.334   2.880   7.716  0.1655 -0.3982 -0.1551
 7776SOL    HW134787   0.414   2.851   7.758 -0.2945  1.4283  2.0386
 7776SOL    HW234788   0.278   2.802   7.721 -0.2378 -0.0400  1.1529
 7777SOL     OW34789   2.644   4.595   0.568 -0.1218 -0.5221 -0.0855
 7777SOL    HW134790   2.721   4.541   0.549  1.1536  1.5040 -0.7182
 7777SOL    HW234791   2.626   4.577   0.660 -2.4187 -1.3758 -0.6890
 7778SOL     OW34792   4.433   3.049   2.530 -0.5039  0.0561 -0.2881
 7778SOL    HW134793   4.346   3.087   2.518  1.0611  3.6510 -0.0960
 7778SOL    HW234794   4.423   3.009   2.617 -0.5837  2.8606  0.9956
 7779SOL     OW34795   4.056   1.389  12.857  0.2578  0.2954 -0.1532
 7779SOL    HW134796   3.987   1.328  12.834  1.3745 -0.9602 -0.1699
 7779SOL    HW234797   4.017   1.465  12.814 -0.8004  0.4126  1.0473
 7780SOL     OW34798   1.549   3.412  10.475  0.2793 -0.0339 -0.4140
 7780SOL    HW134799   1.512   3.326  10.456  0.6273 -0.8317  2.5283
 7780SOL    HW234800   1.575   3.425  10.567  1.8285 -1.9588 -0.5843
 7781SOL     OW34801   1.205   4.367  12.852  0.0333 -0.3273  0.2017
 7781SOL    HW134802   1.298   4.383  12.865 -0.0480 -0.6270  1.1541
 7781SOL    HW234803   1.180   4.384  12.761  0.6780 -0.5897 -0.0187
 7782SOL     OW34804   0.083   0.326   3.926  0.0803 -0.0969 -0.3044
 7782SOL    HW134805   0.134   0.257   3.885  1.1101  0.5377 -0.1128
 7782SOL    HW234806   4.715   0.301   3.925 -0.2628  1.1532 -0.0193
 7783SOL     OW34807   2.620   1.521   4.870 -0.6720  0.1871 -0.0894
 7783SOL    HW134808   2.709   1.558   4.872 -0.2700 -0.7112 -1.6676
 7783SOL    HW234809   2.605   1.496   4.962 -1.0582 -0.1650 -0.2497
 7784SOL     OW34810   3.893   3.490   4.416 -0.2889 -0.1180 -0.0979
 7784SOL    HW134811   3.799   3.499   4.398  0.1052 -0.2392 -2.1356
 7784SOL    HW234812   3.912   3.429   4.345  3.2844 -0.5860  1.2520
 7785SOL     OW34813   1.833   1.493   4.206 -0.1791 -0.3903 -0.1927
 7785SOL    HW134814   1.876   1.515   4.288 -1.2604 -0.3435  0.3683
 7785SOL    HW234815   1.750   1.539   4.218  1.1260  0.9089  3.5694
 7786SOL     OW34816   0.899   2.288  11.563 -0.0295 -0.2411 -0.2951
 7786SOL    HW134817   0.806   2.296  11.584 -0.1095  1.5121 -1.3143
 7786SOL    HW234818   0.933   2.370  11.601 -2.9211  1.2308 -0.9025
 7787SOL     OW34819   2.257   1.483   5.864  0.7476  0.3967  0.1018
 7787SOL    HW134820   2.208   1.434   5.797 -1.0713  1.8958  0.3365
 7787SOL    HW234821   2.303   1.551   5.814  1.0434 -0.0827 -0.2764
 7788SOL     OW34822   1.625   4.119  13.944  0.2772 -0.0357 -0.3598
 7788SOL    HW134823   1.650   4.163  14.026  1.6002 -1.5353  0.0424
 7788SOL    HW234824   1.589   4.036  13.974  2.9979 -0.8701  0.6068
 7789SOL     OW34825   2.890   3.183   7.805  0.2590  0.1735  0.0497
 7789SOL    HW134826   2.860   3.142   7.724  0.3416 -1.3329  0.7944
 7789SOL    HW234827   2.878   3.277   7.789 -0.0489  0.5016  2.2049
 7790SOL     OW34828   1.431   1.029  10.455  0.2355 -0.1495 -0.4964
 7790SOL    HW134829   1.460   1.111  10.496  0.3612 -0.0991 -0.6846
 7790SOL    HW234830   1.455   0.978  10.533 -0.1827  2.3428  1.2805
 7791SOL     OW34831   0.237   2.116   7.756 -0.2212  0.2923 -0.0326
 7791SOL    HW134832   0.241   2.161   7.840 -3.1391  0.2480  0.1516
 7791SOL    HW234833   0.179   2.170   7.703  0.4765 -0.0180 -1.1038
 7792SOL     OW34834   4.426   1.058   2.760 -0.1096  0.1290 -0.0460
 7792SOL    HW134835   4.362   1.054   2.831 -0.3454  0.2042 -0.2509
 7792SOL    HW234836   4.427   0.968   2.728 -0.6401  0.8769 -2.1693
 7793SOL     OW34837   2.555   1.895   3.415  0.4197  0.5231 -0.2980
 7793SOL    HW134838   2.464   1.889   3.385  0.8276 -0.7439 -1.3037
 7793SOL    HW234839   2.561   1.836   3.489  1.9535  1.1697  0.1061
 7794SOL     OW34840   3.344   1.492   2.316  0.1692 -0.6570 -0.1222
 7794SOL    HW134841   3.329   1.447   2.233 -1.6168 -0.2241 -0.0362
 7794SOL    HW234842   3.397   1.567   2.289 -0.0365 -0.7867 -0.8818
 7795SOL     OW34843   3.228   3.465   3.177 -0.2726 -0.3491 -0.0757
 7795SOL    HW134844   3.163   3.396   3.165  0.6951 -1.7524  2.6775
 7795SOL    HW234845   3.187   3.549   3.156  0.0920 -0.4006 -0.9831
 7796SOL     OW34846   1.808   2.280   4.435 -0.2525  0.6304 -0.4694
 7796SOL    HW134847   1.846   2.219   4.498 -0.4227  0.1056 -0.8777
 7796SOL    HW234848   1.854   2.260   4.354  1.6670  1.1294  0.5124
 7797SOL     OW34849   2.171   0.507  12.635  0.3083  0.3506 -0.4746
 7797SOL    HW134850   2.155   0.456  12.556  2.2183  1.3419 -1.4978
 7797SOL    HW234851   2.098   0.476  12.689  1.1431 -0.4606  0.1714
 7798SOL     OW34852   0.119   0.165  11.876  0.0321  0.3192 -0.3161
 7798SOL    HW134853   0.190   0.175  11.939 -0.3201  2.3068 -0.2534
 7798SOL    HW234854   0.049   0.120  11.924  0.3701 -1.8092 -1.7792
 7799SOL     OW34855   3.843   1.154  13.165 -0.3819 -0.4309  0.4968
 7799SOL    HW134856   3.871   1.095  13.235  0.4319 -1.8759 -1.0415
 7799SOL    HW234857   3.758   1.182  13.197 -0.0921  1.5731 -0.4348
 7800SOL     OW34858   0.952   4.262   4.084  0.4465  0.3158 -0.1486
 7800SOL    HW134859   0.941   4.316   4.163 -0.7183  0.0139 -0.1105
 7800SOL    HW234860   1.012   4.192   4.109  0.3123 -0.9822 -3.5288
 7801SOL     OW34861   3.401   1.324   3.040  0.2458 -0.6818  0.3692
 7801SOL    HW134862   3.357   1.346   2.957  1.7241 -0.3810 -0.3365
 7801SOL    HW234863   3.492   1.342   3.014 -0.6024  3.7671  0.4687
 7802SOL     OW34864   2.795   2.078   2.689 -0.2667 -0.6793  0.1437
 7802SOL    HW134865   2.728   2.013   2.669  1.0312 -1.8229 -0.5317
 7802SOL    HW234866   2.791   2.131   2.609  2.0969  0.8679  1.0679
 7803SOL     OW34867   1.208   3.378   1.560 -0.1071  0.4248  0.0959
 7803SOL    HW134868   1.113   3.377   1.575 -0.3199  2.3190 -1.2057
 7803SOL    HW234869   1.223   3.283   1.555 -3.6077 -0.0169 -2.3229
 7804SOL     OW34870   0.331   3.632   6.993 -0.3969 -0.0258  0.2706
 7804SOL    HW134871   0.388   3.708   6.991 -2.2730  1.3445 -0.7851
 7804SOL    HW234872   0.311   3.626   6.900 -0.6904  0.7382  0.2874
 7805SOL     OW34873   2.020   1.002   6.215 -0.5361  0.0622 -0.1550
 7805SOL    HW134874   1.950   0.946   6.249 -0.1981 -1.3808 -1.8192
 7805SOL    HW234875   2.069   1.013   6.296 -0.9760 -2.2577  0.4275
 7806SOL     OW34876   4.357   0.857   4.059 -0.0411 -0.1525  0.4033
 7806SOL    HW134877   4.437   0.827   4.102  0.1223 -1.2200 -0.6233
 7806SOL    HW234878   4.392   0.882   3.974  1.3280  0.0833  1.0332
 7807SOL     OW34879   1.399   1.095  14.573 -0.7177  0.2555  0.2223
 7807SOL    HW134880   1.410   1.078  14.479  0.8950  0.1457  0.4261
 7807SOL    HW234881   1.355   1.179  14.566  0.3808  0.9039  1.1624
 7808SOL     OW34882   0.402   2.813   8.612  0.7069  0.0221  0.3327
 7808SOL    HW134883   0.399   2.884   8.548 -0.2475 -1.1074 -0.8672
 7808SOL    HW234884   0.346   2.846   8.683  0.4173  0.4959 -0.1153
 7809SOL     OW34885   4.150   1.055   3.365 -0.4199 -0.1741 -0.4131
 7809SOL    HW134886   4.213   0.987   3.386 -0.1805  0.4259  0.7838
 7809SOL    HW234887   4.164   1.128   3.425  0.9252  0.1364 -1.0924
 7810SOL     OW34888   3.766   1.559   3.424  0.0834  0.7754 -0.3975
 7810SOL    HW134889   3.820   1.492   3.466  0.8408  0.7507 -1.3999
 7810SOL    HW234890   3.796   1.638   3.470  0.0121  2.3170 -2.9413
 7811SOL     OW34891   1.359   1.049  16.749  0.5927 -0.3359 -0.3530
 7811SOL    HW134892   1.417   0.976  16.772  1.0996  0.1209 -0.1993
 7811SOL    HW234893   1.415   1.103  16.693  2.1555 -3.7161 -2.0818
 7812SOL     OW34894   2.415   1.756   5.313 -0.2346 -0.0638  0.0079
 7812SOL    HW134895   2.369   1.820   5.368  0.1952  1.2670 -1.1715
 7812SOL    HW234896   2.450   1.708   5.389 -0.9797  1.2434  1.1689
 7813SOL     OW34897   1.731   0.661   3.307  0.0586  0.8370  0.3633
 7813SOL    HW134898   1.753   0.745   3.267  0.6935  1.3725  1.8249
 7813SOL    HW234899   1.641   0.670   3.337  0.1608  0.7947  0.6843
 7814SOL     OW34900   1.326   3.947   6.156  0.3814 -0.6260 -0.1726
 7814SOL    HW134901   1.326   4.034   6.117  0.0961  0.0569  1.3379
 7814SOL    HW234902   1.279   3.895   6.091 -0.6297  1.1352 -0.8245
 7815SOL     OW34903   3.060   2.525  13.301 -0.4325 -0.0904  0.1365
 7815SOL    HW134904   3.117   2.599  13.318 -1.4703  0.5603  0.8049
 7815SOL    HW234905   3.030   2.550  13.213 -1.1510 -1.5465 -0.0466
 7816SOL     OW34906   1.960   1.871   5.565 -0.0965 -0.3100  0.1891
 7816SOL    HW134907   2.012   1.883   5.644  0.7435  0.7196 -0.5279
 7816SOL    HW234908   1.999   1.789   5.537 -0.8920  0.2575 -2.5305
 7817SOL     OW34909   0.324   1.224  16.236 -0.4786 -0.3201 -0.0733
 7817SOL    HW134910   0.333   1.280  16.313  2.8542  0.0744 -0.7149
 7817SOL    HW234911   0.410   1.182  16.235  0.2401  1.1186  0.9702
 7818SOL     OW34912   1.989   1.992   8.043  0.2332 -0.0234  0.5740
 7818SOL    HW134913   1.917   1.986   7.981 -0.5322  0.0925  1.4383
 7818SOL    HW234914   1.992   1.912   8.096 -0.1466  0.0418  0.6943
 7819SOL     OW34915   0.942   2.199  17.460 -0.3521 -0.3161 -0.0309
 7819SOL    HW134916   0.928   2.157  17.545 -0.0087 -0.9539 -0.2874
 7819SOL    HW234917   0.895   2.142  17.399 -1.6498  0.7240  0.0009
 7820SOL     OW34918   1.719   3.031  10.356 -0.0555 -0.2106 -0.8853
 7820SOL    HW134919   1.624   3.038  10.352 -0.3208 -3.0980  0.4468
 7820SOL    HW234920   1.748   3.104  10.301  3.2540  0.6455  1.9442
 7821SOL     OW34921   0.424   0.081   1.931  0.4691  0.3231 -0.0191
 7821SOL    HW134922   0.377   0.164   1.923  3.8485  2.0610 -2.0219
 7821SOL    HW234923   0.452   0.101   2.021  0.9943  0.8205 -0.2893
 7822SOL     OW34924   1.341   2.760   9.385  0.6907  0.1392  0.2272
 7822SOL    HW134925   1.372   2.849   9.373 -1.8236  1.2406  1.8909
 7822SOL    HW234926   1.252   2.760   9.348  1.6475  2.6693 -2.0994
 7823SOL     OW34927   3.030   2.412   3.299  0.2461 -0.2271  0.2447
 7823SOL    HW134928   2.937   2.430   3.287  0.1354 -1.2017 -0.3443
 7823SOL    HW234929   3.024   2.377   3.388  0.9832  1.3823  0.9334
 7824SOL     OW34930   4.045   0.600  15.796 -0.0440 -0.3595 -0.1381
 7824SOL    HW134931   4.009   0.683  15.825 -1.0127  0.1186 -2.7242
 7824SOL    HW234932   4.004   0.602  15.710  0.2692 -0.6849 -0.2959
 7825SOL     OW34933   1.029   0.174   9.589 -0.6131  0.3590  0.1330
 7825SOL    HW134934   0.961   0.129   9.539  0.1434 -0.5820 -0.0272
 7825SOL    HW234935   1.022   0.254   9.537 -0.2298 -0.3990 -1.0648
 7826SOL     OW34936   0.009   0.608   9.308 -0.5714  0.0160  0.0466
 7826SOL    HW134937   4.641   0.590   9.326 -0.7237 -1.8391 -2.4869
 7826SOL    HW234938   0.013   0.548   9.233 -1.1866 -0.6832  0.5700
 7827SOL     OW34939   1.234   3.822  13.579  0.1252  0.1565  0.7325
 7827SOL    HW134940   1.325   3.848  13.564  0.0750 -0.9991 -1.6106
 7827SOL    HW234941   1.191   3.905  13.559  2.2123  1.5845  2.1880
 7828SOL     OW34942   3.325   2.985   7.898 -0.2274 -0.0245  0.2579
 7828SOL    HW134943   3.331   2.890   7.888  1.5951  0.4205 -2.9715
 7828SOL    HW234944   3.412   3.012   7.927 -0.7328  1.3641  0.5228
 7829SOL     OW34945   4.191   0.700   0.599 -0.2816  0.5694 -0.3030
 7829SOL    HW134946   4.251   0.753   0.546  0.9264  1.2222  1.7552
 7829SOL    HW234947   4.224   0.717   0.687 -1.0697 -0.4849  0.2048
 7830SOL     OW34948   0.922   2.026   5.097 -0.3296 -0.4269 -0.4309
 7830SOL    HW134949   0.952   1.968   5.027  1.5971 -0.3827  0.3485
 7830SOL    HW234950   0.956   1.978   5.173  0.5048  4.3306  2.2206
 7831SOL     OW34951   1.671   3.026  12.824 -0.1687 -0.2652  0.0595
 7831SOL    HW134952   1.595   2.988  12.868  0.9466 -0.8712  1.4903
 7831SOL    HW234953   1.729   2.950  12.829 -0.5674 -0.5604  0.1412
 7832SOL     OW34954   2.874   3.656   0.634 -0.0314  0.0898  0.5067
 7832SOL    HW134955   2.953   3.603   0.623  2.4310  4.0724 -1.1904
 7832SOL    HW234956   2.855   3.697   0.550 -2.2348  0.4682  1.1787
 7833SOL     OW34957   2.861   1.011   6.565 -0.3963  0.4617 -0.0670
 7833SOL    HW134958   2.847   1.057   6.648  1.7225  0.3509  0.3529
 7833SOL    HW234959   2.815   0.928   6.580  1.9925 -0.9655 -0.7587
 7834SOL     OW34960   1.232   1.229  15.846 -0.2910 -0.4725  0.5947
 7834SOL    HW134961   1.185   1.280  15.912 -0.4076 -0.5610  0.5799
 7834SOL    HW234962   1.258   1.161  15.908  1.2985  2.4420  3.1386
 7835SOL     OW34963   1.785   0.242   8.356 -0.5111  0.3206  0.0740
 7835SOL    HW134964   1.857   0.232   8.419  0.2272  0.1847 -0.7986
 7835SOL    HW234965   1.717   0.190   8.397  1.0131 -2.1647 -0.5358
 7836SOL     OW34966   1.623   0.990  16.072 -0.0617 -0.1131 -0.1762
 7836SOL    HW134967   1.635   1.047  15.997 -0.0514 -2.5623 -2.0285
 7836SOL    HW234968   1.618   0.901  16.035 -2.2880 -0.4696  0.9673
 7837SOL     OW34969   3.384   4.165   8.346 -0.6528  0.3980 -0.8527
 7837SOL    HW134970   3.408   4.257   8.359  0.7485 -0.2870  1.2865
 7837SOL    HW234971   3.411   4.160   8.254  0.4994  0.0792 -0.5053
 7838SOL     OW34972   4.203   3.298   2.766  0.1907 -0.2832 -0.0020
 7838SOL    HW134973   4.126   3.353   2.777  0.9005  1.3227 -3.1137
 7838SOL    HW234974   4.175   3.227   2.824 -1.3477  0.2503 -0.0963
 7839SOL     OW34975   2.906   2.809   4.006 -0.2307 -0.5822  0.0975
 7839SOL    HW134976   2.914   2.714   4.014 -1.0838 -0.7714 -1.1985
 7839SOL    HW234977   2.894   2.818   3.911 -3.1224  1.2913  0.6180
 7840SOL     OW34978   4.715   4.206   7.686 -0.7466 -0.4648 -0.1332
 7840SOL    HW134979   4.634   4.236   7.726  0.5502  1.4659  1.0489
 7840SOL    HW234980   4.690   4.115   7.672 -1.0899 -0.2227 -1.0574
 7841SOL     OW34981   1.851   3.238   4.079  0.6359  0.1187  0.0287
 7841SOL    HW134982   1.867   3.258   3.987  0.3278 -0.5955 -0.1835
 7841SOL    HW234983   1.927   3.281   4.119  1.2673  0.1742 -1.2167
 7842SOL     OW34984   1.384   2.002   8.458 -0.6496  0.2121 -0.4891
 7842SOL    HW134985   1.362   1.977   8.368  0.0213 -0.8684 -0.3526
 7842SOL    HW234986   1.315   2.064   8.483  2.1713  3.7443 -1.3851
 7843SOL     OW34987   0.747   2.905   4.076 -0.2684  0.1216  0.1234
 7843SOL    HW134988   0.770   2.982   4.024  1.2987  0.0424  0.7077
 7843SOL    HW234989   0.794   2.932   4.155  2.1558  0.2163 -1.3450
 7844SOL     OW34990   2.648   2.559   6.477 -0.4478 -0.2590 -0.4498
 7844SOL    HW134991   2.563   2.541   6.517 -0.7521 -0.0488 -1.0101
 7844SOL    HW234992   2.703   2.488   6.510  0.3201 -0.7457 -2.7771
 7845SOL     OW34993   3.516   0.731  17.574  0.3529  0.8041  0.5343
 7845SOL    HW134994   3.566   0.760  17.650 -0.9910 -0.8149  2.0294
 7845SOL    HW234995   3.427   0.728  17.608  0.4467  0.4969  0.7462
 7846SOL     OW34996   2.500   2.007  10.572  0.0546  0.1437 -0.0951
 7846SOL    HW134997   2.482   2.008  10.478  1.7571  0.6824 -0.4222
 7846SOL    HW234998   2.416   2.038  10.604  0.3118 -0.7204  1.4281
 7847SOL     OW34999   4.214   3.331  13.842  0.4494 -0.2768 -0.4285
 7847SOL    HW135000   4.241   3.339  13.933 -2.7222 -1.6958  0.6143
 7847SOL    HW235001   4.178   3.243  13.832 -0.5783  0.1221 -0.1868
 7848SOL     OW35002   3.067   1.275   3.372  0.1693 -0.2512  0.0131
 7848SOL    HW135003   3.080   1.331   3.449  1.2324 -3.6293  2.3077
 7848SOL    HW235004   3.126   1.319   3.311  1.3886 -0.9985  0.6458
 7849SOL     OW35005   1.648   2.866   5.791  0.2186 -0.2931 -0.2571
 7849SOL    HW135006   1.712   2.921   5.745  0.5136 -0.2569  0.2062
 7849SOL    HW235007   1.566   2.915   5.785 -0.5742 -1.5546  0.4101
 7850SOL     OW35008   0.334   1.096   9.023 -0.6698  0.1842 -0.0922
 7850SOL    HW135009   0.247   1.089   9.063 -0.6294 -1.4316 -0.2912
 7850SOL    HW235010   0.303   1.099   8.932 -1.5204 -0.4022  0.1746
 7851SOL     OW35011   1.552   3.101  14.673 -0.3749 -0.3387 -0.3664
 7851SOL    HW135012   1.517   3.018  14.704 -1.0719 -0.7494 -2.2514
 7851SOL    HW235013   1.635   3.069  14.640  0.6702  0.5118  1.4506
 7852SOL     OW35014   0.295   0.286   8.012 -0.1331 -0.0396 -0.3652
 7852SOL    HW135015   0.266   0.249   7.928  1.4864 -0.6808 -0.6423
 7852SOL    HW235016   0.244   0.222   8.062 -1.1947 -0.0531 -1.4641
 7853SOL     OW35017   1.827   4.178   1.178  0.1585 -0.1562  0.0930
 7853SOL    HW135018   1.754   4.201   1.235 -0.0416  1.1497 -0.6862
 7853SOL    HW235019   1.868   4.113   1.235 -0.0277 -0.2006  0.1753
 7854SOL     OW35020   1.551   1.530   1.589 -0.2576 -0.1196 -0.4040
 7854SOL    HW135021   1.623   1.523   1.651 -0.3721  1.9788 -0.0377
 7854SOL    HW235022   1.535   1.624   1.589 -0.8922 -0.2289 -0.0922
 7855SOL     OW35023   0.159   3.884   3.020 -0.1699  0.0101 -0.1894
 7855SOL    HW135024   0.145   3.803   2.971  2.8387 -2.2443  2.6808
 7855SOL    HW235025   0.252   3.876   3.038 -0.4132  3.4970  2.6046
 7856SOL     OW35026   4.093   4.648   2.386  0.3592 -0.2776  0.5623
 7856SOL    HW135027   4.165   4.693   2.429  1.6661  0.4363 -2.3836
 7856SOL    HW235028   4.025   4.715   2.389  0.1105 -0.5562  1.3562
 7857SOL     OW35029   2.539   1.555   3.905  0.2674 -0.2285 -0.7513
 7857SOL    HW135030   2.551   1.460   3.912  0.4383 -0.2404 -1.1583
 7857SOL    HW235031   2.592   1.573   3.827  1.6122  0.4185  0.3102
 7858SOL     OW35032   0.733   3.402   3.972  0.0585 -0.4490 -0.3021
 7858SOL    HW135033   0.733   3.395   3.876 -0.1083  1.1878 -0.4097
 7858SOL    HW235034   0.767   3.488   3.994 -0.7850 -0.1712 -0.0929
 7859SOL     OW35035   3.544   3.042   4.047 -0.0489 -0.0002  0.3135
 7859SOL    HW135036   3.590   3.125   4.053  1.7346 -0.9113 -1.1333
 7859SOL    HW235037   3.477   3.048   4.116 -0.1390  0.0724  0.2211
 7860SOL     OW35038   3.655   4.187   6.361 -0.4167  0.0288  0.2183
 7860SOL    HW135039   3.587   4.236   6.406  1.3164  1.2171  1.5774
 7860SOL    HW235040   3.715   4.259   6.341 -1.6863  1.1330  0.4511
 7861SOL     OW35041   0.793   2.957   3.215 -0.1454 -0.6663  0.2924
 7861SOL    HW135042   0.745   2.978   3.295 -2.4676 -0.4217 -1.1645
 7861SOL    HW235043   0.863   2.899   3.244  0.5282  0.0411  0.0803
 7862SOL     OW35044   2.291   0.089   4.579 -0.2024  0.1286 -0.6377
 7862SOL    HW135045   2.363   0.142   4.546 -1.6078  1.1574 -2.0625
 7862SOL    HW235046   2.267   0.128   4.664  0.5818  2.0496 -1.2904
 7863SOL     OW35047   2.177   4.474   5.580 -0.1454 -0.1535 -0.4823
 7863SOL    HW135048   2.153   4.566   5.570  1.5556  0.4725  1.1274
 7863SOL    HW235049   2.167   4.436   5.493  0.4983  0.8992 -1.0244
 7864SOL     OW35050   4.622   0.014  14.116  0.1407 -0.1345 -0.1701
 7864SOL    HW135051   4.663   0.010  14.029  0.3927 -1.9329  0.0306
 7864SOL    HW235052   4.569   0.093  14.122  1.5712  0.7404  0.7798
 7865SOL     OW35053   3.695   0.535  12.276  1.1008 -0.6322 -0.1624
 7865SOL    HW135054   3.749   0.614  12.271 -0.2740  0.5161  3.4297
 7865SOL    HW235055   3.696   0.507  12.184 -5.2045 -3.7933  0.7382
 7866SOL     OW35056   0.994   3.395   7.481  0.1327 -0.5164 -0.3706
 7866SOL    HW135057   1.032   3.408   7.568  0.0655 -1.9176 -0.1303
 7866SOL    HW235058   1.030   3.468   7.431  0.8005 -1.6276 -1.5169
 7867SOL     OW35059   3.316   0.909   2.937 -0.2413 -0.0830 -0.3529
 7867SOL    HW135060   3.273   0.967   2.999  0.5802  0.9353 -0.7368
 7867SOL    HW235061   3.243   0.897   2.875  0.0183 -4.7078  0.2111
 7868SOL     OW35062   4.621   3.177   1.986  0.4780 -0.1446 -0.1462
 7868SOL    HW135063   4.709   3.213   1.985  0.8380 -0.9678  2.7600
 7868SOL    HW235064   4.568   3.256   1.975 -0.4563 -0.5953  1.0685
 7869SOL     OW35065   1.373   4.358   2.454 -0.1833 -0.3201  0.0511
 7869SOL    HW135066   1.402   4.400   2.373 -0.3903 -0.3628 -0.0451
 7869SOL    HW235067   1.281   4.349   2.427 -0.4299  1.0826  0.4129
 7870SOL     OW35068   4.518   3.332   3.941  0.3914 -0.5440  0.3110
 7870SOL    HW135069   4.468   3.293   3.870  0.6853 -1.4880  0.6154
 7870SOL    HW235070   4.495   3.424   3.928 -1.1781 -1.0951 -0.7815
 7871SOL     OW35071   0.523   2.939   9.900 -0.1703 -0.7212  0.0060
 7871SOL    HW135072   0.542   2.859   9.950  0.3462  1.3818  3.1756
 7871SOL    HW235073   0.598   2.992   9.928 -0.4419 -1.0957  1.4843
 7872SOL     OW35074   3.405   4.295   6.885  0.0765  0.2729  0.0686
 7872SOL    HW135075   3.397   4.382   6.846 -1.5009  0.4922  0.9180
 7872SOL    HW235076   3.472   4.302   6.954 -0.8466 -1.0990  1.1005
 7873SOL     OW35077   4.353   0.984   6.047  0.0107 -0.3482 -0.5693
 7873SOL    HW135078   4.317   1.073   6.044  1.6511  0.3380  0.2291
 7873SOL    HW235079   4.293   0.937   5.989  1.1107  0.0602 -2.0539
 7874SOL     OW35080   2.371   4.626   6.273  0.2403 -0.0805  0.0114
 7874SOL    HW135081   2.426   4.598   6.200  0.0749  0.2088 -0.2253
 7874SOL    HW235082   2.353   4.718   6.255  0.8936  0.5265  2.4977
 7875SOL     OW35083   0.669   0.372   7.580  0.0273  0.0815  0.3793
 7875SOL    HW135084   0.708   0.307   7.639 -1.4441 -0.1769  1.0664
 7875SOL    HW235085   0.669   0.453   7.630  1.4071  0.2722  0.0765
 7876SOL     OW35086   0.237   2.247   8.866  0.0492 -0.3661 -0.2840
 7876SOL    HW135087   0.177   2.318   8.842  1.9501  1.2509 -0.2901
 7876SOL    HW235088   0.191   2.203   8.938 -0.5958  1.6132  0.5270
 7877SOL     OW35089   3.787   3.752  10.014  0.4072  0.0512 -0.4270
 7877SOL    HW135090   3.703   3.719   9.983  0.5993  0.5485 -1.4615
 7877SOL    HW235091   3.849   3.730   9.944 -1.1110  1.7133 -2.2733
 7878SOL     OW35092   1.304   1.378   7.223 -0.3510  0.2898  0.6505
 7878SOL    HW135093   1.291   1.302   7.280  2.7126  0.1455  1.1718
 7878SOL    HW235094   1.358   1.434   7.278  1.5386 -0.0344 -0.8784
 7879SOL     OW35095   1.384   1.566   8.877  0.4396  0.4909  0.3386
 7879SOL    HW135096   1.480   1.571   8.884  0.5848 -3.2012  1.2253
 7879SOL    HW235097   1.362   1.554   8.970 -2.1297  0.3043 -0.3130
 7880SOL     OW35098   4.645   0.109  10.801 -0.4035 -0.0643  0.0069
 7880SOL    HW135099   4.684   0.183  10.849 -0.4497 -0.3520  0.4884
 7880SOL    HW235100   4.550   0.119  10.794 -0.4296  1.2761  2.0716
 7881SOL     OW35101   4.506   0.909  13.308 -0.2535 -0.2621  0.0272
 7881SOL    HW135102   4.537   0.998  13.323 -1.6844 -0.0856  2.0122
 7881SOL    HW235103   4.464   0.931  13.225  0.5145  0.2979 -0.2109
 7882SOL     OW35104   0.797   0.479   6.357 -0.4454 -0.1522  0.3365
 7882SOL    HW135105   0.762   0.539   6.292  0.3838 -1.6671 -1.4962
 7882SOL    HW235106   0.748   0.397   6.345 -1.5082  0.5723 -0.1992
 7883SOL     OW35107   2.945   1.824   4.757  0.2063 -0.0264  0.1818
 7883SOL    HW135108   2.935   1.869   4.673  1.6780  1.2134  0.6700
 7883SOL    HW235109   2.974   1.898   4.810  0.0076 -0.2112  0.5521
 7884SOL     OW35110   4.109   1.352   5.461 -0.1509  0.0547 -0.1320
 7884SOL    HW135111   4.118   1.401   5.544  0.1647 -2.0212  1.0518
 7884SOL    HW235112   4.196   1.365   5.424 -0.6779 -1.5298 -1.8736
 7885SOL     OW35113   1.671   4.122  15.292  0.0983 -0.0854  0.6696
 7885SOL    HW135114   1.715   4.061  15.351  2.1716  0.3879 -0.3984
 7885SOL    HW235115   1.704   4.206  15.323 -0.0119  0.7484 -1.4753
 7886SOL     OW35116   4.122   2.510   0.874 -0.5003 -0.1180 -0.2734
 7886SOL    HW135117   4.175   2.585   0.902 -0.7117  0.5848 -1.7707
 7886SOL    HW235118   4.035   2.533   0.907 -0.5899  1.2617 -1.4555
 7887SOL     OW35119   2.980   0.794  15.284  0.2828 -0.1417 -0.1598
 7887SOL    HW135120   2.976   0.873  15.338 -2.0345  0.0665 -0.6375
 7887SOL    HW235121   3.069   0.762  15.295  0.4811  0.6654  0.5638
 7888SOL     OW35122   1.489   0.348   2.107 -0.1994  0.1059 -0.0164
 7888SOL    HW135123   1.573   0.310   2.082 -0.5957 -0.4666 -0.4807
 7888SOL    HW235124   1.481   0.325   2.199 -0.8323  2.7667  0.6017
 7889SOL     OW35125   4.500   0.289   2.956  0.5937 -0.3095  0.8912
 7889SOL    HW135126   4.484   0.195   2.958  2.6071 -0.6735  0.0823
 7889SOL    HW235127   4.412   0.323   2.944  0.1031 -1.6496  0.7760
 7890SOL     OW35128   0.427   1.494   9.800  0.2451  0.0569  0.0399
 7890SOL    HW135129   0.509   1.450   9.824 -0.5481 -2.1258 -1.1969
 7890SOL    HW235130   0.363   1.463   9.864 -1.5791  1.0652 -1.3231
 7891SOL     OW35131   1.734   1.794   0.644  0.4726  0.4835  0.5160
 7891SOL    HW135132   1.707   1.736   0.715 -0.3849  0.7723  0.4233
 7891SOL    HW235133   1.794   1.741   0.591 -0.2430  0.2066 -0.0150
 7892SOL     OW35134   3.576   2.425  12.291  0.3231  0.0860 -0.1160
 7892SOL    HW135135   3.520   2.501  12.306  1.5978  0.8051  0.9442
 7892SOL    HW235136   3.664   2.456  12.311  0.2232  0.0005  0.4592
 7893SOL     OW35137   2.733   1.972   9.936  0.6729  0.3789  0.0528
 7893SOL    HW135138   2.694   2.039   9.991  2.3564 -0.3969  2.1809
 7893SOL    HW235139   2.666   1.907   9.958  0.4959 -0.5024 -3.0869
 7894SOL     OW35140   2.964   0.001   6.865 -0.5439 -0.5079  0.3722
 7894SOL    HW135141   2.948   4.651   6.924  0.1766  0.5445  1.8709
 7894SOL    HW235142   2.891   4.720   6.803 -2.6148 -1.2168  2.8647
 7895SOL     OW35143   3.479   2.274   5.779 -0.6058 -0.8124  0.5190
 7895SOL    HW135144   3.395   2.228   5.782 -0.4301 -1.2080 -0.8954
 7895SOL    HW235145   3.516   2.232   5.702 -1.0998  0.8487 -0.6127
 7896SOL     OW35146   1.628   4.666   4.057  0.0304  0.4451 -0.0104
 7896SOL    HW135147   1.711   4.626   4.030  0.1933  0.4045  0.5649
 7896SOL    HW235148   1.632   4.626   4.143 -0.3357  0.5762  0.0647
 7897SOL     OW35149   0.149   3.036  10.188  0.0207 -0.1687  0.5169
 7897SOL    HW135150   0.189   3.090  10.256  0.8785 -0.0850 -0.0551
 7897SOL    HW235151   0.175   2.950  10.220  0.5752  0.6632  2.2826
 7898SOL     OW35152   2.009   2.993   5.081 -0.1307  0.3565 -0.4107
 7898SOL    HW135153   1.947   2.993   5.009  0.9912  0.0166 -1.3689
 7898SOL    HW235154   2.061   2.915   5.068 -2.0902 -1.3210  1.7870
 7899SOL     OW35155   1.142   0.169  10.396  0.0232 -0.1122 -0.4880
 7899SOL    HW135156   1.230   0.155  10.432  0.4045 -1.5198 -1.9279
 7899SOL    HW235157   1.094   0.086  10.401  0.7040 -0.5315 -0.7125
 7900SOL     OW35158   2.632   0.046  11.756  0.4725 -0.8539  0.0220
 7900SOL    HW135159   2.540   0.074  11.759 -0.1837 -3.0003 -0.2022
 7900SOL    HW235160   2.646   0.038  11.850 -1.9680 -0.0610  0.4566
 7901SOL     OW35161   3.878   3.714   7.592  0.4382  0.1830  0.1576
 7901SOL    HW135162   3.885   3.630   7.638 -0.0298  0.2614  0.3712
 7901SOL    HW235163   3.958   3.757   7.623 -0.4485  2.0458 -0.1076
 7902SOL     OW35164   0.167   1.257   3.468  0.2185 -0.3602 -0.2042
 7902SOL    HW135165   0.114   1.208   3.406 -1.2994  1.5327 -0.4305
 7902SOL    HW235166   0.121   1.341   3.465  0.2656 -0.3022  0.5943
 7903SOL     OW35167   0.775   4.529   3.622  0.3405  0.2369 -0.4294
 7903SOL    HW135168   0.799   4.598   3.685  1.1749  0.5415 -1.0811
 7903SOL    HW235169   0.690   4.501   3.657  0.9120  0.4415  1.1537
 7904SOL     OW35170   0.400   3.894   9.173 -0.1276 -0.2240  0.4698
 7904SOL    HW135171   0.363   3.816   9.216 -1.1575  0.1175  0.1908
 7904SOL    HW235172   0.401   3.945   9.254  0.1163 -1.8674  1.5115
 7905SOL     OW35173   3.987   2.642  14.971  0.0129 -0.1874 -0.0391
 7905SOL    HW135174   4.049   2.714  14.983  0.1461 -0.4416  0.8278
 7905SOL    HW235175   3.910   2.691  15.001 -0.2751 -1.0103  0.5570
 7906SOL     OW35176   1.736   0.281   2.503  0.7556 -0.3332  0.5989
 7906SOL    HW135177   1.807   0.342   2.522  1.4288 -0.6836 -0.7716
 7906SOL    HW235178   1.711   0.244   2.587  0.9983  1.3049  1.3951
 7907SOL     OW35179   3.737   2.698   7.235  0.3552 -0.2935 -0.2028
 7907SOL    HW135180   3.785   2.780   7.234 -0.2638  0.0794  1.0228
 7907SOL    HW235181   3.647   2.731   7.234  0.5973  0.4008  0.7653
 7908SOL     OW35182   1.865   0.236  12.858  0.3417  0.5812 -0.0372
 7908SOL    HW135183   1.786   0.257  12.808 -0.4040 -0.2640  0.7866
 7908SOL    HW235184   1.904   0.186  12.787 -1.5070 -2.0642  0.7707
 7909SOL     OW35185   3.045   0.072   2.390 -0.5529  0.4275 -0.3308
 7909SOL    HW135186   3.119   0.117   2.431  1.4266 -3.7495  0.5630
 7909SOL    HW235187   3.082   0.047   2.306  1.8815  3.8927 -0.3204
 7910SOL     OW35188   2.054   3.728   5.968 -0.2265 -0.4021 -0.2896
 7910SOL    HW135189   2.008   3.764   6.045  1.3528  2.4475 -0.6673
 7910SOL    HW235190   2.123   3.793   5.954 -0.3923  0.0955  1.2109
 7911SOL     OW35191   4.258   0.265  13.645 -0.2576 -0.8813  0.0988
 7911SOL    HW135192   4.288   0.194  13.588 -0.7015  0.3251 -1.6596
 7911SOL    HW235193   4.164   0.265  13.625 -0.2694  0.5550  0.1884
 7912SOL     OW35194   3.355   3.698   4.766 -0.3323  0.4323 -0.4230
 7912SOL    HW135195   3.341   3.631   4.833 -1.3324  1.4468  0.3595
 7912SOL    HW235196   3.269   3.733   4.742 -0.8967 -1.4908 -1.2710
 7913SOL     OW35197   0.764   0.957   1.845  0.4617  0.0729  0.0054
 7913SOL    HW135198   0.706   0.970   1.921 -0.7487  0.6707 -1.0204
 7913SOL    HW235199   0.766   0.863   1.828 -3.1258 -0.3122  1.7692
 7914SOL     OW35200   3.938   4.705   2.600  1.1584  0.3991 -0.0741
 7914SOL    HW135201   3.910   4.624   2.557  1.0430  0.4381 -0.0729
 7914SOL    HW235202   3.923   0.051   2.537  0.3412  0.3778  0.0914
 7915SOL     OW35203   3.093   1.385   6.266 -0.0698  0.0868 -0.0755
 7915SOL    HW135204   3.042   1.320   6.217  1.2527 -0.0521 -1.2715
 7915SOL    HW235205   3.025   1.451   6.277  0.7709  1.3284 -2.3010
 7916SOL     OW35206   2.300   1.848   0.106  0.0209 -0.7101  0.0625
 7916SOL    HW135207   2.363   1.812   0.169 -1.0437 -0.9386  0.9995
 7916SOL    HW235208   2.263   1.768   0.068  0.8818 -0.3075 -1.6248
 7917SOL     OW35209   4.623   3.831   9.153 -0.4834  0.3199 -0.1179
 7917SOL    HW135210   4.590   3.742   9.146  1.0034 -0.0842 -1.8524
 7917SOL    HW235211   4.636   3.836   9.248  0.9493 -0.4996 -0.2795
 7918SOL     OW35212   2.071   3.305   4.388 -0.1629  0.2180  0.0058
 7918SOL    HW135213   2.089   3.306   4.294  1.7182 -1.3699  0.3458
 7918SOL    HW235214   2.145   3.351   4.428  0.4928 -1.4973  0.7895
 7919SOL     OW35215   3.478   2.961   2.885  0.4303 -0.0810 -0.3417
 7919SOL    HW135216   3.445   3.015   2.957 -0.1868 -0.5825 -0.2462
 7919SOL    HW235217   3.427   3.000   2.814  0.2999  0.0048 -0.2024
 7920SOL     OW35218   4.579   2.707   9.596 -0.0601  0.1774 -0.3726
 7920SOL    HW135219   4.594   2.627   9.646 -1.6269  0.1867  0.1144
 7920SOL    HW235220   4.582   2.778   9.660 -0.3374 -0.1857  0.0411
 7921SOL     OW35221   2.977   3.186   4.211 -0.2103  0.4549  0.5416
 7921SOL    HW135222   2.925   3.187   4.292  3.1919 -2.0486  2.7265
 7921SOL    HW235223   3.009   3.096   4.205  0.0853  0.8063 -3.1983
 7922SOL     OW35224   1.429   1.900   6.765 -0.0556 -0.2738 -0.0063
 7922SOL    HW135225   1.341   1.865   6.781  0.1303  0.0707  1.7553
 7922SOL    HW235226   1.471   1.888   6.851 -0.4453 -2.8800 -0.1718
 7923SOL     OW35227   1.278   2.550   2.016  0.6289 -0.4760 -0.2928
 7923SOL    HW135228   1.336   2.618   2.049 -1.0251  0.8225 -0.0784
 7923SOL    HW235229   1.246   2.513   2.098  0.0162  1.3864  0.2886
 7924SOL     OW35230   2.320   3.958   2.734  0.8457 -0.6595  0.0138
 7924SOL    HW135231   2.312   4.038   2.682 -0.6596 -1.4881 -1.0517
 7924SOL    HW235232   2.377   3.991   2.803  0.0123  1.1372 -0.1605
 7925SOL     OW35233   0.490   1.614   6.369  0.5545  0.0790  0.0177
 7925SOL    HW135234   0.496   1.670   6.292  0.4626 -0.3597 -0.3110
 7925SOL    HW235235   0.465   1.538   6.316  1.3131 -1.6017  2.0206
 7926SOL     OW35236   2.006   3.851   7.322 -0.1023 -0.1892  0.5876
 7926SOL    HW135237   2.007   3.915   7.251  0.4394 -2.2247 -1.2204
 7926SOL    HW235238   2.049   3.777   7.281  1.7242  1.3718 -0.2677
 7927SOL     OW35239   4.576   2.788   1.605 -0.1388 -0.2934  0.3749
 7927SOL    HW135240   4.653   2.836   1.637 -0.0572  0.3801 -0.8050
 7927SOL    HW235241   4.545   2.860   1.550 -0.6778  0.1981  1.3362
 7928SOL     OW35242   1.892   3.842   9.499 -0.1089 -0.1078 -0.2536
 7928SOL    HW135243   1.833   3.884   9.437 -0.0907 -0.0698 -0.2456
 7928SOL    HW235244   1.889   3.900   9.575 -1.3051 -0.1431 -0.2733
 7929SOL     OW35245   0.848   2.452   6.986 -0.0824 -0.1679  0.1794
 7929SOL    HW135246   0.836   2.372   7.038  0.8526 -1.4874 -1.6363
 7929SOL    HW235247   0.873   2.514   7.055 -1.5631  0.9254 -0.2879
 7930SOL     OW35248   0.316   0.446   4.099 -0.0976  0.4528  0.2713
 7930SOL    HW135249   0.361   0.463   4.017  0.0648  1.0262  0.4772
 7930SOL    HW235250   0.337   0.532   4.136 -2.4491  0.3721  1.8103
 7931SOL     OW35251   3.646   1.038   5.496 -0.1705 -0.2066  0.0946
 7931SOL    HW135252   3.679   0.968   5.441 -0.1561 -0.6658  0.6857
 7931SOL    HW235253   3.730   1.066   5.530  0.4122  0.2337 -1.7103
 7932SOL     OW35254   3.051   1.569   3.788  0.1710 -0.3663 -0.1589
 7932SOL    HW135255   3.048   1.572   3.692  1.1289  0.9408 -0.1418
 7932SOL    HW235256   3.123   1.630   3.806  0.0799  0.4624 -2.6364
 7933SOL     OW35257   2.053   4.493   6.692  0.2717 -0.4171 -0.0387
 7933SOL    HW135258   2.040   4.535   6.607  1.2441 -0.6529 -0.2951
 7933SOL    HW235259   1.964   4.512   6.724  0.1470  3.0394 -2.4219
 7934SOL     OW35260   4.540   0.986   5.407  0.5407  0.6373  0.2618
 7934SOL    HW135261   4.569   0.905   5.450 -2.8498 -0.5247  0.3965
 7934SOL    HW235262   4.569   1.051   5.472  0.7740  0.8986 -0.1036
 7935SOL     OW35263   3.094   0.234  16.001  0.3906 -0.1588 -0.6758
 7935SOL    HW135264   3.141   0.198  15.925 -0.3556 -0.5394 -0.9633
 7935SOL    HW235265   3.138   0.185  16.070 -0.7137  0.1765  0.2754
 7936SOL     OW35266   2.051   3.780  12.073  0.1239  0.4123  0.1693
 7936SOL    HW135267   2.022   3.854  12.126  0.4347  0.5437  0.1604
 7936SOL    HW235268   2.015   3.807  11.989 -1.4489 -2.0662  0.0545
 7937SOL     OW35269   3.592   4.641   6.821  0.4166  0.2089 -0.2471
 7937SOL    HW135270   3.543   4.709   6.867 -2.3948 -1.2615 -1.0986
 7937SOL    HW235271   3.544   4.625   6.740  1.0161 -2.6704 -0.0232
 7938SOL     OW35272   0.060   0.616   4.030  0.3636  0.0786 -0.1083
 7938SOL    HW135273   0.106   0.532   4.036 -2.3245 -1.3396  0.6368
 7938SOL    HW235274   0.009   0.603   3.950  1.5321  1.2683 -1.0435
 7939SOL     OW35275   0.234   2.648   8.417  0.2218 -0.3567 -0.1309
 7939SOL    HW135276   0.198   2.736   8.425 -1.8937 -1.2765  0.6592
 7939SOL    HW235277   0.319   2.663   8.376  0.8401  0.6948  1.5718
 7940SOL     OW35278   0.787   1.785   6.705 -0.2793  0.2294 -0.3894
 7940SOL    HW135279   0.821   1.872   6.725 -1.0273  0.7303 -1.2835
 7940SOL    HW235280   0.761   1.760   6.793 -0.6230  2.7122  0.2237
 7941SOL     OW35281   3.968   0.115   6.369 -0.4209  0.2663  0.0199
 7941SOL    HW135282   4.001   0.203   6.349 -1.7186  0.7635  0.0422
 7941SOL    HW235283   3.972   0.122   6.465  0.8126  5.5697 -0.3974
 7942SOL     OW35284   1.851   3.981  15.437  0.0709  0.0293  0.4907
 7942SOL    HW135285   1.813   3.894  15.432  2.2888 -1.0037  1.4285
 7942SOL    HW235286   1.934   3.965  15.391  0.4106 -1.5635  1.6483
 7943SOL     OW35287   2.244   2.839   5.594 -0.1550  0.1724  0.6752
 7943SOL    HW135288   2.297   2.767   5.559 -1.2855 -0.2414 -0.1733
 7943SOL    HW235289   2.310   2.909   5.599 -0.1141  0.1949 -0.1118
 7944SOL     OW35290   0.937   3.673   8.981  0.0908  0.0967 -0.7930
 7944SOL    HW135291   1.025   3.704   8.960  0.9427 -0.6429  1.6549
 7944SOL    HW235292   0.910   3.699   9.069 -1.8999  0.9715 -1.6544
 7945SOL     OW35293   0.152   2.367  15.296  0.2726  0.2123 -0.0851
 7945SOL    HW135294   0.135   2.280  15.260 -0.1855  1.6695 -3.3968
 7945SOL    HW235295   0.067   2.403  15.273  0.1615  0.1448  0.2211
 7946SOL     OW35296   1.035   0.881  12.645  0.0227  0.2580  0.4741
 7946SOL    HW135297   0.962   0.924  12.689  0.4978  0.8478  0.6822
 7946SOL    HW235298   1.063   0.831  12.722 -0.6734 -0.4074  0.2955
 7947SOL     OW35299   0.717   4.219   9.200 -0.9704  0.4549  0.4888
 7947SOL    HW135300   0.764   4.138   9.181 -0.9627  0.2656  1.3236
 7947SOL    HW235301   0.683   4.192   9.285  0.6205 -3.2036 -0.0617
 7948SOL     OW35302   3.828   3.027  15.138  0.3883 -0.0100 -0.1729
 7948SOL    HW135303   3.814   2.932  15.135 -3.1178  0.5866 -2.1098
 7948SOL    HW235304   3.867   3.031  15.050  1.1044  1.1411  0.2094
 7949SOL     OW35305   0.636   0.727   2.480  0.0437  0.3473 -0.0061
 7949SOL    HW135306   0.687   0.713   2.560 -0.3824  2.6635  0.6922
 7949SOL    HW235307   0.700   0.762   2.419  0.3229  1.7366  1.0807
 7950SOL     OW35308   4.531   3.225   5.037  0.1241 -0.1488 -0.0391
 7950SOL    HW135309   4.562   3.144   4.995  1.9697  0.3874  0.2945
 7950SOL    HW235310   4.559   3.290   4.972 -0.9082  1.4618  1.1632
 7951SOL     OW35311   3.770   2.770   9.053 -0.3515 -0.2588 -0.8000
 7951SOL    HW135312   3.801   2.724   9.131 -2.1413 -1.1984 -0.6628
 7951SOL    HW235313   3.745   2.856   9.087 -1.9622 -0.6923 -0.8852
 7952SOL     OW35314   0.526   1.878   5.031  0.7216  0.1168  0.1065
 7952SOL    HW135315   0.507   1.855   4.940 -0.8228  0.0129  0.4394
 7952SOL    HW235316   0.515   1.792   5.072  2.9916 -0.2776 -0.1580
 7953SOL     OW35317   3.671   0.400   2.605 -0.8591  0.3812  0.4484
 7953SOL    HW135318   3.601   0.463   2.587 -0.1482  1.2775  0.8057
 7953SOL    HW235319   3.714   0.439   2.681  1.6341  0.2825 -0.9081
 7954SOL     OW35320   3.753   0.773   1.059  0.4004 -0.0813 -0.9855
 7954SOL    HW135321   3.763   0.736   0.971 -0.9029  0.3748 -1.3201
 7954SOL    HW235322   3.844   0.769   1.090  0.4031  0.1570 -0.9657
 7955SOL     OW35323   0.983   0.848   2.975 -0.4927 -0.5801  0.2883
 7955SOL    HW135324   0.888   0.858   2.972 -0.3611  0.6382  0.1461
 7955SOL    HW235325   1.004   0.941   2.982 -1.1462 -0.2357 -2.3977
 7956SOL     OW35326   0.539   2.404   3.153  0.2253  0.0443  0.2525
 7956SOL    HW135327   0.511   2.406   3.061 -1.4187 -0.9774  0.7454
 7956SOL    HW235328   0.568   2.314   3.162  3.1010  0.8622 -0.8108
 7957SOL     OW35329   2.354   2.187   2.682 -0.1391  0.0007  0.1956
 7957SOL    HW135330   2.274   2.141   2.658 -0.1689  1.3288 -2.2135
 7957SOL    HW235331   2.311   2.271   2.700  1.6738  0.9716 -0.0492
 7958SOL     OW35332   3.680   3.150  13.585 -0.4060  0.3809 -0.1795
 7958SOL    HW135333   3.746   3.187  13.526 -0.3630  1.9797  0.8970
 7958SOL    HW235334   3.734   3.142  13.664  1.6243  2.2045 -1.3774
 7959SOL     OW35335   2.955   3.921   8.683 -0.0268 -0.3825 -0.1118
 7959SOL    HW135336   2.925   4.009   8.659 -2.4789 -1.4485 -1.0051
 7959SOL    HW235337   2.867   3.883   8.685  0.3404 -1.2025  0.2699
 7960SOL     OW35338   2.154   3.796   1.606  0.7290 -0.0781  0.0625
 7960SOL    HW135339   2.185   3.797   1.516 -1.3142  0.4322 -0.6249
 7960SOL    HW235340   2.188   3.885   1.617 -0.2204  0.0243  2.2031
 7961SOL     OW35341   4.412   1.364   0.942  0.0334 -0.2512  0.3405
 7961SOL    HW135342   4.373   1.416   0.871 -0.0634  2.0098  2.0665
 7961SOL    HW235343   4.454   1.433   0.994 -2.4518  2.3416 -1.1037
 7962SOL     OW35344   1.426   3.733  15.586 -0.3047 -0.1734  0.5437
 7962SOL    HW135345   1.334   3.750  15.608 -0.2032 -0.3012  1.0796
 7962SOL    HW235346   1.485   3.794  15.630 -0.2974  0.1698  0.0564
 7963SOL     OW35347   1.448   4.297   5.880 -0.2015  0.3638 -0.2055
 7963SOL    HW135348   1.409   4.212   5.858 -0.5025  0.4937 -0.1780
 7963SOL    HW235349   1.478   4.282   5.970  0.2216 -1.3137 -0.6261
 7964SOL     OW35350   2.489   3.997  11.264 -0.1095  0.3078  1.0627
 7964SOL    HW135351   2.501   3.915  11.215  0.1615  1.0846 -0.1653
 7964SOL    HW235352   2.406   3.990  11.311  0.1429 -1.2464  1.2758
 7965SOL     OW35353   1.660   3.868   4.629  0.2315  0.3749 -0.4572
 7965SOL    HW135354   1.692   3.823   4.707 -0.8800 -0.8618 -0.7199
 7965SOL    HW235355   1.588   3.812   4.600  1.2157 -0.5621 -1.1241
 7966SOL     OW35356   2.784   3.241  13.668 -0.1305  0.4104  0.1723
 7966SOL    HW135357   2.839   3.319  13.679  2.0041 -1.1667  0.8620
 7966SOL    HW235358   2.845   3.171  13.645 -0.1895  0.4226 -0.0144
 7967SOL     OW35359   1.729   3.603   2.240 -0.0801  0.2445 -0.0701
 7967SOL    HW135360   1.799   3.596   2.306 -0.4817 -1.4472  0.1880
 7967SOL    HW235361   1.777   3.601   2.157  1.6018  3.2606  0.8384
 7968SOL     OW35362   0.467   2.873   4.075 -0.2269  0.4097  0.6777
 7968SOL    HW135363   0.563   2.880   4.079 -0.2750  2.0036 -1.1221
 7968SOL    HW235364   0.439   2.964   4.067 -0.3022  0.3068 -0.2224
 7969SOL     OW35365   3.433   2.642   2.792  0.2921 -0.1672  0.3920
 7969SOL    HW135366   3.455   2.631   2.884 -0.0100  1.9072  0.7204
 7969SOL    HW235367   3.478   2.720   2.761  0.1537 -0.8099 -1.4619
 7970SOL     OW35368   0.245   0.546   7.931  0.2839  0.1230  0.4106
 7970SOL    HW135369   0.243   0.466   7.983  4.5941 -0.7329 -0.7671
 7970SOL    HW235370   0.278   0.503   7.853 -0.4019 -0.4669  0.4427
 7971SOL     OW35371   4.058   0.763   0.376 -0.3247 -0.3038 -0.2534
 7971SOL    HW135372   4.079   0.707   0.450  0.0614  1.5064  1.0122
 7971SOL    HW235373   4.141   0.784   0.333 -0.3389 -0.7732 -0.5152
 7972SOL     OW35374   0.474   3.267   7.505 -0.4429 -0.0204 -0.1633
 7972SOL    HW135375   0.452   3.357   7.530 -1.2443 -0.3693  0.3790
 7972SOL    HW235376   0.569   3.275   7.499 -0.4005 -0.8992 -0.5673
 7973SOL     OW35377   2.490   0.101   0.422 -0.0365  0.7761  0.7377
 7973SOL    HW135378   2.410   0.141   0.457 -0.9921 -0.3428 -0.1784
 7973SOL    HW235379   2.519   0.040   0.490  0.1566  0.6943  0.5817
 7974SOL     OW35380   1.310   2.437  16.841 -0.3720 -0.1569  0.3631
 7974SOL    HW135381   1.270   2.433  16.928  0.1503 -0.1205  0.6033
 7974SOL    HW235382   1.345   2.526  16.846  0.4206 -0.5330  1.6020
 7975SOL     OW35383   2.907   4.165   0.357  0.2983  0.5862 -0.3407
 7975SOL    HW135384   2.982   4.210   0.320  1.0180  0.5475  1.0436
 7975SOL    HW235385   2.857   4.142   0.279 -1.4244  0.9482  0.6567
 7976SOL     OW35386   2.652   1.841   6.052  0.6855  0.0043 -0.2264
 7976SOL    HW135387   2.572   1.797   6.080  0.0498  1.7087  0.6920
 7976SOL    HW235388   2.646   1.913   6.116  0.7044 -0.7619  0.6437
 7977SOL     OW35389   4.199   4.403   8.729  0.1884  0.0467  0.3403
 7977SOL    HW135390   4.261   4.330   8.731 -0.2275 -0.3272 -0.0242
 7977SOL    HW235391   4.184   4.417   8.822 -1.2606 -0.3063  0.1712
 7978SOL     OW35392   2.846   1.524   6.723 -0.3054 -0.3250 -0.1817
 7978SOL    HW135393   2.933   1.555   6.747  0.6361 -1.4553 -2.1171
 7978SOL    HW235394   2.789   1.560   6.791  0.6502  0.0261  0.4260
 7979SOL     OW35395   3.623   1.344  16.742  0.2502  0.1033 -0.0997
 7979SOL    HW135396   3.603   1.336  16.649  1.9566 -0.6282 -0.3939
 7979SOL    HW235397   3.536   1.365  16.775  0.3057 -0.1902  0.2349
 7980SOL     OW35398   4.427   4.477   4.459  0.0113  0.0582  0.0562
 7980SOL    HW135399   4.357   4.515   4.513 -0.2206 -1.1152  0.5823
 7980SOL    HW235400   4.405   4.384   4.460 -1.1726  0.3260 -0.6675
 7981SOL     OW35401   2.671   0.674   0.363 -0.1349  0.2354 -0.2064
 7981SOL    HW135402   2.682   0.592   0.410 -3.4928 -0.3064 -0.3534
 7981SOL    HW235403   2.758   0.712   0.375 -0.9265  1.3586  1.8831
 7982SOL     OW35404   4.141   1.180   3.126  0.4593  0.8066 -0.3593
 7982SOL    HW135405   4.102   1.264   3.150 -0.6669  0.4155 -0.8097
 7982SOL    HW235406   4.133   1.133   3.209 -1.6678  0.6451 -0.6447
 7983SOL     OW35407   1.886   1.140  10.518 -0.1226  0.1831 -0.1497
 7983SOL    HW135408   1.921   1.224  10.548  2.1011  0.0370 -2.2829
 7983SOL    HW235409   1.948   1.076  10.554  0.2666 -0.3018 -1.6791
 7984SOL     OW35410   3.382   4.021  17.123  0.7607 -0.2733 -0.7016
 7984SOL    HW135411   3.432   4.005  17.203  1.2224  1.3243 -0.6821
 7984SOL    HW235412   3.449   4.042  17.059  1.2045  1.9503  0.4914
 7985SOL     OW35413   1.678   3.980   7.069 -0.0197  0.3598  0.4561
 7985SOL    HW135414   1.679   3.935   7.153  0.1946 -1.0894 -0.3299
 7985SOL    HW235415   1.647   3.904   7.019  1.8219 -0.3271  0.3765
 7986SOL     OW35416   0.452   1.317  12.415  0.5123 -0.1029  0.6023
 7986SOL    HW135417   0.410   1.296  12.332 -1.8711  0.9157  1.5658
 7986SOL    HW235418   0.504   1.394  12.391  0.2278  0.2560  1.1339
 7987SOL     OW35419   1.226   1.059   5.862  0.6641 -0.1830  0.2567
 7987SOL    HW135420   1.148   1.004   5.867  0.8474 -0.5189 -0.5387
 7987SOL    HW235421   1.285   1.008   5.807 -0.3318 -0.2128 -0.8018
 7988SOL     OW35422   1.963   1.273  15.761 -0.2470  0.1304  0.0096
 7988SOL    HW135423   1.967   1.259  15.855 -2.5878  0.0791  0.1109
 7988SOL    HW235424   1.933   1.364  15.761  0.2915  0.3117 -1.8631
 7989SOL     OW35425   1.254   1.728  16.634  0.0392 -0.2666 -0.5309
 7989SOL    HW135426   1.217   1.738  16.722 -0.1445  0.2162 -0.6644
 7989SOL    HW235427   1.311   1.804  16.623 -0.2600  0.1995  1.1290
 7990SOL     OW35428   1.904   3.253   6.805  0.0267  0.4590 -0.1594
 7990SOL    HW135429   1.979   3.310   6.819 -1.3970  2.5209 -0.9844
 7990SOL    HW235430   1.941   3.212   6.727 -1.6356 -0.5703 -0.4249
 7991SOL     OW35431   1.934   4.286   0.220  0.0180  0.3253  0.1005
 7991SOL    HW135432   1.989   4.208   0.230 -1.3771 -0.5784  0.6570
 7991SOL    HW235433   1.945   4.309   0.128  1.8553  0.2364  0.2874
 7992SOL     OW35434   1.239   4.217   3.515 -0.0943  0.1722  0.4419
 7992SOL    HW135435   1.174   4.287   3.523  2.0847  2.3925 -1.4555
 7992SOL    HW235436   1.302   4.259   3.457  0.6424 -3.0521 -1.0954
 7993SOL     OW35437   1.770   0.384   2.889  0.6161  0.1237 -0.1461
 7993SOL    HW135438   1.732   0.307   2.848 -1.5812  2.1309 -1.8709
 7993SOL    HW235439   1.764   0.369   2.984  2.4600 -0.0987 -0.0718
 7994SOL     OW35440   0.963   2.496   7.629 -0.2770  0.0845 -0.7599
 7994SOL    HW135441   0.871   2.520   7.641  0.6384  2.5499  1.3192
 7994SOL    HW235442   0.963   2.406   7.662 -0.1729  1.1840  2.3298
 7995SOL     OW35443   2.792   3.004   8.993  0.1612  0.0737 -0.4159
 7995SOL    HW135444   2.718   3.063   8.985  1.3281  1.7269  0.8654
 7995SOL    HW235445   2.816   3.015   9.085  1.9456  2.6624 -1.1783
 7996SOL     OW35446   1.912   2.800   0.085 -0.1251  0.2009  0.1756
 7996SOL    HW135447   1.819   2.803   0.062  0.3184 -1.3841 -1.7872
 7996SOL    HW235448   1.914   2.709   0.115 -2.0413  0.5182  1.2542
 7997SOL     OW35449   1.502   4.457   4.662  0.1922 -0.2152  0.0123
 7997SOL    HW135450   1.590   4.495   4.666  0.4047 -0.7095  0.0459
 7997SOL    HW235451   1.530   4.365   4.655  1.1890  0.2389 -1.9317
 7998SOL     OW35452   3.233   3.862   4.400  0.1639 -0.4059 -0.4304
 7998SOL    HW135453   3.169   3.908   4.454 -0.0253 -2.5277  1.1276
 7998SOL    HW235454   3.180   3.787   4.373 -1.2648  0.5738 -0.3957
 7999SOL     OW35455   2.153   4.593   4.108  0.4838  0.2077  0.1495
 7999SOL    HW135456   2.121   4.683   4.102 -0.1393 -0.1341 -1.5080
 7999SOL    HW235457   2.194   4.592   4.195  0.7854  1.7707  0.0295
 8000SOL     OW35458   1.408   2.561   6.432  0.1728 -0.2207  0.2971
 8000SOL    HW135459   1.500   2.552   6.409 -0.3318 -3.7189 -0.3860
 8000SOL    HW235460   1.365   2.515   6.360 -1.2960 -0.1869  1.1479
 8001SOL     OW35461   0.191   4.188   1.671 -0.4722 -0.1943  0.3938
 8001SOL    HW135462   0.163   4.112   1.621  1.1105 -0.1162 -0.6037
 8001SOL    HW235463   0.271   4.157   1.714  0.3930 -0.1677 -1.2117
 8002SOL     OW35464   1.324   2.228   9.402 -0.0826 -0.0622  0.5617
 8002SOL    HW135465   1.307   2.189   9.487 -0.6446 -3.1950 -0.9749
 8002SOL    HW235466   1.326   2.322   9.422 -0.2122  0.0099  0.2459
 8003SOL     OW35467   0.361   2.254   9.366  0.5888  0.0226 -0.0845
 8003SOL    HW135468   0.344   2.166   9.400 -0.3934 -0.7246 -2.4949
 8003SOL    HW235469   0.354   2.305   9.447 -2.8232  0.3515 -0.5620
 8004SOL     OW35470   0.443   4.186   0.567  0.1700 -0.1133 -0.0348
 8004SOL    HW135471   0.504   4.214   0.635 -0.9013 -1.3538  1.4399
 8004SOL    HW235472   0.397   4.118   0.616 -1.8308  1.2679 -0.0357
 8005SOL     OW35473   1.538   1.458   6.533  0.6673  0.3484  0.3393
 8005SOL    HW135474   1.541   1.540   6.483 -0.2221  0.5853  0.6861
 8005SOL    HW235475   1.515   1.481   6.623 -0.5889  0.8346 -0.1100
 8006SOL     OW35476   0.377   4.626  11.935 -0.0299 -0.3649 -0.4187
 8006SOL    HW135477   0.342   4.572  12.005 -0.2664 -0.9155 -0.9664
 8006SOL    HW235478   0.358   4.710  11.977 -0.7402 -1.6446  1.7773
 8007SOL     OW35479   1.229   0.991   2.703 -0.5643  0.6821  0.5130
 8007SOL    HW135480   1.198   1.059   2.763  2.6593  1.7531  0.9639
 8007SOL    HW235481   1.233   0.915   2.762  0.5349 -0.4102 -0.9589
 8008SOL     OW35482   2.616   2.347   5.531 -0.3457 -0.1704 -0.1894
 8008SOL    HW135483   2.542   2.352   5.591  0.3291 -0.9237  0.7128
 8008SOL    HW235484   2.577   2.309   5.453  0.1441 -0.2356 -0.4025
 8009SOL     OW35485   4.155   2.127   1.383 -0.0862  0.2178 -0.4440
 8009SOL    HW135486   4.081   2.070   1.363 -0.8098  0.0581  2.5931
 8009SOL    HW235487   4.124   2.204   1.336 -1.0524  0.3284  0.3603
 8010SOL     OW35488   2.134   3.923   8.757  0.0050 -0.0159 -0.3961
 8010SOL    HW135489   2.143   3.846   8.814  3.5334 -0.3510 -1.4010
 8010SOL    HW235490   2.114   4.000   8.809 -2.8313 -1.4083  0.6018
 8011SOL     OW35491   1.065   3.047   1.409  0.1882 -0.3961  0.6636
 8011SOL    HW135492   1.049   2.956   1.382 -2.4164 -0.1680  1.4776
 8011SOL    HW235493   1.049   3.096   1.328  1.5929 -4.0735 -1.8468
 8012SOL     OW35494   1.441   3.080   6.040  0.3080 -0.0122  0.0168
 8012SOL    HW135495   1.513   3.096   5.980 -1.2313 -0.1982 -1.8749
 8012SOL    HW235496   1.494   3.037   6.107 -0.4632 -1.5897 -0.3917
 8013SOL     OW35497   3.065   2.518   7.827 -0.4700  0.4169  0.5025
 8013SOL    HW135498   2.969   2.512   7.826 -0.7015  4.0547  2.6395
 8013SOL    HW235499   3.063   2.528   7.922  0.6038  0.9437  0.4622
 8014SOL     OW35500   3.134   3.859   1.973 -0.8651 -0.1628 -0.2685
 8014SOL    HW135501   3.106   3.925   1.909  0.9098  0.0987 -0.7814
 8014SOL    HW235502   3.152   3.789   1.910  0.7622 -0.4362  0.5007
 8015SOL     OW35503   4.286   2.716   7.754 -0.3943  0.0303 -0.2255
 8015SOL    HW135504   4.295   2.626   7.722  0.2817  0.3071 -0.8233
 8015SOL    HW235505   4.218   2.702   7.819  1.1421 -3.4242  0.6266
 8016SOL     OW35506   4.354   1.810  12.478 -0.4470 -0.4347 -0.3468
 8016SOL    HW135507   4.413   1.759  12.423  0.0434  0.5204 -0.7119
 8016SOL    HW235508   4.418   1.873  12.512 -1.2532  0.1536  0.0671
 8017SOL     OW35509   0.154   1.613   1.047  0.4793 -0.2472 -0.1725
 8017SOL    HW135510   0.092   1.643   1.112 -0.6452 -1.0826 -0.8576
 8017SOL    HW235511   0.204   1.694   1.042 -0.0576 -0.0628 -2.6023
 8018SOL     OW35512   1.655   2.133   9.316 -0.2275 -0.1942  0.1857
 8018SOL    HW135513   1.729   2.185   9.349 -0.5466  0.7799 -0.6477
 8018SOL    HW235514   1.622   2.089   9.394 -1.0232 -0.6734 -0.4265
 8019SOL     OW35515   2.784   2.511  14.173  0.8123  0.3473  0.3960
 8019SOL    HW135516   2.796   2.418  14.190 -0.4802  0.7026  3.3922
 8019SOL    HW235517   2.874   2.537  14.156  1.4014 -1.2052  1.1413
 8020SOL     OW35518   2.655   0.094  13.776  0.1451 -0.3744 -0.1141
 8020SOL    HW135519   2.567   0.067  13.747 -1.0211  1.2200  1.9605
 8020SOL    HW235520   2.689   0.017  13.822 -1.0995 -0.9430 -0.1512
 8021SOL     OW35521   1.098   4.420   2.662 -0.2075 -0.0654  0.5036
 8021SOL    HW135522   1.078   4.497   2.608  1.3839 -0.1609 -0.2508
 8021SOL    HW235523   1.142   4.365   2.597  2.3422  0.5281  1.6902
 8022SOL     OW35524   2.243   2.822  10.315 -0.9671  0.0289  0.1109
 8022SOL    HW135525   2.303   2.761  10.358 -0.4275 -1.1639 -2.3352
 8022SOL    HW235526   2.182   2.762  10.271 -0.7648  0.4098 -0.6726
 8023SOL     OW35527   2.626   4.231   9.205 -0.5173  0.4172  0.3373
 8023SOL    HW135528   2.617   4.142   9.171 -1.0441  0.8999 -0.8046
 8023SOL    HW235529   2.645   4.216   9.297 -0.1033 -0.0382  0.1806
 8024SOL     OW35530   4.510   2.340   7.785  0.2360  0.1123 -0.1707
 8024SOL    HW135531   4.422   2.357   7.817  0.7821  5.1317 -1.3309
 8024SOL    HW235532   4.530   2.417   7.732  0.9418 -0.8562 -1.3061
 8025SOL     OW35533   2.807   3.438  11.054 -0.7626 -0.1844  0.1001
 8025SOL    HW135534   2.853   3.354  11.057 -0.0723  0.1406 -1.4163
 8025SOL    HW235535   2.727   3.411  11.009 -0.9187 -0.1375  0.3512
 8026SOL     OW35536   2.895   2.371   3.843  0.4281 -0.3280 -0.3058
 8026SOL    HW135537   2.924   2.280   3.837  1.3284 -0.0771  0.3069
 8026SOL    HW235538   2.809   2.377   3.801 -0.6199 -1.4157  1.6945
 8027SOL     OW35539   4.319   0.875   9.388 -0.3961 -0.1937 -0.4543
 8027SOL    HW135540   4.246   0.850   9.332 -1.5669 -1.7996  1.8036
 8027SOL    HW235541   4.358   0.792   9.415  1.0935  1.3080  1.9641
 8028SOL     OW35542   1.355   0.588   2.217  0.0394  0.0330 -0.2961
 8028SOL    HW135543   1.280   0.588   2.157  0.8368 -0.1566 -1.2854
 8028SOL    HW235544   1.393   0.509   2.179 -1.2689 -1.0011  0.5386
 8029SOL     OW35545   3.488   1.236   6.656  0.5398 -0.1707 -0.5038
 8029SOL    HW135546   3.518   1.320   6.622 -1.2340 -0.1039 -1.8860
 8029SOL    HW235547   3.395   1.253   6.644  0.8074  1.1270 -0.7480
 8030SOL     OW35548   3.301   4.116   7.474  0.1877 -0.0393 -0.3278
 8030SOL    HW135549   3.390   4.135   7.504  1.2950 -1.3155 -2.7883
 8030SOL    HW235550   3.306   4.156   7.388 -0.6573 -1.4416 -1.0463
 8031SOL     OW35551   3.766   1.056   5.132 -0.1750 -0.2885 -0.5011
 8031SOL    HW135552   3.736   0.983   5.077  1.3007 -1.6407  0.5075
 8031SOL    HW235553   3.842   1.013   5.170 -1.2954 -1.1213  0.7966
 8032SOL     OW35554   4.595   0.260  14.434 -0.0140  0.0721 -0.0253
 8032SOL    HW135555   4.615   0.342  14.480  0.8296 -0.5700  0.7415
 8032SOL    HW235556   4.669   0.202  14.453  1.1802  1.5318 -0.2443
 8033SOL     OW35557   0.649   3.879   9.019  0.1885 -0.1201 -0.6045
 8033SOL    HW135558   0.571   3.865   9.072 -0.5527 -2.6915 -2.3158
 8033SOL    HW235559   0.687   3.954   9.064  3.1918 -1.2126 -1.2560
 8034SOL     OW35560   4.322   0.335   6.367  0.0225  0.0560  0.3761
 8034SOL    HW135561   4.333   0.241   6.384  0.7187 -0.1822 -1.4127
 8034SOL    HW235562   4.243   0.353   6.418 -1.0945 -0.4924 -1.1605
 8035SOL     OW35563   4.444   3.620   8.366  0.0842 -0.0793  0.2169
 8035SOL    HW135564   4.417   3.669   8.444  0.6791 -1.7825  1.4957
 8035SOL    HW235565   4.459   3.687   8.300  0.5505 -1.1898 -0.7959
 8036SOL     OW35566   3.448   3.595  12.500 -0.3043  0.3909  0.0600
 8036SOL    HW135567   3.426   3.645  12.579 -1.3812  0.4529 -0.2750
 8036SOL    HW235568   3.411   3.507  12.510 -0.0298  0.1381 -1.0536
 8037SOL     OW35569   2.761   3.044   4.036  0.5286  0.5317 -0.2116
 8037SOL    HW135570   2.775   2.950   4.025 -1.3507  0.1488  0.5339
 8037SOL    HW235571   2.666   3.042   4.052  0.7226 -0.0909  0.9061
 8038SOL     OW35572   1.375   3.885   8.104 -0.1756 -0.1797  0.1335
 8038SOL    HW135573   1.463   3.919   8.120 -0.0479 -0.1551 -0.5889
 8038SOL    HW235574   1.319   3.955   8.137  0.6922  1.0698 -1.0318
 8039SOL     OW35575   2.230   2.409   7.636 -0.0632 -0.4391 -0.0785
 8039SOL    HW135576   2.233   2.454   7.720  0.5335 -0.8086  0.1003
 8039SOL    HW235577   2.238   2.478   7.569  0.1009 -0.1995  0.1896
 8040SOL     OW35578   3.822   1.079   0.968 -0.4477  0.7120  0.3702
 8040SOL    HW135579   3.748   1.021   0.984 -0.4205  1.8174  4.4416
 8040SOL    HW235580   3.779   1.160   0.941 -1.9167 -0.0746  0.3739
 8041SOL     OW35581   0.043   2.585   7.057 -0.5571 -0.2700 -0.3322
 8041SOL    HW135582   0.009   2.661   7.105 -1.6563 -0.6426 -0.5211
 8041SOL    HW235583   0.027   2.608   6.966 -1.4905  2.3751  0.4937
 8042SOL     OW35584   2.337   3.668   7.017  0.4791 -0.0067 -0.4578
 8042SOL    HW135585   2.387   3.641   7.094  1.9865  0.0154 -1.4302
 8042SOL    HW235586   2.265   3.715   7.059  0.7777 -0.1717  0.2362
 8043SOL     OW35587   3.498   0.893   7.102  0.0029  0.4554  0.0507
 8043SOL    HW135588   3.402   0.892   7.098  0.0682 -2.4740 -0.2394
 8043SOL    HW235589   3.507   0.988   7.093  3.0007  0.0999 -0.5086
 8044SOL     OW35590   0.939   1.303  13.528 -0.3792 -0.0127  0.3532
 8044SOL    HW135591   1.004   1.368  13.501 -1.0120  1.3500  2.0158
 8044SOL    HW235592   0.988   1.238  13.578 -0.7925 -0.5751  0.0302
 8045SOL     OW35593   1.341   0.899   9.092  0.1231 -0.2767 -0.1088
 8045SOL    HW135594   1.323   0.841   9.018  0.9926 -0.5593 -0.0900
 8045SOL    HW235595   1.425   0.938   9.068  0.0003  1.0710  1.6712
 8046SOL     OW35596   2.464   1.243   2.993  0.1514  0.0866 -0.5588
 8046SOL    HW135597   2.539   1.233   2.935  1.3383 -0.1864  1.0157
 8046SOL    HW235598   2.413   1.182   2.939  0.6865  0.1630 -1.1399
 8047SOL     OW35599   3.144   1.756  13.034 -0.6272 -0.6321  0.4512
 8047SOL    HW135600   3.165   1.758  12.940 -1.8949 -0.5738  0.1692
 8047SOL    HW235601   3.060   1.800  13.028 -0.8548 -1.0249  0.8115
 8048SOL     OW35602   0.649   0.943   6.050  0.1637  0.6798  0.3020
 8048SOL    HW135603   0.579   0.941   5.985 -2.6777 -0.0300  3.3911
 8048SOL    HW235604   0.595   0.911   6.122  2.6003 -1.6999  1.0836
 8049SOL     OW35605   2.405   1.112   4.599 -0.4983  0.2484  0.3957
 8049SOL    HW135606   2.385   1.125   4.691 -1.4500  1.1562  0.0690
 8049SOL    HW235607   2.390   1.201   4.566 -1.1421 -0.5125 -1.4003
 8050SOL     OW35608   3.330   1.461   8.412 -0.0744 -0.1269  0.0482
 8050SOL    HW135609   3.341   1.386   8.354 -1.2367 -2.1945  2.4988
 8050SOL    HW235610   3.235   1.468   8.412 -0.2000 -1.6179  0.7835
 8051SOL     OW35611   2.929   2.293   6.869 -0.1673  0.0610  0.1462
 8051SOL    HW135612   2.940   2.199   6.882 -0.6070 -0.0483 -0.2632
 8051SOL    HW235613   2.850   2.285   6.816  1.0554 -0.9466 -1.5481
 8052SOL     OW35614   0.696   0.626   5.488 -0.0690 -0.7935 -0.2828
 8052SOL    HW135615   0.762   0.694   5.504 -0.5934 -0.6032  1.0513
 8052SOL    HW235616   0.709   0.566   5.561  1.0167  2.4045  2.2080
 8053SOL     OW35617   0.350   2.254   5.532 -0.1746  0.4224 -0.3719
 8053SOL    HW135618   0.324   2.339   5.496 -1.6843  0.5810  1.1283
 8053SOL    HW235619   0.378   2.280   5.620 -1.2373 -2.6547  0.8800
 8054SOL     OW35620   2.972   1.390   5.079 -0.0484 -0.9675  0.0730
 8054SOL    HW135621   2.936   1.369   5.165  0.1716 -1.7863 -0.0380
 8054SOL    HW235622   2.967   1.305   5.034 -0.5631  0.2698 -2.2512
 8055SOL     OW35623   1.390   1.219  16.474  0.7915 -0.4334  0.3468
 8055SOL    HW135624   1.453   1.159  16.433  0.8503  0.2641 -0.5895
 8055SOL    HW235625   1.355   1.272  16.403 -4.3020 -1.7794  1.8833
 8056SOL     OW35626   4.111   3.837   5.667 -0.8330  0.3140  0.6147
 8056SOL    HW135627   4.091   3.847   5.574  1.9000  1.1747  0.1164
 8056SOL    HW235628   4.204   3.858   5.663 -0.5824 -0.9403 -0.2207
 8057SOL     OW35629   4.356   1.634   0.265  0.2135  0.0863 -0.6073
 8057SOL    HW135630   4.331   1.571   0.332  3.7314  0.2098  0.8315
 8057SOL    HW235631   4.449   1.650   0.282  0.1044  1.4316 -1.2795
 8058SOL     OW35632   0.363   0.711   5.025  0.1038  0.2599  0.2142
 8058SOL    HW135633   0.409   0.649   5.082  0.1708 -0.1758 -0.3151
 8058SOL    HW235634   0.389   0.672   4.942  0.2122 -0.5547  0.6217
 8059SOL     OW35635   3.238   1.323   6.863 -0.4478  0.6079 -0.5547
 8059SOL    HW135636   3.290   1.402   6.880  1.6173 -0.6134 -1.2636
 8059SOL    HW235637   3.189   1.315   6.944  0.1750 -1.0739 -0.3496
 8060SOL     OW35638   2.907   2.901  10.378  0.4757 -0.8179  0.2677
 8060SOL    HW135639   2.878   2.921  10.467  3.4871 -0.1487  1.1199
 8060SOL    HW235640   2.984   2.957  10.364  2.3227 -3.4527 -0.2375
 8061SOL     OW35641   4.159   1.731   6.616  0.0078 -0.1711 -0.1786
 8061SOL    HW135642   4.140   1.801   6.678  2.2983  1.1136 -0.9291
 8061SOL    HW235643   4.228   1.763   6.559 -0.2595  0.4179 -0.1682
 8062SOL     OW35644   2.143   3.253   5.637  0.4024  0.5085  0.1135
 8062SOL    HW135645   2.160   3.346   5.627 -0.5666  0.5619 -1.0415
 8062SOL    HW235646   2.195   3.204   5.574 -0.4398 -1.6389  1.0455
 8063SOL     OW35647   2.963   0.193   7.069 -0.0440 -0.4972 -1.0179
 8063SOL    HW135648   2.990   0.128   7.003 -0.0184 -1.6679  0.1500
 8063SOL    HW235649   2.928   0.258   7.008 -0.4318 -2.2339 -2.6473
 8064SOL     OW35650   0.544   2.717  10.638 -0.1986  0.2411  0.5460
 8064SOL    HW135651   0.587   2.800  10.660 -3.9298  1.9630  1.2266
 8064SOL    HW235652   0.625   2.680  10.602 -2.0909 -2.6484 -0.7015
 8065SOL     OW35653   3.277   3.861   5.233 -0.2858 -0.1822  0.2979
 8065SOL    HW135654   3.191   3.901   5.222  0.0157  0.6824  1.1183
 8065SOL    HW235655   3.274   3.766   5.222  2.7819 -0.3675  0.8966
 8066SOL     OW35656   2.122   4.011   7.940 -0.2783  0.6090 -0.1347
 8066SOL    HW135657   2.206   3.974   7.915 -0.1542  0.1388  0.9928
 8066SOL    HW235658   2.138   4.105   7.929 -2.0505  1.1070  1.6346
 8067SOL     OW35659   1.924   1.843   2.012 -0.0527  0.3413  0.3684
 8067SOL    HW135660   1.994   1.793   2.054  0.5353  1.3201  0.5446
 8067SOL    HW235661   1.894   1.892   2.088 -0.3364 -1.1358  1.2159
 8068SOL     OW35662   3.948   1.218  12.599 -0.4435  0.0264  0.2175
 8068SOL    HW135663   3.909   1.199  12.684  0.9879 -1.7277  0.4574
 8068SOL    HW235664   3.899   1.285  12.550 -2.0469 -1.0788  0.3340
 8069SOL     OW35665   2.022   0.509   5.874 -0.1964  0.0979 -0.0361
 8069SOL    HW135666   2.111   0.473   5.877 -0.5661 -0.7580  0.9638
 8069SOL    HW235667   2.044   0.591   5.831 -0.0531 -0.4552 -1.0012
 8070SOL     OW35668   0.689   1.543   6.551 -1.0307  0.2599 -0.2595
 8070SOL    HW135669   0.726   1.618   6.598  1.2723 -0.9547 -0.1872
 8070SOL    HW235670   0.643   1.586   6.478 -1.2188 -3.0840 -2.0966
 8071SOL     OW35671   3.614   4.487  15.428  0.0722 -0.4041  0.1326
 8071SOL    HW135672   3.687   4.457  15.483 -1.4431 -1.6171  1.5014
 8071SOL    HW235673   3.587   4.401  15.395 -0.9639 -0.0479  0.0740
 8072SOL     OW35674   0.977   0.376   8.218 -0.7964  0.4478  0.3841
 8072SOL    HW135675   0.987   0.318   8.293  0.2040  1.7832  1.2779
 8072SOL    HW235676   0.991   0.317   8.143  1.2821 -1.0787  1.9600
 8073SOL     OW35677   0.557   1.819   8.944 -0.0403  0.2388  0.6524
 8073SOL    HW135678   0.477   1.779   8.976 -0.6043 -0.9025 -2.2582
 8073SOL    HW235679   0.505   1.885   8.899 -0.6182 -0.1285  0.7838
 8074SOL     OW35680   4.329   2.275  11.595 -0.3439  0.0279  0.2691
 8074SOL    HW135681   4.376   2.194  11.614 -0.8294 -0.7331 -1.8375
 8074SOL    HW235682   4.250   2.233  11.562 -0.2713  0.7267 -0.7816
 8075SOL     OW35683   1.937   0.653   4.060  0.3958 -0.6582 -0.3044
 8075SOL    HW135684   1.987   0.591   4.006  0.0340  0.6584 -2.1524
 8075SOL    HW235685   1.847   0.622   4.050  0.8324 -1.7748 -0.7585
 8076SOL     OW35686   3.653   0.292   5.505 -0.6713  0.0962  0.3220
 8076SOL    HW135687   3.623   0.251   5.587  1.4696  1.2337  1.6823
 8076SOL    HW235688   3.566   0.284   5.467  0.2244  0.8450 -1.8746
 8077SOL     OW35689   2.581   2.191   7.100 -0.4973  0.0920 -0.0485
 8077SOL    HW135690   2.621   2.211   7.185  0.4298 -2.0274  0.0168
 8077SOL    HW235691   2.543   2.104   7.112  0.1523 -0.4988 -2.3897
 8078SOL     OW35692   0.380   0.144   7.754  0.4236  0.7704 -0.4695
 8078SOL    HW135693   0.471   0.151   7.780  0.1834  0.8924  0.3399
 8078SOL    HW235694   0.375   0.049   7.746  1.0337  0.5431  1.8465
 8079SOL     OW35695   3.636   3.516   7.713 -0.4633 -0.4872  0.2190
 8079SOL    HW135696   3.729   3.526   7.736  0.6185 -0.7790 -3.9104
 8079SOL    HW235697   3.614   3.451   7.780 -1.3778 -0.1353  0.2461
 8080SOL     OW35698   3.154   1.858   1.881 -0.0054  0.1251 -0.4954
 8080SOL    HW135699   3.183   1.858   1.972 -0.3875 -1.2709 -0.3653
 8080SOL    HW235700   3.225   1.805   1.843 -1.3409 -1.8108 -0.2990
 8081SOL     OW35701   0.035   1.770  14.941  0.3078  0.5970  0.5066
 8081SOL    HW135702   0.032   1.680  14.973 -0.0279  0.7792  0.9906
 8081SOL    HW235703   0.002   1.760  14.852 -1.4039 -1.5285  1.3991
 8082SOL     OW35704   0.663   0.630   7.676 -0.3268 -0.6695  0.1578
 8082SOL    HW135705   0.612   0.678   7.741 -2.1350  0.5809 -2.1949
 8082SOL    HW235706   0.723   0.696   7.641  1.2109  0.1731  4.4393
 8083SOL     OW35707   4.615   2.493   7.405 -0.1359  0.6888 -0.0373
 8083SOL    HW135708   4.560   2.434   7.457 -0.4077 -1.5624 -2.8557
 8083SOL    HW235709   4.553   2.494   7.333  0.6981  1.1107 -0.7454
 8084SOL     OW35710   3.606   2.359   2.916 -0.1359  0.4287 -0.0373
 8084SOL    HW135711   3.519   2.352   2.877 -0.5581  0.0727  0.9784
 8084SOL    HW235712   3.656   2.284   2.883 -2.3393 -1.7595  1.6233
 8085SOL     OW35713   0.946   0.906   8.025 -0.2886  0.6970 -0.2921
 8085SOL    HW135714   0.945   0.974   7.958 -0.7878  0.5463 -0.4382
 8085SOL    HW235715   1.019   0.855   7.990  1.3643  0.8180  2.9138
 8086SOL     OW35716   2.536   1.885   7.160  0.9406  0.1390 -0.2564
 8086SOL    HW135717   2.540   1.838   7.243 -3.7817  0.6904  0.3171
 8086SOL    HW235718   2.444   1.914   7.161  0.0712 -2.6129 -1.6777
 8087SOL     OW35719   3.608   3.189  15.136 -0.2780 -0.3749 -0.2127
 8087SOL    HW135720   3.630   3.204  15.044 -1.3407 -1.7367 -0.6934
 8087SOL    HW235721   3.694   3.170  15.172  0.2327  2.1689 -0.0636
 8088SOL     OW35722   1.391   4.069   0.948  0.1054  0.2386  0.1119
 8088SOL    HW135723   1.474   4.052   0.902  0.3176  0.9706  0.2211
 8088SOL    HW235724   1.411   4.006   1.018 -1.4043 -1.2168 -0.7580
 8089SOL     OW35725   4.538   0.656   9.044  0.1583  0.2270 -0.4970
 8089SOL    HW135726   4.485   0.735   9.038 -0.8459 -0.4663 -0.6987
 8089SOL    HW235727   4.527   0.634   8.952  0.5378 -2.0043 -0.0123
 8090SOL     OW35728   0.939   0.161   8.387 -0.1669 -0.2401 -0.3836
 8090SOL    HW135729   1.001   0.139   8.456 -0.3036  1.1745  0.2051
 8090SOL    HW235730   0.874   0.208   8.440 -1.1606 -0.7104 -1.1867
 8091SOL     OW35731   1.025   4.703   7.739  0.5738  0.7487 -0.1135
 8091SOL    HW135732   1.023   4.635   7.672  2.6427 -0.3218  0.9332
 8091SOL    HW235733   1.109   4.686   7.781  0.0328  3.1570  1.9204
 8092SOL     OW35734   1.544   3.864  14.022  0.3603 -1.4179 -0.1598
 8092SOL    HW135735   1.452   3.857  14.047  0.1710 -1.4320 -0.8411
 8092SOL    HW235736   1.580   3.845  14.108 -0.5641  1.1124  0.7782
 8093SOL     OW35737   3.898   3.686   7.243 -0.1980 -0.4212  0.1176
 8093SOL    HW135738   3.977   3.670   7.294 -0.5732 -0.3405  0.7275
 8093SOL    HW235739   3.857   3.762   7.285  0.8328  0.0124  0.3267
 8094SOL     OW35740   0.530   0.021   2.705  0.2652  0.2246  0.2697
 8094SOL    HW135741   0.495   0.099   2.747  0.0655  0.0293  0.4657
 8094SOL    HW235742   0.494   4.681   2.766  1.2865 -0.9731 -0.3854
 8095SOL     OW35743   0.986   3.102  13.529 -0.0473  0.2427  0.2934
 8095SOL    HW135744   0.982   3.072  13.620  2.5483 -1.7526 -0.2538
 8095SOL    HW235745   1.070   3.146  13.541  0.5684 -1.1900  1.2039
 8096SOL     OW35746   0.866   0.869   0.505  0.0988  0.0615  0.3506
 8096SOL    HW135747   0.770   0.877   0.501  0.0921 -0.7577 -1.0755
 8096SOL    HW235748   0.876   0.921   0.585  0.1700  0.5385  0.0306
 8097SOL     OW35749   2.265   1.917   2.071  0.3762  0.0884  0.3540
 8097SOL    HW135750   2.311   1.947   1.993  0.5221 -1.0551  0.0091
 8097SOL    HW235751   2.265   1.985   2.139 -0.4678  1.1511 -0.6995
 8098SOL     OW35752   2.528   0.045   4.877  0.2975  0.6790 -0.5135
 8098SOL    HW135753   2.595   0.080   4.817  1.4202 -0.2504  0.2002
 8098SOL    HW235754   2.557   4.681   4.900 -1.1284 -0.0135 -1.3680
 8099SOL     OW35755   2.866   1.287   1.544 -0.3553 -0.4152 -0.3934
 8099SOL    HW135756   2.896   1.201   1.513 -1.6117 -0.7043 -0.8356
 8099SOL    HW235757   2.923   1.345   1.494 -0.2237  1.0592  1.4905
 8100SOL     OW35758   0.517   3.516   6.584  0.0025  0.6545  0.1510
 8100SOL    HW135759   0.447   3.544   6.643 -0.8968 -1.5040  0.1075
 8100SOL    HW235760   0.459   3.465   6.527  0.4534 -0.6292  0.8354
 8101SOL     OW35761   2.572   4.692  11.175  0.2468  0.3104  0.1177
 8101SOL    HW135762   2.541   4.677  11.264 -1.4120 -1.5095 -0.8010
 8101SOL    HW235763   2.609   0.057  11.178 -0.5886  0.7002 -1.1318
 8102SOL     OW35764   2.048   0.443   8.374  0.4970 -0.0562 -0.1284
 8102SOL    HW135765   1.976   0.416   8.318  0.0084  2.1961 -0.6011
 8102SOL    HW235766   2.097   0.503   8.317  0.7711  0.4893  0.6749
 8103SOL     OW35767   3.469   2.309   6.256  0.3806 -0.1901 -0.1328
 8103SOL    HW135768   3.426   2.387   6.222 -2.0425 -2.3031 -1.9375
 8103SOL    HW235769   3.394   2.249   6.263  0.6852 -0.6779 -1.0866
 8104SOL     OW35770   2.824   4.692  17.179  0.1021  0.0858  0.5351
 8104SOL    HW135771   2.796   0.059  17.175  2.1790  0.6982 -0.0998
 8104SOL    HW235772   2.777   4.653  17.253  1.4609  0.0964  1.4115
 8105SOL     OW35773   0.669   0.590   3.118  0.7459  0.1120  0.7412
 8105SOL    HW135774   0.731   0.539   3.170  2.2585 -0.1308 -1.2901
 8105SOL    HW235775   0.602   0.527   3.092 -0.4479  1.3837  0.7271
 8106SOL     OW35776   0.106   4.619  10.434  0.4212 -0.1413 -0.2023
 8106SOL    HW135777   0.146   4.617  10.347  3.7189 -0.6904  1.3106
 8106SOL    HW235778   0.167   4.574  10.493  0.5520  1.7988  1.1023
 8107SOL     OW35779   3.285   3.831   6.824 -0.2952 -0.1683 -0.4166
 8107SOL    HW135780   3.235   3.751   6.814 -1.1961  0.6146 -2.0199
 8107SOL    HW235781   3.229   3.891   6.874  0.1537  1.4774 -1.8987
 8108SOL     OW35782   1.719   0.986  12.022 -0.4517  0.2529  0.5411
 8108SOL    HW135783   1.646   1.041  12.051 -0.2300  0.0612  1.4460
 8108SOL    HW235784   1.712   1.006  11.928  0.7979 -0.7051  0.2488
 8109SOL     OW35785   2.839   0.733   8.271  0.1330  0.7060  0.3653
 8109SOL    HW135786   2.847   0.820   8.231  0.7020  0.0811 -0.8634
 8109SOL    HW235787   2.748   0.711   8.290 -0.4252  1.4873 -1.3948
 8110SOL     OW35788   0.172   1.411  16.098  0.0819  0.3616 -0.9479
 8110SOL    HW135789   0.216   1.351  16.158 -1.1889 -0.2831 -0.6690
 8110SOL    HW235790   0.118   1.352  16.045 -1.2727  1.8664 -1.2739
 8111SOL     OW35791   1.795   1.236  12.685  0.4945  0.4553 -0.1469
 8111SOL    HW135792   1.771   1.251  12.593  0.9843  4.2064  0.3506
 8111SOL    HW235793   1.886   1.206  12.686  0.3430  0.1212  2.6796
 8112SOL     OW35794   0.784   1.474   4.116  0.4295  0.0086  0.0606
 8112SOL    HW135795   0.761   1.398   4.062  1.2909  1.4135 -2.2881
 8112SOL    HW235796   0.722   1.539   4.080  1.4680 -0.0070 -1.7734
 8113SOL     OW35797   2.708   2.080   3.304  0.2897  0.0786  0.3146
 8113SOL    HW135798   2.773   2.069   3.373 -0.3938 -1.8000  0.6672
 8113SOL    HW235799   2.645   2.019   3.342 -2.7092  1.9099 -1.6973
 8114SOL     OW35800   3.776   2.034   9.174  0.3921 -0.2151 -0.4659
 8114SOL    HW135801   3.731   2.069   9.250  0.8486  1.3043 -0.8896
 8114SOL    HW235802   3.803   2.113   9.126  0.3655 -1.2393 -2.1851
 8115SOL     OW35803   4.094   2.957   3.219 -0.2450  0.1224 -0.3979
 8115SOL    HW135804   4.016   3.002   3.188  1.0958  0.9039 -2.6736
 8115SOL    HW235805   4.105   2.977   3.312  0.8574  0.7011 -0.6445
 8116SOL     OW35806   1.140   1.030  16.393 -0.1171  0.4466 -0.1266
 8116SOL    HW135807   1.216   1.068  16.437  0.7341  0.1009 -1.3114
 8116SOL    HW235808   1.181   0.984  16.320  0.4204  0.7556 -0.0236
 8117SOL     OW35809   0.176   0.791   4.236  0.0104  0.0113  0.2817
 8117SOL    HW135810   0.136   0.728   4.177  1.6422  2.2206 -3.1959
 8117SOL    HW235811   0.255   0.737   4.246 -1.8026 -2.9590 -1.4573
 8118SOL     OW35812   2.335   0.510  14.233  0.0573 -0.5669  0.4502
 8118SOL    HW135813   2.371   0.486  14.147  0.6358 -2.9996  1.3720
 8118SOL    HW235814   2.254   0.459  14.232 -1.1756  1.3970  1.7777
 8119SOL     OW35815   2.755   2.217  12.675  0.9780 -0.6029 -0.4497
 8119SOL    HW135816   2.665   2.212  12.643  0.6760 -0.6693  0.3941
 8119SOL    HW235817   2.791   2.148  12.619  0.4450  0.2927 -1.8671
 8120SOL     OW35818   0.955   4.619   8.300  0.7777  0.4268  0.7235
 8120SOL    HW135819   0.878   4.603   8.353 -0.1326 -1.6587 -1.2071
 8120SOL    HW235820   0.971   4.710   8.324  1.8965  0.0711  1.3080
 8121SOL     OW35821   4.488   2.498   1.205 -0.1440 -0.4615 -0.0058
 8121SOL    HW135822   4.454   2.548   1.279  0.1417  1.4683 -1.1465
 8121SOL    HW235823   4.526   2.565   1.148  1.3552 -0.2163  1.2733
 8122SOL     OW35824   4.661   1.246   8.971  0.3134 -0.5063 -0.8133
 8122SOL    HW135825   4.704   1.327   8.944  1.3046 -0.6072  0.4480
 8122SOL    HW235826   4.710   1.201   8.901  0.6365  0.8629 -1.4568
 8123SOL     OW35827   0.172   2.885   6.922  0.2369  0.2153  0.4825
 8123SOL    HW135828   0.241   2.942   6.888  1.0719 -1.0908  0.0059
 8123SOL    HW235829   0.225   2.824   6.973 -0.9418  1.0940  2.7963
 8124SOL     OW35830   4.540   1.624   1.698 -0.0456  0.2918 -0.0525
 8124SOL    HW135831   4.620   1.676   1.689 -0.1431  0.1860 -1.5277
 8124SOL    HW235832   4.547   1.558   1.629 -0.0625 -1.6156  1.7598
 8125SOL     OW35833   0.179   4.231   8.280 -0.0509  0.4742  0.0932
 8125SOL    HW135834   0.178   4.278   8.363  0.8210 -0.4695  0.6315
 8125SOL    HW235835   0.111   4.278   8.231 -0.6152 -0.2887  0.1486
 8126SOL     OW35836   2.292   1.085   7.763 -0.4027  0.1434  0.6417
 8126SOL    HW135837   2.281   1.040   7.680  0.2953 -1.2160  1.2776
 8126SOL    HW235838   2.226   1.034   7.809 -0.6726  0.5321  0.6876
 8127SOL     OW35839   3.550   3.805  15.908 -0.5545 -0.2974 -0.1831
 8127SOL    HW135840   3.636   3.845  15.917  0.6516 -2.7513 -0.7730
 8127SOL    HW235841   3.568   3.720  15.869 -0.5280  0.8113 -2.5787
 8128SOL     OW35842   1.180   3.276   7.998  0.0533  0.3219  0.9033
 8128SOL    HW135843   1.249   3.341   7.990  0.6889 -0.4783 -0.1658
 8128SOL    HW235844   1.160   3.290   8.090 -1.0741  0.3244  0.6665
 8129SOL     OW35845   2.898   0.925  16.382 -0.2037  0.2850 -0.5315
 8129SOL    HW135846   2.945   0.851  16.422 -0.0395  0.3877 -0.5309
 8129SOL    HW235847   2.939   0.999  16.428 -0.0612 -0.9957  1.4188
 8130SOL     OW35848   4.303   2.980   2.229 -0.2450  0.2149 -0.4269
 8130SOL    HW135849   4.372   2.958   2.166 -1.4638 -2.1010 -0.9417
 8130SOL    HW235850   4.330   3.068   2.257 -2.8268  1.3631 -1.5558
 8131SOL     OW35851   2.751   4.130   1.870 -0.4362 -0.4048 -0.5609
 8131SOL    HW135852   2.745   4.048   1.821  1.3647  0.1133 -1.6612
 8131SOL    HW235853   2.773   4.100   1.958 -0.8518 -2.1116 -1.0347
 8132SOL     OW35854   2.160   3.192  16.761 -0.6180  0.0909 -0.3990
 8132SOL    HW135855   2.139   3.209  16.669  0.0589  1.6822 -0.2517
 8132SOL    HW235856   2.222   3.119  16.756 -2.6605 -1.6467 -0.2308
 8133SOL     OW35857   0.965   0.997   1.368 -0.0042  0.5275 -0.3900
 8133SOL    HW135858   1.046   1.027   1.329 -0.4923  2.1086 -0.1913
 8133SOL    HW235859   0.905   1.070   1.350 -2.6004 -1.9090 -1.5540
 8134SOL     OW35860   4.313   4.168   7.585  0.0986 -0.3840  0.0753
 8134SOL    HW135861   4.293   4.089   7.534 -1.7260  0.5519 -0.6545
 8134SOL    HW235862   4.234   4.177   7.639 -0.9884  0.2416 -1.6316
 8135SOL     OW35863   0.300   4.235   0.341  0.0820  0.3117 -0.7561
 8135SOL    HW135864   0.359   4.211   0.413  1.5597  0.3910 -1.9441
 8135SOL    HW235865   0.244   4.289   0.397  1.2165  1.4715 -0.7438
 8136SOL     OW35866   3.941   1.151   2.565  0.4879 -0.2454 -0.1417
 8136SOL    HW135867   3.857   1.191   2.542  1.6104  2.4748  0.5171
 8136SOL    HW235868   3.951   1.083   2.498  0.3728 -0.5721  0.1711
 8137SOL     OW35869   1.198   4.658   5.182  0.1739  0.4384  0.5162
 8137SOL    HW135870   1.232   4.574   5.211 -1.6427  0.3602  2.4283
 8137SOL    HW235871   1.281   4.704   5.167  0.2246  1.1141  2.8928
 8138SOL     OW35872   0.225   0.365   6.240 -0.1244 -0.0539  0.0783
 8138SOL    HW135873   0.290   0.357   6.170 -0.5361 -0.5893 -0.2439
 8138SOL    HW235874   0.146   0.338   6.193  0.4371 -0.0129 -0.8781
 8139SOL     OW35875   1.660   2.608   5.870  0.3498 -0.4280  0.1718
 8139SOL    HW135876   1.634   2.595   5.778  0.8689  0.8763 -0.1654
 8139SOL    HW235877   1.642   2.701   5.887 -1.6748 -0.6981 -0.4916
 8140SOL     OW35878   3.564   3.432  17.278 -0.7671  0.7988 -0.1901
 8140SOL    HW135879   3.653   3.402  17.297 -0.9862 -1.7402 -3.0871
 8140SOL    HW235880   3.517   3.352  17.256  1.0876 -0.4374  0.3351
 8141SOL     OW35881   0.009   4.316   5.841 -0.7149  0.1476  0.1633
 8141SOL    HW135882   4.717   4.375   5.767 -0.4184 -0.7189 -0.5868
 8141SOL    HW235883   0.042   4.242   5.791 -2.4114 -0.6245  0.1877
 8142SOL     OW35884   2.467   1.798   8.134 -0.7227  0.0867 -0.7727
 8142SOL    HW135885   2.380   1.828   8.107 -0.5719  0.9523 -0.2809
 8142SOL    HW235886   2.454   1.786   8.228 -1.2962 -2.4884 -1.1601
 8143SOL     OW35887   0.366   3.687   8.880  0.3499  0.2032 -0.5872
 8143SOL    HW135888   0.454   3.686   8.918 -0.5449 -1.6751  1.4270
 8143SOL    HW235889   0.316   3.706   8.959  0.6632 -1.4145  0.0030
 8144SOL     OW35890   0.788   1.952   2.383 -0.7024 -0.1439  0.3441
 8144SOL    HW135891   0.708   1.904   2.362 -2.0336  2.6031 -1.0389
 8144SOL    HW235892   0.843   1.925   2.309  0.5580 -0.6139  1.4710
 8145SOL     OW35893   4.577   1.116   7.268 -0.6944  0.6405  0.1060
 8145SOL    HW135894   4.504   1.172   7.294  0.0289  0.8327  1.7152
 8145SOL    HW235895   4.531   1.032   7.270 -2.3251  1.4937 -1.6617
 8146SOL     OW35896   4.122   3.624   3.601  0.3741  1.0012  0.0643
 8146SOL    HW135897   4.208   3.657   3.627 -0.1224  1.4096  1.1676
 8146SOL    HW235898   4.083   3.706   3.572  0.8513  0.1992 -2.9508
 8147SOL     OW35899   1.866   1.641  15.791 -0.2878 -0.3318 -0.0599
 8147SOL    HW135900   1.858   1.589  15.711  1.4758 -0.1987 -0.3071
 8147SOL    HW235901   1.849   1.567  15.849  0.2690 -0.1016  0.3933
 8148SOL     OW35902   4.193   1.673   5.906  0.0308  0.2079  0.4991
 8148SOL    HW135903   4.154   1.758   5.925  3.6643  2.2244 -1.0195
 8148SOL    HW235904   4.279   1.691   5.943 -1.1203  0.0780  3.2358
 8149SOL     OW35905   1.139   1.344   2.605  0.8979  0.2648 -0.1651
 8149SOL    HW135906   1.203   1.310   2.542  0.2952  1.1293 -1.2576
 8149SOL    HW235907   1.117   1.429   2.568 -1.1392  0.1961  0.8785
 8150SOL     OW35908   1.479   1.357   1.938 -0.0207 -0.0942 -0.2575
 8150SOL    HW135909   1.424   1.435   1.948  1.0960  0.8275 -1.3127
 8150SOL    HW235910   1.429   1.302   1.878 -0.6234  0.2711 -0.0928
 8151SOL     OW35911   3.409   4.211   6.110  0.1601 -0.7485 -0.1057
 8151SOL    HW135912   3.456   4.147   6.057 -1.6900 -0.0415 -2.6076
 8151SOL    HW235913   3.369   4.148   6.170  0.2852  0.5838  1.3769
 8152SOL     OW35914   3.730   3.663   3.853 -0.3637 -0.0820 -0.2574
 8152SOL    HW135915   3.811   3.714   3.853 -0.4393  0.0203  1.2482
 8152SOL    HW235916   3.665   3.727   3.884 -1.4361 -1.9124  1.2710
 8153SOL     OW35917   3.518   0.778  15.891 -0.3492 -0.2022  0.2310
 8153SOL    HW135918   3.553   0.775  15.980 -1.0615 -3.3415  0.3927
 8153SOL    HW235919   3.426   0.787  15.916 -0.9858  0.7715 -2.4483
 8154SOL     OW35920   4.625   1.666  10.893  0.0884  0.0660  0.4966
 8154SOL    HW135921   4.598   1.673  10.984 -1.9866  0.6040 -0.1661
 8154SOL    HW235922   4.632   1.760  10.875 -0.5567  0.4410  2.1739
 8155SOL     OW35923   0.817   0.065   8.068 -0.3065  0.4189  0.4181
 8155SOL    HW135924   0.782   4.704   8.040  0.5193  0.9708 -2.2984
 8155SOL    HW235925   0.858   0.032   8.148 -0.5035  0.4151  0.5197
 8156SOL     OW35926   2.113   2.399   6.773 -0.0834  0.0449 -0.1040
 8156SOL    HW135927   2.139   2.311   6.745  3.4607  1.2393 -0.5819
 8156SOL    HW235928   2.136   2.450   6.695  1.4806  2.1561  1.7102
 8157SOL     OW35929   3.815   4.017   5.835  0.3173  0.6097 -0.4428
 8157SOL    HW135930   3.791   3.943   5.779  2.0359 -0.1055 -0.2199
 8157SOL    HW235931   3.889   4.055   5.787 -1.4518  1.8988 -2.1709
 8158SOL     OW35932   0.958   3.767   5.704 -0.0716  0.3435  0.3506
 8158SOL    HW135933   0.889   3.822   5.666  1.4577  0.3941 -2.2888
 8158SOL    HW235934   0.970   3.706   5.632 -1.5751 -0.3057  0.6339
 8159SOL     OW35935   0.321   3.341   7.825 -0.2225 -0.0722 -0.0140
 8159SOL    HW135936   0.300   3.261   7.873 -0.3425 -1.0446 -1.6859
 8159SOL    HW235937   0.260   3.329   7.752  1.9678 -1.3266 -1.6524
 8160SOL     OW35938   0.271   2.456  15.523  0.5217  0.0424  0.2805
 8160SOL    HW135939   0.188   2.425  15.561  0.3644 -0.9441 -0.8652
 8160SOL    HW235940   0.247   2.440  15.432  3.1653 -0.1734 -0.3543
 8161SOL     OW35941   0.042   0.781   7.944  0.1715  0.0580  0.3246
 8161SOL    HW135942   0.092   0.700   7.933 -0.9440 -0.4175 -1.2789
 8161SOL    HW235943   0.097   0.831   8.005  0.2878 -1.8181  1.7395
 8162SOL     OW35944   2.657   3.314   4.319  0.2754 -0.0850  0.3886
 8162SOL    HW135945   2.732   3.343   4.268 -0.2979 -1.3313 -1.1648
 8162SOL    HW235946   2.589   3.375   4.290  0.4110 -0.8645 -1.5543
 8163SOL     OW35947   0.313   2.007   9.457  0.4352  0.7844 -0.0028
 8163SOL    HW135948   0.290   1.949   9.529  0.0460 -0.3486 -1.0426
 8163SOL    HW235949   0.307   1.944   9.386  2.5110  1.1959 -0.5462
 8164SOL     OW35950   1.096   3.271   3.820 -0.5828 -0.1194  0.4195
 8164SOL    HW135951   1.186   3.246   3.840 -0.0684 -0.0061 -1.7608
 8164SOL    HW235952   1.112   3.333   3.749  1.1847  0.6200  1.4683
 8165SOL     OW35953   4.352   1.964   7.992  0.6204 -0.5556  0.2675
 8165SOL    HW135954   4.380   1.882   7.952 -1.5339 -0.6489 -1.0576
 8165SOL    HW235955   4.414   1.971   8.065  0.4710  1.6915  0.1670
 8166SOL     OW35956   2.647   1.075   7.022  0.0149 -0.4105 -0.3608
 8166SOL    HW135957   2.586   1.147   7.034 -0.7055 -0.7703 -1.9217
 8166SOL    HW235958   2.581   1.017   6.984 -1.1265  0.3697  0.4421
 8167SOL     OW35959   3.383   0.389   7.065  0.3398 -0.2529  0.3486
 8167SOL    HW135960   3.310   0.345   7.021  1.0987 -0.3549 -0.8107
 8167SOL    HW235961   3.423   0.449   7.002  1.4778  0.3564  1.6616
 8168SOL     OW35962   3.046   3.939   6.173 -0.0762  0.2858  0.2148
 8168SOL    HW135963   3.136   3.921   6.200  0.5633 -1.4754 -3.1077
 8168SOL    HW235964   3.017   3.860   6.128  0.7047 -0.4224  0.9795
 8169SOL     OW35965   4.056   1.304   4.305 -0.1186 -0.4585  0.2978
 8169SOL    HW135966   4.030   1.214   4.284  0.3308 -1.1790  2.7349
 8169SOL    HW235967   4.052   1.315   4.400 -0.2979  0.1376  0.2197
 8170SOL     OW35968   4.098   2.792   7.949  0.2214  0.1343 -0.1941
 8170SOL    HW135969   4.127   2.754   8.032  0.0392 -0.7820 -0.5447
 8170SOL    HW235970   4.005   2.816   7.957 -0.2602 -2.0240  0.5665
 8171SOL     OW35971   3.426   3.132   1.251 -0.0836 -0.1910  0.6882
 8171SOL    HW135972   3.355   3.171   1.301  0.7879  0.3158  1.5209
 8171SOL    HW235973   3.499   3.189   1.275 -0.0112  0.4139 -0.9741
 8172SOL     OW35974   2.344   3.246  17.303  0.1060  0.1689  0.4725
 8172SOL    HW135975   2.280   3.269  17.370  1.2884  1.7632  1.0561
 8172SOL    HW235976   2.294   3.242  17.221  1.2783 -0.8858 -0.1822
 8173SOL     OW35977   2.533   0.053   8.561 -0.5069  0.1040  0.0705
 8173SOL    HW135978   2.466   4.718   8.529 -2.0024  1.3314  0.8888
 8173SOL    HW235979   2.478   0.132   8.560 -1.3830 -0.4821  1.9588
 8174SOL     OW35980   1.157   0.026   3.390 -0.2802  0.2819  0.4276
 8174SOL    HW135981   1.246   0.024   3.354 -0.6194 -0.0489 -0.3904
 8174SOL    HW235982   1.096   4.717   3.324  1.7208 -1.2249 -0.6538
 8175SOL     OW35983   0.452   3.704   7.371 -0.1467  0.2798 -0.0569
 8175SOL    HW135984   0.380   3.648   7.399  1.4269 -2.8754 -2.3855
 8175SOL    HW235985   0.527   3.647   7.358 -0.6720 -0.2885 -0.5828
 8176SOL     OW35986   1.010   4.231   5.035 -0.0352 -0.4705  0.1030
 8176SOL    HW135987   1.093   4.229   4.987 -0.9915  0.0166 -1.5531
 8176SOL    HW235988   1.038   4.256   5.123  0.2694  2.2049 -0.7476
 8177SOL     OW35989   3.629   0.030   7.840  0.1261  0.0691  0.0228
 8177SOL    HW135990   3.572   4.700   7.786  0.3547  1.3456 -1.4801
 8177SOL    HW235991   3.629   0.111   7.789  1.5658  0.5836  0.8414
 8178SOL     OW35992   2.125   3.978   9.266 -0.4533  0.4813  0.1300
 8178SOL    HW135993   2.111   4.041   9.195  2.4120 -0.2666 -1.0961
 8178SOL    HW235994   2.160   4.034   9.335 -0.5374  0.3455  0.2842
 8179SOL     OW35995   2.338   1.806   4.406 -0.1660 -0.1952  0.3916
 8179SOL    HW135996   2.419   1.792   4.357  1.4387  1.9536  2.4643
 8179SOL    HW235997   2.378   1.807   4.493 -0.7828 -0.0699  0.6724
 8180SOL     OW35998   4.052   0.850   6.209  0.0619 -0.2604  0.4769
 8180SOL    HW135999   4.126   0.811   6.257  0.9078 -0.2815 -0.8431
 8180SOL    HW236000   4.064   0.941   6.236  1.8150 -1.1433  2.6903
 8181SOL     OW36001   3.253   4.147   9.927  0.3821 -0.3747 -0.1939
 8181SOL    HW136002   3.225   4.056   9.928  1.3184 -0.6452  1.3413
 8181SOL    HW236003   3.221   4.171  10.014 -0.4332 -0.7928 -0.3720
 8182SOL     OW36004   3.909   2.750   2.464  0.1809 -0.2208 -0.0572
 8182SOL    HW136005   3.966   2.815   2.423  0.1069  1.5796  2.6259
 8182SOL    HW236006   3.965   2.725   2.538  1.2290  0.9706 -0.4353
 8183SOL     OW36007   1.305   4.572   6.350  0.3378 -0.7376  0.5627
 8183SOL    HW136008   1.227   4.623   6.326  0.1955 -0.4476  1.6196
 8183SOL    HW236009   1.370   4.639   6.370 -0.7393 -0.2394  2.3796
 8184SOL     OW36010   0.926   1.399  14.572 -0.2670 -0.3729 -0.1551
 8184SOL    HW136011   0.889   1.349  14.645 -1.9818 -1.0143 -1.4842
 8184SOL    HW236012   0.845   1.443  14.548 -1.7105 -2.5249  0.7459
 8185SOL     OW36013   0.372   0.936  10.479 -0.0678 -0.2814  0.0547
 8185SOL    HW136014   0.443   0.900  10.532  0.3194 -0.7508 -0.7797
 8185SOL    HW236015   0.342   1.016  10.522 -0.8421 -2.2996  3.2499
 8186SOL     OW36016   2.655   3.657   7.925  0.4539 -0.5141 -0.1680
 8186SOL    HW136017   2.695   3.652   8.012 -0.7961  2.7187  0.5867
 8186SOL    HW236018   2.619   3.743   7.943  1.6808  0.0136 -0.2556
 8187SOL     OW36019   1.853   2.241   2.559 -0.2726 -0.3251  0.2749
 8187SOL    HW136020   1.786   2.197   2.507 -0.4962  2.0076 -1.4191
 8187SOL    HW236021   1.790   2.289   2.612  0.1494  1.4087 -0.7836
 8188SOL     OW36022   2.823   3.357   9.285  0.2654 -0.0658 -0.1457
 8188SOL    HW136023   2.847   3.269   9.256 -0.4531  0.0277 -1.0276
 8188SOL    HW236024   2.897   3.402   9.243  2.0057 -0.9135  2.0070
 8189SOL     OW36025   3.510   3.858   4.445  0.0843  0.1954  0.3080
 8189SOL    HW136026   3.421   3.891   4.436  0.5485  1.4983  0.5325
 8189SOL    HW236027   3.528   3.893   4.532 -0.6325  0.6976  0.2532
 8190SOL     OW36028   3.438   1.512   4.003 -0.4876 -0.6635 -0.0282
 8190SOL    HW136029   3.371   1.569   3.964  2.2485  1.1562 -2.1029
 8190SOL    HW236030   3.505   1.515   3.934 -0.5143 -1.2198 -0.0779
 8191SOL     OW36031   0.807   4.177   7.517 -0.3277 -0.1801 -0.2172
 8191SOL    HW136032   0.759   4.230   7.454  0.3937  1.3767  0.5298
 8191SOL    HW236033   0.873   4.136   7.460 -1.4029  0.3025 -1.7816
 8192SOL     OW36034   2.831   2.190   6.008 -0.7880 -0.0226 -0.2321
 8192SOL    HW136035   2.882   2.214   6.086 -0.0698 -2.0431 -0.0784
 8192SOL    HW236036   2.893   2.135   5.961  0.6001  0.6785  0.7562
 8193SOL     OW36037   3.264   0.803   4.110 -0.1577  0.1725 -0.1910
 8193SOL    HW136038   3.203   0.875   4.093 -0.0410 -0.6434 -3.9565
 8193SOL    HW236039   3.260   0.757   4.026  0.0919 -1.1218  0.5022
 8194SOL     OW36040   3.948   1.453  16.586 -0.4071  0.2634  0.0468
 8194SOL    HW136041   4.038   1.454  16.554 -0.1353 -1.7712  0.7947
 8194SOL    HW236042   3.936   1.361  16.608 -3.5636  0.0105 -2.6251
 8195SOL     OW36043   4.506   0.981   3.853  0.3695 -0.7617  0.1189
 8195SOL    HW136044   4.516   1.066   3.897 -0.1563 -0.6946  0.1072
 8195SOL    HW236045   4.593   0.942   3.863  1.4005  1.6513  0.8028
 8196SOL     OW36046   3.603   2.811   5.278 -0.0695 -0.3833  0.0879
 8196SOL    HW136047   3.604   2.904   5.300  0.2105  0.2117 -2.4786
 8196SOL    HW236048   3.687   2.811   5.232  1.8816  0.4225  3.6771
 8197SOL     OW36049   0.436   4.480   3.270  0.0943  0.3118 -0.3341
 8197SOL    HW136050   0.384   4.541   3.219  0.4222  1.4783  0.7395
 8197SOL    HW236051   0.493   4.447   3.200  0.7450  2.5011 -0.8522
 8198SOL     OW36052   3.880   0.285   8.484 -0.1910 -0.2392  0.9638
 8198SOL    HW136053   3.840   0.221   8.425  2.4108  0.6972 -1.8175
 8198SOL    HW236054   3.800   0.312   8.529 -1.8329 -0.4089 -1.8284
 8199SOL     OW36055   3.955   0.761   4.768  0.2632 -0.1445  0.2597
 8199SOL    HW136056   3.947   0.695   4.699 -0.2349  1.1956 -0.9597
 8199SOL    HW236057   4.049   0.779   4.762 -0.3137  2.1511 -1.8340
 8200SOL     OW36058   1.068   1.843  15.681 -0.4857 -0.1559 -0.4064
 8200SOL    HW136059   1.112   1.928  15.673  0.1075 -0.4270 -0.0112
 8200SOL    HW236060   1.014   1.849  15.602  0.8502  0.1500 -1.3081
 8201SOL     OW36061   0.860   0.147   1.894 -0.2345 -0.0479 -0.5735
 8201SOL    HW136062   0.920   0.108   1.830 -0.2543  0.9109 -1.1727
 8201SOL    HW236063   0.860   0.239   1.868  0.2390  0.0155 -0.3363
 8202SOL     OW36064   2.876   4.037   9.124 -0.2057 -0.1946 -0.3320
 8202SOL    HW136065   2.846   3.979   9.195 -0.4081  1.1093  0.6434
 8202SOL    HW236066   2.914   3.973   9.064  1.4188  0.1147  0.3630
 8203SOL     OW36067   1.673   0.228  15.104 -0.8008 -0.8066 -0.6757
 8203SOL    HW136068   1.737   0.178  15.155 -1.2206  0.8471  1.4818
 8203SOL    HW236069   1.587   0.201  15.136 -0.9228  1.4619  0.9830
 8204SOL     OW36070   2.018   4.010   3.740  0.2553 -0.3083 -0.1615
 8204SOL    HW136071   2.108   4.012   3.772  0.4901  0.8111 -0.8799
 8204SOL    HW236072   1.975   4.010   3.825 -1.4469 -2.2841 -1.0313
 8205SOL     OW36073   4.118   3.389   8.413 -0.2997  0.2054  0.0226
 8205SOL    HW136074   4.085   3.471   8.450 -1.0564  0.1504 -0.5279
 8205SOL    HW236075   4.092   3.411   8.323 -0.9635 -0.6099  0.0147
 8206SOL     OW36076   0.329   3.784   1.919 -0.1809 -0.5184 -0.3070
 8206SOL    HW136077   0.299   3.801   2.008  0.4494 -0.5204 -0.0911
 8206SOL    HW236078   0.306   3.694   1.896  2.0645 -0.5284 -2.5542
 8207SOL     OW36079   1.022   3.275   3.028  0.1003 -0.1986  0.0249
 8207SOL    HW136080   1.008   3.202   2.968  0.0759  0.8933 -1.2800
 8207SOL    HW236081   0.994   3.341   2.965 -0.2482  1.2017  1.6517
 8208SOL     OW36082   1.877   4.176   9.445 -0.2058  0.4364  0.0209
 8208SOL    HW136083   1.834   4.139   9.521 -0.3923 -0.1961 -0.3975
 8208SOL    HW236084   1.814   4.135   9.386  1.0857 -2.5688  0.7277
 8209SOL     OW36085   2.406   2.456   6.351 -0.4649 -0.5057  0.1238
 8209SOL    HW136086   2.470   2.412   6.296 -1.8685 -1.5095 -0.7026
 8209SOL    HW236087   2.359   2.501   6.280 -1.1393 -0.9109  0.3196
 8210SOL     OW36088   3.043   1.724  14.495  0.4918  0.0903 -0.3617
 8210SOL    HW136089   3.023   1.736  14.402 -2.6526  2.3905  0.6189
 8210SOL    HW236090   3.033   1.633  14.522  0.4391  1.1214  3.0898
 8211SOL     OW36091   1.067   0.319   5.357  0.1864 -0.0449  0.2948
 8211SOL    HW136092   1.047   0.252   5.292 -1.1812 -0.9849  1.6804
 8211SOL    HW236093   0.987   0.324   5.409 -0.7372 -2.3834 -0.9097
 8212SOL     OW36094   2.853   3.884  11.392  0.1572 -0.2887  0.2578
 8212SOL    HW136095   2.812   3.798  11.394 -0.1391 -0.0522  3.6659
 8212SOL    HW236096   2.798   3.915  11.463 -1.9506 -0.1436 -1.4358
 8213SOL     OW36097   3.981   0.861   2.755 -0.3920 -0.1850  0.1841
 8213SOL    HW136098   3.977   0.952   2.728 -0.3587  0.5913  2.7945
 8213SOL    HW236099   3.908   0.827   2.703  0.8856  0.3233 -1.8974
 8214SOL     OW36100   3.490   0.219   7.221  0.3421  0.0637  0.2665
 8214SOL    HW136101   3.441   0.274   7.160  3.8015  1.3876 -1.2968
 8214SOL    HW236102   3.452   0.233   7.308 -0.1133  0.0683  0.0691
 8215SOL     OW36103   0.661   0.762  12.359 -0.2866  0.1067 -0.2230
 8215SOL    HW136104   0.714   0.683  12.354  1.0970  0.9628  0.7652
 8215SOL    HW236105   0.663   0.775  12.454 -0.1393  1.3077 -0.3838
 8216SOL     OW36106   3.587   0.613   8.429  0.1673 -0.5739  0.0916
 8216SOL    HW136107   3.663   0.664   8.458  0.3324  0.1724 -1.6724
 8216SOL    HW236108   3.610   0.530   8.471  0.3913 -0.2510  0.6128
 8217SOL     OW36109   1.932   2.505   9.819 -0.2507  0.6404 -0.3177
 8217SOL    HW136110   2.026   2.509   9.833 -0.5406  1.0739  1.4731
 8217SOL    HW236111   1.910   2.592   9.784 -1.2486  0.8365  0.8112
 8218SOL     OW36112   3.587   3.229  11.765 -0.3049 -0.3546 -0.3366
 8218SOL    HW136113   3.532   3.256  11.691 -0.1717  2.2325  0.5207
 8218SOL    HW236114   3.524   3.170  11.808 -0.0016 -1.1035 -0.9165
 8219SOL     OW36115   0.975   2.356  13.526 -0.4290  0.2160  0.2189
 8219SOL    HW136116   0.948   2.298  13.597 -0.6497  0.9667  0.7552
 8219SOL    HW236117   0.911   2.427  13.537 -1.7787 -0.8175 -1.0257
 8220SOL     OW36118   2.303   3.469   1.966  0.2747 -0.7770 -0.0648
 8220SOL    HW136119   2.239   3.461   1.895  0.9940  0.8809 -0.9317
 8220SOL    HW236120   2.348   3.384   1.966  0.1035 -0.8659  1.4399
 8221SOL     OW36121   2.232   2.678   3.160 -0.0698  0.6568 -0.2986
 8221SOL    HW136122   2.212   2.760   3.115 -0.8736  1.0503  0.7823
 8221SOL    HW236123   2.146   2.641   3.180  0.1943 -0.0471 -0.4320
 8222SOL     OW36124   0.031   2.609   2.423  0.7569  0.3932 -0.2810
 8222SOL    HW136125   4.722   2.687   2.377  1.9743  0.4555 -1.0542
 8222SOL    HW236126   0.014   2.632   2.514 -0.3192  1.4578 -0.7487
 8223SOL     OW36127   2.815   1.668   1.135  0.0367  0.2283 -0.1840
 8223SOL    HW136128   2.872   1.594   1.115  1.5190  1.2767  0.1215
 8223SOL    HW236129   2.858   1.733   1.079 -3.7547  0.0209 -3.3522
 8224SOL     OW36130   3.683   4.398   3.642  0.1455  0.6569 -0.3342
 8224SOL    HW136131   3.676   4.492   3.623  1.1049  0.7067 -0.4880
 8224SOL    HW236132   3.755   4.362   3.589 -0.3550 -0.3422 -0.3327
 8225SOL     OW36133   2.239   2.478   7.891 -0.0404 -0.1930 -0.0492
 8225SOL    HW136134   2.201   2.404   7.938 -0.8717 -0.2826 -0.8547
 8225SOL    HW236135   2.190   2.545   7.938 -0.3115  0.3219 -1.0633
 8226SOL     OW36136   2.906   3.455   7.727  0.2291 -0.0346 -0.1611
 8226SOL    HW136137   2.908   3.532   7.784  2.3171  0.7455 -1.2892
 8226SOL    HW236138   2.994   3.460   7.689 -0.4216  1.0725 -1.4997
 8227SOL     OW36139   2.938   4.692   3.165 -0.2938 -0.1313 -0.0255
 8227SOL    HW136140   2.869   0.032   3.149 -0.8194 -0.6672  0.0962
 8227SOL    HW236141   2.951   4.722   3.255  0.6435 -1.0363  0.1346
 8228SOL     OW36142   4.508   3.150   9.530  0.0917 -0.0432 -0.5615
 8228SOL    HW136143   4.572   3.083   9.506  1.2177  0.9568 -0.3291
 8228SOL    HW236144   4.434   3.111   9.483  0.8605 -1.0344 -0.9672
 8229SOL     OW36145   4.471   2.050   4.216 -0.1283  0.5061  0.2719
 8229SOL    HW136146   4.502   2.129   4.171  1.4685  1.4344  2.9998
 8229SOL    HW236147   4.544   1.990   4.199 -0.8537 -0.1015 -0.6771
 8230SOL     OW36148   2.500   0.757  13.065 -0.2529 -0.2712  0.0420
 8230SOL    HW136149   2.414   0.716  13.059 -1.2126  2.0209 -1.6999
 8230SOL    HW236150   2.534   0.727  12.981 -1.8911 -1.3076 -0.2542
 8231SOL     OW36151   1.716   1.576  17.020 -0.3265  0.1219  0.0813
 8231SOL    HW136152   1.662   1.509  17.063  0.4867 -0.9255 -0.5488
 8231SOL    HW236153   1.687   1.659  17.059 -0.5455  0.0718  0.0241
 8232SOL     OW36154   2.117   4.010  14.551 -0.0095  0.1153 -0.2537
 8232SOL    HW136155   2.067   4.092  14.553 -0.9856 -0.4818 -0.5668
 8232SOL    HW236156   2.153   4.012  14.640 -1.2853 -2.1903  0.3193
 8233SOL     OW36157   0.547   0.387   4.621 -0.4654  0.7960  0.1637
 8233SOL    HW136158   0.561   0.410   4.529  2.2210  1.4734  0.7347
 8233SOL    HW236159   0.635   0.397   4.658 -0.3241 -0.1261  0.0740
 8234SOL     OW36160   3.450   1.755   5.232  0.3223 -0.0445 -0.4098
 8234SOL    HW136161   3.460   1.668   5.194 -1.3022 -0.9466  1.1908
 8234SOL    HW236162   3.354   1.751   5.230  0.3840 -0.5579 -2.6267
 8235SOL     OW36163   4.672   2.739   7.260  0.1920 -0.3000 -0.3383
 8235SOL    HW136164   4.679   2.817   7.315  2.3369 -0.2479 -0.6755
 8235SOL    HW236165   4.659   2.681   7.335  2.2380 -1.0292 -0.5249
 8236SOL     OW36166   2.286   1.305   2.165 -0.3537  0.6773 -0.5112
 8236SOL    HW136167   2.236   1.232   2.127  1.0634 -0.0665 -0.9537
 8236SOL    HW236168   2.372   1.265   2.176 -0.1369  0.8312 -1.6562
 8237SOL     OW36169   0.394   4.591   7.764  0.0287  0.3875 -0.1446
 8237SOL    HW136170   0.448   4.563   7.690 -1.3711 -1.2467 -0.5647
 8237SOL    HW236171   0.439   4.550   7.838 -3.5929  0.0608  1.8564
 8238SOL     OW36172   2.632   1.841   4.228  0.4129 -0.3057 -0.7767
 8238SOL    HW136173   2.693   1.807   4.293  1.6566  0.1168 -1.7131
 8238SOL    HW236174   2.616   1.929   4.262 -0.4417 -0.9521  0.4705
 8239SOL     OW36175   2.864   0.036   8.136 -0.2734 -0.0884  0.6101
 8239SOL    HW136176   2.830   0.040   8.225  0.5376 -1.8425  1.0028
 8239SOL    HW236177   2.799   4.703   8.094  1.8041 -2.3890  0.5152
 8240SOL     OW36178   3.081   1.578  10.876  0.1652 -0.5931 -0.0914
 8240SOL    HW136179   3.173   1.599  10.891  0.3888  0.3043 -2.5825
 8240SOL    HW236180   3.043   1.621  10.952  0.6664 -0.2383 -0.0409
 8241SOL     OW36181   2.610   2.226  11.487  0.3519 -0.2736  0.2523
 8241SOL    HW136182   2.701   2.215  11.459  0.8635  0.6240  1.5614
 8241SOL    HW236183   2.603   2.154  11.549 -1.3465  0.9779  1.5218
 8242SOL     OW36184   4.360   4.639   7.286  0.5022  0.3894  0.1876
 8242SOL    HW136185   4.338   4.547   7.296  2.7563 -0.2789 -0.9823
 8242SOL    HW236186   4.289   4.681   7.335  0.1774  1.0257 -0.8279
 8243SOL     OW36187   0.018   1.820   9.421 -0.0573  0.1124 -0.4456
 8243SOL    HW136188   4.692   1.836   9.500  0.8873  0.7412  0.0290
 8243SOL    HW236189   0.084   1.756   9.451  1.6103  1.4366 -1.2584
 8244SOL     OW36190   1.661   1.617   7.910 -0.5978  0.2210  0.4205
 8244SOL    HW136191   1.702   1.530   7.913  0.3666  0.7203  1.3275
 8244SOL    HW236192   1.703   1.663   7.838  0.9810 -0.9165  0.6118
 8245SOL     OW36193   2.193   0.265  16.630  0.0977 -0.3091  0.0861
 8245SOL    HW136194   2.263   0.223  16.680  0.0800 -2.0646 -1.3802
 8245SOL    HW236195   2.174   0.201  16.562  0.4892 -1.8505  1.4347
 8246SOL     OW36196   3.949   3.257   5.687 -0.5068 -0.0753 -0.4851
 8246SOL    HW136197   3.937   3.327   5.751 -1.2965 -1.6886  1.1337
 8246SOL    HW236198   3.980   3.184   5.741  1.6761 -0.5777 -2.4281
 8247SOL     OW36199   3.378   3.757  12.694  0.1641  0.5061 -0.5492
 8247SOL    HW136200   3.294   3.750  12.738 -0.6834 -0.4341 -2.3291
 8247SOL    HW236201   3.398   3.851  12.696  2.2820  0.0701 -0.7449
 8248SOL     OW36202   2.918   1.253  14.711  0.8638 -0.1783  0.7392
 8248SOL    HW136203   2.950   1.163  14.721 -3.0026 -1.6364 -0.0067
 8248SOL    HW236204   2.843   1.224  14.659  1.5962 -0.5432 -0.1269
 8249SOL     OW36205   1.838   1.570   3.520 -0.1947  1.0585 -0.1144
 8249SOL    HW136206   1.748   1.554   3.492  0.4681  0.1952 -1.7969
 8249SOL    HW236207   1.855   1.650   3.470  0.6703  1.1787  0.3705
 8250SOL     OW36208   4.049   3.541  11.979 -0.0144 -0.4087 -0.3039
 8250SOL    HW136209   4.081   3.568  12.065 -0.7622  1.8105 -0.7340
 8250SOL    HW236210   3.978   3.483  12.005 -0.0014  0.2930  1.3156
 8251SOL     OW36211   3.827   4.533   5.822  0.1759 -0.7172  0.4197
 8251SOL    HW136212   3.763   4.582   5.770 -1.8783 -3.3732  0.4632
 8251SOL    HW236213   3.910   4.575   5.798  0.8849 -2.2322  0.2570
 8252SOL     OW36214   0.468   3.299  11.768  0.0954 -0.2625 -0.4941
 8252SOL    HW136215   0.438   3.384  11.799 -2.1253 -1.6190  1.0139
 8252SOL    HW236216   0.481   3.320  11.675  0.4193  1.4405 -0.0733
 8253SOL     OW36217   0.649   2.306   6.477 -0.6119  0.5256  0.6478
 8253SOL    HW136218   0.655   2.402   6.482  0.6881  0.3182  3.4034
 8253SOL    HW236219   0.616   2.292   6.566  0.2733  1.0362  1.0601
 8254SOL     OW36220   1.516   1.721   6.397  0.1068 -0.0377 -0.0823
 8254SOL    HW136221   1.434   1.770   6.402 -0.2086 -0.5747  0.0250
 8254SOL    HW236222   1.536   1.713   6.304  1.2461  0.5215  0.1261
 8255SOL     OW36223   1.690   4.244   4.443  0.2310 -0.1408  0.0311
 8255SOL    HW136224   1.733   4.214   4.523  0.2287  0.5011  0.2774
 8255SOL    HW236225   1.707   4.164   4.394 -1.2003 -0.6394  0.3471
 8256SOL     OW36226   1.970   4.618   2.105  0.3885  0.0209  0.1231
 8256SOL    HW136227   2.018   4.599   2.024  0.1779 -1.6395  0.3910
 8256SOL    HW236228   2.034   4.682   2.135 -0.1677  0.1948  0.9355
 8257SOL     OW36229   2.797   2.980   7.185 -0.0966 -0.5915 -0.1447
 8257SOL    HW136230   2.831   3.069   7.173  0.1173 -0.6379  0.1292
 8257SOL    HW236231   2.724   2.990   7.124 -0.5692 -0.4846  0.4356
 8258SOL     OW36232   2.840   2.738   6.355  0.5360  0.1944 -0.1591
 8258SOL    HW136233   2.778   2.691   6.411  0.0679  0.7296 -0.2276
 8258SOL    HW236234   2.915   2.747   6.414 -0.3147 -0.0243  0.9627
 8259SOL     OW36235   2.886   2.536   4.069  0.3531  0.1263  0.3240
 8259SOL    HW136236   2.858   2.481   3.996  1.2893  1.2940 -0.9176
 8259SOL    HW236237   2.929   2.465   4.117 -0.0843 -0.3683 -0.0167
 8260SOL     OW36238   0.495   1.035   5.826  0.0247 -0.3323  0.1609
 8260SOL    HW136239   0.525   1.085   5.750  1.1259 -1.7106 -0.3234
 8260SOL    HW236240   0.427   0.981   5.787 -1.1390 -0.5330  2.4254
 8261SOL     OW36241   0.866   2.031   3.944 -0.2815 -0.0634 -0.0986
 8261SOL    HW136242   0.779   2.039   3.983  0.6194 -0.3110  1.9860
 8261SOL    HW236243   0.913   2.092   4.001  0.8112  0.2063 -1.2857
 8262SOL     OW36244   3.384   1.641   0.505 -0.2033  0.0817 -0.5422
 8262SOL    HW136245   3.429   1.617   0.424 -0.5652 -2.0855 -0.0854
 8262SOL    HW236246   3.462   1.643   0.560 -1.1240  1.3171  0.7227
 8263SOL     OW36247   3.547   0.743   5.662  0.0799 -0.2194  0.3538
 8263SOL    HW136248   3.615   0.734   5.595  0.3888 -0.5977  0.7144
 8263SOL    HW236249   3.594   0.764   5.743 -0.0877  0.1113  0.3638
 8264SOL     OW36250   1.284   2.565  11.739 -0.0742  0.6154  0.0773
 8264SOL    HW136251   1.324   2.545  11.654  0.0877 -0.0912  0.3256
 8264SOL    HW236252   1.226   2.637  11.713  3.2532  3.4049  0.3068
 8265SOL     OW36253   0.166   1.426   6.792 -0.4423  0.1574 -0.0589
 8265SOL    HW136254   0.121   1.343   6.778  1.3213 -0.3491 -2.8028
 8265SOL    HW236255   0.194   1.443   6.702 -2.2327 -0.3079 -0.6920
 8266SOL     OW36256   1.740   1.491   1.810  0.5375 -0.0156  0.0207
 8266SOL    HW136257   1.679   1.444   1.867  1.1944 -1.2080 -0.2595
 8266SOL    HW236258   1.826   1.458   1.836  0.2299 -2.2512 -1.8088
 8267SOL     OW36259   1.890   1.544   2.492 -0.2297  0.3595 -0.2692
 8267SOL    HW136260   1.951   1.554   2.419  0.0871  1.5922  0.1618
 8267SOL    HW236261   1.906   1.456   2.525  1.3983 -0.2505 -2.6585
 8268SOL     OW36262   1.977   3.672  11.760 -0.4795 -0.4283  0.2472
 8268SOL    HW136263   2.063   3.675  11.718 -0.6169 -1.2248 -0.0908
 8268SOL    HW236264   1.972   3.766  11.775  0.5371 -0.2925 -0.3025
 8269SOL     OW36265   2.039   3.211  10.016 -0.2334  0.2690  0.0407
 8269SOL    HW136266   1.975   3.181   9.953  0.4339  1.8849 -1.4084
 8269SOL    HW236267   2.088   3.132  10.040  0.0247 -0.6513 -3.6590
 8270SOL     OW36268   3.719   3.156   6.034  0.2206 -0.0252 -0.1134
 8270SOL    HW136269   3.726   3.144   6.128 -2.0065  1.6581  0.2618
 8270SOL    HW236270   3.755   3.245   6.026 -0.0689  0.2545  1.7450
 8271SOL     OW36271   2.349   1.656   6.970 -0.2644  0.2146  0.1410
 8271SOL    HW136272   2.324   1.606   7.048  1.6979  1.1136  1.3455
 8271SOL    HW236273   2.310   1.613   6.894 -0.3710 -0.4895  0.5956
 8272SOL     OW36274   3.426   3.131   3.228  0.3307 -0.0147  0.0749
 8272SOL    HW136275   3.379   3.103   3.149 -0.1480  1.6567 -0.2264
 8272SOL    HW236276   3.352   3.110   3.285  0.0683  0.3246 -0.1402
 8273SOL     OW36277   0.844   1.839   4.187  0.0946 -0.1100 -0.1983
 8273SOL    HW136278   0.799   1.797   4.260 -3.1969 -0.2103 -2.2591
 8273SOL    HW236279   0.768   1.872   4.139  0.4358  0.3914 -0.4004
 8274SOL     OW36280   1.412   1.278  10.576  0.2267  0.5683  0.2545
 8274SOL    HW136281   1.349   1.318  10.515  1.4723  0.8891 -0.8201
 8274SOL    HW236282   1.422   1.356  10.630  1.2220  0.6238 -0.0142
 8275SOL     OW36283   0.413   2.736   6.876 -0.1795  0.6845 -0.0688
 8275SOL    HW136284   0.498   2.699   6.855 -0.2901  0.1205  0.5056
 8275SOL    HW236285   0.356   2.659   6.881 -0.0898  0.4803 -2.0172
 8276SOL     OW36286   0.733   1.376   4.823 -0.0525  0.9823 -0.9823
 8276SOL    HW136287   0.799   1.353   4.758  0.5411  0.9858 -0.3831
 8276SOL    HW236288   0.785   1.405   4.898 -0.5374  0.3805 -0.4174
 8277SOL     OW36289   1.075   1.262   4.876 -0.4222 -0.0989 -0.1434
 8277SOL    HW136290   1.070   1.291   4.785  1.3940  1.0171  0.1127
 8277SOL    HW236291   1.145   1.314   4.915  1.8592 -2.4799 -1.1081
 8278SOL     OW36292   3.500   0.755   5.215  0.4495 -0.0007 -0.3827
 8278SOL    HW136293   3.453   0.802   5.146 -1.4350 -1.9181 -0.4271
 8278SOL    HW236294   3.548   0.699   5.155 -0.8172 -2.0146  0.5023
 8279SOL     OW36295   4.179   3.803   3.313  0.6585  0.3484 -0.0125
 8279SOL    HW136296   4.274   3.809   3.300  0.5362  0.5802 -0.8191
 8279SOL    HW236297   4.165   3.858   3.390  0.7792  1.6960 -0.9454
 8280SOL     OW36298   0.111   3.412   3.529  0.3978 -0.0204  0.4817
 8280SOL    HW136299   0.094   3.496   3.487  0.6642 -0.0790  0.2553
 8280SOL    HW236300   0.025   3.395   3.569  0.3011  1.0613  0.7072
 8281SOL     OW36301   4.397   1.546  16.694  0.0141 -0.1679  0.0028
 8281SOL    HW136302   4.429   1.554  16.784  0.3993  1.5514 -0.2924
 8281SOL    HW236303   4.480   1.559  16.648 -1.0098 -0.8028 -2.0329
 8282SOL     OW36304   2.810   1.200   7.319  0.3211  0.2751  0.9011
 8282SOL    HW136305   2.904   1.198   7.338  0.8761 -1.0682 -1.9779
 8282SOL    HW236306   2.798   1.276   7.262 -0.1879  0.4826  1.2850
 8283SOL     OW36307   2.923   2.272  13.182  0.0800  0.4746  0.0307
 8283SOL    HW136308   2.924   2.323  13.263 -1.7825 -1.6272  1.3456
 8283SOL    HW236309   2.913   2.341  13.116 -1.4885  1.8670  1.7199
 8284SOL     OW36310   0.165   4.308   4.085  0.2394  0.1953  0.6424
 8284SOL    HW136311   0.190   4.400   4.075 -0.5163  0.1508 -1.5379
 8284SOL    HW236312   0.251   4.273   4.109 -0.1995 -0.8292  0.7083
 8285SOL     OW36313   0.715   4.517   3.315 -0.0167  0.2111 -0.5008
 8285SOL    HW136314   0.721   4.542   3.407 -0.1894 -1.3259 -0.0644
 8285SOL    HW236315   0.625   4.540   3.292 -0.3661 -0.9188 -0.2704
 8286SOL     OW36316   3.776   0.754   6.772 -0.0730  0.3853 -0.2216
 8286SOL    HW136317   3.806   0.822   6.832  0.7485  0.5503 -0.8201
 8286SOL    HW236318   3.682   0.772   6.766  0.5184  3.3775 -0.6247
 8287SOL     OW36319   0.953   4.291  12.289  0.1039 -0.6594  0.6263
 8287SOL    HW136320   0.982   4.341  12.213 -0.8382 -1.0828 -0.0180
 8287SOL    HW236321   0.882   4.237  12.255 -0.4626 -0.4881  1.5445
 8288SOL     OW36322   3.257   3.441  16.496 -0.2063 -0.0459  0.3353
 8288SOL    HW136323   3.197   3.489  16.440 -1.8523 -1.3250  0.9783
 8288SOL    HW236324   3.319   3.399  16.437  0.6378  1.9611 -0.2032
 8289SOL     OW36325   0.995   3.282   5.497  0.0383  0.0830  0.1497
 8289SOL    HW136326   1.065   3.337   5.460 -2.0296  2.1241 -0.7062
 8289SOL    HW236327   1.009   3.283   5.591 -0.1601  1.2467  0.1772
 8290SOL     OW36328   1.408   2.314   9.043  0.3617 -0.7990  0.7238
 8290SOL    HW136329   1.444   2.225   9.046 -1.3017 -1.4895  0.3666
 8290SOL    HW236330   1.318   2.302   9.073  0.0301 -1.6675 -0.6215
 8291SOL     OW36331   1.801   3.447   4.633  0.4334 -0.6380 -0.3320
 8291SOL    HW136332   1.795   3.457   4.538 -1.1332 -0.2429 -0.1819
 8291SOL    HW236333   1.710   3.435   4.660  0.7873  1.8031  1.9136
 8292SOL     OW36334   3.443   3.062  11.941  0.3632 -0.3926 -0.1998
 8292SOL    HW136335   3.446   2.967  11.946  0.5070 -0.4428 -1.1820
 8292SOL    HW236336   3.348   3.076  11.947  0.4174 -1.2012  2.6142
 8293SOL     OW36337   0.010   3.465   6.487 -0.2374 -0.0929  0.6048
 8293SOL    HW136338   4.695   3.514   6.415 -1.2768 -1.9831 -0.1020
 8293SOL    HW236339   0.032   3.536   6.549 -1.7611  0.3441  0.6562
 8294SOL     OW36340   2.954   4.470   8.357 -0.1150 -0.0190  0.5576
 8294SOL    HW136341   2.869   4.453   8.397  0.0381  1.5581  1.5495
 8294SOL    HW236342   2.945   4.561   8.328  0.4270  0.3112  1.4192
 8295SOL     OW36343   2.222   0.970  14.613  0.1609 -0.0994  0.0167
 8295SOL    HW136344   2.289   1.036  14.630 -0.3933  0.6150 -0.5596
 8295SOL    HW236345   2.156   1.020  14.566 -2.3932 -1.5198  2.0510
 8296SOL     OW36346   0.815   1.200   2.868 -0.0714  0.6165  0.6031
 8296SOL    HW136347   0.777   1.123   2.826 -0.4091 -0.3228  2.6300
 8296SOL    HW236348   0.793   1.195   2.961 -1.1829  1.4052  0.3705
 8297SOL     OW36349   2.934   3.646   6.071 -0.1069 -0.4789 -0.0246
 8297SOL    HW136350   2.855   3.632   6.019 -0.2493 -0.0755  0.0793
 8297SOL    HW236351   3.009   3.660   6.014 -0.5387 -0.9289 -0.7076
 8298SOL     OW36352   4.599   1.826   3.230  0.0510 -0.1642  0.4570
 8298SOL    HW136353   4.679   1.797   3.274 -0.2971  0.9418  1.8044
 8298SOL    HW236354   4.528   1.780   3.276 -0.7861  1.4120  0.7219
 8299SOL     OW36355   2.863   1.914   9.718  0.4400 -0.1385 -0.1606
 8299SOL    HW136356   2.793   1.901   9.654 -0.0058  0.6391  0.1596
 8299SOL    HW236357   2.823   1.942   9.801  0.6654  1.5069 -0.6197
 8300SOL     OW36358   1.127   0.549   3.842 -0.1301  0.2134  0.4880
 8300SOL    HW136359   1.212   0.509   3.827 -0.2902  0.4842 -1.2164
 8300SOL    HW236360   1.151   0.617   3.905 -3.7879  0.5585  1.5325
 8301SOL     OW36361   0.422   4.246   5.615 -0.4403 -0.1114  0.2915
 8301SOL    HW136362   0.349   4.186   5.605  0.9939 -1.3300 -3.1986
 8301SOL    HW236363   0.425   4.285   5.527 -1.4384  0.7107  0.6336
 8302SOL     OW36364   1.523   0.163   0.595  0.2849 -0.1774 -0.6603
 8302SOL    HW136365   1.473   0.144   0.674 -1.1749  1.0234 -1.2854
 8302SOL    HW236366   1.540   0.076   0.560  0.9006 -0.1236 -0.4830
 8303SOL     OW36367   1.569   2.392  14.869  0.8388 -0.5226 -0.0004
 8303SOL    HW136368   1.598   2.306  14.840 -0.9700 -0.5265 -1.7927
 8303SOL    HW236369   1.633   2.394  14.940 -0.7559  3.1222  1.3330
 8304SOL     OW36370   2.102   0.736  17.285  0.2881 -0.0777 -0.4090
 8304SOL    HW136371   2.145   0.675  17.225  1.6185  0.2992  0.1573
 8304SOL    HW236372   2.035   0.766  17.224 -1.0624 -2.6131 -0.1760
 8305SOL     OW36373   0.187   0.757   7.541 -0.3666 -0.2709 -0.5924
 8305SOL    HW136374   0.134   0.677   7.551 -0.8861  0.1611  0.1763
 8305SOL    HW236375   0.278   0.729   7.538 -0.4841 -1.0854  3.1965
 8306SOL     OW36376   1.880   2.353   7.877  0.2988 -0.1356 -0.3143
 8306SOL    HW136377   1.825   2.407   7.933 -0.7849 -1.4426 -0.1022
 8306SOL    HW236378   1.965   2.396   7.871  0.0119  0.3579 -0.9433
 8307SOL     OW36379   1.231   2.267  13.787 -0.3020  0.0916 -0.7055
 8307SOL    HW136380   1.141   2.277  13.755  0.0689 -0.6650 -2.0056
 8307SOL    HW236381   1.218   2.233  13.875  1.5003  2.2734  0.3888
 8308SOL     OW36382   3.655   0.660   7.724  0.0766  0.6373 -0.2273
 8308SOL    HW136383   3.656   0.674   7.629  1.6556  1.7691 -0.0419
 8308SOL    HW236384   3.739   0.697   7.751 -0.6017  1.6378  0.5109
 8309SOL     OW36385   2.476   3.078   2.182 -0.9023  0.6762  0.7929
 8309SOL    HW136386   2.550   3.125   2.221  0.1990 -0.0692 -0.4061
 8309SOL    HW236387   2.501   2.987   2.193  0.5972  0.9932  0.1378
 8310SOL     OW36388   0.468   2.314  11.238 -0.2213 -0.1352  0.2765
 8310SOL    HW136389   0.397   2.376  11.225  0.6464  1.3728  2.7642
 8310SOL    HW236390   0.538   2.364  11.281  1.8950 -1.0604 -2.0730
 8311SOL     OW36391   3.693   0.869   9.077  0.4739  0.1000  0.2858
 8311SOL    HW136392   3.621   0.918   9.036  0.4287 -0.3504 -0.1696
 8311SOL    HW236393   3.770   0.920   9.052  0.0146  0.8181  0.3044
 8312SOL     OW36394   3.168   1.509   5.675 -0.2862 -0.1218 -0.3633
 8312SOL    HW136395   3.243   1.456   5.700  0.2010  0.9622  0.4524
 8312SOL    HW236396   3.119   1.451   5.616 -2.7684 -1.2523  2.8040
 8313SOL     OW36397   2.916   3.484   2.803  0.2175  0.1514 -0.1353
 8313SOL    HW136398   2.959   3.438   2.875 -0.5739  0.2649  0.4101
 8313SOL    HW236399   2.996   3.501   2.754 -0.1472 -0.1133 -0.8314
 8314SOL     OW36400   2.359   2.082   5.740 -0.3808 -0.4103  0.3099
 8314SOL    HW136401   2.379   2.103   5.831  0.3314  0.1903  0.0091
 8314SOL    HW236402   2.430   2.019   5.727  0.0598  0.0144  0.6426
 8315SOL     OW36403   1.128   1.015   5.372 -0.7417  0.1356  0.7590
 8315SOL    HW136404   1.222   1.016   5.354 -0.8281 -1.4815  0.1396
 8315SOL    HW236405   1.103   0.934   5.327 -1.6277  0.5271  0.5423
 8316SOL     OW36406   3.716   3.899   7.716 -0.0386  0.0549  0.4580
 8316SOL    HW136407   3.759   3.822   7.677  0.8372  0.3735  0.7824
 8316SOL    HW236408   3.642   3.850   7.752  1.8562 -2.4481  0.9985
 8317SOL     OW36409   2.001   0.734   3.075 -0.3817  0.8052 -0.4141
 8317SOL    HW136410   1.989   0.750   3.168 -0.2308  0.1621 -0.2881
 8317SOL    HW236411   1.954   0.652   3.061  1.3199 -0.1841 -0.3939
 8318SOL     OW36412   3.492   1.243   4.945  0.2598  0.0990 -0.0426
 8318SOL    HW136413   3.447   1.191   4.878 -0.9495 -1.0310  1.6518
 8318SOL    HW236414   3.556   1.286   4.889 -0.0819  3.6147  2.2741
 8319SOL     OW36415   3.105   2.120   3.476 -0.0267  0.3012  0.5750
 8319SOL    HW136416   3.183   2.161   3.440 -0.2718  0.8123  0.6230
 8319SOL    HW236417   3.140   2.071   3.551 -2.0509 -1.4005  0.4013
 8320SOL     OW36418   2.813   3.801   7.451 -0.0907  0.5490  0.0947
 8320SOL    HW136419   2.901   3.804   7.489 -0.1152  1.1436  0.1003
 8320SOL    HW236420   2.828   3.845   7.368 -0.9879 -0.3512 -0.5535
 8321SOL     OW36421   4.332   3.707   9.980  0.1872  0.2993  0.3740
 8321SOL    HW136422   4.379   3.659   9.911  1.4447  0.6467  0.9969
 8321SOL    HW236423   4.352   3.797   9.953  2.7312 -0.6173 -0.8639
 8322SOL     OW36424   3.299   3.181  10.769 -0.1637 -0.0698  0.5330
 8322SOL    HW136425   3.357   3.205  10.696 -0.1846 -0.2772  0.4500
 8322SOL    HW236426   3.348   3.224  10.840  0.2849 -0.5747  0.5293
 8323SOL     OW36427   3.447   3.433   6.810  0.4562  0.8874 -0.1815
 8323SOL    HW136428   3.401   3.381   6.875  1.1096  1.0190  0.3804
 8323SOL    HW236429   3.459   3.519   6.849 -2.1864  0.9521  0.5278
 8324SOL     OW36430   0.995   1.884   4.861 -0.4391  0.2549 -0.1681
 8324SOL    HW136431   0.970   1.877   4.769 -1.5237 -1.3296  0.2502
 8324SOL    HW236432   1.040   1.800   4.870 -1.1234 -0.1873 -0.8615
 8325SOL     OW36433   3.967   0.592   4.568 -0.0910 -0.0620 -0.4477
 8325SOL    HW136434   4.008   0.526   4.625 -0.5467 -1.2851 -1.5367
 8325SOL    HW236435   4.028   0.593   4.494 -2.8893  0.3352 -2.7559
 8326SOL     OW36436   1.532   4.133   1.676  0.4073 -0.1631 -0.4363
 8326SOL    HW136437   1.536   4.149   1.582 -1.9063 -1.9273 -0.8311
 8326SOL    HW236438   1.545   4.039   1.689  0.4105  0.1826  2.1311
 8327SOL     OW36439   0.639   1.438  13.378 -0.5882  0.1736  0.2934
 8327SOL    HW136440   0.637   1.420  13.472  1.1035 -1.9406 -0.0724
 8327SOL    HW236441   0.551   1.442  13.342  0.2312  1.7414 -1.5500
 8328SOL     OW36442   3.980   4.117   3.473  0.1649 -0.2798 -0.5708
 8328SOL    HW136443   3.931   4.198   3.466  1.8117  0.7744  0.0710
 8328SOL    HW236444   3.981   4.080   3.385  1.8374 -2.7841  0.4920
 8329SOL     OW36445   2.062   0.778  16.576 -0.7948  0.1962  0.1454
 8329SOL    HW136446   2.002   0.727  16.630  0.7579  0.6309  2.2865
 8329SOL    HW236447   2.108   0.704  16.537 -0.5799 -0.1798  1.1006
 8330SOL     OW36448   2.300   3.140   4.497  0.2925 -0.0316 -0.0718
 8330SOL    HW136449   2.315   3.132   4.403  2.2742  1.0937  0.1584
 8330SOL    HW236450   2.308   3.235   4.498 -0.8544  0.0718 -1.1777
 8331SOL     OW36451   2.020   4.208   5.427  0.2053 -0.1990  0.3855
 8331SOL    HW136452   2.095   4.149   5.418 -1.7226 -2.4914 -0.5064
 8331SOL    HW236453   2.020   4.275   5.358 -2.1688 -0.6316 -0.0121
 8332SOL     OW36454   1.622   0.369  14.403 -0.3207 -0.1720 -0.2155
 8332SOL    HW136455   1.701   0.403  14.444 -0.2775 -1.2720  0.5828
 8332SOL    HW236456   1.576   0.340  14.481  0.1334  0.4782  0.2962
 8333SOL     OW36457   1.279   3.541   3.303  0.3016 -0.1061  0.3069
 8333SOL    HW136458   1.367   3.575   3.318 -0.0741  1.4102 -0.9793
 8333SOL    HW236459   1.279   3.546   3.208 -1.3188  1.7773  0.3888
 8334SOL     OW36460   2.037   0.134   2.545 -0.0770  0.1835 -0.0351
 8334SOL    HW136461   2.057   0.228   2.537  0.5632  0.1119  0.7839
 8334SOL    HW236462   2.123   0.099   2.523  0.4603 -0.7087  3.5426
 8335SOL     OW36463   3.117   2.150  13.694  0.9590  0.3092  0.1677
 8335SOL    HW136464   3.022   2.142  13.685  1.1416 -0.5064 -1.0502
 8335SOL    HW236465   3.134   2.210  13.621 -0.6258 -1.0993 -1.3465
 8336SOL     OW36466   2.448   1.140  16.435 -0.2016 -0.3677  0.4703
 8336SOL    HW136467   2.366   1.091  16.431  1.0393 -2.2998 -1.5169
 8336SOL    HW236468   2.495   1.124  16.354 -0.2084 -1.3375  0.6518
 8337SOL     OW36469   3.615   1.203   5.733  0.3092  0.3697  0.0021
 8337SOL    HW136470   3.590   1.134   5.671  0.8453  1.2800 -1.2274
 8337SOL    HW236471   3.568   1.175   5.812  0.7930 -0.1593  0.1100
 8338SOL     OW36472   0.692   3.205   8.496 -0.0357  0.3052  0.2032
 8338SOL    HW136473   0.614   3.252   8.466  0.2751 -1.4301 -3.2957
 8338SOL    HW236474   0.725   3.278   8.548  1.1174 -1.0940  1.4222
 8339SOL     OW36475   2.383   4.185  11.108 -0.6551 -0.1404  0.1611
 8339SOL    HW136476   2.439   4.131  11.165 -0.3447  1.4162  1.3322
 8339SOL    HW236477   2.361   4.256  11.169 -1.5372 -1.2040  1.0815
 8340SOL     OW36478   3.685   4.706  11.830  0.0583 -0.0516  0.1839
 8340SOL    HW136479   3.598   4.712  11.869  0.7389 -0.4273  1.7749
 8340SOL    HW236480   3.692   0.069  11.792  0.6857 -0.5046 -0.7450
 8341SOL     OW36481   2.924   3.409   3.197 -0.3093 -0.3208 -0.3593
 8341SOL    HW136482   2.964   3.410   3.110  0.0427  1.1959 -0.1844
 8341SOL    HW236483   2.835   3.435   3.173  0.4179  2.5076 -0.0912
 8342SOL     OW36484   0.329   0.424   8.809  0.3694  0.0432  0.2653
 8342SOL    HW136485   0.316   0.514   8.838  0.8611 -0.0136  0.6474
 8342SOL    HW236486   0.415   0.429   8.768 -0.5233  1.7317 -1.3834
 8343SOL     OW36487   0.445   1.674   3.375  0.3426  0.4506 -0.0549
 8343SOL    HW136488   0.413   1.644   3.460  0.3814 -3.9253 -1.5843
 8343SOL    HW236489   0.418   1.598   3.324 -1.3760  0.9171  0.1693
 8344SOL     OW36490   1.779   1.109   4.224  0.0266 -0.4983  0.1407
 8344SOL    HW136491   1.845   1.164   4.182  0.0850 -1.5623 -1.1282
 8344SOL    HW236492   1.827   1.080   4.302  1.2304  3.0090  0.7063
 8345SOL     OW36493   4.597   4.031   3.463  0.4235  0.2326  0.0987
 8345SOL    HW136494   4.685   4.017   3.500  0.3994 -0.0356  0.0539
 8345SOL    HW236495   4.587   4.115   3.508 -1.2326 -1.0268  2.0839
 8346SOL     OW36496   1.829   3.581  12.076  0.2821  0.4599  0.8220
 8346SOL    HW136497   1.872   3.512  12.126 -2.5860 -1.7851  0.1559
 8346SOL    HW236498   1.908   3.624  12.043  0.3538  0.7624  1.3827
 8347SOL     OW36499   2.023   4.169   7.407  0.5681  0.1825 -0.0368
 8347SOL    HW136500   2.030   4.172   7.503  0.9028 -1.5859 -0.0077
 8347SOL    HW236501   1.932   4.146   7.390  0.5309 -2.0009  3.1510
 8348SOL     OW36502   2.597   0.417   5.681 -0.8666 -0.4267  0.5728
 8348SOL    HW136503   2.523   0.477   5.687 -1.2364 -0.9848  1.4561
 8348SOL    HW236504   2.641   0.413   5.765  2.8216  0.5721 -1.2920
 8349SOL     OW36505   4.257   1.844   3.928 -0.5884 -0.1280 -0.2180
 8349SOL    HW136506   4.226   1.863   4.016  0.3836 -1.5240  0.4210
 8349SOL    HW236507   4.243   1.749   3.933  0.9790 -0.4675 -2.5323
 8350SOL     OW36508   0.876   2.237   2.286  0.2834 -0.3732 -0.3857
 8350SOL    HW136509   0.827   2.178   2.229 -1.7915 -0.2542  1.2708
 8350SOL    HW236510   0.955   2.185   2.301  1.0886  0.8079 -0.5302
 8351SOL     OW36511   0.234   0.044  13.105  0.1603  0.5790 -0.3776
 8351SOL    HW136512   0.160   0.089  13.146 -0.3341 -0.1211 -0.4830
 8351SOL    HW236513   0.248   0.083  13.019  0.2650  0.1248 -0.5706
 8352SOL     OW36514   1.452   3.432   0.547  0.0454 -0.1473 -0.4619
 8352SOL    HW136515   1.418   3.478   0.624 -0.7261  0.3595 -1.0988
 8352SOL    HW236516   1.538   3.405   0.579  0.4919 -1.2267 -2.6317
 8353SOL     OW36517   2.982   4.680   0.235  0.1112 -0.3711 -0.0153
 8353SOL    HW136518   3.004   4.587   0.243  1.3807  0.0812  1.8105
 8353SOL    HW236519   2.959   4.695   0.327  1.5709 -1.4224  0.5316
 8354SOL     OW36520   3.027   0.053   5.619 -0.1151  0.0931 -0.0887
 8354SOL    HW136521   2.965   0.087   5.554 -0.1387  1.3831  0.6141
 8354SOL    HW236522   3.109   0.078   5.576  0.1485  0.6877  0.7598
 8355SOL     OW36523   4.646   1.816   7.533  0.6614  1.1237  0.3479
 8355SOL    HW136524   4.704   1.885   7.504 -0.3192  2.9241  2.7093
 8355SOL    HW236525   4.611   1.782   7.451  0.6308  1.9652  0.0146
 8356SOL     OW36526   2.807   3.101   5.008 -0.3796  0.3579  0.2488
 8356SOL    HW136527   2.859   3.031   5.048  0.5712  1.2195  0.5000
 8356SOL    HW236528   2.731   3.110   5.065 -0.6389 -0.2328 -0.0017
 8357SOL     OW36529   1.069   3.834   8.564 -0.0074 -0.2367 -0.4590
 8357SOL    HW136530   1.121   3.907   8.599  1.7456 -0.9665 -1.5811
 8357SOL    HW236531   1.091   3.851   8.472 -0.2478  0.5424 -0.3736
 8358SOL     OW36532   2.095   4.573   1.845 -0.1334  0.3630 -0.1497
 8358SOL    HW136533   2.133   4.491   1.812  1.2743  0.9199  0.0797
 8358SOL    HW236534   2.130   4.638   1.785 -0.8095  0.2961 -0.6122
 8359SOL     OW36535   1.281   0.707   8.897 -0.2996  0.5528  0.1502
 8359SOL    HW136536   1.266   0.663   8.813  1.2058 -0.1728  0.2677
 8359SOL    HW236537   1.374   0.684   8.899 -0.4826 -0.3208 -0.9863
 8360SOL     OW36538   0.612   1.658   4.792  0.1156 -0.3390 -0.5467
 8360SOL    HW136539   0.694   1.672   4.745  0.2238  2.7991  0.5782
 8360SOL    HW236540   0.633   1.577   4.839 -1.3605 -1.0583 -1.0989
 8361SOL     OW36541   1.373   2.961  16.209 -0.3134 -0.0526  0.0399
 8361SOL    HW136542   1.402   2.932  16.122  0.0501  0.7265 -0.0914
 8361SOL    HW236543   1.282   2.985  16.189 -0.3089 -1.8656 -2.2201
 8362SOL     OW36544   3.051   2.659   6.531  0.2450 -0.1424 -0.0986
 8362SOL    HW136545   3.060   2.701   6.617 -1.0937  2.2866 -1.1388
 8362SOL    HW236546   3.071   2.566   6.546  0.8757  0.6067  3.8832
 8363SOL     OW36547   1.808   2.801  12.910 -0.4145 -0.3733 -0.4725
 8363SOL    HW136548   1.903   2.806  12.918 -0.5447  0.0631  0.8315
 8363SOL    HW236549   1.812   2.713  12.871 -1.0224  0.0481 -1.4975
 8364SOL     OW36550   3.381   2.301  12.045  0.1519  0.1484 -0.1250
 8364SOL    HW136551   3.395   2.219  12.091  1.0158  0.5179  0.2691
 8364SOL    HW236552   3.329   2.275  11.969 -1.0371  3.6551 -0.5079
 8365SOL     OW36553   2.098   4.215   6.823  0.3960 -0.0360  0.1700
 8365SOL    HW136554   2.008   4.224   6.852  0.1090 -0.6672 -0.5373
 8365SOL    HW236555   2.098   4.281   6.753  1.4312  0.1572  0.3506
 8366SOL     OW36556   3.997   1.444   0.835 -0.6800  0.2946  0.1015
 8366SOL    HW136557   3.947   1.446   0.754 -2.6612 -1.9282  1.2677
 8366SOL    HW236558   4.009   1.539   0.841  2.3630 -0.1569  1.1280
 8367SOL     OW36559   0.530   0.219   1.342  0.3262  0.1679  0.1809
 8367SOL    HW136560   0.462   0.282   1.367 -0.7896 -1.4779  1.2969
 8367SOL    HW236561   0.550   0.250   1.253  0.9209  1.0681  0.6335
 8368SOL     OW36562   0.072   4.041  15.179  0.1887  0.1893  0.4271
 8368SOL    HW136563   0.007   4.084  15.234 -0.8834 -1.1389  0.2085
 8368SOL    HW236564   0.118   4.120  15.152  0.7522 -0.6088 -0.9557
 8369SOL     OW36565   4.101   2.089   9.169 -0.7319  0.0660 -0.2942
 8369SOL    HW136566   4.008   2.112   9.164 -0.9142 -0.7044 -0.3620
 8369SOL    HW236567   4.088   1.998   9.142  0.6790 -0.5022  0.9541
 8370SOL     OW36568   2.045   2.752   1.978  0.1983  0.4602  0.4264
 8370SOL    HW136569   2.023   2.749   1.885  1.0201 -1.4931  0.3143
 8370SOL    HW236570   2.007   2.669   2.006  1.9870  0.4732  2.8550
 8371SOL     OW36571   4.445   3.433   8.567  0.2833  0.2646 -0.2382
 8371SOL    HW136572   4.463   3.512   8.516  1.7264 -0.4012 -0.7599
 8371SOL    HW236573   4.371   3.465   8.619  0.1527  1.3625 -1.1105
 8372SOL     OW36574   1.643   3.814   6.842  0.3013  0.5016 -0.3360
 8372SOL    HW136575   1.590   3.761   6.783  1.0278 -0.0414 -0.4923
 8372SOL    HW236576   1.717   3.820   6.783 -1.4457 -2.5600 -2.8343
 8373SOL     OW36577   2.662   1.614   3.643  0.7744 -0.0758  0.0426
 8373SOL    HW136578   2.575   1.600   3.606 -0.2629  1.7344  1.7711
 8373SOL    HW236579   2.656   1.708   3.663  2.0838 -0.2478  1.2877
 8374SOL     OW36580   2.860   0.506   2.277  0.5507  0.6112 -0.0248
 8374SOL    HW136581   2.867   0.570   2.206 -0.0682 -1.1825 -1.6922
 8374SOL    HW236582   2.893   0.431   2.228  0.7086  1.5837 -1.4079
 8375SOL     OW36583   0.250   4.101  13.649 -0.5490  0.8791 -0.0935
 8375SOL    HW136584   0.235   4.138  13.562  0.4624 -0.5038 -0.8555
 8375SOL    HW236585   0.160   4.123  13.674 -0.7533 -1.6025  1.3375
 8376SOL     OW36586   4.240   2.437   7.699 -0.0592 -0.0069  0.6058
 8376SOL    HW136587   4.153   2.425   7.737 -0.7054 -1.1761 -1.2294
 8376SOL    HW236588   4.231   2.378   7.623  0.3040  2.3238 -1.2309
 8377SOL     OW36589   0.977   4.025   3.004  0.0550  0.3299 -0.0861
 8377SOL    HW136590   0.959   4.099   2.947  1.6973 -0.3443 -1.4554
 8377SOL    HW236591   0.993   3.956   2.941 -0.8918 -2.4542  2.6993
 8378SOL     OW36592   0.994   0.630   2.799 -0.4600 -0.0108 -0.2664
 8378SOL    HW136593   0.998   0.707   2.856  0.2731 -0.1479 -0.1252
 8378SOL    HW236594   1.079   0.587   2.810 -0.0288  0.9408  0.1310
 8379SOL     OW36595   0.600   3.803   2.548  0.2283 -0.2235  0.0144
 8379SOL    HW136596   0.605   3.737   2.478 -1.7025  1.1828 -1.4659
 8379SOL    HW236597   0.522   3.857   2.533 -0.0205 -0.1717  1.5227
 8380SOL     OW36598   0.806   3.122   5.163  0.2370  0.0547 -0.7464
 8380SOL    HW136599   0.837   3.196   5.215 -1.1226 -1.0285  1.6356
 8380SOL    HW236600   0.720   3.146   5.131  0.4801 -0.6165 -1.8934
 8381SOL     OW36601   2.535   3.046  10.287 -0.4803  0.0981 -0.1367
 8381SOL    HW136602   2.510   3.100  10.362 -2.2177  0.1294 -0.7577
 8381SOL    HW236603   2.547   3.108  10.215 -0.5660  0.0717 -0.1734
 8382SOL     OW36604   3.382   0.882   5.010  0.1188  0.0092 -0.1690
 8382SOL    HW136605   3.468   0.919   4.991 -0.8340  1.4806 -1.5758
 8382SOL    HW236606   3.350   0.852   4.925 -0.7526  1.1577 -0.2363
 8383SOL     OW36607   4.603   3.477   4.898  0.2492  0.3456 -0.1514
 8383SOL    HW136608   4.624   3.569   4.887  0.4600  0.1505 -1.2986
 8383SOL    HW236609   4.589   3.449   4.808  0.6554 -0.5242  0.0580
 8384SOL     OW36610   1.446   4.377   7.365  0.1217 -0.3137  0.1363
 8384SOL    HW136611   1.381   4.407   7.302 -0.1566  0.4882  0.8071
 8384SOL    HW236612   1.485   4.307   7.312 -1.4502 -0.1143 -1.3028
 8385SOL     OW36613   0.636   0.226   2.487  0.2546 -0.1016 -0.8253
 8385SOL    HW136614   0.703   0.291   2.465  1.9168 -1.8047 -0.8500
 8385SOL    HW236615   0.674   0.179   2.562 -2.5344 -2.1592 -0.7090
 8386SOL     OW36616   0.456   2.044   4.408  0.2237  0.3893  0.3193
 8386SOL    HW136617   0.545   2.041   4.441  0.1241  4.5433  0.9808
 8386SOL    HW236618   0.448   1.969   4.349 -0.7928  0.3962  0.4446
 8387SOL     OW36619   1.999   4.294   0.800 -0.3500  0.5370  0.3937
 8387SOL    HW136620   1.994   4.297   0.705  0.7266  2.1694  0.3889
 8387SOL    HW236621   2.051   4.372   0.822  0.3881  0.0031  0.5656
 8388SOL     OW36622   2.320   2.432   3.122  0.3663  0.5730 -0.0444
 8388SOL    HW136623   2.416   2.442   3.128  0.6300 -1.1393 -1.5169
 8388SOL    HW236624   2.287   2.521   3.116 -1.2802 -0.0203  0.1909
 8389SOL     OW36625   3.472   3.195   5.911 -0.4603 -0.3043  0.1514
 8389SOL    HW136626   3.535   3.181   5.982 -0.7774  0.7922  0.6359
 8389SOL    HW236627   3.530   3.152   5.848  1.1184  1.5480  0.3365
 8390SOL     OW36628   4.453   0.937   6.812  0.4083  0.8755 -0.4239
 8390SOL    HW136629   4.447   1.026   6.776 -0.3741  0.0361 -2.3427
 8390SOL    HW236630   4.488   0.887   6.739  0.2144 -1.5400  1.1233
 8391SOL     OW36631   3.643   1.047   6.354 -0.2297 -0.0093  0.4770
 8391SOL    HW136632   3.548   1.057   6.362 -0.3554 -2.2346  2.0095
 8391SOL    HW236633   3.672   1.046   6.446 -0.5316 -0.6415  0.5631
 8392SOL     OW36634   4.442   3.789   5.864 -0.1107  0.4054 -0.6047
 8392SOL    HW136635   4.379   3.791   5.936  0.5313 -0.2985 -0.0245
 8392SOL    HW236636   4.505   3.859   5.883 -0.2268  1.0090 -2.3811
 8393SOL     OW36637   0.183   1.147   3.723  0.4724  0.3520 -0.1983
 8393SOL    HW136638   0.180   1.202   3.645  0.2402 -1.0222 -1.1574
 8393SOL    HW236639   0.110   1.192   3.765  1.2509 -0.8744  2.4743
 8394SOL     OW36640   1.797   0.364   8.115 -0.5605 -0.1874  0.4127
 8394SOL    HW136641   1.796   0.300   8.186 -0.3210  0.0668  0.6443
 8394SOL    HW236642   1.711   0.347   8.076 -0.0199 -0.2666 -0.7339
 8395SOL     OW36643   1.847   2.108  15.637 -0.1197 -0.6244 -0.0742
 8395SOL    HW136644   1.800   2.024  15.643 -1.1718 -0.1097 -1.1142
 8395SOL    HW236645   1.887   2.109  15.724 -2.0683 -0.2128  0.8119
 8396SOL     OW36646   3.073   0.373   4.747 -0.6732  0.3451  0.4910
 8396SOL    HW136647   3.001   0.396   4.806 -2.2876 -1.0957 -0.8939
 8396SOL    HW236648   3.147   0.366   4.806 -0.0453  1.0315 -0.2255
 8397SOL     OW36649   0.801   3.208  16.426  0.0059  0.2214  0.0460
 8397SOL    HW136650   0.806   3.150  16.350  2.2009 -1.3923  1.4079
 8397SOL    HW236651   0.891   3.240  16.424 -0.2525  1.0880  1.6739
 8398SOL     OW36652   2.903   0.275  15.032  0.0347  0.8561  0.1172
 8398SOL    HW136653   2.858   0.255  14.950 -1.1609  0.0898  0.9682
 8398SOL    HW236654   2.983   0.228  15.010 -0.4321 -0.1091  0.4661
 8399SOL     OW36655   1.089   0.342   7.036 -0.1803 -0.1050 -0.3278
 8399SOL    HW136656   1.039   0.282   6.980  1.4731 -3.0104  1.3026
 8399SOL    HW236657   1.031   0.418   7.036 -2.4807 -1.8719  2.0457
 8400SOL     OW36658   1.759   1.168  11.738 -0.1239  0.3834 -0.2278
 8400SOL    HW136659   1.718   1.158  11.652 -0.8086  1.4705 -0.0198
 8400SOL    HW236660   1.681   1.176  11.792 -1.3560  0.5205 -2.0448
 8401SOL     OW36661   1.013   0.972   7.301 -0.5847  0.5896 -0.6773
 8401SOL    HW136662   1.030   0.954   7.393  0.6753 -1.7942 -1.3844
 8401SOL    HW236663   1.021   1.068   7.299  0.5559  0.5668  2.3825
 8402SOL     OW36664   2.190   0.910   2.117 -0.6013  0.4267  0.9190
 8402SOL    HW136665   2.240   0.869   2.046  0.7676  2.6676  0.5955
 8402SOL    HW236666   2.105   0.877   2.089 -0.3935  0.3529  0.3848
 8403SOL     OW36667   3.515   4.247   9.007 -0.4033 -0.0695 -1.2704
 8403SOL    HW136668   3.535   4.264   8.915  1.2735  1.6188 -0.6025
 8403SOL    HW236669   3.437   4.302   9.017 -0.5304 -0.2920 -1.0488
 8404SOL     OW36670   4.489   3.352   4.624  0.2479 -0.1577  0.2929
 8404SOL    HW136671   4.533   3.279   4.667 -0.0536  1.4284  3.3230
 8404SOL    HW236672   4.401   3.317   4.609 -0.3052  0.1538  2.9190
 8405SOL     OW36673   2.438   0.130   0.750  0.0988  1.0330 -0.3210
 8405SOL    HW136674   2.388   0.063   0.704 -0.6353  0.0011  2.0071
 8405SOL    HW236675   2.413   0.213   0.709 -0.1273  0.6824 -0.8917
 8406SOL     OW36676   3.010   3.543   5.254  0.1751 -0.3518 -0.0254
 8406SOL    HW136677   3.032   3.509   5.341  2.2056  1.0163  0.0038
 8406SOL    HW236678   3.018   3.464   5.201 -0.6372 -0.1475 -0.4453
 8407SOL     OW36679   3.400   0.136   8.601 -0.3254  0.0828  0.2701
 8407SOL    HW136680   3.375   0.098   8.516  0.5930 -2.4362  1.1044
 8407SOL    HW236681   3.472   0.078   8.626  1.3994  2.5842  1.1130
 8408SOL     OW36682   2.556   1.290   9.833 -0.5608 -0.1200  0.1994
 8408SOL    HW136683   2.639   1.265   9.791 -0.1736 -0.1122  0.9609
 8408SOL    HW236684   2.595   1.350   9.897  2.8108 -0.4987 -1.4941
 8409SOL     OW36685   0.006   2.515   5.304  0.0747  0.1837 -0.0951
 8409SOL    HW136686   4.657   2.533   5.363 -0.8581  1.0601 -1.5377
 8409SOL    HW236687   4.705   2.428   5.273 -2.0269 -0.1224  2.5006
 8410SOL     OW36688   1.424   0.026   0.830  0.1364  0.1774  0.0715
 8410SOL    HW136689   1.342   4.709   0.805 -0.4033  0.8902  0.6764
 8410SOL    HW236690   1.463   4.691   0.894 -2.1350 -0.2086  1.0972
 8411SOL     OW36691   3.720   2.973   0.958  0.0418  0.0123 -0.5411
 8411SOL    HW136692   3.634   3.006   0.984  0.0441 -0.4943  0.0987
 8411SOL    HW236693   3.750   3.047   0.904 -0.8433  0.2851 -0.6620
 8412SOL     OW36694   0.997   0.573   2.413  0.0234  0.0415 -0.4883
 8412SOL    HW136695   0.921   0.592   2.359 -0.0825 -1.3921 -0.8544
 8412SOL    HW236696   1.057   0.636   2.374 -2.2763  2.3557 -0.2815
 8413SOL     OW36697   2.063   0.575   2.298  0.3137  0.1076 -0.2876
 8413SOL    HW136698   2.059   0.663   2.336 -2.4485  0.2779 -1.0036
 8413SOL    HW236699   2.113   0.593   2.219  0.5736 -1.7347 -0.5422
 8414SOL     OW36700   3.320   2.385  10.308  0.1044  0.3874 -0.3573
 8414SOL    HW136701   3.275   2.437  10.242 -0.1177  0.2772 -0.2951
 8414SOL    HW236702   3.355   2.310  10.259 -1.3982 -1.9447  2.0806
 8415SOL     OW36703   2.033   2.041   3.029  0.2368 -0.2612 -0.9633
 8415SOL    HW136704   2.035   2.122   2.979  0.2593  1.6787  2.2138
 8415SOL    HW236705   2.127   2.041   3.050 -0.1708 -0.6926  0.9037
 8416SOL     OW36706   1.508   2.793  14.160  0.0891  0.1433 -0.0992
 8416SOL    HW136707   1.584   2.746  14.125  1.2121  0.7272  1.5482
 8416SOL    HW236708   1.501   2.755  14.247  1.1365  0.5922  0.1830
 8417SOL     OW36709   1.171   0.216   9.325 -0.2399 -0.2331  0.1458
 8417SOL    HW136710   1.076   0.213   9.308  0.0246  0.0107 -1.3669
 8417SOL    HW236711   1.181   0.300   9.370 -0.9620 -0.6339  1.0838
 8418SOL     OW36712   1.902   0.003   2.834  0.6899  0.4032 -0.2129
 8418SOL    HW136713   1.908   4.706   2.740 -0.5534 -1.2489  0.0855
 8418SOL    HW236714   1.842   4.663   2.873 -2.0130  3.1400  0.1342
 8419SOL     OW36715   0.961   2.170   4.453  0.3978 -0.3732  0.3530
 8419SOL    HW136716   1.029   2.142   4.392  1.8932 -0.0308  1.8487
 8419SOL    HW236717   1.006   2.179   4.538 -1.2078 -1.2862  1.2973
 8420SOL     OW36718   0.049   1.716   8.114 -0.0981  0.1472  0.2915
 8420SOL    HW136719   0.033   1.727   8.020 -0.8211 -3.1857  0.0411
 8420SOL    HW236720   4.723   1.636   8.128 -1.2712  0.5813 -1.3609
 8421SOL     OW36721   3.692   1.319   2.901  0.1698  0.0859  0.0122
 8421SOL    HW136722   3.769   1.297   2.953  0.3184 -3.1981 -1.6239
 8421SOL    HW236723   3.730   1.395   2.857  0.1209 -0.0996 -0.3450
 8422SOL     OW36724   3.726   0.642   9.222 -0.8104  0.0709  0.2947
 8422SOL    HW136725   3.718   0.711   9.156 -0.2268  0.8084  0.9914
 8422SOL    HW236726   3.810   0.656   9.267 -0.0666 -3.2278 -0.1213
 8423SOL     OW36727   0.065   2.655  14.997  0.3172  0.4638 -0.1741
 8423SOL    HW136728   4.704   2.618  15.022  0.6410 -2.3731 -3.2819
 8423SOL    HW236729   0.126   2.582  14.988  1.1719  1.2889 -1.0375
 8424SOL     OW36730   4.454   0.252   3.479 -0.7924  0.3975 -0.3125
 8424SOL    HW136731   4.461   0.183   3.546 -1.0769 -0.3530 -1.0574
 8424SOL    HW236732   4.447   0.207   3.395  1.8016 -0.0293 -0.3246
 8425SOL     OW36733   2.994   2.136   6.362 -0.3533  0.2105 -0.2892
 8425SOL    HW136734   2.961   2.214   6.317  1.6412  0.5042 -1.2746
 8425SOL    HW236735   2.919   2.092   6.402 -0.1208  0.2702  0.2081
 8426SOL     OW36736   2.568   4.095   6.752  0.2068 -0.0097 -1.0664
 8426SOL    HW136737   2.510   4.121   6.681  1.2146  0.2917 -1.7814
 8426SOL    HW236738   2.637   4.035   6.724 -0.1890 -1.3821  0.8839
 8427SOL     OW36739   1.220   4.661   1.902 -0.2347  0.3894  0.5421
 8427SOL    HW136740   1.307   4.620   1.897  0.3148  2.0754 -3.0937
 8427SOL    HW236741   1.245   0.008   1.961 -0.2895  0.5095  0.4191
 8428SOL     OW36742   3.675   1.232  11.549 -0.1024  0.0156 -0.1173
 8428SOL    HW136743   3.712   1.216  11.636  1.6673  0.9344 -0.7170
 8428SOL    HW236744   3.738   1.193  11.488  0.8722  1.0887  0.2023
 8429SOL     OW36745   3.885   4.275  10.211 -0.2995 -0.4038 -0.2544
 8429SOL    HW136746   3.883   4.232  10.297  0.4560  0.7848  0.3465
 8429SOL    HW236747   3.803   4.254  10.165 -0.9208  0.0965  0.6123
 8430SOL     OW36748   2.738   0.547   2.504 -0.3098  0.2552  0.3160
 8430SOL    HW136749   2.731   0.643   2.504 -2.9546  0.0393 -0.2916
 8430SOL    HW236750   2.790   0.538   2.424 -2.2302  1.0617 -1.0202
 8431SOL     OW36751   1.834   0.030  10.359 -0.2211  0.0572 -0.2944
 8431SOL    HW136752   1.871   4.668  10.375  1.3165  0.5380 -1.2779
 8431SOL    HW236753   1.745   0.012  10.390  0.0247 -2.2892 -0.9760
 8432SOL     OW36754   2.094   0.902  14.828  0.1778  0.5836  0.4859
 8432SOL    HW136755   2.013   0.945  14.800  0.3124  0.3720 -0.2301
 8432SOL    HW236756   2.145   0.919  14.748  0.5692 -2.1703  0.1608
 8433SOL     OW36757   3.213   2.951   5.140 -0.2503 -0.2328  0.0042
 8433SOL    HW136758   3.118   2.955   5.139 -0.2383  0.0927  0.2430
 8433SOL    HW236759   3.223   2.888   5.211  0.0949 -2.3934 -1.9789
 8434SOL     OW36760   2.989   2.684   8.809 -0.0944  0.0202  0.9440
 8434SOL    HW136761   2.899   2.696   8.780  0.3197 -0.5125 -0.5705
 8434SOL    HW236762   3.001   2.595   8.776 -1.9326 -0.4510  1.5388
 8435SOL     OW36763   3.492   4.387  17.114 -0.4639  0.7360 -0.3947
 8435SOL    HW136764   3.411   4.398  17.063  0.1194  0.7289 -1.3171
 8435SOL    HW236765   3.513   4.301  17.076 -0.3250 -0.5980  2.6923
 8436SOL     OW36766   0.316   1.874   8.130 -0.0759  0.0327  0.0485
 8436SOL    HW136767   0.229   1.910   8.112 -0.8301 -0.6576  2.2472
 8436SOL    HW236768   0.368   1.954   8.135 -0.5404  0.3410 -0.0752
 8437SOL     OW36769   3.081   0.657   1.826  0.0037  0.5551  0.0000
 8437SOL    HW136770   3.044   0.741   1.800  1.1657  1.0720  0.0056
 8437SOL    HW236771   3.108   0.625   1.740 -0.7447  1.2922 -0.5048
 8438SOL     OW36772   1.614   0.827   4.298  0.7557 -0.0262 -0.2494
 8438SOL    HW136773   1.630   0.734   4.314  0.2650 -0.1452 -0.4423
 8438SOL    HW236774   1.521   0.849   4.298  0.7181 -0.2257  1.9085
 8439SOL     OW36775   0.725   3.630   6.915 -0.0148 -0.5200 -0.5934
 8439SOL    HW136776   0.703   3.543   6.881  0.2242 -1.6238  2.0871
 8439SOL    HW236777   0.716   3.673   6.830  2.4644 -1.8618 -1.5232
 8440SOL     OW36778   3.051   3.329   2.967 -0.5897  0.2230  0.6737
 8440SOL    HW136779   3.142   3.350   2.946 -0.3438 -2.0081 -0.4687
 8440SOL    HW236780   3.050   3.236   2.988 -1.5899  0.7095  2.8243
 8441SOL     OW36781   1.768   3.165  13.108  0.0490 -0.1285  0.1370
 8441SOL    HW136782   1.680   3.204  13.111  0.2539  0.2595  1.2422
 8441SOL    HW236783   1.791   3.204  13.024 -2.1621  0.9691  0.0420
 8442SOL     OW36784   0.079   4.567  12.172 -0.1144 -0.2398 -0.3399
 8442SOL    HW136785   0.043   4.495  12.223  0.0296 -0.9401 -1.2231
 8442SOL    HW236786   0.174   4.553  12.167 -0.2296 -0.3737 -2.2085
 8443SOL     OW36787   4.200   0.238   4.910 -0.3543  0.1730 -0.3222
 8443SOL    HW136788   4.225   0.166   4.968 -1.5044  0.3905  0.4428
 8443SOL    HW236789   4.276   0.295   4.923 -0.6381  0.6937 -0.9260
 8444SOL     OW36790   4.301   1.144  13.523 -0.5448  0.2362 -0.0047
 8444SOL    HW136791   4.256   1.112  13.445 -2.1111  0.2572  0.8794
 8444SOL    HW236792   4.310   1.060  13.569 -0.6781  1.3560  2.0564
 8445SOL     OW36793   3.228   2.461   3.159 -0.0785 -0.3645  0.0190
 8445SOL    HW136794   3.231   2.371   3.127  0.9107 -1.1510  2.3067
 8445SOL    HW236795   3.152   2.458   3.217 -1.1782  0.2832 -1.3867
 8446SOL     OW36796   2.517   1.337   5.564 -0.1909 -0.4405  0.2192
 8446SOL    HW136797   2.431   1.376   5.551  1.1554  2.2296 -0.7984
 8446SOL    HW236798   2.571   1.410   5.534 -2.6407  0.4943 -1.8495
 8447SOL     OW36799   0.116   2.006   7.476 -1.0425  1.1904  0.0323
 8447SOL    HW136800   0.072   2.091   7.485 -0.6303  1.4348 -0.2766
 8447SOL    HW236801   0.194   2.009   7.531  0.0222  0.7009 -1.4647
 8448SOL     OW36802   2.089   4.486  15.598  0.1151 -0.1824  0.2284
 8448SOL    HW136803   2.178   4.506  15.629  0.8215 -0.1570 -1.7535
 8448SOL    HW236804   2.037   4.506  15.675 -0.1433 -0.2160  0.0599
 8449SOL     OW36805   1.601   2.176  13.699 -0.6476  0.2378  0.2367
 8449SOL    HW136806   1.616   2.228  13.620 -0.4417  3.2108  2.1970
 8449SOL    HW236807   1.514   2.141  13.682 -0.2729 -1.3525  1.6188
 8450SOL     OW36808   3.515   3.227   8.254 -0.2152  0.2139  0.0875
 8450SOL    HW136809   3.424   3.202   8.241  0.1657 -0.5994 -1.0096
 8450SOL    HW236810   3.505   3.322   8.268  3.2247  0.9673 -2.4308
 8451SOL     OW36811   1.854   4.007   7.883  0.1798 -0.0768  0.5296
 8451SOL    HW136812   1.949   4.013   7.897  0.3802 -0.9396 -0.4597
 8451SOL    HW236813   1.818   4.052   7.959 -0.4742 -1.6213  1.1176
 8452SOL     OW36814   1.678   1.352  16.497 -0.6487 -0.0668  0.1068
 8452SOL    HW136815   1.607   1.414  16.514  1.2652  2.3354 -0.5125
 8452SOL    HW236816   1.738   1.420  16.465  0.5438  0.9137  4.4852
 8453SOL     OW36817   2.048   2.166   7.410 -0.0086  0.3467 -0.7104
 8453SOL    HW136818   2.073   2.129   7.495 -1.0142 -0.4705 -0.7649
 8453SOL    HW236819   1.953   2.162   7.407  0.0567  0.8586 -3.1861
 8454SOL     OW36820   1.077   2.100   2.975  0.9701  0.0825 -0.1648
 8454SOL    HW136821   1.039   2.180   3.010  2.0534  0.3584  0.3946
 8454SOL    HW236822   1.021   2.028   3.004  1.0653  0.1093  0.0846
 8455SOL     OW36823   4.622   3.741   4.924  0.4155  0.5280  0.1907
 8455SOL    HW136824   4.620   3.763   4.831  0.5518  3.5253  0.8983
 8455SOL    HW236825   4.715   3.760   4.938  0.4442  1.0246 -0.6803
 8456SOL     OW36826   2.187   2.610  12.014  0.3795  0.1074  0.2652
 8456SOL    HW136827   2.264   2.570  11.973 -1.8803 -1.7745 -2.1410
 8456SOL    HW236828   2.212   2.615  12.106  1.8733  0.3008 -0.1385
 8457SOL     OW36829   2.428   0.420   7.623 -0.1852 -0.0265 -0.4276
 8457SOL    HW136830   2.418   0.396   7.531  1.5790 -4.4556  0.5447
 8457SOL    HW236831   2.358   0.368   7.662 -2.0780  3.1693  0.4650
 8458SOL     OW36832   1.574   3.195   3.752  0.1398 -0.0208 -0.4862
 8458SOL    HW136833   1.490   3.150   3.752 -0.7162  1.5865  0.3560
 8458SOL    HW236834   1.578   3.214   3.845 -3.4051  1.3347 -0.6148
 8459SOL     OW36835   2.632   2.707  13.904 -0.3094  0.0184 -0.2626
 8459SOL    HW136836   2.626   2.735  13.996 -1.2719  1.7834 -0.8642
 8459SOL    HW236837   2.673   2.785  13.866  0.1409 -0.1875 -0.1904
 8460SOL     OW36838   0.885   2.199   9.723  0.2285 -0.2018  0.0467
 8460SOL    HW136839   0.793   2.176   9.734 -0.0775  0.9799  0.0199
 8460SOL    HW236840   0.871   2.269   9.658 -1.1619  0.1737  0.7431
 8461SOL     OW36841   1.279   3.765   0.776  0.0707 -0.3938  0.6713
 8461SOL    HW136842   1.275   3.854   0.810  0.9900 -0.1160  0.0754
 8461SOL    HW236843   1.216   3.770   0.704  0.1588  0.8450  0.6822
 8462SOL     OW36844   2.773   4.015   2.119  0.1548 -0.1237  0.3681
 8462SOL    HW136845   2.773   4.023   2.214 -0.4602  0.8958  0.2821
 8462SOL    HW236846   2.813   3.929   2.109  3.1022  1.3390 -0.5673
 8463SOL     OW36847   2.771   4.388   6.202  0.0909  0.0793  0.0135
 8463SOL    HW136848   2.845   4.355   6.151 -0.7768  0.4184 -1.4749
 8463SOL    HW236849   2.709   4.341   6.147  2.5862 -1.8189 -1.1591
 8464SOL     OW36850   4.639   2.880   6.109 -0.6506  0.1398  0.0457
 8464SOL    HW136851   4.616   2.914   6.195  1.6247  2.0545 -0.0971
 8464SOL    HW236852   4.563   2.823   6.095 -1.3009  0.8925  0.5537
 8465SOL     OW36853   3.894   3.033   4.643  0.9693 -0.8630 -0.0768
 8465SOL    HW136854   3.821   3.079   4.602  3.9326  2.1333 -1.9409
 8465SOL    HW236855   3.953   3.021   4.569  1.3073 -0.2157  0.0956
 8466SOL     OW36856   2.876   4.576  16.049  0.0266 -0.0127  0.4458
 8466SOL    HW136857   2.829   4.507  16.095 -0.7965 -0.7659 -1.5388
 8466SOL    HW236858   2.884   4.649  16.111 -1.1415 -0.7213  1.4272
 8467SOL     OW36859   2.026   3.976  11.557 -0.0920  0.0485  0.0226
 8467SOL    HW136860   2.065   4.001  11.641  0.1610 -3.1598  0.8548
 8467SOL    HW236861   1.935   3.950  11.572 -0.4073  0.5751 -0.9768
 8468SOL     OW36862   1.974   1.429   4.973 -0.1484  0.3391 -0.1407
 8468SOL    HW136863   1.972   1.524   4.983  0.6139  0.2337  0.9515
 8468SOL    HW236864   1.892   1.406   5.015  0.3737 -2.9242 -0.9460
 8469SOL     OW36865   0.923   2.101  11.363  0.5946  0.2886  0.1494
 8469SOL    HW136866   0.907   2.161  11.436 -0.5798 -0.0416  0.1689
 8469SOL    HW236867   0.930   2.155  11.285  1.4290  1.0524  0.7580
 8470SOL     OW36868   0.130   2.072   5.235 -0.6078 -0.2206 -0.4372
 8470SOL    HW136869   0.109   2.078   5.329  0.0082  0.9333 -0.3817
 8470SOL    HW236870   0.224   2.052   5.233 -0.0208  2.8360 -2.3104
 8471SOL     OW36871   0.275   2.504   5.389 -0.2768 -0.2543  0.3315
 8471SOL    HW136872   0.184   2.526   5.367 -0.3052  1.3859  2.0529
 8471SOL    HW236873   0.305   2.461   5.309 -0.9534  2.0223 -1.1507
 8472SOL     OW36874   4.095   1.790   4.170  0.3586  0.5176 -0.3531
 8472SOL    HW136875   4.026   1.856   4.161 -0.5640 -0.6987 -2.3904
 8472SOL    HW236876   4.068   1.730   4.239 -1.2061  1.2633 -0.2993
 8473SOL     OW36877   0.872   3.705  15.884 -0.0719 -0.2473  0.2559
 8473SOL    HW136878   0.868   3.767  15.956  0.9042  1.0478 -0.8032
 8473SOL    HW236879   0.964   3.708  15.860  0.1558 -1.8127  0.9496
 8474SOL     OW36880   1.018   0.746  12.150  0.3013  0.0249  0.5940
 8474SOL    HW136881   0.988   0.695  12.225  2.2904 -0.5318  1.0093
 8474SOL    HW236882   0.966   0.712  12.077 -0.8196  1.0581  0.9261
 8475SOL     OW36883   1.495   0.326  14.648 -0.1980  0.0499 -0.3233
 8475SOL    HW136884   1.510   0.240  14.686 -2.9760 -0.7147 -0.9864
 8475SOL    HW236885   1.552   0.379  14.704 -2.9044  0.9498  1.5754
 8476SOL     OW36886   3.728   2.275   7.399  0.3316 -0.0990 -0.0703
 8476SOL    HW136887   3.699   2.187   7.373  0.5519 -0.7718  1.9766
 8476SOL    HW236888   3.658   2.330   7.364  0.3049  0.2912  0.6080
 8477SOL     OW36889   0.912   2.752  16.186  0.3933  0.3375 -0.3214
 8477SOL    HW136890   0.847   2.758  16.256  0.9540 -0.1784  0.2422
 8477SOL    HW236891   0.855   2.711  16.120 -0.8467 -0.6237  1.3497
 8478SOL     OW36892   0.318   1.384   7.517  0.1948 -0.4657 -0.0030
 8478SOL    HW136893   0.307   1.477   7.499 -0.6009 -0.1890  1.8432
 8478SOL    HW236894   0.412   1.381   7.534  0.0737 -0.5795  0.6845
 8479SOL     OW36895   4.642   3.556   2.048 -0.1140 -0.1862 -0.2318
 8479SOL    HW136896   4.673   3.645   2.030  0.8364 -0.3893  0.4083
 8479SOL    HW236897   4.616   3.569   2.139  0.0917  1.1624 -0.3569
 8480SOL     OW36898   2.970   0.718   6.172 -0.7499 -0.2581  0.0377
 8480SOL    HW136899   3.060   0.710   6.141 -0.8129  1.9268 -0.7161
 8480SOL    HW236900   2.957   0.632   6.211  1.1310 -0.1050  1.0243
 8481SOL     OW36901   2.311   3.221   6.365 -0.1855 -0.1328  0.2189
 8481SOL    HW136902   2.253   3.216   6.441 -0.1292 -0.6775  0.2239
 8481SOL    HW236903   2.257   3.281   6.314  0.0033  0.2230  0.4401
 8482SOL     OW36904   2.338   4.113   4.671  0.3770 -0.3917  0.1880
 8482SOL    HW136905   2.275   4.040   4.672  0.1281 -0.1923 -0.5632
 8482SOL    HW236906   2.375   4.100   4.583 -0.8030  1.3072 -0.5490
 8483SOL     OW36907   2.556   2.768   5.151 -0.0213  0.2592  0.0889
 8483SOL    HW136908   2.529   2.766   5.059 -2.8818 -1.2036  0.9724
 8483SOL    HW236909   2.647   2.738   5.145 -0.1792 -0.0409 -0.8424
 8484SOL     OW36910   3.005   3.068  13.673  0.7201 -0.2918  0.5515
 8484SOL    HW136911   3.057   3.051  13.752  2.1392  1.8347  0.0711
 8484SOL    HW236912   3.073   3.062  13.607 -0.6353 -0.4170 -0.8368
 8485SOL     OW36913   2.570   3.952  10.773 -0.6921 -0.3382  0.2641
 8485SOL    HW136914   2.518   4.032  10.781  0.1547  0.1133  1.2241
 8485SOL    HW236915   2.630   3.966  10.846 -0.9001  0.6892  0.2425
 8486SOL     OW36916   0.006   0.365   5.035  0.7667  0.5313  0.5760
 8486SOL    HW136917   4.681   0.424   4.977  0.0882  0.8598  1.4802
 8486SOL    HW236918   0.034   0.429   5.101 -2.3826  2.5885 -0.0556
 8487SOL     OW36919   2.004   0.595   4.650 -0.3310  0.2150  0.3886
 8487SOL    HW136920   1.908   0.593   4.660 -0.1895  1.1707  1.9507
 8487SOL    HW236921   2.007   0.690   4.642  0.4513  0.1433 -0.0846
 8488SOL     OW36922   3.877   2.840   1.542 -0.4250  0.1891  0.3388
 8488SOL    HW136923   3.870   2.823   1.448 -1.2068  0.9993  0.2516
 8488SOL    HW236924   3.972   2.840   1.550 -0.4825  0.6753  1.0770
 8489SOL     OW36925   2.974   3.637   3.392 -0.0548  0.2626 -0.9133
 8489SOL    HW136926   3.003   3.546   3.393 -1.1093 -0.1206 -3.9992
 8489SOL    HW236927   2.971   3.651   3.297  1.4678 -0.9800 -1.1482
 8490SOL     OW36928   4.212   0.864  17.253  0.2214 -0.3335 -0.0026
 8490SOL    HW136929   4.145   0.930  17.270  0.4595 -0.1054  0.0476
 8490SOL    HW236930   4.170   0.778  17.252 -0.9598  0.2467  0.9193
 8491SOL     OW36931   3.450   4.668  14.661  0.0447  0.0218 -0.0043
 8491SOL    HW136932   3.415   4.680  14.572 -0.3060  0.2920  0.1729
 8491SOL    HW236933   3.512   0.015  14.676  0.8942 -0.6270 -0.4331
 8492SOL     OW36934   3.332   2.468   5.603 -0.4417 -0.0919  0.4743
 8492SOL    HW136935   3.329   2.373   5.593  0.3642 -0.2123  1.2997
 8492SOL    HW236936   3.368   2.515   5.528  1.0296  2.3866  2.7015
 8493SOL     OW36937   4.115   2.496   4.745  0.4512 -0.1055 -0.4033
 8493SOL    HW136938   4.092   2.423   4.687  2.1871 -0.7787 -0.2416
 8493SOL    HW236939   4.042   2.554   4.721 -0.0876 -0.2324  0.9238
 8494SOL     OW36940   2.627   3.730  10.615 -0.1938 -0.0133  0.0073
 8494SOL    HW136941   2.586   3.794  10.673 -2.8460 -2.1007  0.4565
 8494SOL    HW236942   2.707   3.774  10.587  0.7259 -1.5461  0.1926
 8495SOL     OW36943   2.154   0.874   3.547 -0.0652 -0.1447  0.1607
 8495SOL    HW136944   2.134   0.844   3.635  2.3522 -0.1197  0.7146
 8495SOL    HW236945   2.139   0.967   3.557  1.7549  0.0844  0.7805
 8496SOL     OW36946   0.298   3.180  12.524 -0.2976  0.1011  0.4607
 8496SOL    HW136947   0.215   3.204  12.483 -0.0697 -0.9851 -0.6631
 8496SOL    HW236948   0.283   3.153  12.614 -0.2980  0.2705  0.5113
 8497SOL     OW36949   4.510   1.781  11.116  0.2066  0.2442 -0.1551
 8497SOL    HW136950   4.554   1.865  11.129 -1.2606  1.2460 -1.6755
 8497SOL    HW236951   4.423   1.812  11.094  0.8091  1.9572 -0.1463
 8498SOL     OW36952   2.678   2.766  14.187  0.3957  0.3381  0.2644
 8498SOL    HW136953   2.761   2.814  14.183  1.6523 -1.7146  1.4383
 8498SOL    HW236954   2.717   2.683  14.162 -0.6356 -0.3258  0.8908
 8499SOL     OW36955   1.525   0.849   3.062  0.6207 -0.6690 -0.2815
 8499SOL    HW136956   1.489   0.908   3.128  0.3929 -0.6194 -0.4484
 8499SOL    HW236957   1.611   0.887   3.044  0.8845  0.0747  2.6009
 8500SOL     OW36958   1.784   3.715  12.895  0.3631  0.0291  0.0193
 8500SOL    HW136959   1.743   3.704  12.980  1.7283  2.2211  0.9745
 8500SOL    HW236960   1.844   3.641  12.900  0.4561  0.0504 -0.8613
 8501SOL     OW36961   3.872   0.043   7.976 -0.3015  0.4669 -0.4114
 8501SOL    HW136962   3.902   0.128   7.942 -0.9205  1.8358  2.4682
 8501SOL    HW236963   3.791   0.023   7.928 -0.4023  0.0400 -0.0568
 8502SOL     OW36964   0.345   1.311   5.696  0.0302 -0.1256  0.0291
 8502SOL    HW136965   0.310   1.394   5.666  0.7321  0.0340 -0.3515
 8502SOL    HW236966   0.396   1.350   5.767 -0.4151  1.4498 -0.5357
 8503SOL     OW36967   1.182   0.181   6.694 -0.3718 -0.2279 -0.2555
 8503SOL    HW136968   1.105   0.229   6.722 -1.1911 -0.5283 -2.0078
 8503SOL    HW236969   1.171   0.097   6.738  0.1783  0.0879  0.4760
 8504SOL     OW36970   1.283   4.699   8.751 -0.8238  0.1375  0.0394
 8504SOL    HW136971   1.258   4.618   8.795 -1.5666  1.0754  1.3626
 8504SOL    HW236972   1.247   0.043   8.807 -0.4128 -1.5432  2.3462
 8505SOL     OW36973   3.508   3.959   9.626  0.7381 -0.4414  0.0719
 8505SOL    HW136974   3.467   3.893   9.681 -0.4995  1.8737  1.9357
 8505SOL    HW236975   3.533   4.026   9.689 -2.7826  0.8869  0.1019
 8506SOL     OW36976   0.672   0.974   5.463 -0.0909  0.1089 -0.0497
 8506SOL    HW136977   0.584   0.997   5.436 -0.7621 -0.7335  1.3761
 8506SOL    HW236978   0.709   0.940   5.382  0.1465  0.4396 -0.0782
 8507SOL     OW36979   4.342   2.652  15.759 -0.3925  0.2659 -0.3014
 8507SOL    HW136980   4.436   2.670  15.756  0.0890 -1.6442  2.9120
 8507SOL    HW236981   4.334   2.569  15.711  1.4460 -0.0344 -0.0992
 8508SOL     OW36982   3.112   1.011   0.088 -0.0684 -0.5419 -0.3112
 8508SOL    HW136983   3.087   0.964   0.167 -0.3827 -1.4435 -0.9482
 8508SOL    HW236984   3.150   1.096   0.111 -0.6656  0.5512 -3.3719
 8509SOL     OW36985   4.098   1.288   6.876 -0.0753 -0.3034 -0.0992
 8509SOL    HW136986   4.077   1.361   6.934 -0.8329 -0.5955 -0.0124
 8509SOL    HW236987   4.126   1.334   6.797  1.0227 -1.5156 -0.4164
 8510SOL     OW36988   4.574   1.912   8.907 -0.0794  0.7557  0.4849
 8510SOL    HW136989   4.564   1.854   8.982  1.3511 -0.3085 -0.1428
 8510SOL    HW236990   4.487   1.922   8.868 -0.1148 -2.0022 -0.1722
 8511SOL     OW36991   3.612   3.183  17.104 -0.3314 -0.0080  0.1677
 8511SOL    HW136992   3.701   3.209  17.129 -1.3208  1.1172  2.5061
 8511SOL    HW236993   3.600   3.110  17.165 -0.4156  1.0127  1.3850
 8512SOL     OW36994   2.780   1.805  16.408  0.3301  0.3238  0.3384
 8512SOL    HW136995   2.701   1.776  16.362 -0.8949  0.7095  2.2057
 8512SOL    HW236996   2.840   1.776  16.339  0.0008  2.3441 -0.7982
 8513SOL     OW36997   0.266   3.412  10.143 -0.1709 -0.2917 -0.0035
 8513SOL    HW136998   0.240   3.338  10.198 -0.0891 -0.3533 -0.0460
 8513SOL    HW236999   0.276   3.374  10.055 -0.1334  0.5901 -0.3770
 8514SOL     OW37000   2.173   3.400  14.791 -0.2375 -0.4040 -0.3125
 8514SOL    HW137001   2.098   3.345  14.813 -1.6535  2.4349  2.0357
 8514SOL    HW237002   2.182   3.376  14.699 -0.8882  1.9145 -0.9732
 8515SOL     OW37003   2.669   0.663   3.175  0.6585  0.4606  0.1626
 8515SOL    HW137004   2.596   0.680   3.115 -0.2446  0.0739  1.1616
 8515SOL    HW237005   2.669   0.752   3.210 -0.4214  1.3215 -1.9969
 8516SOL     OW37006   1.378   2.205   3.379 -0.1467  0.1014  0.3657
 8516SOL    HW137007   1.325   2.271   3.424  0.2917  1.2698 -0.8263
 8516SOL    HW237008   1.309   2.139   3.384 -0.9016  0.9531  1.1428
 8517SOL     OW37009   0.237   2.650  15.295  0.5663  0.1222  0.4353
 8517SOL    HW137010   0.305   2.613  15.239 -1.5343  1.0936 -2.7314
 8517SOL    HW237011   0.174   2.578  15.299  1.3946 -0.5185  2.1315
 8518SOL     OW37012   1.201   2.393   4.298 -0.2536 -0.1922  0.2074
 8518SOL    HW137013   1.240   2.471   4.259  1.4614 -0.6789  0.9547
 8518SOL    HW237014   1.121   2.389   4.245 -0.1061  0.7485 -0.0846
 8519SOL     OW37015   1.050   0.119   4.202  0.1348  0.4622  0.7567
 8519SOL    HW137016   0.985   0.169   4.251 -0.9525  1.7080 -1.9892
 8519SOL    HW237017   1.119   0.120   4.268  1.1285 -1.2937 -0.2600
 8520SOL     OW37018   1.892   0.170   8.610 -0.6227  0.0694  0.4488
 8520SOL    HW137019   1.829   0.177   8.682 -0.9715  1.8213 -0.0298
 8520SOL    HW237020   1.958   0.124   8.662 -0.9929 -0.3079  0.5888
 8521SOL     OW37021   4.303   1.702   8.918  0.7042  0.1379 -0.1893
 8521SOL    HW137022   4.367   1.653   8.968 -1.8283 -2.7926  0.1855
 8521SOL    HW237023   4.271   1.634   8.858 -0.1641  0.6230 -0.2730
 8522SOL     OW37024   1.126   1.707   8.013 -0.0083 -0.1126 -0.1074
 8522SOL    HW137025   1.068   1.667   8.078  0.2890 -1.9258 -0.9394
 8522SOL    HW237026   1.211   1.711   8.057 -0.1379  2.1511 -0.0558
 8523SOL     OW37027   0.252   4.269   9.571  0.1434  0.2541 -0.0765
 8523SOL    HW137028   0.242   4.174   9.566  0.2074  0.1457  1.8782
 8523SOL    HW237029   0.215   4.299   9.488  0.0525 -1.1730 -0.5487
 8524SOL     OW37030   4.072   4.126   8.239 -0.0297  0.3891 -0.4969
 8524SOL    HW137031   4.072   4.222   8.231  0.0266  0.4748  0.6019
 8524SOL    HW237032   3.988   4.101   8.200  0.2783 -3.0305  1.0978
 8525SOL     OW37033   1.560   1.599   4.270 -0.2825 -0.3867  0.1091
 8525SOL    HW137034   1.525   1.525   4.320 -0.8745 -1.7669 -2.3203
 8525SOL    HW237035   1.513   1.673   4.309  0.5273  0.3504 -0.3161
 8526SOL     OW37036   1.735   4.669   7.499  0.1285 -0.5460  0.0552
 8526SOL    HW137037   1.681   4.615   7.556  0.4100 -0.8395  0.0438
 8526SOL    HW237038   1.744   4.633   7.411 -2.7606 -0.7662 -0.1594
 8527SOL     OW37039   4.434   3.465   3.175  0.1750  0.1047  0.3084
 8527SOL    HW137040   4.341   3.472   3.197  0.5998  0.0635  2.0662
 8527SOL    HW237041   4.466   3.553   3.152  0.8797  0.5390  3.0167
 8528SOL     OW37042   2.151   1.613   3.528 -0.0290 -0.0143  0.1832
 8528SOL    HW137043   2.120   1.554   3.597 -1.2583  0.5072  0.0792
 8528SOL    HW237044   2.130   1.562   3.450  2.2616  0.7548 -0.9366
 8529SOL     OW37045   4.682   3.172  12.480 -0.1887 -0.7069 -0.3134
 8529SOL    HW137046   4.588   3.155  12.479 -0.4025  0.4957 -0.9340
 8529SOL    HW237047   4.693   3.145  12.571  3.7937 -0.6931 -0.8095
 8530SOL     OW37048   3.352   1.557   1.852  0.1695 -0.3668  0.3480
 8530SOL    HW137049   3.401   1.524   1.777 -1.6562 -1.9181 -0.1391
 8530SOL    HW237050   3.259   1.541   1.838  0.0805 -0.5000  1.1148
 8531SOL     OW37051   0.816   0.810   5.637 -0.2408  0.0918 -0.3303
 8531SOL    HW137052   0.816   0.861   5.718 -1.8755 -2.4306  1.2720
 8531SOL    HW237053   0.766   0.869   5.580  0.1360 -1.2713 -2.0444
 8532SOL     OW37054   0.761   4.183   5.882 -0.3834 -0.2039 -0.3321
 8532SOL    HW137055   0.672   4.213   5.900  0.0715  0.5768  0.6181
 8532SOL    HW237056   0.798   4.261   5.839 -1.1792  1.5353  2.1198
 8533SOL     OW37057   1.428   2.995  16.959  0.3799  0.5202 -0.6352
 8533SOL    HW137058   1.471   3.081  16.961 -0.4293  0.9245 -0.3365
 8533SOL    HW237059   1.346   3.016  16.914 -0.1665  0.9363  0.5451
 8534SOL     OW37060   4.145   4.229   0.854 -0.1763  0.2362 -0.8868
 8534SOL    HW137061   4.204   4.260   0.922 -2.7479 -1.5602  2.1768
 8534SOL    HW237062   4.195   4.155   0.820  0.1407 -0.0993  0.2962
 8535SOL     OW37063   4.108   2.525   5.020  0.0371  0.5578 -0.4557
 8535SOL    HW137064   4.031   2.571   4.987 -0.5781 -1.0292 -1.2303
 8535SOL    HW237065   4.139   2.487   4.938 -0.8836 -1.3523  0.0773
 8536SOL     OW37066   3.844   3.759  13.629 -0.7213  0.6400  0.8156
 8536SOL    HW137067   3.764   3.797  13.594 -1.0991 -0.8202  0.1073
 8536SOL    HW237068   3.830   3.668  13.604  1.6394  0.9186 -1.4868
 8537SOL     OW37069   2.173   1.756   4.186  0.0334  0.1982  0.2491
 8537SOL    HW137070   2.201   1.784   4.273  0.5488 -0.3594  0.2667
 8537SOL    HW237071   2.257   1.755   4.141 -0.9723 -2.0882 -1.6181
 8538SOL     OW37072   1.980   2.855   4.024 -0.5910 -0.0225 -0.3264
 8538SOL    HW137073   1.952   2.775   3.981 -0.4380 -0.6331  0.7082
 8538SOL    HW237074   2.045   2.885   3.960 -0.1853 -2.9135 -1.2740
 8539SOL     OW37075   3.456   1.909  13.134 -0.0048 -0.4758 -0.4210
 8539SOL    HW137076   3.466   1.814  13.134 -0.4787 -0.5209  0.9991
 8539SOL    HW237077   3.410   1.922  13.217  0.5079  2.3341 -0.5736
 8540SOL     OW37078   3.135   3.184   7.119  0.1343  0.3402  0.1407
 8540SOL    HW137079   3.046   3.190   7.153  1.1287  1.1387  2.5905
 8540SOL    HW237080   3.185   3.174   7.200 -1.1237 -0.4894  0.8166
 8541SOL     OW37081   1.204   3.730   5.118  0.0112 -0.0171  0.5022
 8541SOL    HW137082   1.208   3.776   5.035  0.0356 -1.9074 -0.5389
 8541SOL    HW237083   1.160   3.792   5.177 -0.2586  0.1238  0.1503
 8542SOL     OW37084   0.929   3.842  10.850 -0.3063 -0.0257  0.2333
 8542SOL    HW137085   0.833   3.836  10.849 -0.4204  1.7685 -2.3487
 8542SOL    HW237086   0.933   3.891  10.768 -2.8446 -0.4481 -0.1597
 8543SOL     OW37087   2.974   0.480   2.670  0.0864  0.6208  0.0827
 8543SOL    HW137088   2.934   0.465   2.755 -2.6582 -0.6112 -1.4020
 8543SOL    HW237089   2.904   0.501   2.607 -0.0739 -2.0220 -0.6512
 8544SOL     OW37090   3.193   4.660   3.459  0.4253  0.0284 -0.1094
 8544SOL    HW137091   3.212   4.569   3.482  1.3212  1.1093  3.4157
 8544SOL    HW237092   3.097   4.658   3.455  0.3969  0.8197  0.3325
 8545SOL     OW37093   2.200   3.613  11.596  0.3343  0.0177  0.3470
 8545SOL    HW137094   2.183   3.529  11.640 -1.4267 -0.6519 -1.6245
 8545SOL    HW237095   2.210   3.599  11.502  0.1101 -0.5010  0.4022
 8546SOL     OW37096   2.017   1.934  12.569  0.0289 -0.5613 -0.0992
 8546SOL    HW137097   2.063   1.953  12.650  1.3601 -1.5402 -0.6409
 8546SOL    HW237098   1.973   2.018  12.553 -0.9574 -1.2579 -1.0503
 8547SOL     OW37099   0.583   0.417   8.708 -0.3635 -0.4130  0.4724
 8547SOL    HW137100   0.613   0.471   8.634 -1.0025  0.6327  0.9725
 8547SOL    HW237101   0.649   0.433   8.775 -0.8952  1.3011  0.5838
 8548SOL     OW37102   1.075   2.842   8.448 -0.3174  0.0960  0.0389
 8548SOL    HW137103   1.042   2.794   8.372 -1.5215 -0.5118  0.9416
 8548SOL    HW237104   1.002   2.903   8.462 -1.2132 -2.1044  4.8254
 8549SOL     OW37105   1.967   1.958   1.453 -0.2180  0.3540  0.1200
 8549SOL    HW137106   1.970   1.960   1.357 -1.1419  0.4881  0.0902
 8549SOL    HW237107   2.015   1.880   1.481  0.9878  1.1650  0.2845
 8550SOL     OW37108   1.928   0.971  16.228  0.8157  0.4306 -0.2302
 8550SOL    HW137109   1.835   0.962  16.206  0.6392  0.1267  0.6297
 8550SOL    HW237110   1.915   0.968  16.323 -1.2545  0.6304 -0.5090
 8551SOL     OW37111   0.242   1.870   9.247  0.7428  0.2566  0.3226
 8551SOL    HW137112   0.222   1.858   9.154  5.7905  0.9947 -0.8767
 8551SOL    HW237113   0.294   1.793   9.268  1.3074  1.0470  1.8111
 8552SOL     OW37114   3.688   1.105   3.739  0.6939  0.8636  0.0545
 8552SOL    HW137115   3.745   1.028   3.734 -0.0485  0.2038  1.7413
 8552SOL    HW237116   3.694   1.124   3.833 -1.7234  1.3133  0.1044
 8553SOL     OW37117   1.042   1.626   5.252  0.1682 -0.7776  0.4677
 8553SOL    HW137118   0.948   1.643   5.258  0.0303 -1.9951  1.7782
 8553SOL    HW237119   1.092   1.707   5.261 -1.3366  0.0746  1.2065
 8554SOL     OW37120   3.670   3.594   3.060  0.4282  0.1286 -0.1750
 8554SOL    HW137121   3.753   3.639   3.045 -0.8312  2.1436 -1.0584
 8554SOL    HW237122   3.673   3.538   2.983 -0.9359 -1.9773  1.3172
 8555SOL     OW37123   3.931   1.916   2.102 -0.1274  0.4099  0.1806
 8555SOL    HW137124   3.999   1.868   2.150 -0.6346 -0.9265 -0.4288
 8555SOL    HW237125   3.987   1.982   2.063  0.0046 -0.6949 -1.5001
 8556SOL     OW37126   3.823   1.795   0.562 -0.0903 -0.4110  0.0778
 8556SOL    HW137127   3.810   1.744   0.482 -2.8800  0.7255 -0.2103
 8556SOL    HW237128   3.846   1.882   0.529  0.4919 -1.3447 -1.9459
 8557SOL     OW37129   0.212   2.414   4.900  0.5511  0.1525 -0.2022
 8557SOL    HW137130   0.215   2.498   4.855 -1.6877  0.6302  0.5827
 8557SOL    HW237131   0.288   2.361   4.873 -1.8771 -3.3869 -0.0958
 8558SOL     OW37132   3.228   2.952  13.079 -0.0651  0.2013 -0.2304
 8558SOL    HW137133   3.284   3.030  13.090 -0.4232  0.5195 -0.6892
 8558SOL    HW237134   3.291   2.898  13.032  1.3657  1.0003  0.7557
 8559SOL     OW37135   0.698   3.363   6.832 -0.4116  0.4032  0.1615
 8559SOL    HW137136   0.707   3.278   6.874  1.2098 -0.7490 -2.5018
 8559SOL    HW237137   0.645   3.338   6.755  1.7380 -0.5451 -1.0138
 8560SOL     OW37138   1.083   2.656   8.855 -0.2200 -0.1946 -0.1563
 8560SOL    HW137139   0.989   2.647   8.837 -0.0964 -0.8639 -0.4757
 8560SOL    HW237140   1.089   2.751   8.845  3.2697 -0.4436 -0.3068
 8561SOL     OW37141   0.908   3.506   2.885  0.1346  0.5236  0.4907
 8561SOL    HW137142   0.833   3.472   2.836  0.5708  1.5043 -0.8328
 8561SOL    HW237143   0.855   3.531   2.962 -2.2050  0.4059 -1.0692
 8562SOL     OW37144   0.118   3.848   8.968 -0.1550  0.0447 -0.5435
 8562SOL    HW137145   0.066   3.804   8.900 -1.8924  0.4929  0.4772
 8562SOL    HW237146   0.058   3.849   9.044 -2.2303 -0.6252 -2.1645
 8563SOL     OW37147   2.964   4.400   4.419 -0.0526  0.4155  0.3599
 8563SOL    HW137148   2.896   4.363   4.475 -0.8692  1.0911 -0.1720
 8563SOL    HW237149   3.038   4.416   4.477  0.3959 -3.5241  0.8284
 8564SOL     OW37150   3.345   1.210   7.680 -0.6773 -0.5481 -0.2518
 8564SOL    HW137151   3.290   1.131   7.683  1.9175 -2.2837  0.8933
 8564SOL    HW237152   3.409   1.188   7.747 -1.4971 -0.8607  0.4307
 8565SOL     OW37153   0.862   0.819   7.153 -0.1634 -0.0347  0.0485
 8565SOL    HW137154   0.914   0.883   7.201  1.0466  0.2154 -1.5942
 8565SOL    HW237155   0.796   0.871   7.107  0.2603  1.1809  0.8468
 8566SOL     OW37156   1.112   3.526   2.441 -0.4282 -0.2640 -0.1952
 8566SOL    HW137157   1.178   3.457   2.433 -0.1967 -0.1759  0.9884
 8566SOL    HW237158   1.038   3.488   2.487  1.4570 -2.4736  1.0368
 8567SOL     OW37159   1.012   3.668   5.450  0.7588 -0.0291  0.3028
 8567SOL    HW137160   1.035   3.751   5.408  3.9985 -1.8670 -1.5195
 8567SOL    HW237161   0.952   3.637   5.383 -1.3274 -1.0298  2.6217
 8568SOL     OW37162   0.240   1.854  10.423 -0.3530 -0.1198 -0.6322
 8568SOL    HW137163   0.245   1.799  10.501  1.8566  0.2871 -0.4978
 8568SOL    HW237164   0.224   1.787  10.356 -2.9068  0.9411 -1.0841
 8569SOL     OW37165   3.037   4.039   0.569  0.4269 -0.0161 -0.1468
 8569SOL    HW137166   3.045   3.951   0.533  1.8742 -0.5042  1.3568
 8569SOL    HW237167   3.027   4.084   0.485 -0.5450 -0.0628 -0.0537
 8570SOL     OW37168   2.281   3.625  14.601  0.3265  0.0085  0.4423
 8570SOL    HW137169   2.352   3.608  14.539  0.5869  1.4546  0.3537
 8570SOL    HW237170   2.321   3.600  14.685  0.1018 -1.3107  0.1566
 8571SOL     OW37171   2.482   0.884  10.661  0.0007  0.0482 -0.1193
 8571SOL    HW137172   2.522   0.799  10.680  1.8644  0.9644  0.0923
 8571SOL    HW237173   2.489   0.930  10.745  0.7565  2.2871 -1.3864
 8572SOL     OW37174   4.434   4.341   4.072  0.1056  0.5868  0.0604
 8572SOL    HW137175   4.514   4.318   4.025  0.1204  0.4068  0.1733
 8572SOL    HW237176   4.415   4.259   4.119 -1.1894  1.2462  0.6930
 8573SOL     OW37177   1.320   3.476   9.037 -0.9611  0.0031 -0.0653
 8573SOL    HW137178   1.336   3.462   9.130  1.3402 -0.9734 -0.6141
 8573SOL    HW237179   1.225   3.464   9.034 -0.9741 -0.2727  1.5020
 8574SOL     OW37180   3.619   2.015  11.647 -0.0562  0.4770 -0.2025
 8574SOL    HW137181   3.639   2.097  11.693 -1.8443  0.0010  1.4118
 8574SOL    HW237182   3.706   1.979  11.631 -0.2795 -0.1143 -0.0645
 8575SOL     OW37183   0.534   1.997   5.633 -0.0179 -0.4580 -0.4685
 8575SOL    HW137184   0.583   2.076   5.658  0.1287 -0.6844 -0.0331
 8575SOL    HW237185   0.566   1.939   5.703  1.9705  0.8692 -0.2473
 8576SOL     OW37186   3.813   3.547  10.764  0.4715 -0.0054  0.2908
 8576SOL    HW137187   3.802   3.590  10.848 -0.6907 -0.7689  0.5329
 8576SOL    HW237188   3.735   3.577  10.717 -0.0787 -0.0214  1.2111
 8577SOL     OW37189   2.283   3.030   8.358 -0.2109 -0.2712 -0.0605
 8577SOL    HW137190   2.279   2.961   8.424 -0.2200  0.8525  1.1203
 8577SOL    HW237191   2.373   3.064   8.359  0.4959 -2.2037  1.7679
 8578SOL     OW37192   4.513   3.293  13.196 -0.1444  0.6098 -0.2384
 8578SOL    HW137193   4.519   3.326  13.286 -0.2748  1.2601 -0.4688
 8578SOL    HW237194   4.448   3.224  13.207  0.5410  0.0018  0.0136
 8579SOL     OW37195   2.830   1.489   3.249  0.0072 -0.3314  0.4421
 8579SOL    HW137196   2.747   1.536   3.246 -0.2058 -0.6258  1.7420
 8579SOL    HW237197   2.885   1.527   3.181  1.0221 -0.7445  1.0188
 8580SOL     OW37198   3.517   1.353   1.746  0.5343  0.5856  0.1186
 8580SOL    HW137199   3.552   1.303   1.820  1.1090 -0.5456 -0.9341
 8580SOL    HW237200   3.592   1.413   1.750  1.8279 -1.0564  0.0580
 8581SOL     OW37201   0.615   0.409   5.921 -0.1463  0.5216  0.4970
 8581SOL    HW137202   0.585   0.325   5.956  1.5545  1.0726  3.2516
 8581SOL    HW237203   0.536   0.461   5.937 -0.1241  1.1217 -1.3346
 8582SOL     OW37204   1.530   3.314   8.200  0.6836  0.3645  0.7584
 8582SOL    HW137205   1.607   3.262   8.223  0.0222  0.2202  2.6267
 8582SOL    HW237206   1.459   3.250   8.206  0.3447  0.6863  0.1962
 8583SOL     OW37207   2.342   1.380   4.447  0.2260 -0.8556  0.3022
 8583SOL    HW137208   2.363   1.441   4.518  0.6554  1.1332 -1.5466
 8583SOL    HW237209   2.246   1.379   4.445  0.2575  0.4898 -1.4736
 8584SOL     OW37210   2.073   3.249   7.704 -0.0001 -0.6239  0.6134
 8584SOL    HW137211   1.980   3.228   7.698 -0.4747  1.9594 -0.8577
 8584SOL    HW237212   2.071   3.335   7.747 -2.1977 -1.3791  2.0331
 8585SOL     OW37213   1.494   0.319   3.356  0.3447  0.0495  0.1675
 8585SOL    HW137214   1.454   0.262   3.291 -0.9827  0.5396  0.5402
 8585SOL    HW237215   1.432   0.391   3.369 -1.1390 -0.8492 -1.9438
 8586SOL     OW37216   1.432   0.137  17.134 -0.4379 -1.0332 -0.5188
 8586SOL    HW137217   1.481   0.160  17.054 -0.3735 -2.6331 -0.9244
 8586SOL    HW237218   1.344   0.147  17.097 -0.6812  0.0115  0.3481
 8587SOL     OW37219   2.442   0.824   3.018  0.0761  0.2066 -0.3874
 8587SOL    HW137220   2.505   0.802   2.949  2.0905  1.6120  0.9933
 8587SOL    HW237221   2.409   0.908   2.987 -3.5817 -1.9558 -2.3203
 8588SOL     OW37222   0.857   1.540   2.955  0.1559 -0.0685  0.8792
 8588SOL    HW137223   0.918   1.521   3.027 -1.8360 -1.6195  2.1637
 8588SOL    HW237224   0.841   1.460   2.904 -1.7310  0.3459  0.7987
 8589SOL     OW37225   3.042   3.002  11.443  0.6467 -0.2079  0.5906
 8589SOL    HW137226   2.978   2.986  11.513  0.1368 -0.9418 -0.0429
 8589SOL    HW237227   3.119   3.016  11.497  1.3062  1.2233 -0.7087
 8590SOL     OW37228   0.235   2.892   8.802 -0.1253 -0.0505 -0.5571
 8590SOL    HW137229   0.257   2.845   8.882 -0.0771 -0.8042 -1.0218
 8590SOL    HW237230   0.191   2.972   8.831 -0.7679 -0.4706 -0.3812
 8591SOL     OW37231   3.026   1.398   2.964 -0.1052  0.0676 -0.3769
 8591SOL    HW137232   3.079   1.414   2.886  0.8693  0.7142  0.4123
 8591SOL    HW237233   2.963   1.470   2.954  2.0842  2.0360  0.0123
 8592SOL     OW37234   0.706   1.517   5.951 -0.6049 -0.2114 -0.1717
 8592SOL    HW137235   0.628   1.573   5.956 -0.8272 -0.5399  0.0880
 8592SOL    HW237236   0.686   1.468   5.871  1.8998 -1.4309 -0.0367
 8593SOL     OW37237   4.154   1.344   0.296 -0.1952 -0.0896 -0.3981
 8593SOL    HW137238   4.162   1.291   0.375  1.9597 -1.9076 -1.8592
 8593SOL    HW237239   4.112   1.421   0.334 -1.4764 -0.3444 -1.2983
 8594SOL     OW37240   2.615   1.158   1.664 -0.0997 -0.3341  0.5609
 8594SOL    HW137241   2.700   1.200   1.649  1.8468 -2.8629  4.3381
 8594SOL    HW237242   2.578   1.171   1.577  2.0371 -2.1266 -0.6457
 8595SOL     OW37243   2.720   0.407   3.257 -0.0121 -0.5538  0.2741
 8595SOL    HW137244   2.748   0.417   3.348  0.5519  1.0684 -0.0847
 8595SOL    HW237245   2.675   0.491   3.255 -0.8531 -0.9731  1.3724
 8596SOL     OW37246   2.933   0.785   0.404  0.4492 -0.1570  0.7836
 8596SOL    HW137247   2.996   0.845   0.446  0.3053  1.2865 -1.0404
 8596SOL    HW237248   2.960   0.710   0.457  0.8312 -0.8560 -0.3923
 8597SOL     OW37249   1.414   1.280   1.534 -0.2536 -0.2096  0.0037
 8597SOL    HW137250   1.327   1.296   1.498 -0.2517 -2.5439 -1.0798
 8597SOL    HW237251   1.445   1.370   1.527 -3.1617  0.7521 -0.3435
 8598SOL     OW37252   1.019   4.108  17.141 -0.3051  0.4679  0.0285
 8598SOL    HW137253   1.066   4.185  17.174  0.8208  0.5390 -1.6925
 8598SOL    HW237254   1.013   4.055  17.220  1.1000 -0.8961 -0.7888
 8599SOL     OW37255   1.002   4.027   2.545  0.0260  0.1942  0.3817
 8599SOL    HW137256   0.976   3.940   2.576  0.9859 -0.5762 -0.9624
 8599SOL    HW237257   0.953   4.031   2.463 -0.1882 -0.6497  0.4663
 8600SOL     OW37258   4.136   3.693   7.388  0.0463  0.3971 -0.6238
 8600SOL    HW137259   4.188   3.674   7.311 -1.5515  1.8416 -2.0868
 8600SOL    HW237260   4.165   3.621   7.443  0.8388  2.2981  1.4849
 8601SOL     OW37261   3.107   1.720   4.442 -0.4484 -0.1571  0.2343
 8601SOL    HW137262   3.176   1.653   4.443 -1.0555 -0.7949 -0.4039
 8601SOL    HW237263   3.170   1.790   4.453  0.5668 -1.3534  1.9580
 8602SOL     OW37264   1.521   1.446   9.970  0.3706 -0.0737 -0.1857
 8602SOL    HW137265   1.543   1.415  10.058  1.1219 -1.0735 -0.7360
 8602SOL    HW237266   1.594   1.421   9.914 -0.3769 -1.9626 -0.3082
 8603SOL     OW37267   4.449   0.589   6.948 -0.1828 -0.2096 -0.4984
 8603SOL    HW137268   4.442   0.598   6.853 -0.4787  1.2283 -0.3540
 8603SOL    HW237269   4.480   0.499   6.952 -2.5983 -1.0427 -0.6052
 8604SOL     OW37270   3.942   2.153   5.944 -0.3836 -0.3703 -0.2404
 8604SOL    HW137271   3.895   2.205   5.880  2.2309  2.0470 -0.1882
 8604SOL    HW237272   3.932   2.215   6.016  0.6467  0.6496 -0.9680
 8605SOL     OW37273   3.599   1.675   0.678  0.4827 -0.1263  0.0652
 8605SOL    HW137274   3.687   1.712   0.668  0.0455  1.0533  0.5527
 8605SOL    HW237275   3.545   1.745   0.715 -3.6217 -0.6342 -4.9357
 8606SOL     OW37276   3.181   2.729  14.985 -0.1686 -0.2954  0.3475
 8606SOL    HW137277   3.193   2.824  14.986 -0.1632 -0.2440 -2.5578
 8606SOL    HW237278   3.219   2.709  14.899 -0.0966  0.0928  0.2889
 8607SOL     OW37279   3.576   4.147   7.550 -0.1003 -0.3298 -0.0647
 8607SOL    HW137280   3.647   4.210   7.566 -1.1821  0.3383  2.0274
 8607SOL    HW237281   3.572   4.103   7.635  0.3717 -1.4286 -0.6025
 8608SOL     OW37282   1.656   3.708   2.491  0.0140 -0.2914 -0.3266
 8608SOL    HW137283   1.696   3.645   2.431  1.5293 -0.5970  0.9808
 8608SOL    HW237284   1.645   3.792   2.446 -1.0534  0.7514  1.8604
 8609SOL     OW37285   2.553   0.209   7.353  0.0671  0.3930 -0.5442
 8609SOL    HW137286   2.544   0.150   7.428  0.1524  1.8611  0.6151
 8609SOL    HW237287   2.626   0.163   7.312  0.0999  0.0339 -0.0836
 8610SOL     OW37288   1.774   1.146  14.950 -0.2672  0.6331  0.1751
 8610SOL    HW137289   1.702   1.142  14.887  3.0647 -3.2274 -3.4242
 8610SOL    HW237290   1.847   1.105  14.904 -1.0238 -0.0466 -0.4173
 8611SOL     OW37291   0.466   2.007   8.752  0.8426  0.1552 -0.0487
 8611SOL    HW137292   0.424   2.088   8.723 -1.3372 -1.0154 -0.0781
 8611SOL    HW237293   0.437   1.950   8.681  2.9763  1.1546 -1.7340
 8612SOL     OW37294   0.683   4.543   4.177 -0.4332  0.9688 -0.3604
 8612SOL    HW137295   0.775   4.552   4.152  0.0266  2.6057  1.8846
 8612SOL    HW237296   0.645   4.587   4.101 -0.9388 -0.4851 -0.9463
 8613SOL     OW37297   1.716   3.090  10.778 -0.5274  0.6223 -0.4159
 8613SOL    HW137298   1.787   3.114  10.718 -1.4119  0.5731 -1.4800
 8613SOL    HW237299   1.729   2.996  10.775  0.5846  0.7437  0.5809
 8614SOL     OW37300   2.946   0.979   2.038  0.3715  0.2449 -0.2274
 8614SOL    HW137301   2.935   1.071   2.061  2.5815  0.9484 -1.9338
 8614SOL    HW237302   2.948   0.975   1.942  2.9821 -0.6988 -0.1344
 8615SOL     OW37303   1.438   2.530   3.574 -0.2980  0.1674 -0.2282
 8615SOL    HW137304   1.355   2.484   3.563 -0.3390 -0.0041  0.8116
 8615SOL    HW237305   1.478   2.479   3.644 -0.2737  1.1375  0.4784
 8616SOL     OW37306   2.682   3.769  12.403  0.2576 -0.5873 -0.3916
 8616SOL    HW137307   2.725   3.683  12.403  1.9129  0.2208  1.4311
 8616SOL    HW237308   2.597   3.745  12.368  0.6467 -2.0758 -0.3346
 8617SOL     OW37309   2.746   2.001   8.782  0.2383  0.8897 -0.3238
 8617SOL    HW137310   2.824   1.981   8.834 -0.4417 -0.9036  0.0169
 8617SOL    HW237311   2.785   1.983   8.697 -0.2558  0.4341 -0.4494
 8618SOL     OW37312   1.025   0.502  10.773 -0.0555  0.1562 -0.2141
 8618SOL    HW137313   1.022   0.477  10.681 -0.8155 -1.2392  0.1955
 8618SOL    HW237314   1.118   0.518  10.786  0.1177  0.0319 -1.2958
 8619SOL     OW37315   1.485   2.092   2.184  0.0103  0.2317  0.1095
 8619SOL    HW137316   1.556   2.152   2.207 -0.1404  0.5572 -0.2727
 8619SOL    HW237317   1.442   2.135   2.110  0.7252 -0.3299 -0.6381
 8620SOL     OW37318   3.926   0.465   3.857 -0.0261  0.2685  0.4366
 8620SOL    HW137319   3.837   0.452   3.824  1.0771  2.8404 -3.6899
 8620SOL    HW237320   3.920   0.555   3.890  0.4729  1.1931 -1.9175
 8621SOL     OW37321   1.005   0.530   8.566 -0.0662  0.4039 -0.0875
 8621SOL    HW137322   1.060   0.537   8.644 -2.5847 -1.1936  1.8266
 8621SOL    HW237323   1.069   0.559   8.500  0.9786 -1.2046  0.2257
 8622SOL     OW37324   3.613   4.286   5.414  0.0228 -0.3460 -0.5232
 8622SOL    HW137325   3.639   4.250   5.499 -0.1202  0.1666 -0.2671
 8622SOL    HW237326   3.533   4.335   5.434 -0.1932 -1.2157  0.7760
 8623SOL     OW37327   0.566   1.804   6.177 -0.2272  0.4789  0.1755
 8623SOL    HW137328   0.562   1.885   6.227  2.7779  1.2806 -0.8561
 8623SOL    HW237329   0.660   1.783   6.178 -0.4172 -0.3914  0.2893
 8624SOL     OW37330   1.787   4.528   3.018  0.5116  0.1428  0.6231
 8624SOL    HW137331   1.764   4.462   3.083 -1.8319 -0.1668 -0.5333
 8624SOL    HW237332   1.816   4.463   2.954 -0.2065  1.1093 -0.6909
 8625SOL     OW37333   3.776   1.248  12.846  0.0346  0.2482 -0.5494
 8625SOL    HW137334   3.727   1.328  12.865 -0.2579 -0.0985  0.1309
 8625SOL    HW237335   3.714   1.182  12.878 -0.3930  0.1464 -1.6107
 8626SOL     OW37336   0.742   3.894  15.642 -0.0803  0.0348  0.8737
 8626SOL    HW137337   0.718   3.987  15.643  1.3242  0.3808  2.3155
 8626SOL    HW237338   0.807   3.900  15.572 -0.7733 -1.1476  0.1323
 8627SOL     OW37339   3.088   1.033   7.655 -0.0607  0.5541 -0.1036
 8627SOL    HW137340   3.133   0.964   7.703  0.2990 -0.2058 -1.5212
 8627SOL    HW237341   3.046   0.984   7.584  0.9949  0.8288 -0.9112
 8628SOL     OW37342   2.918   4.331   0.125  0.1569 -0.0516 -0.3508
 8628SOL    HW137343   2.867   4.250   0.125  0.0134  0.0341 -1.8345
 8628SOL    HW237344   2.852   4.396   0.101 -2.6572 -2.6601  0.4897
 8629SOL     OW37345   4.712   1.084   4.562  0.7137  0.1602  0.3646
 8629SOL    HW137346   4.685   1.106   4.473 -0.7791 -1.2083  0.4665
 8629SOL    HW237347   0.065   1.029   4.549  1.2600  1.0278  0.0192
 8630SOL     OW37348   3.982   4.446   2.224 -0.5212  0.0334 -0.1165
 8630SOL    HW137349   4.040   4.501   2.277  2.1806 -2.3274 -0.6170
 8630SOL    HW237350   4.009   4.361   2.256 -3.4475 -0.7089  0.4079
 8631SOL     OW37351   0.306   3.377   3.728 -0.3573  0.0185  0.0070
 8631SOL    HW137352   0.331   3.284   3.722  0.1451  0.2046 -0.8800
 8631SOL    HW237353   0.260   3.389   3.645 -0.1821 -0.7198 -0.2045
 8632SOL     OW37354   2.663   0.787  17.677 -0.0338  0.7810  0.8797
 8632SOL    HW137355   2.729   0.829   0.034  0.2623  0.3835  0.8264
 8632SOL    HW237356   2.679   0.695   0.001  1.1815  0.5132 -1.0910
 8633SOL     OW37357   2.409   0.404   0.233 -0.3028  0.2658  0.3830
 8633SOL    HW137358   2.378   0.333   0.177 -0.1324  0.2206  0.3449
 8633SOL    HW237359   2.320   0.429   0.255 -1.2872 -3.2590  0.4125
 8634SOL     OW37360   3.548   1.478  12.284  0.3567  0.0624  0.2916
 8634SOL    HW137361   3.555   1.561  12.237 -1.1584 -0.0947 -0.1892
 8634SOL    HW237362   3.520   1.420  12.213  0.5240 -1.0083  1.0955
 8635SOL     OW37363   0.085   2.638   6.472  0.5469 -0.5191 -0.0883
 8635SOL    HW137364   0.133   2.697   6.413 -0.7653  0.5438 -0.0966
 8635SOL    HW237365   0.111   2.549   6.450  2.0583  0.4179 -2.0943
 8636SOL     OW37366   2.312   0.105   2.739  0.0349  0.4009 -0.2290
 8636SOL    HW137367   2.267   0.025   2.713 -2.6142  1.2930  1.6438
 8636SOL    HW237368   2.341   0.126   2.650  0.8027  0.7212  0.0927
 8637SOL     OW37369   4.137   0.028   6.771  0.0346 -0.1488 -0.1258
 8637SOL    HW137370   4.152   4.695   6.696 -2.4586 -1.2905  0.2669
 8637SOL    HW237371   4.043   0.029   6.785 -0.4734  0.6374 -3.6431
 8638SOL     OW37372   3.967   0.697  12.179 -0.0863 -0.3654 -0.3495
 8638SOL    HW137373   3.880   0.731  12.158 -1.5893 -3.5780  0.6738
 8638SOL    HW237374   3.979   0.637  12.105 -2.3281 -0.7814 -0.3820
 8639SOL     OW37375   3.723   3.338   9.022 -0.4045  0.3177  0.0998
 8639SOL    HW137376   3.788   3.315   9.088  1.1076  1.8745 -0.8647
 8639SOL    HW237377   3.733   3.270   8.956  3.3126 -0.4816  1.5205
 8640SOL     OW37378   1.925   0.102   4.408  0.3142  0.0174 -0.4165
 8640SOL    HW137379   2.019   0.112   4.423  0.3905  1.2319 -1.7368
 8640SOL    HW237380   1.897   0.018   4.446  1.9972 -0.4945 -0.3464
 8641SOL     OW37381   4.382   2.193   0.824  0.3791  1.0971  0.5911
 8641SOL    HW137382   4.392   2.215   0.916 -1.5680 -2.2142  1.5962
 8641SOL    HW237383   4.291   2.217   0.806  0.2177 -1.3511 -1.8792
 8642SOL     OW37384   2.018   0.290  12.073  0.2397 -0.4562  0.3887
 8642SOL    HW137385   1.982   0.350  12.138 -0.2796  0.1602 -0.4746
 8642SOL    HW237386   1.978   0.205  12.089 -0.1791 -0.7230 -2.0521
 8643SOL     OW37387   2.323   0.989   5.160 -0.5092  0.0313 -1.1423
 8643SOL    HW137388   2.301   0.928   5.230  1.1730  0.0456 -0.6175
 8643SOL    HW237389   2.280   0.944   5.086 -0.7754 -0.3734 -0.7409
 8644SOL     OW37390   1.187   0.093  15.367  0.2122  0.0882 -0.3394
 8644SOL    HW137391   1.275   0.099  15.405  0.8809  1.0858 -2.0356
 8644SOL    HW237392   1.165   0.001  15.352 -1.4441  0.3006  0.8538
 8645SOL     OW37393   1.318   1.915   6.462 -0.6367 -0.4058  0.2784
 8645SOL    HW137394   1.247   1.868   6.506 -0.0083 -0.4118  1.2949
 8645SOL    HW237395   1.342   1.985   6.523 -0.8251  0.4766 -0.6783
 8646SOL     OW37396   1.134   0.842   7.043  0.7154  0.1391  0.6841
 8646SOL    HW137397   1.200   0.809   7.103 -0.0090 -0.4315  1.1683
 8646SOL    HW237398   1.047   0.843   7.084  0.4344  0.8413  0.0752
 8647SOL     OW37399   4.624   4.212  13.211  0.2521  0.3651 -0.4693
 8647SOL    HW137400   4.618   4.182  13.302 -3.0653 -0.2400 -0.8787
 8647SOL    HW237401   4.684   4.146  13.177  1.5978  0.7517  1.1405
 8648SOL     OW37402   3.742   4.034   8.818  0.1560 -0.6892  0.0380
 8648SOL    HW137403   3.779   4.086   8.747 -2.2132  0.1189 -0.5716
 8648SOL    HW237404   3.688   3.968   8.776  0.1162  0.2310 -1.3328
 8649SOL     OW37405   0.945   2.686  13.768  0.4722  0.2640  0.3385
 8649SOL    HW137406   0.947   2.772  13.811 -0.7794 -0.0773  1.0989
 8649SOL    HW237407   1.026   2.688  13.717  0.1059  1.5001 -0.1922
 8650SOL     OW37408   3.762   1.377  12.408  0.3801  0.2196  0.6020
 8650SOL    HW137409   3.682   1.422  12.380  0.7855  0.6052  0.0645
 8650SOL    HW237410   3.812   1.394  12.328 -0.3049  2.8977  0.7137
 8651SOL     OW37411   3.993   3.031   7.426  0.0889  0.0028  0.0792
 8651SOL    HW137412   4.008   2.946   7.386 -2.3403 -1.3531  2.0690
 8651SOL    HW237413   3.914   3.045   7.374 -1.9480 -0.2440  3.0667
 8652SOL     OW37414   0.716   1.851   9.677 -0.4746  0.7449  0.4143
 8652SOL    HW137415   0.763   1.836   9.595 -0.3050 -0.2602  0.7020
 8652SOL    HW237416   0.687   1.760   9.685  0.2314  0.4592 -0.2820
 8653SOL     OW37417   3.496   3.783  10.225  0.2392  0.1547  0.5077
 8653SOL    HW137418   3.485   3.696  10.187 -1.5395  0.0156  1.3366
 8653SOL    HW237419   3.590   3.796  10.217  0.0279  0.4789 -1.5507
 8654SOL     OW37420   2.671   1.227   6.312 -0.3795 -0.4086 -0.4228
 8654SOL    HW137421   2.641   1.313   6.282 -2.1892 -1.3627 -1.3563
 8654SOL    HW237422   2.679   1.236   6.407  3.1146 -1.1754 -0.6203
 8655SOL     OW37423   4.429   2.669   1.829  0.0768  0.0688  0.4781
 8655SOL    HW137424   4.488   2.722   1.775 -1.2874  0.6427 -0.4622
 8655SOL    HW237425   4.435   2.591   1.773  2.1132 -0.4321  1.3831
 8656SOL     OW37426   0.442   1.732   4.318 -0.5489  0.3589  0.0251
 8656SOL    HW137427   0.398   1.743   4.234 -2.0079  0.0318  0.7584
 8656SOL    HW237428   0.371   1.692   4.367  1.1498 -2.8238 -0.1028
 8657SOL     OW37429   2.095   4.038  16.210  0.1071  0.7137  0.8070
 8657SOL    HW137430   2.174   4.093  16.209  0.9864 -0.5228  2.0580
 8657SOL    HW237431   2.080   4.015  16.118  0.3772  0.3102  0.8628
 8658SOL     OW37432   2.340   0.103   5.962  0.1337  0.3000 -0.6957
 8658SOL    HW137433   2.259   0.113   5.912 -0.7511  0.9598  0.8926
 8658SOL    HW237434   2.371   0.017   5.933 -1.0965 -0.1456 -0.7009
 8659SOL     OW37435   2.780   4.247  11.779  0.0218 -0.1788  0.7551
 8659SOL    HW137436   2.875   4.253  11.769  0.0160 -0.8982  0.2886
 8659SOL    HW237437   2.763   4.154  11.799 -1.0315 -0.3803 -1.0492
 8660SOL     OW37438   3.129   0.697   3.844 -0.0798  0.0713  0.3523
 8660SOL    HW137439   3.159   0.699   3.753  0.9373 -0.1045  0.6926
 8660SOL    HW237440   3.046   0.651   3.840 -1.3653  2.4236 -0.5088
 8661SOL     OW37441   2.968   0.044   5.888 -0.8296 -0.0230  0.5191
 8661SOL    HW137442   3.056   0.076   5.909 -0.8210  0.2743  0.0437
 8661SOL    HW237443   2.982   0.024   5.795  0.0059 -1.1561  0.8819
 8662SOL     OW37444   4.027   0.164   4.485 -0.9444  0.2503 -0.0687
 8662SOL    HW137445   4.077   0.145   4.405 -1.9595 -0.1589 -0.6035
 8662SOL    HW237446   4.104   0.174   4.542 -2.3122 -1.0160  2.0027
 8663SOL     OW37447   4.235   4.252   3.473 -0.1993  0.1584 -0.3162
 8663SOL    HW137448   4.257   4.247   3.566 -0.4947  0.2254 -0.2410
 8663SOL    HW237449   4.150   4.207   3.471 -0.0925 -0.1287  1.4356
 8664SOL     OW37450   0.761   3.864   7.391  0.0577  0.3449 -0.1667
 8664SOL    HW137451   0.843   3.914   7.388 -0.0512  0.5208 -0.2013
 8664SOL    HW237452   0.736   3.864   7.299  2.6451  3.3130 -0.8614
 8665SOL     OW37453   3.845   2.897   6.066 -0.2059 -0.4678 -0.4564
 8665SOL    HW137454   3.797   2.972   6.032 -0.2211  0.5393  1.8132
 8665SOL    HW237455   3.866   2.922   6.156 -0.5369  0.3310 -0.6062
 8666SOL     OW37456   2.940   0.694  16.546  0.7676 -0.4522 -0.1537
 8666SOL    HW137457   3.036   0.689  16.546  0.7929  0.0736 -0.2421
 8666SOL    HW237458   2.931   0.676  16.640 -2.9314  0.7054 -0.2983
 8667SOL     OW37459   4.362   3.723   3.676  0.3995  0.7185 -0.3793
 8667SOL    HW137460   4.404   3.808   3.659  1.9007 -0.4035 -2.3213
 8667SOL    HW237461   4.440   3.674   3.702 -1.9307 -3.1264 -0.7624
 8668SOL     OW37462   2.945   4.634   5.311 -0.3188 -0.4846 -0.2660
 8668SOL    HW137463   2.936   4.716   5.261  3.0508  0.1051  0.0841
 8668SOL    HW237464   2.871   4.637   5.371 -1.1749 -1.5842 -1.2861
 8669SOL     OW37465   0.902   1.608   8.122 -0.2135 -0.2084  0.1025
 8669SOL    HW137466   0.912   1.553   8.200  2.1382  0.0202 -0.0354
 8669SOL    HW237467   0.818   1.647   8.148 -0.1491  1.1280 -1.7042
 8670SOL     OW37468   2.183   0.734   1.856  0.0635 -0.2448  0.2931
 8670SOL    HW137469   2.205   0.824   1.833 -0.0782  0.6334  3.6445
 8670SOL    HW237470   2.230   0.687   1.787 -1.6379 -0.9180 -0.4098
 8671SOL     OW37471   2.784   0.894   7.174  0.1063  0.2794 -0.9244
 8671SOL    HW137472   2.807   0.960   7.239 -1.0860 -0.2016 -0.0003
 8671SOL    HW237473   2.718   0.947   7.128 -3.0050 -1.7949  1.1723
 8672SOL     OW37474   4.369   0.984  13.056 -0.8482  0.4257 -0.1770
 8672SOL    HW137475   4.282   0.957  13.028 -0.4071 -0.5072 -0.6527
 8672SOL    HW237476   4.412   1.018  12.978  2.1421  0.6766  1.5514
 8673SOL     OW37477   1.221   2.609   5.277 -0.7177 -0.2882  0.1507
 8673SOL    HW137478   1.144   2.600   5.221  1.2425  0.0077 -2.5997
 8673SOL    HW237479   1.245   2.702   5.275 -0.2234 -0.3992  0.6446
 8674SOL     OW37480   2.580   1.100   7.904  0.2057  0.0118 -0.2579
 8674SOL    HW137481   2.502   1.063   7.864  0.3279  1.2361 -1.6146
 8674SOL    HW237482   2.544   1.148   7.979 -1.2737 -4.3721  1.8940
 8675SOL     OW37483   4.687   3.310  10.786  0.0472  0.2131 -0.2920
 8675SOL    HW137484   4.641   3.246  10.841 -0.4006  0.9058  0.1429
 8675SOL    HW237485   4.619   3.375  10.771 -1.7031 -1.6636 -0.4707
 8676SOL     OW37486   0.753   4.019  10.734 -0.6729  0.8205 -0.0407
 8676SOL    HW137487   0.777   4.064  10.814  1.1787  0.7927 -0.5752
 8676SOL    HW237488   0.800   4.074  10.671  1.3758  0.6000  1.2909
 8677SOL     OW37489   4.224   2.411   5.930 -0.1208 -0.0766 -0.0157
 8677SOL    HW137490   4.163   2.445   5.996 -0.2589 -0.7778  0.2254
 8677SOL    HW237491   4.226   2.473   5.857 -0.9095  1.3091  1.1340
 8678SOL     OW37492   1.984   2.102  15.916  0.3600  0.4443 -0.1994
 8678SOL    HW137493   2.057   2.041  15.920  0.6988  0.8764  0.1098
 8678SOL    HW237494   2.023   2.171  15.970  0.0317  1.6616 -1.5271
 8679SOL     OW37495   3.676   2.652   5.666  0.1786  0.2755 -0.2002
 8679SOL    HW137496   3.661   2.614   5.752 -0.0250 -1.0206 -0.8102
 8679SOL    HW237497   3.670   2.575   5.609  0.4747 -0.7232  1.1144
 8680SOL     OW37498   0.699   0.366  13.009  0.0057 -0.1023 -0.9666
 8680SOL    HW137499   0.630   0.431  12.998 -0.7678 -1.0732 -1.8726
 8680SOL    HW237500   0.698   0.356  13.104  1.7519 -2.5244 -1.1828
 8681SOL     OW37501   4.678   0.946  13.664  0.0055  1.1583  0.1023
 8681SOL    HW137502   0.007   0.908  13.595  0.9010  0.4460  1.1761
 8681SOL    HW237503   4.695   0.880  13.731 -1.3277 -0.2843 -0.9933
 8682SOL     OW37504   1.804   3.396   8.542  0.0476 -0.1583  0.1486
 8682SOL    HW137505   1.826   3.446   8.620 -1.7450 -0.3075  0.7570
 8682SOL    HW237506   1.709   3.404   8.557  0.3128  0.8880  1.2785
 8683SOL     OW37507   3.885   0.617   5.690 -0.0367 -0.1191  0.0691
 8683SOL    HW137508   3.917   0.700   5.655 -1.4885 -0.9473 -3.1310
 8683SOL    HW237509   3.868   0.566   5.611  0.5846 -2.5969  1.5462
 8684SOL     OW37510   4.022   3.564  14.589 -0.1497 -0.2455 -0.2726
 8684SOL    HW137511   4.006   3.472  14.611 -0.4073 -0.4791 -1.4633
 8684SOL    HW237512   4.017   3.580  14.495 -1.0242 -2.4458 -0.6108
 8685SOL     OW37513   4.352   0.870   3.520 -0.3112  0.3272  0.4560
 8685SOL    HW137514   4.424   0.929   3.542  0.9008 -1.4948  1.4569
 8685SOL    HW237515   4.376   0.859   3.428  1.9296 -2.8653  1.3825
 8686SOL     OW37516   2.042   2.434   1.478 -0.9058 -0.0497  0.0061
 8686SOL    HW137517   1.963   2.426   1.424  0.5605  1.3682 -2.3747
 8686SOL    HW237518   2.056   2.342   1.498 -2.8875 -0.2442  0.5142
 8687SOL     OW37519   3.291   2.715   4.199 -0.5068 -0.3718  0.2409
 8687SOL    HW137520   3.370   2.701   4.251 -1.0899  0.1779  1.2955
 8687SOL    HW237521   3.304   2.652   4.128  0.2249  1.5709 -1.3512
 8688SOL     OW37522   4.069   1.055   5.955 -0.5190 -0.0265  0.0134
 8688SOL    HW137523   4.083   0.983   5.893  1.4008 -0.5826  1.1008
 8688SOL    HW237524   3.993   1.102   5.920  1.2687  0.4734 -3.2106
 8689SOL     OW37525   2.182   2.581   8.302  0.6821 -0.5499 -0.0996
 8689SOL    HW137526   2.138   2.608   8.222 -0.9614 -0.2933  0.8685
 8689SOL    HW237527   2.122   2.602   8.374  0.6899 -1.1547  0.0876
 8690SOL     OW37528   4.442   1.193   3.163 -0.5412 -0.6151 -0.3723
 8690SOL    HW137529   4.433   1.100   3.180 -3.6779  0.0452  1.4964
 8690SOL    HW237530   4.360   1.229   3.131 -2.0428 -1.7748  2.2142
 8691SOL     OW37531   3.195   2.081   2.513  0.0538 -0.0090  0.7260
 8691SOL    HW137532   3.145   2.116   2.588 -0.1120 -1.8097  1.4643
 8691SOL    HW237533   3.214   2.163   2.469  0.0550 -0.9692 -1.0443
 8692SOL     OW37534   3.316   2.030  13.855 -0.3710  0.1993  0.7335
 8692SOL    HW137535   3.286   2.076  13.933 -1.9610 -0.4579  0.4902
 8692SOL    HW237536   3.267   2.083  13.793 -0.2940 -1.7427 -0.9867
 8693SOL     OW37537   3.574   3.771  13.465 -0.0302 -0.1650 -0.4528
 8693SOL    HW137538   3.640   3.729  13.411 -1.0763 -3.7392  1.0488
 8693SOL    HW237539   3.533   3.833  13.405 -3.0426 -0.4711  1.2799
 8694SOL     OW37540   4.467   0.157  14.703 -0.0268 -0.6010 -0.2317
 8694SOL    HW137541   4.464   0.252  14.713 -1.3812 -0.5231 -1.4257
 8694SOL    HW237542   4.511   0.165  14.619 -1.7164 -0.5671 -1.1114
 8695SOL     OW37543   3.315   0.598   4.477 -0.4359  0.1770 -0.0825
 8695SOL    HW137544   3.228   0.608   4.515  0.0525  0.2897  1.0130
 8695SOL    HW237545   3.301   0.511   4.438 -1.3806  0.4946 -0.4583
 8696SOL     OW37546   2.095   2.689   8.072 -0.0327  0.0808  0.3646
 8696SOL    HW137547   2.010   2.700   8.115 -0.0139  2.5207 -0.2339
 8696SOL    HW237548   2.071   2.693   7.979  1.1063 -0.2353  0.0609
 8697SOL     OW37549   4.012   1.097  17.086 -0.4761  0.1077 -0.4925
 8697SOL    HW137550   3.973   1.085  17.173 -0.4881  1.2720 -0.3414
 8697SOL    HW237551   4.022   1.005  17.062 -1.3814 -0.3317  0.8199
 8698SOL     OW37552   3.893   4.264   2.783 -0.1151  0.0201  0.1431
 8698SOL    HW137553   3.902   4.319   2.861  1.2269 -0.3735  0.2586
 8698SOL    HW237554   3.802   4.270   2.755  0.3138 -1.0251 -1.4833
 8699SOL     OW37555   4.059   3.406   7.977 -0.1791  0.4520  0.4479
 8699SOL    HW137556   4.082   3.313   7.971 -1.1004  0.3905 -2.2745
 8699SOL    HW237557   4.002   3.398   8.053  0.2379  1.5346  0.8788
 8700SOL     OW37558   4.501   0.255   2.636  0.1142  0.4964  0.5070
 8700SOL    HW137559   4.450   0.336   2.645 -0.4387  0.4051 -1.9876
 8700SOL    HW237560   4.584   0.300   2.620  0.6411 -0.2986  1.0332
 8701SOL     OW37561   2.896   3.172   3.809 -0.0457 -0.2750 -0.3717
 8701SOL    HW137562   2.850   3.154   3.891 -1.1978 -0.8232 -1.1362
 8701SOL    HW237563   2.971   3.114   3.797 -1.3838 -1.8215 -1.3570
 8702SOL     OW37564   4.506   1.648  15.074  0.2816 -0.1962  0.8258
 8702SOL    HW137565   4.517   1.657  14.979 -1.0390 -1.0553  0.5873
 8702SOL    HW237566   4.483   1.555  15.076 -0.4946 -0.0083  0.9389
 8703SOL     OW37567   4.315   0.347   7.455 -0.1467  0.2821  0.0142
 8703SOL    HW137568   4.240   0.330   7.512  0.4303 -1.2087  0.3354
 8703SOL    HW237569   4.320   0.443   7.461  2.0383  0.2127 -0.9436
 8704SOL     OW37570   3.074   3.745   5.435  0.0573 -0.1417 -0.0548
 8704SOL    HW137571   3.038   3.734   5.347  2.9604 -2.3100 -0.9531
 8704SOL    HW237572   3.055   3.836   5.460  0.6452 -0.7606  2.6071
 8705SOL     OW37573   2.748   2.097   4.572 -0.0789  0.7325  0.2200
 8705SOL    HW137574   2.826   2.117   4.521 -0.1254  2.5120  0.8448
 8705SOL    HW237575   2.678   2.116   4.510 -0.2552 -1.6966 -0.3013
 8706SOL     OW37576   0.532   3.633   3.423  0.1208  0.1267 -0.5380
 8706SOL    HW137577   0.529   3.616   3.518 -1.4884 -2.7182 -1.1088
 8706SOL    HW237578   0.624   3.611   3.410 -0.0163 -0.1400 -1.0430
 8707SOL     OW37579   3.271   4.402   6.503 -0.2323  0.3118 -0.2970
 8707SOL    HW137580   3.195   4.410   6.559 -0.0987  3.0165 -0.4920
 8707SOL    HW237581   3.227   4.382   6.421  1.4458 -1.7224 -0.6942
 8708SOL     OW37582   1.991   0.555   0.851 -0.2828 -0.1157 -0.2055
 8708SOL    HW137583   1.928   0.624   0.831  0.1947  0.5636  0.6405
 8708SOL    HW237584   2.028   0.587   0.934  0.8122 -0.4586 -0.5674
 8709SOL     OW37585   4.454   3.998   7.347  0.1858  0.1357  0.6157
 8709SOL    HW137586   4.496   3.913   7.360 -2.7740 -2.0147 -3.8262
 8709SOL    HW237587   4.391   3.980   7.277  0.2497  1.6051  0.1858
 8710SOL     OW37588   3.049   2.095   1.976 -0.0127 -0.3631 -0.5461
 8710SOL    HW137589   3.108   2.040   1.925 -0.3322 -0.9583 -0.2756
 8710SOL    HW237590   2.975   2.095   1.915 -0.9960 -0.4149  0.6445
 8711SOL     OW37591   3.777   1.623   6.006  0.0773 -0.3861  0.3756
 8711SOL    HW137592   3.692   1.592   6.037  0.4156  0.2340  1.8987
 8711SOL    HW237593   3.774   1.718   6.001 -1.1395 -0.4356  0.0684
 8712SOL     OW37594   0.587   2.197   2.038 -0.1898  0.4434  0.4257
 8712SOL    HW137595   0.510   2.141   2.043  0.0717  0.0134 -0.5665
 8712SOL    HW237596   0.623   2.174   1.953 -2.5694 -0.1277 -0.4236
 8713SOL     OW37597   4.224   3.384   4.359  0.2533  0.5599  0.3733
 8713SOL    HW137598   4.143   3.368   4.310  0.4093 -1.6823  0.8515
 8713SOL    HW237599   4.260   3.295   4.354  1.5057  1.0987 -0.2655
 8714SOL     OW37600   2.526   1.174   2.140 -0.0525 -0.3623  0.1764
 8714SOL    HW137601   2.548   1.101   2.197  0.7684 -1.1723 -1.1907
 8714SOL    HW237602   2.603   1.230   2.132 -1.2975  1.5583  1.6302
 8715SOL     OW37603   2.621   0.923  16.009  0.0909  1.2179  0.5389
 8715SOL    HW137604   2.629   0.976  15.930 -0.9098  1.9873  0.9577
 8715SOL    HW237605   2.539   0.876  16.001  1.2932 -0.4830 -1.9337
 8716SOL     OW37606   2.810   0.693   7.611  0.7989  0.5362 -0.3564
 8716SOL    HW137607   2.896   0.667   7.645  0.1426  0.8851  1.5526
 8716SOL    HW237608   2.840   0.686   7.520 -2.2041  1.8679 -1.4496
 8717SOL     OW37609   4.096   4.316   6.678 -0.1385  0.0004 -0.3542
 8717SOL    HW137610   4.044   4.245   6.641 -1.3450 -0.2588  1.8539
 8717SOL    HW237611   4.060   4.319   6.766 -0.2831  2.3194 -0.4971
 8718SOL     OW37612   2.226   1.602   3.855 -0.0313  0.5989  0.3946
 8718SOL    HW137613   2.298   1.540   3.844 -1.6250 -1.3010  0.8047
 8718SOL    HW237614   2.151   1.554   3.821  2.3113 -1.5852 -1.7132
 8719SOL     OW37615   1.090   2.986  16.168  0.1558  0.3722 -0.0515
 8719SOL    HW137616   1.034   3.033  16.106  1.3450  0.5344 -1.0148
 8719SOL    HW237617   1.022   2.925  16.196  0.7784 -0.6361 -0.7041
 8720SOL     OW37618   2.944   1.809   4.169  0.3522 -0.2987 -0.6131
 8720SOL    HW137619   2.872   1.806   4.232 -0.2809 -0.0728 -1.3263
 8720SOL    HW237620   2.914   1.743   4.106  2.5345 -1.9154  0.0563
 8721SOL     OW37621   3.049   1.778   3.578 -0.0130 -0.0696  0.3550
 8721SOL    HW137622   2.992   1.802   3.651 -0.5570 -0.5434  0.0919
 8721SOL    HW237623   2.976   1.763   3.518  0.1990 -1.5132  0.4570
 8722SOL     OW37624   2.448   4.555   3.601 -0.8258  0.2565  0.0418
 8722SOL    HW137625   2.458   4.586   3.511  0.8051 -0.5956 -0.0743
 8722SOL    HW237626   2.531   4.568   3.647 -1.0655 -1.3498  0.9200
 8723SOL     OW37627   2.297   1.641   4.842 -0.4468 -0.4183  0.3489
 8723SOL    HW137628   2.388   1.653   4.814  0.3138 -2.1243  2.0842
 8723SOL    HW237629   2.312   1.627   4.935  0.4554 -1.1534  0.0899
 8724SOL     OW37630   1.348   0.987   5.207 -0.0211 -0.4534 -0.2818
 8724SOL    HW137631   1.392   0.931   5.143  1.3360 -0.0410  0.2775
 8724SOL    HW237632   1.355   1.072   5.162 -1.2744 -0.3315 -0.2496
 8725SOL     OW37633   0.305   3.086   5.807  0.1456 -0.2159  0.5292
 8725SOL    HW137634   0.227   3.131   5.775  0.8009  0.5873  0.0738
 8725SOL    HW237635   0.376   3.139   5.772 -0.3946  0.3235  0.2522
 8726SOL     OW37636   2.613   1.901   2.264  0.4280  0.4308 -0.0123
 8726SOL    HW137637   2.535   1.902   2.320 -0.6182 -0.2218 -1.4597
 8726SOL    HW237638   2.621   1.992   2.236 -1.0255  0.3974 -0.5160
 8727SOL     OW37639   4.399   3.303  16.633 -1.0576  0.1019 -0.6864
 8727SOL    HW137640   4.458   3.233  16.659  0.4285  1.4021 -0.5680
 8727SOL    HW237641   4.464   3.372  16.623  0.9410 -1.6054  0.6333
 8728SOL     OW37642   4.169   1.735   5.023 -0.0559  0.2208  0.6930
 8728SOL    HW137643   4.080   1.748   4.989  1.2103  1.0844 -2.2789
 8728SOL    HW237644   4.227   1.756   4.950 -0.2852  0.0811  0.4741
 8729SOL     OW37645   2.990   4.377   3.133  0.3398 -0.2119  0.2495
 8729SOL    HW137646   2.980   4.469   3.155 -0.9192 -0.7475  1.9017
 8729SOL    HW237647   2.985   4.341   3.222  0.6940  1.8667  1.1073
 8730SOL     OW37648   0.640   2.986   3.459 -0.5009  0.1131  0.3189
 8730SOL    HW137649   0.574   2.924   3.430  0.0034 -0.5638  0.6187
 8730SOL    HW237650   0.607   3.074   3.444  0.8747  0.5833  0.0372
 8731SOL     OW37651   1.831   2.055   6.772 -0.1650 -0.6176 -0.2185
 8731SOL    HW137652   1.852   1.970   6.810  2.0698  0.9718  2.0757
 8731SOL    HW237653   1.742   2.043   6.737  0.2352 -1.6267 -0.8891
 8732SOL     OW37654   2.845   0.795  10.853  0.3580  0.1921  0.1337
 8732SOL    HW137655   2.864   0.747  10.934  1.1946 -0.3568 -0.3734
 8732SOL    HW237656   2.926   0.844  10.837  1.0821  0.0942  3.3823
 8733SOL     OW37657   3.858   2.433   2.629  0.2668 -0.2766  0.1370
 8733SOL    HW137658   3.919   2.469   2.564 -1.3198  2.6373  0.2618
 8733SOL    HW237659   3.796   2.401   2.564 -1.0974  2.6999 -0.0601
 8734SOL     OW37660   4.322   4.211   8.398  0.0998  0.6557 -0.4185
 8734SOL    HW137661   4.398   4.201   8.454 -0.2666 -1.7231 -0.3201
 8734SOL    HW237662   4.245   4.202   8.455  0.6673  1.6491  0.4965
 8735SOL     OW37663   2.275   0.995   5.745 -0.4244  0.1626  0.1152
 8735SOL    HW137664   2.292   0.903   5.764  0.4382  0.7320  2.0987
 8735SOL    HW237665   2.341   1.032   5.803 -1.9062 -1.1549  2.6430
 8736SOL     OW37666   3.553   0.949   4.053  0.0325  0.0658 -0.3181
 8736SOL    HW137667   3.512   0.867   4.025 -0.3063 -0.6318  2.2530
 8736SOL    HW237668   3.487   1.017   4.041 -1.1513 -0.9801  0.2471
 8737SOL     OW37669   0.763   0.615   6.117 -0.0928 -0.1842  0.6381
 8737SOL    HW137670   0.742   0.561   6.042  0.1873 -0.4374  0.7425
 8737SOL    HW237671   0.703   0.689   6.109 -0.9388 -1.0354 -0.7618
 8738SOL     OW37672   2.045   3.443  15.308  0.0829  0.1142 -0.0350
 8738SOL    HW137673   1.953   3.452  15.283  0.5851  1.2879 -1.4617
 8738SOL    HW237674   2.046   3.438  15.404 -3.1828  0.1546 -0.0083
 8739SOL     OW37675   4.451   3.165   7.307 -0.3200  0.7372 -0.1235
 8739SOL    HW137676   4.360   3.192   7.295 -0.8847 -0.8941  0.4712
 8739SOL    HW237677   4.482   3.134   7.222  0.4941  0.8712  0.1200
 8740SOL     OW37678   4.006   4.034   7.063 -0.3269 -0.3926  0.4563
 8740SOL    HW137679   3.943   4.057   6.996  0.6895  2.4949  0.5108
 8740SOL    HW237680   4.029   3.951   7.020  0.5841  0.0039  0.1702
 8741SOL     OW37681   0.807   1.740  13.738 -0.3185 -0.0894 -0.1050
 8741SOL    HW137682   0.886   1.711  13.783  0.2655  0.6714 -0.6604
 8741SOL    HW237683   0.739   1.723  13.804  0.4817  1.5956  1.1427
 8742SOL     OW37684   0.271   4.149   4.901 -0.0618  0.2015  0.1567
 8742SOL    HW137685   0.238   4.144   4.811  1.6874 -2.4348 -0.3306
 8742SOL    HW237686   0.361   4.129   4.874  0.1631 -0.9707  1.7996
 8743SOL     OW37687   1.509   1.351  13.237  0.5336 -0.1271 -0.1932
 8743SOL    HW137688   1.548   1.377  13.154  1.1991  0.6491  0.3762
 8743SOL    HW237689   1.455   1.282  13.198  1.1632 -0.7043 -0.0458
 8744SOL     OW37690   0.416   0.674   4.243  0.7460 -0.6544  0.0165
 8744SOL    HW137691   0.458   0.631   4.318 -1.8651  0.4129  2.0435
 8744SOL    HW237692   0.492   0.729   4.222  1.8051 -2.1370 -0.1007
 8745SOL     OW37693   0.670   2.622   5.287  0.3044  0.7965 -0.7849
 8745SOL    HW137694   0.598   2.596   5.228 -1.5708 -0.1598  1.9367
 8745SOL    HW237695   0.665   2.713   5.259  1.4229  0.6013 -1.6001
 8746SOL     OW37696   4.505   3.425  10.141 -0.4195 -0.2968 -0.2941
 8746SOL    HW137697   4.548   3.382  10.068  2.2882 -0.7566  1.5700
 8746SOL    HW237698   4.582   3.461  10.186 -0.6357 -0.5863  0.3143
 8747SOL     OW37699   2.621   2.323   5.043  0.0337 -0.0168  0.2451
 8747SOL    HW137700   2.629   2.267   4.967  0.3618  2.3054 -1.4384
 8747SOL    HW237701   2.710   2.353   5.061  0.0348  1.1851 -1.7367
 8748SOL     OW37702   2.440   2.837   4.601 -0.1005 -0.0883 -0.4777
 8748SOL    HW137703   2.521   2.830   4.551  1.8096 -0.4807  2.6704
 8748SOL    HW237704   2.409   2.923   4.573 -1.1996 -0.3003  0.1153
 8749SOL     OW37705   2.237   1.996   1.783 -0.1898 -0.2037  0.6414
 8749SOL    HW137706   2.300   1.985   1.712  0.8248  0.6441  1.3945
 8749SOL    HW237707   2.159   1.947   1.758 -1.5544  2.5718 -0.5540
 8750SOL     OW37708   0.005   1.388  15.238  0.1434  0.5492  0.0500
 8750SOL    HW137709   4.671   1.450  15.282 -0.1641  0.2335  0.0952
 8750SOL    HW237710   4.719   1.406  15.144 -2.5659 -1.2914 -0.0229
 8751SOL     OW37711   3.326   4.564   8.807  0.0319  1.1627  0.5494
 8751SOL    HW137712   3.318   4.513   8.727 -0.4236  1.2473  0.5420
 8751SOL    HW237713   3.407   4.615   8.800  1.0836 -0.1599  2.7889
 8752SOL     OW37714   1.508   0.950  10.706 -0.2597  0.3387 -0.2995
 8752SOL    HW137715   1.539   1.040  10.696  0.0365  0.0066 -2.4837
 8752SOL    HW237716   1.576   0.894  10.744  0.8746  1.2443 -0.9836
 8753SOL     OW37717   0.954   4.422   1.213  0.4909 -0.4115  0.5404
 8753SOL    HW137718   0.879   4.408   1.156 -0.0735 -1.3952  1.5458
 8753SOL    HW237719   0.946   4.362   1.286 -0.7491 -0.4998  0.3195
 8754SOL     OW37720   2.414   1.992   7.752  1.1331 -0.0689 -0.0523
 8754SOL    HW137721   2.337   1.941   7.777 -0.3168  2.2604  0.2826
 8754SOL    HW237722   2.493   1.950   7.786  1.8133  2.8053  2.0256
 8755SOL     OW37723   2.470   3.658   8.791 -0.2629  0.2895  0.1922
 8755SOL    HW137724   2.375   3.671   8.788 -0.6848 -2.9107  0.5128
 8755SOL    HW237725   2.482   3.596   8.720 -2.1736  1.7773 -1.4425
 8756SOL     OW37726   0.610   3.952   3.392 -0.4621  0.1460  0.0526
 8756SOL    HW137727   0.611   3.857   3.408  0.5292  0.2114  0.4384
 8756SOL    HW237728   0.693   3.958   3.345 -0.0208 -1.5565  0.6131
 8757SOL     OW37729   1.072   0.941   3.305 -0.1345 -0.4215 -0.1548
 8757SOL    HW137730   1.083   0.995   3.384  0.7901 -0.1391 -0.4779
 8757SOL    HW237731   1.035   0.865   3.350  2.8512 -2.6867 -1.5157
 8758SOL     OW37732   0.047   1.302  16.391 -0.3175  0.4161 -0.4512
 8758SOL    HW137733   0.009   1.379  16.348 -0.0558  0.3469 -0.8065
 8758SOL    HW237734   0.123   1.345  16.430 -2.3549 -0.1075  4.1594
 8759SOL     OW37735   2.884   0.601   6.538  0.0421  0.0687  0.1803
 8759SOL    HW137736   2.948   0.604   6.467 -1.1500  0.2659 -0.8818
 8759SOL    HW237737   2.938   0.621   6.615 -0.4183  0.4539  0.4022
 8760SOL     OW37738   1.369   3.229   6.305 -0.2013  0.3092  0.9612
 8760SOL    HW137739   1.379   3.297   6.239 -0.5295  0.4111  1.0171
 8760SOL    HW237740   1.457   3.192   6.292 -0.4876  0.3389 -0.9948
 8761SOL     OW37741   3.465   3.419   3.297 -0.0763 -0.2550  0.0293
 8761SOL    HW137742   3.388   3.458   3.256 -0.8931 -1.9938 -0.0890
 8761SOL    HW237743   3.436   3.328   3.288 -1.9132  0.5617 -2.5093
 8762SOL     OW37744   2.064   3.967   9.866 -0.5411 -0.2453 -0.5861
 8762SOL    HW137745   1.975   3.982   9.834  0.1805 -1.4321 -3.1397
 8762SOL    HW237746   2.103   4.050   9.895 -3.7692  1.2786 -0.5172
 8763SOL     OW37747   0.175   3.009   0.874  0.7227  0.1072 -0.3526
 8763SOL    HW137748   0.258   3.057   0.867 -0.3432  2.1658  0.9833
 8763SOL    HW237749   0.122   3.087   0.857  0.0250 -0.0339  1.2734
 8764SOL     OW37750   1.559   2.462   7.426 -0.5559 -0.0664  0.4103
 8764SOL    HW137751   1.533   2.535   7.370  0.6047 -1.1881 -1.6289
 8764SOL    HW237752   1.653   2.465   7.408 -1.0436  0.9453 -1.9883
 8765SOL     OW37753   0.342   1.681   7.916  0.0852  0.0500 -0.8614
 8765SOL    HW137754   0.320   1.745   7.983  1.0577 -1.5558  1.0142
 8765SOL    HW237755   0.269   1.619   7.918  2.0374 -2.1534  2.7376
 8766SOL     OW37756   1.635   0.727   2.144  0.0682 -0.3491  0.2051
 8766SOL    HW137757   1.616   0.676   2.223 -0.0698  0.7666  0.8961
 8766SOL    HW237758   1.584   0.670   2.087  1.4628 -3.1168  1.7448
 8767SOL     OW37759   4.464   3.991   1.705 -0.5894 -0.8692  0.6428
 8767SOL    HW137760   4.485   4.075   1.745 -3.5613  1.3823 -2.5451
 8767SOL    HW237761   4.452   4.018   1.614  2.6639 -0.8658  0.2251
 8768SOL     OW37762   3.284   4.243  16.022  0.0646 -0.3652 -0.0931
 8768SOL    HW137763   3.288   4.321  15.967 -1.1360 -0.8519 -0.8850
 8768SOL    HW237764   3.321   4.178  15.962 -0.2843 -0.5206 -0.1414
 8769SOL     OW37765   1.541   0.128   4.389  0.1774  0.1390 -0.3354
 8769SOL    HW137766   1.479   0.130   4.462  3.5373  2.5386  2.5077
 8769SOL    HW237767   1.560   0.035   4.378  0.3703 -0.4444  4.6876
 8770SOL     OW37768   2.473   2.530   3.545  0.0160 -0.4935  0.3776
 8770SOL    HW137769   2.527   2.484   3.481 -2.3657 -0.8294 -1.4093
 8770SOL    HW237770   2.479   2.617   3.506  1.0238 -0.9330 -0.4509
 8771SOL     OW37771   0.849   0.077   4.456  0.0558  0.2464  0.0628
 8771SOL    HW137772   0.812   0.005   4.406  1.8418  0.1424 -1.1269
 8771SOL    HW237773   0.833   0.153   4.400 -0.0426  0.3584  0.2436
 8772SOL     OW37774   3.489   0.145  17.167 -0.5482  0.1196 -0.1008
 8772SOL    HW137775   3.532   0.130  17.083 -1.5282 -0.2261 -0.5392
 8772SOL    HW237776   3.527   0.227  17.198  0.8501 -0.5454 -0.0649
 8773SOL     OW37777   1.724   1.264  16.213  0.4557  0.4292 -0.1344
 8773SOL    HW137778   1.644   1.229  16.175  0.4114  0.2667  0.1098
 8773SOL    HW237779   1.735   1.216  16.295 -0.2830 -0.0892 -0.3342
 8774SOL     OW37780   1.015   1.239   4.070  0.2062 -0.3288 -0.0373
 8774SOL    HW137781   1.010   1.334   4.057  1.3948 -0.2607 -0.0070
 8774SOL    HW237782   1.096   1.236   4.122  0.0893 -0.8126  0.1127
 8775SOL     OW37783   0.810   2.080   0.240  0.4545 -0.7765 -0.1311
 8775SOL    HW137784   0.896   2.121   0.238 -0.4028  1.1777  3.2323
 8775SOL    HW237785   0.785   2.085   0.148  0.2144  2.6571  0.1405
 8776SOL     OW37786   1.546   0.240   5.742 -0.7319  0.2347 -0.0388
 8776SOL    HW137787   1.494   0.189   5.680 -0.3521 -0.0314 -0.1359
 8776SOL    HW237788   1.495   0.321   5.741  1.3973  1.5706 -0.4106
 8777SOL     OW37789   0.625   2.150   3.255  0.0880  0.1399  0.3009
 8777SOL    HW137790   0.635   2.055   3.265 -2.5481  0.0838  2.5291
 8777SOL    HW237791   0.589   2.184   3.337  0.9949  0.5455  0.5280
 8778SOL     OW37792   0.648   2.807   7.448 -0.1553 -0.2481  0.4101
 8778SOL    HW137793   0.706   2.752   7.500 -1.4078  0.9690  3.1208
 8778SOL    HW237794   0.636   2.873   7.517 -0.7066  1.0828 -0.9467
 8779SOL     OW37795   3.972   2.810   8.264  0.3145  0.1090 -0.2516
 8779SOL    HW137796   3.943   2.780   8.350 -1.0004 -0.6855 -0.9657
 8779SOL    HW237797   4.046   2.752   8.252  1.0778  1.2554 -1.0922
 8780SOL     OW37798   3.947   3.272   8.592 -0.2783  0.0421 -0.1805
 8780SOL    HW137799   3.868   3.268   8.538 -1.3169  3.1624  1.1461
 8780SOL    HW237800   4.015   3.309   8.536  1.1069  0.7507  1.9326
 8781SOL     OW37801   0.464   1.460   8.339 -0.4807  0.0559  0.0589
 8781SOL    HW137802   0.458   1.555   8.353  1.2220  0.5165 -2.4301
 8781SOL    HW237803   0.373   1.440   8.358 -0.2645 -0.8013  0.1762
 8782SOL     OW37804   0.145   2.567   9.438 -0.2034  0.0892  0.5819
 8782SOL    HW137805   0.088   2.502   9.480  2.0880 -1.1761  1.7522
 8782SOL    HW237806   0.164   2.532   9.350  1.7576 -0.0068  1.0363
 8783SOL     OW37807   1.247   2.095   9.183 -0.2912  0.3697 -0.7009
 8783SOL    HW137808   1.332   2.064   9.150  1.4502  3.4907  0.9069
 8783SOL    HW237809   1.264   2.142   9.264  0.7880 -1.6256  0.2267
 8784SOL     OW37810   4.456   0.502   9.249 -0.3033 -0.0358  0.2050
 8784SOL    HW137811   4.492   0.549   9.174  1.8415 -2.9765 -0.5912
 8784SOL    HW237812   4.411   0.570   9.300 -0.4660 -0.0276  0.0513
 8785SOL     OW37813   1.662   3.448  17.049  0.0937 -0.4518 -0.1466
 8785SOL    HW137814   1.628   3.375  16.998 -1.2169 -0.3134  0.5202
 8785SOL    HW237815   1.645   3.524  16.993  0.7985 -1.0557 -1.1796
 8786SOL     OW37816   0.029   2.967   7.376  0.3040  0.1818  0.2216
 8786SOL    HW137817   0.103   2.993   7.430  0.1412  1.0494  0.0354
 8786SOL    HW237818   4.721   3.051   7.342 -1.2167 -0.1841  0.7345
 8787SOL     OW37819   1.448   1.800   8.618  0.3541  0.3544  0.3428
 8787SOL    HW137820   1.378   1.781   8.681 -0.1804  1.2514  0.0237
 8787SOL    HW237821   1.435   1.889   8.586 -1.4854 -0.7954 -2.1320
 8788SOL     OW37822   1.923   4.540   4.432  0.6652  0.3062  0.4952
 8788SOL    HW137823   2.017   4.554   4.415  0.5012  1.5011  0.5804
 8788SOL    HW237824   1.919   4.478   4.504 -4.2681  0.6054  0.4535
 8789SOL     OW37825   1.726   1.436  15.957  0.0433 -0.0946 -0.4968
 8789SOL    HW137826   1.662   1.377  15.918 -0.6535  0.5687 -0.3622
 8789SOL    HW237827   1.729   1.392  16.043  0.2086  1.4774  0.2932
 8790SOL     OW37828   4.060   3.647   8.497  0.0901  0.0171  0.2952
 8790SOL    HW137829   4.012   3.706   8.554  0.7336 -1.0000  1.8832
 8790SOL    HW237830   4.104   3.705   8.435 -0.4911  0.5951  0.4168
 8791SOL     OW37831   3.263   2.776   2.355  0.3324  0.1399 -0.3240
 8791SOL    HW137832   3.195   2.709   2.352  1.8027 -1.4221  1.5210
 8791SOL    HW237833   3.223   2.830   2.424 -0.8893 -1.8494  0.5304
 8792SOL     OW37834   2.566   4.226  17.462 -0.4577  0.3934  0.0145
 8792SOL    HW137835   2.548   4.294  17.528  0.6348 -0.9777  1.7028
 8792SOL    HW237836   2.500   4.245  17.395  0.5203  0.1894 -0.9883
 8793SOL     OW37837   1.673   0.136   2.772  0.3252  0.0422 -0.0879
 8793SOL    HW137838   1.759   0.108   2.803  0.5056  1.5255  0.7748
 8793SOL    HW237839   1.620   0.066   2.810 -0.1767  0.7886  0.5797
 8794SOL     OW37840   3.831   1.105   8.202 -0.4951 -1.2242  0.2364
 8794SOL    HW137841   3.746   1.125   8.163 -0.0286  0.3384  0.0400
 8794SOL    HW237842   3.817   1.023   8.249 -1.9690 -1.2038 -0.1541
 8795SOL     OW37843   1.895   1.296   0.114  0.1940  0.1149  0.2428
 8795SOL    HW137844   1.915   1.347   0.035  0.0800  0.7762  0.6333
 8795SOL    HW237845   1.802   1.279   0.102  0.7686 -1.4041 -2.1955
 8796SOL     OW37846   3.347   4.213   1.226 -0.0878  0.5505  0.0078
 8796SOL    HW137847   3.369   4.126   1.259 -0.1753  0.0599 -1.2446
 8796SOL    HW237848   3.254   4.199   1.207 -0.2023  0.6568  0.4687
 8797SOL     OW37849   4.126   0.288   3.764 -0.5308  0.4012 -0.5254
 8797SOL    HW137850   4.151   0.211   3.815 -0.8107  2.2148  2.3585
 8797SOL    HW237851   4.061   0.331   3.820 -0.6252  1.3267 -1.3358
 8798SOL     OW37852   1.880   0.527   5.612 -0.2837 -0.1554  0.2517
 8798SOL    HW137853   1.939   0.602   5.605  1.2264 -1.2754  0.8593
 8798SOL    HW237854   1.906   0.507   5.702 -0.0800 -0.8584  0.0315
 8799SOL     OW37855   0.728   1.805   0.928 -0.0831  0.1277  0.1754
 8799SOL    HW137856   0.664   1.737   0.947  1.4866 -1.7123 -1.0156
 8799SOL    HW237857   0.729   1.789   0.833 -0.0245  0.4645  0.1190
 8800SOL     OW37858   0.745   0.636   4.142 -0.0439 -0.1013  0.1167
 8800SOL    HW137859   0.759   0.611   4.051  1.7014 -0.8737  0.5978
 8800SOL    HW237860   0.765   0.729   4.139 -2.0360  0.4011  2.0854
 8801SOL     OW37861   1.174   0.179   7.235 -0.5481 -0.0333 -0.3906
 8801SOL    HW137862   1.141   0.227   7.159  0.8950  0.9759 -0.3867
 8801SOL    HW237863   1.140   0.091   7.217 -0.0017 -0.0474 -1.3400
 8802SOL     OW37864   0.229   3.248   3.344 -0.0810 -0.7138  0.5021
 8802SOL    HW137865   0.223   3.270   3.251 -0.6273  0.0146  0.7091
 8802SOL    HW237866   0.173   3.311   3.390 -1.8047  0.1894 -2.8232
 8803SOL     OW37867   3.733   4.066   2.402 -0.0851  0.0025  0.2790
 8803SOL    HW137868   3.699   3.979   2.384 -0.6691  0.3762 -0.4588
 8803SOL    HW237869   3.736   4.103   2.313 -1.4966  0.4539  0.4067
 8804SOL     OW37870   3.358   1.075   7.941 -0.0982  0.1014 -0.1262
 8804SOL    HW137871   3.441   1.028   7.952  1.2259  2.1521 -1.3622
 8804SOL    HW237872   3.357   1.112   8.030 -0.0099  0.6924 -0.3725
 8805SOL     OW37873   3.297   1.782  12.217  0.2966  0.0514 -0.2234
 8805SOL    HW137874   3.272   1.713  12.279  0.9788 -0.6724 -0.7638
 8805SOL    HW237875   3.362   1.731  12.169 -0.3401 -1.9474  1.0383
 8806SOL     OW37876   1.524   1.124  12.173  0.1541  0.4768  0.4234
 8806SOL    HW137877   1.564   1.122  12.260  1.0362  1.2523  0.0194
 8806SOL    HW237878   1.441   1.092  12.210  0.1163 -2.5553 -2.2632
 8807SOL     OW37879   0.248   3.034  10.617  0.0170 -0.0278  0.5457
 8807SOL    HW137880   0.258   2.945  10.583  1.8402  0.4372 -0.1058
 8807SOL    HW237881   0.249   3.076  10.531  1.6788  1.4538  1.3012
 8808SOL     OW37882   0.959   0.565   4.328 -0.0532  0.2223  0.0967
 8808SOL    HW137883   0.897   0.600   4.264  0.3156  2.4758  0.9731
 8808SOL    HW237884   1.038   0.595   4.285  0.7891  0.0312  1.5234
 8809SOL     OW37885   4.483   2.966   6.359  0.2320 -0.0682  0.5781
 8809SOL    HW137886   4.388   2.966   6.352  0.3571 -2.8445 -1.1384
 8809SOL    HW237887   4.508   2.974   6.451  0.7505  0.8663  0.3581
 8810SOL     OW37888   4.609   3.890  17.684  0.2382  0.0857  0.3932
 8810SOL    HW137889   4.694   3.860  17.651 -0.8527 -2.3107 -0.1874
 8810SOL    HW237890   4.632   3.982  17.698  1.4317 -0.8571  4.5580
 8811SOL     OW37891   3.477   2.916  15.032 -0.2980 -0.1075 -0.4792
 8811SOL    HW137892   3.482   2.920  14.937  1.3522 -1.2822 -0.4407
 8811SOL    HW237893   3.481   2.822  15.051  0.0698  0.5850  2.9926
 8812SOL     OW37894   1.174   1.388  15.008 -0.1235 -0.3343  0.0252
 8812SOL    HW137895   1.108   1.325  15.036  0.2760 -0.5870  0.3919
 8812SOL    HW237896   1.187   1.453  15.076  1.2098 -1.1961  0.5900
 8813SOL     OW37897   0.433   2.944   6.693  0.0759  0.0580  0.0566
 8813SOL    HW137898   0.397   2.866   6.733 -1.5301  2.0364  2.4349
 8813SOL    HW237899   0.387   2.958   6.610 -0.0225  2.3864  0.4904
 8814SOL     OW37900   3.935   0.642   2.335  0.0767  0.3035  0.1368
 8814SOL    HW137901   3.885   0.698   2.395  1.4985  0.6553  0.9979
 8814SOL    HW237902   3.960   0.709   2.271  0.2664 -1.8484 -2.0532
 8815SOL     OW37903   2.424   2.124   5.981  0.0600 -0.5370 -0.3605
 8815SOL    HW137904   2.384   2.075   6.052 -0.5415 -2.0131 -1.7126
 8815SOL    HW237905   2.499   2.163   6.025  0.3548 -0.2992 -1.0741
 8816SOL     OW37906   2.876   0.968   7.474  0.7342 -0.5405  0.5534
 8816SOL    HW137907   2.827   1.049   7.463  2.4660  0.2020 -1.4701
 8816SOL    HW237908   2.830   0.931   7.550 -0.8701  2.8847  1.2443
 8817SOL     OW37909   0.299   1.932   6.576 -0.4234  0.2320 -0.7410
 8817SOL    HW137910   0.374   1.942   6.634  0.2062  1.9030 -1.8416
 8817SOL    HW237911   0.298   1.838   6.558  0.1652 -0.0754  0.8727
 8818SOL     OW37912   0.527   1.480   3.888  0.0234  0.2196 -0.7935
 8818SOL    HW137913   0.590   1.531   3.837  0.9936  2.4220  2.5650
 8818SOL    HW237914   0.531   1.402   3.834 -2.1304  0.0491 -0.7003
 8819SOL     OW37915   3.328   2.741   9.167  0.0388 -1.0697 -0.4459
 8819SOL    HW137916   3.344   2.828   9.130 -1.2568 -0.4565  0.4107
 8819SOL    HW237917   3.416   2.732   9.201 -0.4405 -1.1636  0.7726
 8820SOL     OW37918   2.139   0.012   9.013  0.2843 -0.3779 -0.2814
 8820SOL    HW137919   2.233   0.022   9.029  0.2118  0.3451 -0.3069
 8820SOL    HW237920   2.113   4.650   9.045 -2.0896 -0.1973 -1.7183
 8821SOL     OW37921   0.104   3.113   8.131  0.0998 -0.0806 -0.3777
 8821SOL    HW137922   0.169   3.180   8.150 -1.1413  0.7153  1.0194
 8821SOL    HW237923   0.142   3.079   8.050  0.3018 -1.4250  0.2671
 8822SOL     OW37924   3.399   1.905   2.402 -0.2626 -0.2661  0.1140
 8822SOL    HW137925   3.333   1.971   2.422 -0.2186 -0.3880  0.6589
 8822SOL    HW237926   3.468   1.969   2.384  1.2135 -1.5451  1.2373
 8823SOL     OW37927   1.433   2.747   2.119 -0.0997 -0.2066  0.3625
 8823SOL    HW137928   1.424   2.812   2.189 -1.2728 -0.7402  0.7022
 8823SOL    HW237929   1.451   2.797   2.039  0.0485 -0.5145  0.2046
 8824SOL     OW37930   0.385   2.389   9.605 -0.5649 -0.1328  0.0268
 8824SOL    HW137931   0.474   2.422   9.607 -0.2351 -0.8346 -2.3227
 8824SOL    HW237932   0.346   2.450   9.668  2.1668  1.7063 -0.0903
 8825SOL     OW37933   2.875   3.032   5.775  0.1270 -0.2108 -0.1566
 8825SOL    HW137934   2.876   2.936   5.778  0.2662 -0.1313  2.6564
 8825SOL    HW237935   2.965   3.062   5.765  0.6076 -1.7613 -0.5635
 8826SOL     OW37936   2.273   0.947   4.162 -0.4341  0.4649  0.7108
 8826SOL    HW137937   2.184   0.911   4.168 -1.0097  1.8374  0.2954
 8826SOL    HW237938   2.269   0.967   4.068  1.3799 -0.9823  0.3133
 8827SOL     OW37939   4.143   1.990   1.711  0.2484  0.8595 -0.4176
 8827SOL    HW137940   4.061   1.980   1.663 -1.1202 -0.5121  2.2571
 8827SOL    HW237941   4.190   1.909   1.691 -2.0523 -1.2616  2.9066
 8828SOL     OW37942   2.526   3.369  14.638 -0.1668  0.4853 -0.3150
 8828SOL    HW137943   2.492   3.434  14.700  0.6075  1.7618 -1.2035
 8828SOL    HW237944   2.452   3.356  14.579  0.7997 -2.5195 -0.8226
 8829SOL     OW37945   0.368   4.072   1.821  0.2277  0.3314 -0.2963
 8829SOL    HW137946   0.321   4.001   1.866  0.4394 -0.0776 -0.7138
 8829SOL    HW237947   0.389   4.132   1.893  0.1812 -0.2374  0.1957
 8830SOL     OW37948   3.387   4.019   3.532  0.1142 -0.0965 -0.3708
 8830SOL    HW137949   3.403   3.959   3.605 -0.3481 -1.4648 -1.3790
 8830SOL    HW237950   3.349   3.955   3.471  0.3271  0.1575 -0.7664
 8831SOL     OW37951   0.942   0.416   9.069  0.2206 -0.7183  0.1331
 8831SOL    HW137952   1.018   0.469   9.093  1.4399 -1.8542 -1.1976
 8831SOL    HW237953   0.954   0.345   9.133 -2.3601  0.4754  1.9322
 8832SOL     OW37954   2.120   3.757  14.437 -0.4331  0.2282 -0.1665
 8832SOL    HW137955   2.179   3.723  14.505 -1.2204 -0.1738  0.3122
 8832SOL    HW237956   2.133   3.848  14.461 -1.0095 -0.0153  1.0351
 8833SOL     OW37957   0.380   0.182  11.994  0.5573 -0.2362  0.4796
 8833SOL    HW137958   0.390   0.231  11.912 -4.7047 -0.4824 -0.3040
 8833SOL    HW237959   0.470   0.176  12.026  1.3513  0.2256 -1.6441
 8834SOL     OW37960   3.872   3.585  16.088 -0.0784  0.0351 -0.0607
 8834SOL    HW137961   3.950   3.529  16.085 -1.3322 -1.6752 -0.5049
 8834SOL    HW237962   3.887   3.623  16.001 -1.6228 -0.7408 -0.6707
 8835SOL     OW37963   3.049   4.206   8.413  0.1091 -0.3017  0.2038
 8835SOL    HW137964   3.089   4.146   8.351 -0.7605 -0.0269 -0.6336
 8835SOL    HW237965   3.029   4.281   8.356 -0.7293 -1.5260 -1.1107
 8836SOL     OW37966   1.781   2.117   7.462  0.3096  0.3701  0.3163
 8836SOL    HW137967   1.752   2.195   7.414 -1.2177  0.5617  1.5723
 8836SOL    HW237968   1.752   2.148   7.547 -4.4634 -0.7404 -0.9179
 8837SOL     OW37969   3.990   2.057   3.321 -0.2730  0.1981 -0.6857
 8837SOL    HW137970   3.948   2.007   3.252 -2.6743  2.1136 -0.6103
 8837SOL    HW237971   4.044   2.118   3.271  2.1976  0.4378  2.2422
 8838SOL     OW37972   0.465   0.436   3.020 -0.1849 -0.3907  0.2176
 8838SOL    HW137973   0.472   0.358   2.965 -0.7641 -0.6003  0.4385
 8838SOL    HW237974   0.372   0.456   3.008 -0.4827 -1.9233 -0.0743
 8839SOL     OW37975   1.568   3.973   7.719  0.0062 -0.5360 -0.3574
 8839SOL    HW137976   1.662   3.986   7.732  0.0810 -0.7559 -0.6938
 8839SOL    HW237977   1.543   4.064   7.736  2.4121 -0.1107  1.0529
 8840SOL     OW37978   2.283   3.977  13.867 -0.3786 -0.0651  0.0413
 8840SOL    HW137979   2.242   3.902  13.909  1.9117 -1.9612 -1.0548
 8840SOL    HW237980   2.274   4.042  13.936  0.4045 -0.3140  0.3744
 8841SOL     OW37981   2.098   4.188   3.531 -0.1598 -0.1053  0.2232
 8841SOL    HW137982   2.042   4.119   3.568  1.8072 -1.1788  1.1891
 8841SOL    HW237983   2.161   4.191   3.602  1.1616  1.3023 -1.0070
 8842SOL     OW37984   0.209   3.228   1.422 -0.0247 -0.0389 -0.2533
 8842SOL    HW137985   0.209   3.154   1.483  0.9007  0.1695  0.0089
 8842SOL    HW237986   0.286   3.206   1.369  0.8122 -0.6724  1.2307
 8843SOL     OW37987   3.331   3.809   3.727 -0.0240  0.3077  0.0780
 8843SOL    HW137988   3.417   3.776   3.702  0.4813  1.0333  0.8610
 8843SOL    HW237989   3.303   3.727   3.767 -0.6591  0.2131 -0.5512
 8844SOL     OW37990   4.271   2.424  15.647  0.8199 -0.2308  0.2473
 8844SOL    HW137991   4.190   2.408  15.598  0.5538  0.9931  0.2827
 8844SOL    HW237992   4.267   2.347  15.704  2.1888 -0.6663 -0.2605
 8845SOL     OW37993   1.957   3.285   5.343  0.3120 -0.0084  0.2866
 8845SOL    HW137994   1.901   3.321   5.411 -2.0073 -3.1027  0.0056
 8845SOL    HW237995   1.935   3.192   5.345  1.8247 -0.4218 -1.9278
 8846SOL     OW37996   1.817   2.310   3.068  0.4568  0.1680 -0.1989
 8846SOL    HW137997   1.789   2.344   3.153  1.1550  1.6565 -0.5672
 8846SOL    HW237998   1.784   2.220   3.069 -0.1684  0.3996  0.3298
 8847SOL     OW37999   3.346   0.118   5.625 -0.2171  0.0872 -0.7761
 8847SOL    HW138000   3.318   0.158   5.543  1.7045  3.5954  0.2806
 8847SOL    HW238001   3.394   0.039   5.599 -0.1141 -0.1058  0.0155
 8848SOL     OW38002   4.076   4.040   9.931  0.3909 -0.5694  0.1531
 8848SOL    HW138003   4.141   4.110   9.939  0.3128 -0.3903 -0.7868
 8848SOL    HW238004   4.121   3.989   9.863  0.2762 -0.3474 -0.0924
 8849SOL     OW38005   2.277   2.611   0.265  0.2564  0.1401  0.4071
 8849SOL    HW138006   2.199   2.580   0.311 -0.8567  0.4993 -1.2338
 8849SOL    HW238007   2.251   2.699   0.239  0.9990 -0.2669 -1.6806
 8850SOL     OW38008   1.129   2.576   3.831  0.3025  0.1500  0.3089
 8850SOL    HW138009   1.125   2.535   3.745 -0.9779 -1.6189  1.2168
 8850SOL    HW238010   1.085   2.661   3.819 -0.6415 -0.5112 -0.8809
 8851SOL     OW38011   3.825   4.023  16.391  1.0723  0.3490  0.3833
 8851SOL    HW138012   3.801   4.099  16.444 -1.4825 -0.0439 -0.1783
 8851SOL    HW238013   3.820   3.954  16.458 -2.1134  1.7032  1.5636
 8852SOL     OW38014   2.166   1.560  15.831  0.2049  0.3471 -0.4501
 8852SOL    HW138015   2.131   1.644  15.858  0.7879  0.6937 -0.7824
 8852SOL    HW238016   2.170   1.500  15.906  3.6499  0.8886 -0.2032
 8853SOL     OW38017   2.004   1.361  11.195 -0.0999  0.6962 -0.8399
 8853SOL    HW138018   2.049   1.433  11.238 -0.3734 -0.9697  2.3003
 8853SOL    HW238019   1.929   1.352  11.254  0.1982 -0.1975 -0.5870
 8854SOL     OW38020   0.397   3.776  14.331  0.7739  1.0298  0.2722
 8854SOL    HW138021   0.338   3.827  14.388 -0.5704 -0.3909  0.1819
 8854SOL    HW238022   0.356   3.793  14.247  1.7825 -0.7432 -0.5797
 8855SOL     OW38023   1.199   1.460   6.465  0.0123  0.6891  0.2299
 8855SOL    HW138024   1.227   1.497   6.381 -0.2837  0.8395  0.1971
 8855SOL    HW238025   1.217   1.368   6.446 -0.2891  1.0783 -1.9814
 8856SOL     OW38026   3.924   2.015   4.120  0.2963  0.5202 -0.0542
 8856SOL    HW138027   3.871   2.074   4.066  2.2858  1.9341 -0.4718
 8856SOL    HW238028   4.005   2.066   4.129  1.5121 -1.5627  0.7532
 8857SOL     OW38029   1.560   1.154   5.366  0.4408 -0.4378 -0.8326
 8857SOL    HW138030   1.497   1.177   5.298  0.0899  0.2908 -0.2614
 8857SOL    HW238031   1.580   1.237   5.410 -0.4401 -0.7954  0.2381
 8858SOL     OW38032   2.151   0.012   8.700 -0.0179 -0.1392 -0.2642
 8858SOL    HW138033   2.159   0.103   8.731  0.4612  0.3042 -1.6696
 8858SOL    HW238034   2.202   4.688   8.766  0.3802 -0.7117 -0.9928
 8859SOL     OW38035   1.906   3.106  13.905  0.2777  0.3976 -0.0967
 8859SOL    HW138036   1.841   3.045  13.871  0.9304  0.9320 -2.2950
 8859SOL    HW238037   1.879   3.183  13.854 -1.3951 -0.7735 -1.0016
 8860SOL     OW38038   1.845   3.733  14.425 -0.3285  0.3568 -0.1100
 8860SOL    HW138039   1.825   3.646  14.459 -2.4202  1.5614  1.7743
 8860SOL    HW238040   1.939   3.723  14.412 -0.1931 -0.7681  1.7298
 8861SOL     OW38041   3.852   3.274   9.263 -0.3727 -0.1331  0.0500
 8861SOL    HW138042   3.912   3.208   9.297 -1.5125 -2.3094 -2.2106
 8861SOL    HW238043   3.785   3.268   9.331  1.1525  1.8242  1.7524
 8862SOL     OW38044   4.232   2.204   6.591 -0.3818 -0.4146  0.9456
 8862SOL    HW138045   4.189   2.138   6.536  0.1150 -1.0053  1.2615
 8862SOL    HW238046   4.324   2.184   6.570 -0.4357  0.4255 -0.0734
 8863SOL     OW38047   2.215   3.114   7.028 -0.1590 -0.4142 -0.2813
 8863SOL    HW138048   2.120   3.098   7.026 -0.1194 -0.5384 -1.0820
 8863SOL    HW238049   2.235   3.069   6.946  1.6452  1.2253 -0.7361
 8864SOL     OW38050   0.676   3.763  12.160  0.1828  0.5690 -0.0766
 8864SOL    HW138051   0.597   3.754  12.108  0.9827  0.2210 -1.2246
 8864SOL    HW238052   0.743   3.716  12.110 -0.9020 -1.6964  0.5593
 8865SOL     OW38053   2.791   2.931  13.817  0.0029 -0.4170 -0.3739
 8865SOL    HW138054   2.878   2.914  13.854 -0.5494  0.5916  1.3394
 8865SOL    HW238055   2.830   2.971  13.739  0.9947 -0.6839 -0.0174
 8866SOL     OW38056   4.714   4.429   7.119  0.0379 -0.0448  0.5856
 8866SOL    HW138057   0.045   4.354   7.141  1.6110  1.0924  0.4633
 8866SOL    HW238058   0.017   4.494   7.183 -2.0541 -1.0192  2.4347
 8867SOL     OW38059   2.320   4.451   8.305 -0.3821  0.5231  0.1709
 8867SOL    HW138060   2.405   4.487   8.278  0.2323 -0.3405  0.9165
 8867SOL    HW238061   2.297   4.512   8.375  1.8290 -0.7839  2.0622
 8868SOL     OW38062   3.957   3.718   6.321  0.3572  0.4191  0.1855
 8868SOL    HW138063   4.037   3.738   6.369 -0.4271  0.6349  1.4152
 8868SOL    HW238064   3.928   3.809   6.313 -0.3463  0.2002  0.2167
 8869SOL     OW38065   1.054   0.784   5.241 -0.4744  0.7239  0.2664
 8869SOL    HW138066   1.054   0.768   5.147 -0.5608  0.3261  0.3325
 8869SOL    HW238067   1.074   0.701   5.283 -0.6242 -0.0693 -1.2143
 8870SOL     OW38068   2.162   4.580   5.247  0.3642  0.6612 -0.0022
 8870SOL    HW138069   2.198   4.668   5.255  1.5834  0.2903 -1.2916
 8870SOL    HW238070   2.244   4.531   5.257  1.5202  2.0315 -2.6722
 8871SOL     OW38071   3.033   0.527  14.878 -0.1645  0.2212 -0.1448
 8871SOL    HW138072   3.119   0.498  14.910 -0.6166  0.2060  1.0662
 8871SOL    HW238073   3.052   0.500  14.788 -1.8439  0.8017 -0.6666
 8872SOL     OW38074   4.324   0.820   3.265 -0.3486 -0.0461  0.2212
 8872SOL    HW138075   4.235   0.809   3.231  0.1678  0.3932 -1.2981
 8872SOL    HW238076   4.376   0.772   3.200  0.9555  2.1761 -0.4032
 8873SOL     OW38077   0.411   0.763  13.160  0.0250 -0.7241 -0.2158
 8873SOL    HW138078   0.398   0.851  13.197  0.9016 -0.7003  0.0497
 8873SOL    HW238079   0.356   0.702  13.209  1.7418 -2.6306 -0.6398
 8874SOL     OW38080   0.658   2.868   5.160  0.1796  0.1044  0.0735
 8874SOL    HW138081   0.720   2.937   5.182  0.0416  0.5701 -0.9589
 8874SOL    HW238082   0.661   2.871   5.064  2.6376 -1.2754  0.1331
 8875SOL     OW38083   3.788   0.077   4.395  0.4169 -0.0434  1.1986
 8875SOL    HW138084   3.732   0.114   4.463 -1.5254 -0.8679  0.0524
 8875SOL    HW238085   3.875   0.113   4.410  0.2438  1.4890 -1.4757
 8876SOL     OW38086   0.349   1.224  15.952  0.0025 -0.4750 -0.0380
 8876SOL    HW138087   0.339   1.319  15.944 -0.6684 -0.3898  1.7256
 8876SOL    HW238088   0.335   1.215  16.047 -3.1659  0.6617 -0.3979
 8877SOL     OW38089   0.603   1.559   0.923  0.2557  0.0364 -0.7209
 8877SOL    HW138090   0.543   1.554   0.849 -1.1317 -0.9555  0.4750
 8877SOL    HW238091   0.589   1.474   0.966  0.0405  1.2162  1.5709
 8878SOL     OW38092   3.107   1.355  12.027 -0.1557  0.1266  0.5505
 8878SOL    HW138093   3.119   1.291  11.957  0.3072 -0.2718  0.9959
 8878SOL    HW238094   3.169   1.309  12.083  0.7970 -1.3117 -1.7019
 8879SOL     OW38095   2.501   0.913   2.282  0.3106  0.3257  0.2457
 8879SOL    HW138096   2.494   0.832   2.231 -0.0043 -0.2639  1.2107
 8879SOL    HW238097   2.529   0.875   2.366 -0.7642 -1.3246 -0.1453
 8880SOL     OW38098   1.993   2.118  17.460  0.0511  0.0425 -0.5249
 8880SOL    HW138099   1.909   2.163  17.463 -0.6186 -1.1806 -1.0903
 8880SOL    HW238100   2.051   2.164  17.399  0.9235  0.1825  0.4180
 8881SOL     OW38101   3.166   1.282   0.075 -0.2980  0.0096  0.0983
 8881SOL    HW138102   3.097   1.335   0.114  0.9328 -0.2681  2.6224
 8881SOL    HW238103   3.212   1.364   0.053  1.9709 -1.5876 -1.1387
 8882SOL     OW38104   0.083   0.676   8.682  0.0215 -0.2084  0.3073
 8882SOL    HW138105   0.059   0.583   8.679  1.5099 -0.4986 -2.3053
 8882SOL    HW238106   0.101   0.691   8.775  1.7115  0.7767 -0.1821
 8883SOL     OW38107   0.003   1.166   7.017 -0.1351  0.2707 -0.1489
 8883SOL    HW138108   4.658   1.120   7.064 -0.3105 -0.1675 -0.8453
 8883SOL    HW238109   0.073   1.165   7.082 -0.4334 -0.0818  0.1647
 8884SOL     OW38110   1.129   2.207   6.450  0.2069  0.0177  0.6335
 8884SOL    HW138111   1.045   2.165   6.431  0.4197 -0.5837  1.0085
 8884SOL    HW238112   1.125   2.281   6.389 -2.1943 -1.0707 -0.5273
 8885SOL     OW38113   0.668   1.440   9.257 -0.2897  0.1844  0.5687
 8885SOL    HW138114   0.593   1.382   9.273  0.8588 -0.2378  4.3778
 8885SOL    HW238115   0.678   1.431   9.162  2.2760  0.1874  0.8345
 8886SOL     OW38116   2.529   2.755   5.702 -0.2028  0.2139  0.0314
 8886SOL    HW138117   2.544   2.713   5.617  2.1052 -1.6283  1.3406
 8886SOL    HW238118   2.614   2.784   5.734 -0.0446  1.1745 -1.2658
 8887SOL     OW38119   1.826   2.184   1.968 -0.1864 -0.3511 -0.0550
 8887SOL    HW138120   1.754   2.192   2.030 -0.7856  2.1532 -1.0538
 8887SOL    HW238121   1.901   2.214   2.019  0.0264 -0.6954 -0.1706
 8888SOL     OW38122   2.904   3.801  11.669  0.0195  0.0510  0.2283
 8888SOL    HW138123   2.996   3.774  11.674 -0.4844 -1.3440  2.0116
 8888SOL    HW238124   2.875   3.710  11.666  0.2961 -0.1284  2.4279
 8889SOL     OW38125   4.492   1.543   3.710 -0.4529 -0.0446 -0.1338
 8889SOL    HW138126   4.495   1.622   3.656 -1.5087  0.3392  0.3556
 8889SOL    HW238127   4.476   1.588   3.794  0.9838 -0.5415  0.3958
 8890SOL     OW38128   0.891   4.310   3.110  0.3108  0.5957 -0.4829
 8890SOL    HW138129   0.882   4.352   3.024  0.3046 -2.8907 -2.2272
 8890SOL    HW238130   0.938   4.232   3.080  1.2556  0.9198  0.1623
 8891SOL     OW38131   1.739   4.665   8.491 -0.2869  0.2417 -0.4053
 8891SOL    HW138132   1.809   4.697   8.435  1.8640  1.4653  2.9706
 8891SOL    HW238133   1.793   4.646   8.568 -0.0080  0.8166 -0.4618
 8892SOL     OW38134   2.751   1.508   2.011 -0.2864 -0.1115  0.1320
 8892SOL    HW138135   2.701   1.590   2.014 -1.1759 -0.6077 -1.1455
 8892SOL    HW238136   2.790   1.505   1.924  0.1599  2.3242  0.2446
 8893SOL     OW38137   2.302   3.758   4.324 -0.3876  0.0557  0.1557
 8893SOL    HW138138   2.314   3.701   4.248  0.9058 -0.2813  0.6006
 8893SOL    HW238139   2.361   3.705   4.378 -2.3201 -0.5436  1.6902
 8894SOL     OW38140   2.805   2.772  11.882 -0.2909 -0.4041 -0.3011
 8894SOL    HW138141   2.896   2.798  11.895  0.1669 -1.6763 -0.9427
 8894SOL    HW238142   2.768   2.817  11.958  1.0897  0.1285  0.0538
 8895SOL     OW38143   4.503   3.058   1.750 -0.1369 -0.1134  0.2684
 8895SOL    HW138144   4.544   3.098   1.673  0.7695  0.2866  0.9655
 8895SOL    HW238145   4.546   3.100   1.824 -1.4138  2.5830 -0.5067
 8896SOL     OW38146   1.220   4.671  10.779 -0.2122 -0.2717 -0.2223
 8896SOL    HW138147   1.272   0.025  10.759  1.6311 -0.6383  3.0914
 8896SOL    HW238148   1.165   4.719  10.841  1.3521 -1.3192  2.0014
 8897SOL     OW38149   2.799   3.589   8.193 -0.2719 -0.5861 -0.1321
 8897SOL    HW138150   2.886   3.549   8.187 -0.2093 -0.2552 -1.5059
 8897SOL    HW238151   2.831   3.662   8.245 -0.7909 -0.2797 -0.2471
 8898SOL     OW38152   0.367   3.809  16.850  0.9526 -0.1953 -0.2106
 8898SOL    HW138153   0.436   3.751  16.821  0.5210  0.2898 -2.1672
 8898SOL    HW238154   0.318   3.809  16.768 -0.4937 -0.6758  0.6528
 8899SOL     OW38155   0.426   4.574   0.427 -0.2602  0.2865  0.1919
 8899SOL    HW138156   0.450   4.569   0.520 -0.8025  1.9681  0.4213
 8899SOL    HW238157   0.340   4.533   0.418 -0.6681  1.2340 -0.2486
 8900SOL     OW38158   2.913   2.780   5.788  0.1339  0.0959  0.6207
 8900SOL    HW138159   2.878   2.700   5.749 -0.4518  1.3276 -1.3825
 8900SOL    HW238160   2.993   2.755   5.833  0.0341 -0.6615  0.3843
 8901SOL     OW38161   3.257   0.179  16.938  0.5828  0.3508 -0.4641
 8901SOL    HW138162   3.235   0.143  17.024  0.3855 -0.5196 -0.8874
 8901SOL    HW238163   3.353   0.188  16.940  0.5637  0.5207 -0.1849
 8902SOL     OW38164   1.975   3.551   3.061  0.2035 -0.1355 -0.0484
 8902SOL    HW138165   1.992   3.525   2.970  0.0609 -3.2832  0.8348
 8902SOL    HW238166   1.951   3.465   3.097  0.1828 -0.5010 -0.9271
 8903SOL     OW38167   1.374   4.397   2.020 -0.4156 -0.6961 -0.0217
 8903SOL    HW138168   1.287   4.426   2.047 -0.5503 -1.3884  0.2767
 8903SOL    HW238169   1.357   4.333   1.952  0.0718  0.8574 -1.6202
 8904SOL     OW38170   2.742   0.114   0.786 -0.3369  0.2822 -0.2547
 8904SOL    HW138171   2.657   0.085   0.753 -0.1417 -0.6227  0.0367
 8904SOL    HW238172   2.710   0.185   0.841  2.9118 -0.3382  2.4379
 8905SOL     OW38173   2.660   0.391   6.450  0.2307 -0.3581  0.1954
 8905SOL    HW138174   2.638   0.323   6.514  0.3106 -0.3587  0.2224
 8905SOL    HW238175   2.736   0.431   6.491 -0.2717  2.5664 -1.7357
 8906SOL     OW38176   4.101   2.956   5.203  0.5427 -0.2475  0.3487
 8906SOL    HW138177   4.152   3.030   5.168 -0.3951  0.1473 -0.1758
 8906SOL    HW238178   4.171   2.892   5.192  1.5931  1.1853 -1.3274
 8907SOL     OW38179   2.622   4.460   3.199  0.0080  0.5564  0.1790
 8907SOL    HW138180   2.700   4.473   3.145  1.9023 -2.1970  2.2329
 8907SOL    HW238181   2.659   4.428   3.281  1.0060 -0.5869 -0.7077
 8908SOL     OW38182   3.460   4.316  14.600  0.2168  0.6114  0.7803
 8908SOL    HW138183   3.449   4.332  14.694  1.0625  0.4216  0.9153
 8908SOL    HW238184   3.409   4.384  14.556 -3.0817 -3.1788 -1.1661
 8909SOL     OW38185   4.115   1.542  12.496 -0.9933  0.0176 -0.0260
 8909SOL    HW138186   4.049   1.522  12.562  1.1775  0.3023  2.2231
 8909SOL    HW238187   4.058   1.571  12.425 -0.9036 -0.5417 -0.3281
 8910SOL     OW38188   4.262   2.020  16.101 -0.4079 -0.1924 -0.5636
 8910SOL    HW138189   4.316   1.943  16.082  1.8962  0.7795  2.0011
 8910SOL    HW238190   4.173   1.989  16.089 -0.8391  0.6995  0.3600
 8911SOL     OW38191   0.902   2.061   1.737  0.4197  0.1857 -0.4916
 8911SOL    HW138192   0.934   1.987   1.686 -0.3380  0.4467 -1.3367
 8911SOL    HW238193   0.955   2.053   1.816  0.1704 -1.2680 -0.4656
 8912SOL     OW38194   2.267   0.845  17.464 -0.1206 -0.0011 -0.3522
 8912SOL    HW138195   2.210   0.806  17.397  1.6736 -1.9163 -0.7548
 8912SOL    HW238196   2.195   0.856  17.527 -0.1067 -0.9109 -0.1748
 8913SOL     OW38197   1.894   3.065   0.949 -0.2176  0.0324  0.0791
 8913SOL    HW138198   1.938   3.022   1.023 -0.3659 -2.5420 -1.3159
 8913SOL    HW238199   1.962   3.125   0.918  0.3418 -0.1095  1.0212
 8914SOL     OW38200   3.554   1.405   6.252 -0.8229  0.0839 -0.6480
 8914SOL    HW138201   3.466   1.387   6.220 -0.8562 -0.2631 -0.3514
 8914SOL    HW238202   3.598   1.418   6.167 -0.9936 -1.7995 -1.0276
 8915SOL     OW38203   3.115   2.920   8.069  0.7684  0.4778  0.1697
 8915SOL    HW138204   3.169   2.940   7.992 -2.2137  2.4093 -1.4239
 8915SOL    HW238205   3.035   2.970   8.053 -0.7305 -1.3933  1.8947
 8916SOL     OW38206   0.954   4.314   5.426  0.5835 -0.2362 -0.0090
 8916SOL    HW138207   0.995   4.309   5.512  0.5782  1.2973  0.0775
 8916SOL    HW238208   0.907   4.397   5.431  1.0508  0.1673 -2.0791
 8917SOL     OW38209   4.184   4.565   6.562  0.0908 -0.0811  0.2188
 8917SOL    HW138210   4.132   4.499   6.609 -1.9619  1.3117 -0.0862
 8917SOL    HW238211   4.195   4.516   6.481 -0.9567  1.1781 -0.6763
 8918SOL     OW38212   3.077   4.723   6.509 -0.2907  0.2681  0.3483
 8918SOL    HW138213   3.053   4.667   6.435  0.5553  0.7902 -0.3166
 8918SOL    HW238214   2.995   0.046   6.526  0.2875  0.7288  1.8860
 8919SOL     OW38215   2.499   3.477   1.180  0.2729 -0.0397  0.3896
 8919SOL    HW138216   2.559   3.406   1.158 -0.6257 -0.7818  0.3374
 8919SOL    HW238217   2.511   3.541   1.110  1.3115 -1.9875 -1.2162
 8920SOL     OW38218   0.615   1.843   3.242  0.9594 -0.2181  0.0438
 8920SOL    HW138219   0.698   1.842   3.288  1.4224 -1.3086 -0.8045
 8920SOL    HW238220   0.558   1.783   3.289  4.4015 -3.0672  0.5294
 8921SOL     OW38221   0.939   3.026   1.658  0.3427 -0.3500  0.0126
 8921SOL    HW138222   0.981   3.050   1.575  0.0539  1.3951  0.3724
 8921SOL    HW238223   0.874   2.963   1.626  0.3364  0.4392 -1.5438
 8922SOL     OW38224   3.538   1.870   1.838  0.3175  0.4129  0.4830
 8922SOL    HW138225   3.624   1.872   1.881  0.9184  2.8512 -0.8193
 8922SOL    HW238226   3.553   1.909   1.752 -0.0389  0.5314  0.4723
 8923SOL     OW38227   4.275   3.223  12.044 -0.4981  0.0300  0.4099
 8923SOL    HW138228   4.342   3.180  12.097 -1.5188 -1.2360  0.6891
 8923SOL    HW238229   4.309   3.311  12.030  1.6857 -1.2418 -2.3616
 8924SOL     OW38230   1.307   2.008  13.903  0.7995 -1.0947 -0.1190
 8924SOL    HW138231   1.273   2.017  13.814 -2.2283 -1.0408  1.0371
 8924SOL    HW238232   1.250   2.062  13.958  0.6980  0.0263 -1.3195
 8925SOL     OW38233   1.887   2.536  13.815 -0.3863 -0.3138 -0.3967
 8925SOL    HW138234   1.799   2.571  13.823  0.0788  0.5109  1.1897
 8925SOL    HW238235   1.876   2.446  13.784 -1.2466 -1.3041  2.8255
 8926SOL     OW38236   0.149   1.741   3.310  0.0254  0.4304  0.1480
 8926SOL    HW138237   0.228   1.787   3.339  0.0860  0.3150  0.1656
 8926SOL    HW238238   0.173   1.674   3.247  1.4431  1.9442 -0.9261
 8927SOL     OW38239   3.470   0.134   4.368  0.4282  0.4908  0.4563
 8927SOL    HW138240   3.388   0.101   4.405  0.0089 -0.8391 -1.7081
 8927SOL    HW238241   3.500   0.055   4.322 -1.7905 -0.1613  0.1514
 8928SOL     OW38242   3.797   0.058   8.373 -0.3330  0.2291 -0.1644
 8928SOL    HW138243   3.724   4.721   8.358 -1.3078  0.7855  2.3670
 8928SOL    HW238244   3.874   0.002   8.382  0.6770  1.0146 -3.8353
 8929SOL     OW38245   2.628   1.234   6.581  1.0832  0.1652  0.0841
 8929SOL    HW138246   2.645   1.280   6.663  0.1531  0.6781 -0.0080
 8929SOL    HW238247   2.601   1.146   6.605  0.5066 -0.1002 -1.5667
 8930SOL     OW38248   0.331   1.542  17.094 -0.4131  0.9017  0.0031
 8930SOL    HW138249   0.315   1.454  17.130  2.1085  0.5179  0.1977
 8930SOL    HW238250   0.422   1.531  17.066 -0.7865 -1.4491 -0.3297
 8931SOL     OW38251   3.563   4.041   4.675  0.5412  0.8707 -0.2763
 8931SOL    HW138252   3.578   4.121   4.725  0.7852  1.0255 -0.5968
 8931SOL    HW238253   3.483   4.017   4.722  0.9828 -1.1293 -0.5442
 8932SOL     OW38254   0.939   0.403   3.008 -0.1030  0.6531  0.4936
 8932SOL    HW138255   0.980   0.468   3.065 -1.7715  2.9018 -0.8874
 8932SOL    HW238256   0.917   0.451   2.928  3.2643  2.0480  0.3712
 8933SOL     OW38257   1.980   4.125  14.802 -0.0824 -0.0008 -0.2418
 8933SOL    HW138258   2.016   4.211  14.822 -2.6180  1.3437 -1.4903
 8933SOL    HW238259   1.957   4.079  14.882 -0.1090  0.4211 -0.0077
 8934SOL     OW38260   2.286   4.200  14.459  0.2976  0.7841  0.7382
 8934SOL    HW138261   2.270   4.109  14.482 -0.8171  0.9946  0.8417
 8934SOL    HW238262   2.199   4.238  14.470 -0.6318 -1.1387  0.1123
 8935SOL     OW38263   0.135   4.123   2.883  0.0895  0.5261 -0.1377
 8935SOL    HW138264   0.192   4.187   2.926  1.2711 -0.3056 -0.4695
 8935SOL    HW238265   0.155   4.049   2.940  3.8098  1.9450  0.4477
 8936SOL     OW38266   1.235   1.875   8.820 -0.0688  0.0680  0.2317
 8936SOL    HW138267   1.249   1.964   8.788 -0.1579 -0.2797 -0.7661
 8936SOL    HW238268   1.145   1.888   8.850 -1.1142 -0.4451 -2.6726
 8937SOL     OW38269   1.373   3.694   5.962  0.1053  0.5143  0.2472
 8937SOL    HW138270   1.389   3.602   5.938 -0.8395  0.6515 -0.9133
 8937SOL    HW238271   1.278   3.703   5.963  0.1250  0.6017  0.9482
 8938SOL     OW38272   1.143   2.727  16.018 -0.4203  0.1315  0.2483
 8938SOL    HW138273   1.070   2.715  16.078  0.8639 -1.7689  1.4456
 8938SOL    HW238274   1.111   2.741  15.929 -1.1209  1.4773  0.7138
 8939SOL     OW38275   4.222   2.082   2.681 -0.5252 -0.2748  0.2209
 8939SOL    HW138276   4.264   2.068   2.766  0.3920  3.7317  0.4177
 8939SOL    HW238277   4.159   2.149   2.709 -0.4025  0.3682 -1.0602
 8940SOL     OW38278   3.939   1.117   5.493  0.6220  0.1581 -0.0153
 8940SOL    HW138279   3.965   1.188   5.434  0.0754  2.3049  2.3078
 8940SOL    HW238280   3.977   1.157   5.571  0.8669 -0.3911  0.1481
 8941SOL     OW38281   0.293   3.300   9.905 -0.3706 -0.5690  0.4782
 8941SOL    HW138282   0.311   3.364   9.836 -1.6117 -1.5954 -0.7928
 8941SOL    HW238283   0.229   3.247   9.858  0.6900 -0.0112 -1.5869
 8942SOL     OW38284   2.382   0.812   8.486 -0.0040 -0.0727  0.0693
 8942SOL    HW138285   2.441   0.847   8.552  0.7629 -1.6446  0.2235
 8942SOL    HW238286   2.301   0.840   8.528  0.8823 -1.6492  2.8301
 8943SOL     OW38287   3.994   2.293   2.833 -0.5799 -0.3850  0.1551
 8943SOL    HW138288   3.941   2.358   2.787  2.4905 -0.5233 -3.5115
 8943SOL    HW238289   4.010   2.351   2.908 -3.7733 -0.0749  0.5807
 8944SOL     OW38290   0.659   4.196  12.053  0.3372  0.0208 -0.6407
 8944SOL    HW138291   0.636   4.173  12.143 -0.2522  2.2714 -0.2399
 8944SOL    HW238292   0.702   4.115  12.023 -1.8553 -0.8707 -1.3431
 8945SOL     OW38293   0.870   4.318   1.513  0.3923  0.1570  0.5984
 8945SOL    HW138294   0.819   4.238   1.499 -1.0380  1.0696  0.5460
 8945SOL    HW238295   0.931   4.287   1.579  0.1282  1.4285  1.4585
 8946SOL     OW38296   0.520   2.085   8.164  0.0534 -0.3556 -0.0320
 8946SOL    HW138297   0.523   2.162   8.221 -0.4187  0.7573 -1.5096
 8946SOL    HW238298   0.530   2.127   8.079  0.9430 -0.9471 -0.2145
 8947SOL     OW38299   3.236   1.447   3.231  0.0083  0.3799 -0.4292
 8947SOL    HW138300   3.242   1.537   3.198 -0.6663 -0.4886 -2.9060
 8947SOL    HW238301   3.272   1.408   3.151 -1.6969 -1.5013 -0.2722
 8948SOL     OW38302   4.087   3.834   7.767  0.1221  0.2463 -0.6462
 8948SOL    HW138303   4.043   3.879   7.839  2.4510  0.8982  0.3741
 8948SOL    HW238304   4.095   3.745   7.801  0.6012  1.2406  1.8633
 8949SOL     OW38305   3.241   2.814   6.411  0.4278  0.5299  0.1338
 8949SOL    HW138306   3.202   2.867   6.342 -2.2798 -1.1169  0.4112
 8949SOL    HW238307   3.175   2.757   6.450 -0.3692  0.7519 -0.8942
 8950SOL     OW38308   3.208   3.464  11.527 -0.2358  0.0162 -0.1360
 8950SOL    HW138309   3.289   3.438  11.572 -0.6868  3.0057  2.4117
 8950SOL    HW238310   3.212   3.408  11.450  2.7309 -2.4732  1.8034
 8951SOL     OW38311   1.195   2.723  13.651  0.5220  0.0387  0.4131
 8951SOL    HW138312   1.279   2.760  13.681  0.5741  0.0075  0.3028
 8951SOL    HW238313   1.223   2.685  13.568 -1.6534  1.3144 -0.8941
 8952SOL     OW38314   1.141   1.243   6.991  0.3152  0.6331 -0.2712
 8952SOL    HW138315   1.194   1.236   7.070 -2.1605 -2.6808  1.0916
 8952SOL    HW238316   1.162   1.330   6.959  0.1714  0.6252 -0.3896
 8953SOL     OW38317   4.689   4.652   4.018  0.3247 -0.2718 -0.2165
 8953SOL    HW138318   4.679   4.558   4.031 -2.6662  0.1494  0.5259
 8953SOL    HW238319   0.015   4.675   4.095 -0.3098 -1.8943  0.6785
 8954SOL     OW38320   4.402   4.100   5.750 -0.2973  0.2116  0.0183
 8954SOL    HW138321   4.453   4.048   5.812  0.1960  1.1935  0.4312
 8954SOL    HW238322   4.387   4.031   5.685  1.5405 -0.3384  0.1853
 8955SOL     OW38323   1.187   3.291   0.714  0.3020 -0.3434  0.2630
 8955SOL    HW138324   1.245   3.364   0.737  1.1703 -1.2397  0.9196
 8955SOL    HW238325   1.172   3.309   0.621 -0.1325 -0.6402  0.2752
 8956SOL     OW38326   0.587   0.803  17.026 -1.0652  0.4746  0.4318
 8956SOL    HW138327   0.497   0.801  17.060 -2.3472  1.0009 -2.9311
 8956SOL    HW238328   0.639   0.812  17.106  0.6918 -0.0294 -0.6664
 8957SOL     OW38329   1.278   1.727   1.254 -0.2986 -0.5372  0.1235
 8957SOL    HW138330   1.355   1.782   1.243 -1.9438  1.7744  0.0443
 8957SOL    HW238331   1.219   1.767   1.189  0.2254 -1.3931 -0.8872
 8958SOL     OW38332   3.676   2.902   4.442 -0.0124 -0.0369 -0.4211
 8958SOL    HW138333   3.672   2.997   4.453 -2.4075 -0.0005 -1.8791
 8958SOL    HW238334   3.704   2.909   4.351 -2.6496 -0.3063 -1.2426
 8959SOL     OW38335   4.329   4.004  12.370 -0.4180  0.2459  0.5993
 8959SOL    HW138336   4.378   3.926  12.344 -0.8460 -0.9900  3.5820
 8959SOL    HW238337   4.277   4.022  12.292  3.3317  2.5547 -1.3583
 8960SOL     OW38338   1.046   2.782   1.987 -0.1241 -0.1748  0.4864
 8960SOL    HW138339   0.954   2.756   1.992 -0.4619  0.4736 -2.3577
 8960SOL    HW238340   1.075   2.723   1.917 -1.6291  2.7622 -2.5935
 8961SOL     OW38341   4.473   3.700  16.344 -0.0753  0.4498  0.0479
 8961SOL    HW138342   4.464   3.661  16.257 -1.5394  2.8677 -0.8739
 8961SOL    HW238343   4.487   3.793  16.326  0.8670  0.3867  0.4279
 8962SOL     OW38344   1.720   2.785  10.272  0.5992 -0.0672  0.4961
 8962SOL    HW138345   1.717   2.880  10.286 -2.2347 -0.3718  2.1675
 8962SOL    HW238346   1.685   2.760  10.358  0.2164  1.5664  0.8298
 8963SOL     OW38347   1.794   3.010   5.651  0.6262 -0.5446  0.9937
 8963SOL    HW138348   1.789   3.089   5.597 -0.5336 -0.3708  1.3453
 8963SOL    HW238349   1.887   2.989   5.654  0.7515 -0.0961  0.2905
 8964SOL     OW38350   0.404   3.756   0.009 -0.4658 -0.7709 -0.2130
 8964SOL    HW138351   0.471   3.819   0.036 -2.3299  0.4189  1.6049
 8964SOL    HW238352   0.441   3.674  17.675  0.9998  0.0968 -0.7428
 8965SOL     OW38353   3.240   1.588  12.376 -0.0999 -0.2579 -0.6624
 8965SOL    HW138354   3.303   1.517  12.390 -0.9547 -0.7458  0.7442
 8965SOL    HW238355   3.164   1.545  12.414  0.2304  0.1055  0.4167
 8966SOL     OW38356   0.744   1.216   3.134  0.5193  0.4960 -0.4193
 8966SOL    HW138357   0.806   1.198   3.205 -1.9956  3.4211  2.5313
 8966SOL    HW238358   0.707   1.296   3.172 -0.0782  0.2585 -0.4954
 8967SOL     OW38359   2.421   4.724   2.024  0.1617 -0.3845 -0.3420
 8967SOL    HW138360   2.513   0.004   1.998  0.6210 -0.1036  1.3099
 8967SOL    HW238361   2.392   4.656   1.964  0.1686 -1.3471  0.7457
 8968SOL     OW38362   3.905   2.159   6.829  0.2880 -0.3452 -0.3059
 8968SOL    HW138363   3.853   2.234   6.857  2.8593  1.6103 -0.7577
 8968SOL    HW238364   3.845   2.116   6.768 -0.2567  0.3659 -0.2700
 8969SOL     OW38365   0.159   3.375   4.928 -0.8782  0.1083  0.1032
 8969SOL    HW138366   0.177   3.284   4.955  0.5616  0.0251 -1.1969
 8969SOL    HW238367   0.078   3.398   4.973 -0.2181 -1.6605  2.2222
 8970SOL     OW38368   1.139   0.678  10.374 -0.2295  0.4087  0.2783
 8970SOL    HW138369   1.207   0.621  10.337 -0.8977 -1.2957  1.7051
 8970SOL    HW238370   1.084   0.610  10.411  1.7491 -0.3976  1.7564
 8971SOL     OW38371   0.178   0.758   2.407 -0.1700 -0.7079  0.3007
 8971SOL    HW138372   0.176   0.667   2.438  0.0543 -0.8171  0.0067
 8971SOL    HW238373   0.241   0.797   2.468 -0.6875  0.7490 -0.1072
 8972SOL     OW38374   1.926   0.425  16.506 -0.2441  0.4240 -0.1791
 8972SOL    HW138375   1.979   0.397  16.581 -1.3202  0.6306  0.6697
 8972SOL    HW238376   1.990   0.457  16.443 -1.3175  0.5193 -1.2022
 8973SOL     OW38377   4.431   2.874  14.089  0.4185 -0.2050  0.0763
 8973SOL    HW138378   4.411   2.968  14.092  3.1127  0.3821 -0.3901
 8973SOL    HW238379   4.503   2.865  14.026  0.6963  1.6983  0.0982
 8974SOL     OW38380   2.532   0.726   6.040 -0.3880  0.1861 -0.3362
 8974SOL    HW138381   2.607   0.764   5.995 -0.6958 -0.5514 -1.4875
 8974SOL    HW238382   2.583   0.690   6.113  0.4051  0.0924 -0.9434
 8975SOL     OW38383   4.355   3.806   8.542 -0.4342  0.2064 -0.0147
 8975SOL    HW138384   4.290   3.821   8.610 -1.2624 -3.1852 -0.0159
 8975SOL    HW238385   4.433   3.848   8.576  0.6241 -1.9936  0.3060
 8976SOL     OW38386   2.764   3.298   5.291 -0.6336 -0.1685 -0.3418
 8976SOL    HW138387   2.848   3.324   5.255 -2.0262  1.6015 -2.3266
 8976SOL    HW238388   2.777   3.207   5.319 -1.6844 -0.1898  0.1038
 8977SOL     OW38389   3.188   1.048   5.076 -0.2782  0.2900  0.1354
 8977SOL    HW138390   3.237   1.117   5.120 -0.1389 -0.7274  1.5839
 8977SOL    HW238391   3.261   0.987   5.064  0.7450  1.4489  0.4380
 8978SOL     OW38392   1.746   3.218   7.877 -0.2211 -0.6367  0.6276
 8978SOL    HW138393   1.727   3.299   7.924  0.4166 -1.2155  1.8900
 8978SOL    HW238394   1.832   3.192   7.911  0.9993  0.7817 -1.3356
 8979SOL     OW38395   4.023   0.846  17.013  0.6381  0.0146  0.2284
 8979SOL    HW138396   4.095   0.865  16.953 -0.7131 -0.9811 -1.6911
 8979SOL    HW238397   4.071   0.793  17.077 -0.7273 -0.6110  0.7294
 8980SOL     OW38398   2.681   3.096   2.368  0.2827 -0.2785  0.2758
 8980SOL    HW138399   2.703   3.004   2.355  1.3722 -0.2190  1.7294
 8980SOL    HW238400   2.614   3.089   2.436 -0.2184  0.1588 -0.1665
 8981SOL     OW38401   0.864   2.545  12.510  0.6770 -0.4511  0.2047
 8981SOL    HW138402   0.771   2.529  12.523  0.3813  2.3078  1.4680
 8981SOL    HW238403   0.891   2.503  12.592 -0.2575  0.0203  0.7466
 8982SOL     OW38404   4.046   0.735  12.432 -0.2936 -0.8273  0.2275
 8982SOL    HW138405   4.069   0.647  12.461 -0.5872 -0.1455  2.5533
 8982SOL    HW238406   4.049   0.729  12.337  0.5530 -0.2374  0.2243
 8983SOL     OW38407   2.270   0.171   6.235  0.4402 -0.3234  0.2729
 8983SOL    HW138408   2.214   0.246   6.254  0.2989 -0.6041  0.9528
 8983SOL    HW238409   2.283   0.184   6.141  0.1581 -1.0411  0.1350
 8984SOL     OW38410   2.469   3.351  15.395  0.1763 -0.4626  0.0497
 8984SOL    HW138411   2.527   3.326  15.323  1.5328 -2.0569  1.6784
 8984SOL    HW238412   2.520   3.340  15.476  0.9436  2.3592 -0.0520
 8985SOL     OW38413   2.102   0.757   9.958 -0.5441  0.1879 -0.1351
 8985SOL    HW138414   2.074   0.841   9.994 -1.5752 -0.4602  0.5745
 8985SOL    HW238415   2.197   0.764   9.969 -0.5547 -0.0156  0.0794
 8986SOL     OW38416   3.493   0.300  16.392  0.0318 -0.4192 -0.5209
 8986SOL    HW138417   3.484   0.272  16.300 -1.0935 -0.3999 -0.4235
 8986SOL    HW238418   3.528   0.387  16.374  0.2265 -0.2212  0.8424
 8987SOL     OW38419   0.138   4.656   8.298  0.5155  0.5128  0.5435
 8987SOL    HW138420   0.061   4.712   8.308 -1.2514 -1.6647 -0.7603
 8987SOL    HW238421   0.188   4.719   8.246  1.4902  0.3938  1.3414
 8988SOL     OW38422   1.918   4.454   4.161 -0.1695 -0.3420  0.7649
 8988SOL    HW138423   1.994   4.511   4.153 -1.3138  1.3937  2.4286
 8988SOL    HW238424   1.912   4.466   4.256 -0.9519 -2.0602  0.9397
 8989SOL     OW38425   2.363   2.431   5.104 -0.4806 -0.1870  0.4112
 8989SOL    HW138426   2.316   2.367   5.157  1.5846 -1.9241  0.1499
 8989SOL    HW238427   2.454   2.400   5.105 -1.1447 -2.1252 -2.9911
 8990SOL     OW38428   3.384   1.565   6.956  0.1673  0.1781 -0.0826
 8990SOL    HW138429   3.465   1.596   6.997  0.6310 -2.1163  0.7604
 8990SOL    HW238430   3.357   1.645   6.910  1.4052  1.8022  2.0104
 8991SOL     OW38431   2.926   1.216   3.646 -0.1659  0.2612 -0.6879
 8991SOL    HW138432   3.016   1.250   3.652  0.1623 -1.0469  1.8850
 8991SOL    HW238433   2.901   1.248   3.560  1.4994 -1.3447 -1.7715
 8992SOL     OW38434   2.652   1.649   1.617 -0.5836 -0.3402 -0.3425
 8992SOL    HW138435   2.706   1.706   1.671 -1.5699 -1.2579  1.5970
 8992SOL    HW238436   2.692   1.657   1.530 -1.5197 -2.9885 -1.0181
 8993SOL     OW38437   0.712   0.604  11.481 -0.2106 -0.1896  0.2101
 8993SOL    HW138438   0.654   0.528  11.487 -1.2354  0.3708 -2.6077
 8993SOL    HW238439   0.651   0.677  11.469 -0.7091 -0.7485 -0.7240
 8994SOL     OW38440   2.432   3.835  17.637  0.4094  0.0937  0.3486
 8994SOL    HW138441   2.348   3.820  17.593  0.2385 -0.6119  0.9047
 8994SOL    HW238442   2.440   3.758  17.694  0.6872 -0.5926 -0.6062
 8995SOL     OW38443   4.012   3.671  12.739  0.6579  0.5425  0.4603
 8995SOL    HW138444   3.919   3.657  12.718  0.6038  0.5465  0.6945
 8995SOL    HW238445   4.037   3.700  12.651  2.5446 -2.3699  0.0747
 8996SOL     OW38446   2.723   2.531   6.117 -0.1002  1.1630 -0.2495
 8996SOL    HW138447   2.770   2.482   6.184 -0.7441 -0.7135 -1.1561
 8996SOL    HW238448   2.715   2.616   6.159  1.0452  0.3976  1.5335
 8997SOL     OW38449   1.511   4.460  17.401 -0.3403  0.1553 -0.3979
 8997SOL    HW138450   1.538   4.485  17.313 -0.3979  1.3367 -0.0776
 8997SOL    HW238451   1.418   4.483  17.393 -0.8451 -1.8240 -0.2127
 8998SOL     OW38452   0.354   2.922   4.596  0.0642  0.2941  0.3953
 8998SOL    HW138453   0.259   2.919   4.600  0.0579 -0.5510 -0.3798
 8998SOL    HW238454   0.356   2.987   4.526  0.2539 -0.4994 -0.3293
 8999SOL     OW38455   3.127   3.131   6.812  0.4318  0.2316  0.0632
 8999SOL    HW138456   3.159   3.142   6.722 -1.9431  2.0759 -0.5505
 8999SOL    HW238457   3.099   3.218   6.837 -1.8597 -1.6303  3.9592
 9000SOL     OW38458   3.562   2.852  14.406  0.1057 -0.5161 -0.4707
 9000SOL    HW138459   3.603   2.938  14.413 -1.4200  0.3060 -1.7005
 9000SOL    HW238460   3.492   2.880  14.347 -0.3438 -1.0119 -0.1757
 9001SOL     OW38461   3.350   1.048  12.403  0.2666 -0.0004  0.4860
 9001SOL    HW138462   3.327   1.032  12.495 -0.1061  1.2344  0.6058
 9001SOL    HW238463   3.426   0.989  12.399  1.3801  1.5913 -1.5332
 9002SOL     OW38464   4.413   0.600   2.919  0.1120  0.5610  0.0265
 9002SOL    HW138465   4.455   0.637   2.841  0.0549  0.9353  0.1730
 9002SOL    HW238466   4.322   0.621   2.896  0.6271  0.9292 -1.6594
 9003SOL     OW38467   2.544   1.160   5.137 -0.6982 -0.2188 -0.0576
 9003SOL    HW138468   2.594   1.092   5.093 -0.2619  0.1050 -0.0563
 9003SOL    HW238469   2.464   1.111   5.157  0.1527 -1.8188 -0.6026
 9004SOL     OW38470   3.525   3.456   1.466  0.6374 -0.3164 -0.2260
 9004SOL    HW138471   3.572   3.421   1.390 -0.4611 -1.4126 -0.3951
 9004SOL    HW238472   3.523   3.374   1.514  0.6050 -1.2760 -1.8636
 9005SOL     OW38473   2.421   4.484   5.321 -0.2761 -0.5299 -0.4814
 9005SOL    HW138474   2.478   4.445   5.254 -0.5887  3.5882 -3.0996
 9005SOL    HW238475   2.459   4.568   5.345  1.6111 -1.4743 -0.1454
 9006SOL     OW38476   3.980   0.803   5.545 -0.2852 -0.6012 -0.3801
 9006SOL    HW138477   4.047   0.764   5.489  0.0006  0.6976 -0.9454
 9006SOL    HW238478   3.988   0.896   5.525  0.6475 -0.6910 -0.4045
 9007SOL     OW38479   1.767   3.532   5.359  0.1030 -0.0719  0.6221
 9007SOL    HW138480   1.714   3.470   5.309 -1.9828  1.2539  1.1947
 9007SOL    HW238481   1.717   3.533   5.441  0.6238 -1.4637  0.9509
 9008SOL     OW38482   3.794   1.015   7.894  0.0133 -0.2339  0.7683
 9008SOL    HW138483   3.786   0.934   7.843  0.6630 -0.6205  1.2805
 9008SOL    HW238484   3.889   1.025   7.895 -0.0616  0.7952 -1.1524
 9009SOL     OW38485   1.802   0.373  11.094 -0.7266 -0.6748  0.1547
 9009SOL    HW138486   1.790   0.455  11.142  3.8074 -0.0391  0.2240
 9009SOL    HW238487   1.824   0.319  11.170 -2.6058 -2.2786 -0.4279
 9010SOL     OW38488   0.278   2.813   2.268  0.1112  1.2783 -0.2455
 9010SOL    HW138489   0.272   2.889   2.210  1.4978 -1.1349 -3.5446
 9010SOL    HW238490   0.242   2.849   2.350  0.8230  2.0296 -0.2604
 9011SOL     OW38491   2.930   1.967   3.785 -0.0509  0.7823  0.1594
 9011SOL    HW138492   3.001   2.025   3.813 -1.9457  1.9734  2.4499
 9011SOL    HW238493   2.871   1.985   3.858  2.0904 -2.0738  2.6455
 9012SOL     OW38494   2.593   0.319   2.499 -1.1115  0.4180  0.1357
 9012SOL    HW138495   2.629   0.408   2.496  0.1262 -0.0736  0.5363
 9012SOL    HW238496   2.655   0.285   2.564 -2.1975 -0.4009  0.7466
 9013SOL     OW38497   4.156   3.688   2.765  0.4722 -0.1744  0.0977
 9013SOL    HW138498   4.234   3.709   2.816 -0.7434 -0.1641  1.9541
 9013SOL    HW238499   4.158   3.741   2.686  0.3706 -0.1340  0.1218
 9014SOL     OW38500   0.054   3.828   2.031  0.0186 -0.2243 -0.4917
 9014SOL    HW138501   0.010   3.804   1.949 -1.3103  4.1390 -1.0444
 9014SOL    HW238502   0.076   3.921   2.023 -0.0112  0.1020  3.3600
 9015SOL     OW38503   3.479   2.753  16.286  0.3083  0.0909 -0.3000
 9015SOL    HW138504   3.520   2.667  16.275 -2.5499 -1.0693 -2.0841
 9015SOL    HW238505   3.504   2.780  16.374 -0.0572 -0.8060  0.0739
 9016SOL     OW38506   0.409   3.054   8.490 -1.0105 -0.0255  0.4826
 9016SOL    HW138507   0.451   3.107   8.558 -0.7585 -0.3581  0.5878
 9016SOL    HW238508   0.335   3.110   8.467 -0.5440  0.7962  0.9785
 9017SOL     OW38509   4.020   4.004   2.910  0.1707  0.0507 -0.0724
 9017SOL    HW138510   3.972   4.079   2.876  0.2577  0.3073  0.3718
 9017SOL    HW238511   3.996   3.942   2.841  3.4444 -1.9080  0.5518
 9018SOL     OW38512   1.922   1.556   4.459 -0.1086  0.1371  0.3241
 9018SOL    HW138513   2.012   1.560   4.493  0.3282 -0.0378 -0.7884
 9018SOL    HW238514   1.880   1.563   4.544 -0.6158  1.5514 -0.0467
 9019SOL     OW38515   1.603   3.002   4.945  0.1939  0.5980 -0.4393
 9019SOL    HW138516   1.527   3.058   4.965  1.1386  1.8519 -0.3488
 9019SOL    HW238517   1.570   2.916   4.970  0.7286  0.1538 -1.2816
 9020SOL     OW38518   2.108   4.520   7.166 -0.2258 -0.0271  0.0952
 9020SOL    HW138519   2.196   4.482   7.171 -1.0922 -1.6635  2.5330
 9020SOL    HW238520   2.125   4.589   7.101 -0.4174 -0.6686 -0.6419
 9021SOL     OW38521   3.878   0.489   8.126  0.1488  0.1542 -0.3494
 9021SOL    HW138522   3.877   0.580   8.096  1.7940  0.8549  1.6690
 9021SOL    HW238523   3.883   0.436   8.047 -0.2622 -0.7323  0.2140
 9022SOL     OW38524   2.799   0.023   6.640 -0.5310 -0.2237 -0.0932
 9022SOL    HW138525   2.713   0.064   6.629  0.3333  2.8117  4.4484
 9022SOL    HW238526   2.798   4.696   6.559 -0.7499  1.0282 -0.8918
 9023SOL     OW38527   0.258   0.954   4.053 -0.1578 -0.0856 -0.1569
 9023SOL    HW138528   0.222   0.920   4.134 -1.8088  0.4054 -0.6850
 9023SOL    HW238529   0.352   0.944   4.072  0.1059  0.2690 -1.2470
 9024SOL     OW38530   1.348   2.217   2.001 -0.4378 -0.1744 -0.2477
 9024SOL    HW138531   1.369   2.201   1.909 -0.8087  0.1133 -0.3798
 9024SOL    HW238532   1.327   2.310   2.000  0.1995 -0.0296  0.1447
 9025SOL     OW38533   1.572   2.380  10.145 -0.3634  0.7085 -0.3941
 9025SOL    HW138534   1.634   2.321  10.101 -0.4088  0.1438  0.2985
 9025SOL    HW238535   1.609   2.462  10.111 -0.7217  0.4260 -1.4602
 9026SOL     OW38536   2.356   2.035   4.179 -0.6782 -0.5815 -0.0223
 9026SOL    HW138537   2.353   1.969   4.110 -0.9123  0.7439 -1.2847
 9026SOL    HW238538   2.264   2.055   4.195 -0.9621 -1.7656 -0.1657
 9027SOL     OW38539   1.162   3.713   4.694  0.1760  0.0879  0.0107
 9027SOL    HW138540   1.130   3.797   4.662  1.2453  0.1021 -1.0185
 9027SOL    HW238541   1.103   3.650   4.654 -0.2866  0.7800 -0.4067
 9028SOL     OW38542   3.297   3.920   5.929 -0.0057  0.2271 -0.1583
 9028SOL    HW138543   3.247   3.951   5.854  0.4286 -0.2780 -0.6572
 9028SOL    HW238544   3.340   4.003   5.949  2.2012 -1.0085  0.1997
 9029SOL     OW38545   0.635   4.431  11.942  0.1625  0.0390  0.1448
 9029SOL    HW138546   0.646   4.349  11.991  0.1781 -0.0677 -0.0370
 9029SOL    HW238547   0.692   4.494  11.985 -0.7049  1.5209 -0.8978
 9030SOL     OW38548   1.143   1.161  13.651 -0.0877  0.2264 -0.6906
 9030SOL    HW138549   1.216   1.105  13.624 -0.4132  0.4717 -2.0876
 9030SOL    HW238550   1.174   1.206  13.730  2.3331 -1.2544 -0.7860
 9031SOL     OW38551   2.538   1.625   7.312 -0.1370  0.2716 -0.3999
 9031SOL    HW138552   2.473   1.643   7.379 -0.0780 -1.0045 -0.0012
 9031SOL    HW238553   2.497   1.565   7.250 -2.6079  0.1385  1.3831
 9032SOL     OW38554   0.339   1.723  13.039 -0.8647 -0.2405  0.6224
 9032SOL    HW138555   0.319   1.629  13.041 -0.0015 -0.4240  0.3276
 9032SOL    HW238556   0.420   1.726  12.988 -0.6073 -0.7301  1.0132
 9033SOL     OW38557   2.212   1.376  12.502 -0.1260 -0.0896  0.3773
 9033SOL    HW138558   2.199   1.444  12.568 -0.3208  0.1480  0.0907
 9033SOL    HW238559   2.287   1.327  12.538 -0.0917 -1.0620 -1.0084
 9034SOL     OW38560   3.772   3.007   7.232  0.0734  0.4877 -0.1492
 9034SOL    HW138561   3.708   3.029   7.300 -0.1605  1.4262 -0.6743
 9034SOL    HW238562   3.732   3.058   7.161  0.7640 -0.5493 -1.2897
 9035SOL     OW38563   0.926   3.633  14.168 -0.2799  0.1124  0.3263
 9035SOL    HW138564   0.910   3.546  14.205 -2.1814  0.9704  1.5020
 9035SOL    HW238565   0.983   3.609  14.095  1.3218  1.2364  1.1998
 9036SOL     OW38566   1.868   1.107  13.891 -0.1983  0.0092  0.1738
 9036SOL    HW138567   1.828   1.163  13.824  1.4126  1.8562  0.7770
 9036SOL    HW238568   1.823   1.029  13.859 -0.1728 -0.2755  0.8377
 9037SOL     OW38569   2.510   3.634   4.477  0.4555  0.2169  0.1852
 9037SOL    HW138570   2.519   3.549   4.519 -0.1953  0.3830  0.6428
 9037SOL    HW238571   2.470   3.684   4.548  0.6843 -0.6820  0.9336
 9038SOL     OW38572   2.165   4.289   2.370 -0.3374 -0.0381 -0.2184
 9038SOL    HW138573   2.132   4.379   2.372  1.5814  0.6473  1.1031
 9038SOL    HW238574   2.157   4.277   2.276  0.6561  1.1941 -0.4563
 9039SOL     OW38575   0.797   3.334  11.206 -0.4090 -0.3706  0.4194
 9039SOL    HW138576   0.842   3.252  11.190 -0.7774 -0.6590  0.8529
 9039SOL    HW238577   0.855   3.385  11.150  0.1166  0.5301  1.7797
 9040SOL     OW38578   3.966   4.408   4.824  0.5514  0.4616 -0.7833
 9040SOL    HW138579   3.873   4.420   4.846  0.1502  1.8463 -3.0954
 9040SOL    HW238580   4.007   4.443   4.903 -2.3148 -0.1364  0.9875
 9041SOL     OW38581   1.890   2.802   2.219  0.2910  0.0508 -0.4061
 9041SOL    HW138582   1.967   2.819   2.164  1.3038 -1.0534  0.6796
 9041SOL    HW238583   1.866   2.891   2.246  2.3152  0.0483  1.4078
 9042SOL     OW38584   2.333   3.235   3.278 -0.1918 -0.6724  0.6141
 9042SOL    HW138585   2.292   3.207   3.360 -0.2999 -1.6636  0.2216
 9042SOL    HW238586   2.319   3.329   3.271  0.4809 -0.7933 -2.6079
 9043SOL     OW38587   1.565   0.844   7.143  0.4019  0.7700  0.0430
 9043SOL    HW138588   1.566   0.787   7.066 -1.6456  0.6331  0.1100
 9043SOL    HW238589   1.569   0.933   7.107  0.5813  0.5994 -0.3535
 9044SOL     OW38590   4.014   4.179   5.768 -0.1390  0.8083  0.6482
 9044SOL    HW138591   4.018   4.275   5.769 -3.8789  0.9956  0.2645
 9044SOL    HW238592   4.042   4.162   5.678 -0.1483 -0.4321  0.8890
 9045SOL     OW38593   0.270   3.260   6.728  0.1988  0.1244  0.4803
 9045SOL    HW138594   0.285   3.260   6.822 -1.1066  0.5966  0.6934
 9045SOL    HW238595   0.193   3.202   6.726  2.5542 -2.9878 -0.2231
 9046SOL     OW38596   0.613   1.830   1.625 -0.6593 -0.4203  0.0041
 9046SOL    HW138597   0.632   1.845   1.533 -0.9620 -0.2941 -0.0386
 9046SOL    HW238598   0.571   1.745   1.628 -0.9053 -0.2598  1.2924
 9047SOL     OW38599   1.338   1.508   9.149  0.8091 -0.1651  0.3805
 9047SOL    HW138600   1.337   1.442   9.218 -0.7830 -0.6880 -0.1427
 9047SOL    HW238601   1.296   1.588   9.181  0.0620 -1.1278  1.7961
 9048SOL     OW38602   3.090   0.143   8.036  0.5079  0.2327  0.9774
 9048SOL    HW138603   3.012   0.094   8.061  0.6212 -0.8040 -0.6782
 9048SOL    HW238604   3.119   0.186   8.117  0.1365  1.4672  0.4519
 9049SOL     OW38605   1.707   1.297   4.861 -0.4532  0.2961 -0.3456
 9049SOL    HW138606   1.638   1.363   4.852 -0.7434  0.0275 -0.0758
 9049SOL    HW238607   1.749   1.327   4.941  0.5540  2.3648 -1.6417
 9050SOL     OW38608   3.151   1.593  13.885 -0.4211 -0.6301 -0.2648
 9050SOL    HW138609   3.179   1.516  13.835  2.1157  1.8544 -2.6262
 9050SOL    HW238610   3.120   1.541  13.960 -2.0079 -0.4702 -0.8031
 9051SOL     OW38611   1.432   2.519  14.651 -0.6998 -0.4045 -0.6841
 9051SOL    HW138612   1.496   2.462  14.694  1.4427  0.7828 -2.3006
 9051SOL    HW238613   1.357   2.521  14.710 -0.0212  0.6862  0.1369
 9052SOL     OW38614   0.466   2.038   5.933 -0.1328  0.4768  0.0516
 9052SOL    HW138615   0.438   2.103   5.869  3.0249  1.9759  0.1779
 9052SOL    HW238616   0.528   2.083   5.991 -1.5450  0.0270  1.9348
 9053SOL     OW38617   0.119   3.207  12.291  0.0028  0.5101  0.0010
 9053SOL    HW138618   0.037   3.185  12.334 -1.5510  0.3233 -3.0099
 9053SOL    HW238619   0.137   3.123  12.248  1.5132  1.5143 -1.3463
 9054SOL     OW38620   3.879   3.388   8.219 -1.1045  0.3097  0.1014
 9054SOL    HW138621   3.807   3.452   8.223 -1.1625  0.2282  0.3569
 9054SOL    HW238622   3.833   3.312   8.254  0.2146 -0.0492  1.0214
 9055SOL     OW38623   3.098   0.860   5.229  0.0270  0.3424  0.5598
 9055SOL    HW138624   3.110   0.944   5.185 -0.5042 -0.5249 -1.2210
 9055SOL    HW238625   3.013   0.870   5.272 -0.3812  3.1218 -0.8819
 9056SOL     OW38626   0.630   3.088   9.356 -0.4975  0.2997  0.1380
 9056SOL    HW138627   0.626   3.140   9.436 -1.3945  1.8955 -0.9553
 9056SOL    HW238628   0.588   3.143   9.290 -2.0875  0.2068  1.0733
 9057SOL     OW38629   2.208   1.233   3.207 -0.1390 -0.0196  0.4792
 9057SOL    HW138630   2.212   1.327   3.223 -0.2877  0.1628 -0.5768
 9057SOL    HW238631   2.295   1.206   3.178 -0.1373  0.2245  0.2603
 9058SOL     OW38632   3.552   4.702   3.811 -0.3214  0.2750  0.8161
 9058SOL    HW138633   3.519   0.032   3.883 -0.7466 -1.1823  1.7108
 9058SOL    HW238634   3.483   4.716   3.746 -0.2672  0.1627  0.7342
 9059SOL     OW38635   3.018   2.522   4.793  0.3532  0.8676  0.2194
 9059SOL    HW138636   3.006   2.460   4.721  1.3178  1.1831 -0.2115
 9059SOL    HW238637   3.001   2.609   4.757  0.4340  1.2593  1.1241
 9060SOL     OW38638   0.259   1.676  10.217 -0.3932 -0.0881 -0.3465
 9060SOL    HW138639   0.209   1.735  10.161 -0.3392 -1.5029 -1.8927
 9060SOL    HW238640   0.350   1.699  10.199 -0.2702  0.8126  1.3742
 9061SOL     OW38641   3.023   1.794  10.688 -0.0114  0.0929 -0.4482
 9061SOL    HW138642   3.022   1.722  10.750 -1.1282  0.0305 -0.5383
 9061SOL    HW238643   3.083   1.855  10.730 -2.2423  1.0676  1.3207
 9062SOL     OW38644   0.969   3.565  10.863 -0.0135 -0.1666  0.0154
 9062SOL    HW138645   0.928   3.650  10.874  0.4873 -0.0795  1.1974
 9062SOL    HW238646   1.059   3.585  10.835 -1.0097  1.8666 -1.6732
 9063SOL     OW38647   2.230   1.921   8.671  0.1854 -0.1435  0.1820
 9063SOL    HW138648   2.160   1.980   8.644 -0.5293 -1.7216 -1.3731
 9063SOL    HW238649   2.310   1.969   8.649 -1.3063  1.4259 -1.8565
 9064SOL     OW38650   1.856   4.466  10.399 -0.4903  0.3126  0.5203
 9064SOL    HW138651   1.807   4.405  10.454 -1.4429  0.6946  0.1144
 9064SOL    HW238652   1.944   4.444  10.428 -0.5018  0.6330  0.7891
 9065SOL     OW38653   3.786   4.494   0.890  0.0244  0.3375 -0.1061
 9065SOL    HW138654   3.860   4.554   0.879 -0.1551  0.5579 -0.1167
 9065SOL    HW238655   3.796   4.476   0.984  0.0610  0.2972 -0.1180
 9066SOL     OW38656   1.997   0.184   7.940  0.4407 -0.2532 -0.0091
 9066SOL    HW138657   2.053   0.143   7.874 -0.2509  1.2806 -1.5607
 9066SOL    HW238658   2.060   0.187   8.013 -1.7105  1.0076  1.7963
 9067SOL     OW38659   3.943   3.036   4.904 -0.1304 -0.7798 -0.1275
 9067SOL    HW138660   3.920   3.035   4.811 -0.5048 -0.3781 -0.0355
 9067SOL    HW238661   3.870   3.085   4.941 -0.7244  0.1546 -2.5296
 9068SOL     OW38662   1.034   0.872  14.923 -0.2955  0.0379  0.7954
 9068SOL    HW138663   1.103   0.837  14.866  0.5632  3.5170 -0.3183
 9068SOL    HW238664   1.084   0.867  15.005 -0.6464 -0.4297  0.9809
 9069SOL     OW38665   1.570   1.128   7.132 -0.7446 -0.2415  0.0979
 9069SOL    HW138666   1.541   1.153   7.219 -0.6030  2.4812 -0.6283
 9069SOL    HW238667   1.631   1.201   7.119 -1.0303  0.3232  1.9462
 9070SOL     OW38668   4.219   4.447   6.332  0.4626  0.1736 -0.2074
 9070SOL    HW138669   4.215   4.355   6.308 -3.6125 -0.6582  3.5918
 9070SOL    HW238670   4.268   4.486   6.259  1.8699 -2.1113 -0.4680
 9071SOL     OW38671   3.181   1.185   5.813  0.5354 -0.3701 -0.2299
 9071SOL    HW138672   3.192   1.116   5.747  0.5180 -0.7524  0.1700
 9071SOL    HW238673   3.274   1.207   5.820  0.1985  0.4454  1.7308
 9072SOL     OW38674   3.123   0.835   7.377  0.0447 -0.5337 -0.2340
 9072SOL    HW138675   3.168   0.754   7.400  2.2256  1.3466  2.1442
 9072SOL    HW238676   3.039   0.825   7.422  0.4263 -0.1380  0.5692
 9073SOL     OW38677   1.442   1.828   7.702  0.1452 -0.5225 -0.2012
 9073SOL    HW138678   1.530   1.796   7.684 -0.4172 -1.3181 -1.5270
 9073SOL    HW238679   1.426   1.872   7.619 -1.1655  0.0984  0.3741
 9074SOL     OW38680   0.942   2.834  12.967 -0.4742 -0.1281 -0.0855
 9074SOL    HW138681   0.971   2.915  13.008 -1.3237 -0.1856  0.6210
 9074SOL    HW238682   0.847   2.845  12.967 -0.3543  0.7845  1.4201
 9075SOL     OW38683   0.005   1.938   0.919  0.4959  0.3454  0.2415
 9075SOL    HW138684   4.724   1.991   1.000  0.2574  1.5562 -0.5605
 9075SOL    HW238685   0.079   1.880   0.931  0.1306 -0.6556 -2.4068
 9076SOL     OW38686   0.727   2.045   4.504 -0.1279  0.2618 -0.3527
 9076SOL    HW138687   0.735   2.067   4.597 -1.0870 -0.6645 -0.0527
 9076SOL    HW238688   0.814   2.072   4.475 -0.4993  2.8882  0.9791
 9077SOL     OW38689   2.311   2.128   2.236  0.1426 -0.0414 -0.2116
 9077SOL    HW138690   2.352   2.081   2.308  0.2189 -0.8107 -0.7505
 9077SOL    HW238691   2.303   2.217   2.269  2.9033  0.6126 -1.3026
 9078SOL     OW38692   1.814   0.736  15.251  0.1042  0.3868  0.2580
 9078SOL    HW138693   1.864   0.733  15.170 -0.1330 -0.7682  0.1566
 9078SOL    HW238694   1.774   0.822  15.239  0.1179  0.3037 -0.3729
 9079SOL     OW38695   0.812   1.767   9.385  0.0188  0.0007 -0.3187
 9079SOL    HW138696   0.824   1.674   9.402  0.8631  0.0167 -0.8513
 9079SOL    HW238697   0.746   1.768   9.316  0.0475  0.8488 -0.3337
 9080SOL     OW38698   0.717   2.359   5.167 -0.5945 -0.1407 -0.4293
 9080SOL    HW138699   0.738   2.447   5.199  2.1035 -1.2823  0.8961
 9080SOL    HW238700   0.805   2.325   5.154  0.1904  0.9279  2.0958
 9081SOL     OW38701   0.662   3.173   4.714 -0.0123 -0.2911  0.2222
 9081SOL    HW138702   0.750   3.210   4.716  0.6151 -1.7805 -0.1090
 9081SOL    HW238703   0.665   3.096   4.657 -1.7951  0.4098 -0.8185
 9082SOL     OW38704   3.184   3.169   5.663  0.4827 -0.1048  0.0064
 9082SOL    HW138705   3.104   3.198   5.619  1.3609  1.4926 -0.5422
 9082SOL    HW238706   3.219   3.258   5.670 -0.6222  0.4677 -1.8371
 9083SOL     OW38707   4.298   2.911   2.761 -0.0942 -0.1750 -0.0300
 9083SOL    HW138708   4.229   2.978   2.767 -0.2075 -0.1170 -2.0391
 9083SOL    HW238709   4.254   2.831   2.789  0.4710  0.6266  3.1249
 9084SOL     OW38710   1.343   2.058  16.339  0.3669 -0.4940  0.2809
 9084SOL    HW138711   1.381   2.144  16.359  1.5693 -1.2231  1.1395
 9084SOL    HW238712   1.410   2.022  16.281  0.5929  0.1346  0.1489
 9085SOL     OW38713   0.608   0.367  15.766 -0.1005  0.1929 -0.1121
 9085SOL    HW138714   0.661   0.437  15.805  0.3182  0.4282 -1.1241
 9085SOL    HW238715   0.527   0.415  15.747  0.7681  1.5280 -0.4229
 9086SOL     OW38716   2.592   4.456   4.342 -0.1250 -0.4710 -0.0085
 9086SOL    HW138717   2.529   4.471   4.412 -0.2924 -1.0700 -0.0293
 9086SOL    HW238718   2.618   4.548   4.334 -2.4293  0.3288  1.9805
 9087SOL     OW38719   1.766   3.933  11.654 -0.2183 -0.1323  0.0878
 9087SOL    HW138720   1.709   3.861  11.683 -2.1851  1.0998 -0.6810
 9087SOL    HW238721   1.704   3.984  11.601 -0.2657 -0.9546 -0.6502
 9088SOL     OW38722   2.309   3.143   4.791 -0.3523  0.2294 -0.1577
 9088SOL    HW138723   2.370   3.216   4.804  1.2953 -1.1120 -0.3100
 9088SOL    HW238724   2.278   3.146   4.701 -2.7852  1.3821  0.7364
 9089SOL     OW38725   4.209   3.372  17.299 -0.2015 -0.0909  0.7671
 9089SOL    HW138726   4.180   3.462  17.309  0.5511  0.3405 -0.9421
 9089SOL    HW238727   4.134   3.316  17.321  1.3519 -1.5581  2.3619
 9090SOL     OW38728   2.278   3.774  13.009 -0.0094 -0.1723 -0.6173
 9090SOL    HW138729   2.203   3.825  13.042 -0.5305 -2.0529  1.0680
 9090SOL    HW238730   2.330   3.759  13.088 -0.7644  0.3672 -0.0088
 9091SOL     OW38731   0.514   3.586   3.708  0.0849 -0.0812  0.2512
 9091SOL    HW138732   0.577   3.514   3.711 -1.0392 -0.9374  2.9453
 9091SOL    HW238733   0.431   3.545   3.731  0.4535 -0.8538  0.2018
 9092SOL     OW38734   0.273   2.497   6.902 -0.0182  0.3867 -0.1071
 9092SOL    HW138735   0.233   2.508   6.988  0.4032 -1.4694  0.3228
 9092SOL    HW238736   0.243   2.410   6.877 -2.3731  1.0632  0.2901
 9093SOL     OW38737   1.330   2.210   4.099 -0.5610 -0.0757  0.2199
 9093SOL    HW138738   1.373   2.294   4.116 -0.1185 -0.1848 -0.3730
 9093SOL    HW238739   1.397   2.166   4.046  1.1726  0.1330  2.2633
 9094SOL     OW38740   4.047   1.558   2.931 -0.0809  0.0147 -0.2371
 9094SOL    HW138741   4.044   1.479   2.878 -1.7979 -0.3597  0.4276
 9094SOL    HW238742   4.011   1.631   2.880  0.3829  1.5545  1.6011
 9095SOL     OW38743   0.965   1.208   5.436 -0.2705  0.2028 -0.7113
 9095SOL    HW138744   1.007   1.125   5.412  0.6923  0.6152 -0.4383
 9095SOL    HW238745   1.025   1.264   5.386  0.3472 -0.3772 -0.6173
 9096SOL     OW38746   1.149   0.124  16.887 -0.2587  0.8192 -0.1853
 9096SOL    HW138747   1.114   0.145  16.973  0.1178 -1.4630  0.5252
 9096SOL    HW238748   1.074   0.134  16.828 -0.0202 -1.4226 -0.8739
 9097SOL     OW38749   0.102   0.011  17.653 -0.3505 -0.5930 -0.1998
 9097SOL    HW138750   0.191   4.704  17.670 -0.5566  0.0639  2.0510
 9097SOL    HW238751   0.065   0.034   0.040 -1.2594  3.3446 -1.6136
 9098SOL     OW38752   2.495   3.357   7.085  0.2093 -0.0586  0.2139
 9098SOL    HW138753   2.478   3.263   7.096  0.5056 -0.4147 -2.3563
 9098SOL    HW238754   2.501   3.361   6.989  1.1956 -0.4459  0.2527
 9099SOL     OW38755   0.298   0.090   5.501  0.5861 -0.0709  0.7789
 9099SOL    HW138756   0.261   0.003   5.486  2.0554 -0.5312 -0.1951
 9099SOL    HW238757   0.357   0.101   5.426 -1.1669 -2.5948 -0.9972
 9100SOL     OW38758   3.606   0.231   5.813 -0.6071  0.5341 -0.3163
 9100SOL    HW138759   3.656   0.302   5.854  0.8353 -0.1567 -0.8720
 9100SOL    HW238760   3.615   0.172   5.888  0.6176 -0.0425 -0.9076
 9101SOL     OW38761   4.674   2.340   9.498  0.0144  0.1033 -0.4051
 9101SOL    HW138762   0.004   2.274   9.543 -1.6389 -1.2689 -0.4073
 9101SOL    HW238763   4.693   2.326   9.405  1.4420  0.4641 -0.1703
 9102SOL     OW38764   4.670   3.412   9.463 -0.3648  0.6108 -0.3094
 9102SOL    HW138765   4.648   3.319   9.470 -0.6428  0.9753  3.2908
 9102SOL    HW238766   0.041   3.409   9.475 -0.5501  0.3112  1.0868
 9103SOL     OW38767   4.372   3.886   5.573 -0.2019 -0.1555  0.4780
 9103SOL    HW138768   4.395   3.805   5.527 -0.0351 -0.0635  0.3968
 9103SOL    HW238769   4.417   3.944   5.511  1.7196 -1.8664  0.2672
 9104SOL     OW38770   3.114   4.412   4.671  0.4976  0.1622 -0.0528
 9104SOL    HW138771   3.206   4.390   4.684  0.3861  0.3033  1.0186
 9104SOL    HW238772   3.079   4.395   4.759  3.1930  1.1626  1.2061
 9105SOL     OW38773   0.082   3.146   2.862 -0.0396 -0.2980 -0.0209
 9105SOL    HW138774   0.014   3.134   2.928 -1.4383  2.2464 -0.9641
 9105SOL    HW238775   0.051   3.090   2.791 -2.0520  0.1812  0.4914
 9106SOL     OW38776   0.349   3.088   1.134  0.1237 -0.1409 -0.3217
 9106SOL    HW138777   0.275   3.032   1.113 -0.1092 -0.3912  1.2178
 9106SOL    HW238778   0.424   3.030   1.121  2.2999  2.4842  0.4355
 9107SOL     OW38779   1.701   4.183   3.397  0.3932  0.0103 -0.2649
 9107SOL    HW138780   1.627   4.172   3.457  0.8236 -1.7268 -0.0494
 9107SOL    HW238781   1.759   4.111   3.423  0.4158  0.1145 -0.0231
 9108SOL     OW38782   2.250   4.040   5.478 -0.3356 -0.1640 -0.1491
 9108SOL    HW138783   2.236   4.061   5.571 -3.5214  1.7879 -1.0856
 9108SOL    HW238784   2.302   3.960   5.491 -1.0591 -0.5082  0.6410
 9109SOL     OW38785   3.858   4.095   6.844 -0.3715  0.0228 -0.1930
 9109SOL    HW138786   3.863   4.110   6.750 -0.4416 -2.9781 -0.6718
 9109SOL    HW238787   3.793   4.162   6.869  0.6275  0.9930 -0.1961
 9110SOL     OW38788   0.000   4.478   6.801  0.2125 -0.1358  0.1293
 9110SOL    HW138789   0.005   4.554   6.859  1.8617  1.3112 -1.8691
 9110SOL    HW238790   4.679   4.416   6.858  1.9668 -0.8503  0.7430
 9111SOL     OW38791   2.920   1.647  16.194 -0.6163  0.0378 -0.6920
 9111SOL    HW138792   2.896   1.695  16.115 -0.6830  2.0726  0.5787
 9111SOL    HW238793   2.861   1.572  16.201  1.2440 -1.2139  1.5871
 9112SOL     OW38794   3.960   1.891   3.786  0.7334 -0.3057  0.9597
 9112SOL    HW138795   4.019   1.947   3.837  0.5193  0.7536  0.0386
 9112SOL    HW238796   3.889   1.869   3.846  0.2773 -1.7794 -0.1275
 9113SOL     OW38797   3.823   2.924   5.131 -0.2549 -0.0626  0.3708
 9113SOL    HW138798   3.912   2.932   5.164  0.1725 -0.4698 -0.6927
 9113SOL    HW238799   3.805   3.017   5.116 -1.9942 -0.6225 -1.1298
 9114SOL     OW38800   1.769   3.049  15.809 -0.0569 -0.5451 -0.5759
 9114SOL    HW138801   1.696   2.993  15.785  0.3976 -0.9642 -0.9759
 9114SOL    HW238802   1.838   2.983  15.814  1.3177  0.9992  1.0054
 9115SOL     OW38803   1.834   4.421   1.054  0.2719  0.3278 -0.2623
 9115SOL    HW138804   1.838   4.491   1.119  2.1744  0.0559 -0.1049
 9115SOL    HW238805   1.806   4.345   1.106 -0.2310 -1.9454 -3.8479
 9116SOL     OW38806   3.315   0.144   6.604 -0.3964 -0.0903 -0.1745
 9116SOL    HW138807   3.246   0.110   6.548 -2.3389  1.4216  1.3046
 9116SOL    HW238808   3.369   0.066   6.617  2.3211  1.6312 -1.2768
 9117SOL     OW38809   4.409   4.251  15.037 -0.1606 -0.2516 -0.6859
 9117SOL    HW138810   4.334   4.267  14.980 -2.4920 -3.4558  1.4564
 9117SOL    HW238811   4.410   4.155  15.039  2.0059 -0.2002  0.6627
 9118SOL     OW38812   4.104   2.276   7.511 -0.0770 -0.5576  0.0171
 9118SOL    HW138813   4.027   2.301   7.562  0.3046  1.4869 -0.4006
 9118SOL    HW238814   4.108   2.189   7.551  1.0029 -0.9304 -0.9031
 9119SOL     OW38815   1.902   3.646  13.973 -0.0454  0.2878 -0.3939
 9119SOL    HW138816   1.865   3.595  14.046  1.3641 -0.5585 -0.2567
 9119SOL    HW238817   1.826   3.691  13.938 -0.4321 -0.8100 -0.9524
 9120SOL     OW38818   2.304   0.353   1.002  0.0922  0.2266  0.4608
 9120SOL    HW138819   2.349   0.269   0.998  0.6488  0.5284  0.3954
 9120SOL    HW238820   2.291   0.380   0.911 -0.7969 -1.8802 -0.0282
 9121SOL     OW38821   0.857   1.629  12.813  0.1705  0.0576 -0.1165
 9121SOL    HW138822   0.895   1.582  12.739 -0.0835  0.4682 -0.5054
 9121SOL    HW238823   0.840   1.718  12.782  2.6233 -0.0074 -1.6298
 9122SOL     OW38824   2.126   1.648   5.547  0.0310  0.1107  0.7592
 9122SOL    HW138825   2.170   1.660   5.631  2.8305 -0.5787 -0.6070
 9122SOL    HW238826   2.187   1.577   5.526 -0.2857 -0.0895  0.5132
 9123SOL     OW38827   0.707   3.462   3.069  0.1498 -0.1074  0.2150
 9123SOL    HW138828   0.621   3.447   3.030  0.3330 -2.1094  0.5943
 9123SOL    HW238829   0.725   3.386   3.125  1.7473  0.7365  0.8406
 9124SOL     OW38830   3.866   1.434   6.688  0.3234 -0.1773  0.4864
 9124SOL    HW138831   3.870   1.517   6.641 -2.3223 -0.8703 -0.9365
 9124SOL    HW238832   3.923   1.385   6.628 -1.1409  0.1394 -1.1419
 9125SOL     OW38833   2.752   3.268  14.501  0.3034 -0.1419 -1.0162
 9125SOL    HW138834   2.681   3.322  14.537  1.8005  0.4726  1.0038
 9125SOL    HW238835   2.714   3.222  14.426 -2.7253  1.9248 -0.7822
 9126SOL     OW38836   1.543   3.423   4.663  0.3065 -0.0712 -0.3064
 9126SOL    HW138837   1.475   3.361   4.638 -0.9450  1.6983 -1.2851
 9126SOL    HW238838   1.496   3.507   4.666  1.4156  0.5686 -0.7388
 9127SOL     OW38839   2.884   1.765   5.921 -0.2201  0.6210  0.1320
 9127SOL    HW138840   2.941   1.842   5.930  1.0614 -0.3809  0.5023
 9127SOL    HW238841   2.815   1.792   5.982 -3.3420 -0.7992 -2.8288
 9128SOL     OW38842   3.556   3.972   8.082  0.0464  0.0979  0.1163
 9128SOL    HW138843   3.503   4.019   8.018 -0.7384 -0.9213  0.0147
 9128SOL    HW238844   3.477   3.930   8.117  0.3946 -1.0706 -0.4863
 9129SOL     OW38845   2.948   2.158  15.042  0.3781  0.3007 -0.1372
 9129SOL    HW138846   2.863   2.200  15.047  0.0294 -0.8091  3.3343
 9129SOL    HW238847   2.926   2.089  14.979 -1.3045 -0.1345  0.9416
 9130SOL     OW38848   3.333   2.193  15.601 -0.2925  0.0910  0.1407
 9130SOL    HW138849   3.345   2.198  15.696 -0.1937 -0.9048  0.1741
 9130SOL    HW238850   3.269   2.123  15.610 -1.9201  1.6702  1.0200
 9131SOL     OW38851   4.613   0.565   4.857  0.2396  0.0157 -0.3378
 9131SOL    HW138852   4.696   0.586   4.814  1.5432  2.1408  3.1604
 9131SOL    HW238853   4.569   0.649   4.843 -2.0365 -1.0650  0.2173
 9132SOL     OW38854   3.241   0.787   1.454  0.6602 -0.5956  0.1939
 9132SOL    HW138855   3.260   0.856   1.517 -0.7006 -0.1110  0.0828
 9132SOL    HW238856   3.167   0.819   1.402 -0.4362  0.2987  2.3322
 9133SOL     OW38857   3.186   2.077  14.929 -0.2818 -0.0197 -0.1610
 9133SOL    HW138858   3.249   2.028  14.982  1.0419 -0.3048 -1.9743
 9133SOL    HW238859   3.115   2.083  14.993  0.6046 -2.6059  1.0748
 9134SOL     OW38860   0.830   0.762   1.652 -0.2182 -0.3704  0.6452
 9134SOL    HW138861   0.776   0.832   1.615  1.1780  0.6225  0.4866
 9134SOL    HW238862   0.863   0.724   1.570 -1.3661 -0.1574  0.0829
 9135SOL     OW38863   3.360   3.039   2.632  0.1685 -0.2636 -0.0867
 9135SOL    HW138864   3.342   3.133   2.642  0.5022 -0.2191  0.0798
 9135SOL    HW238865   3.425   3.041   2.562  3.0866  0.9563  2.6730
 9136SOL     OW38866   2.325   0.345   4.918  0.3984 -0.4973 -0.0085
 9136SOL    HW138867   2.414   0.380   4.912 -0.0633  0.7347  0.1920
 9136SOL    HW238868   2.283   0.415   4.868 -0.3442 -2.5971 -2.3381
 9137SOL     OW38869   1.130   1.812   6.602  0.5976 -0.5670  0.3549
 9137SOL    HW138870   1.096   1.723   6.602  3.9389 -1.8119 -0.8212
 9137SOL    HW238871   1.094   1.865   6.674 -2.9086 -0.2084 -1.6386
 9138SOL     OW38872   4.537   3.004   1.471 -0.2433  0.2809  0.1851
 9138SOL    HW138873   4.591   3.074   1.435 -1.9233  2.4222  1.7772
 9138SOL    HW238874   4.495   2.973   1.391 -0.9703  0.1803  0.6035
 9139SOL     OW38875   2.091   0.189   9.897 -0.5137 -0.4200 -0.3255
 9139SOL    HW138876   2.176   0.157   9.929 -0.1126 -0.4358 -1.4013
 9139SOL    HW238877   2.043   0.162   9.975 -0.7245  0.9529  0.0090
 9140SOL     OW38878   0.800   0.823   8.532  0.1125 -0.1494 -0.3866
 9140SOL    HW138879   0.715   0.868   8.538 -0.7302 -1.4324 -2.5525
 9140SOL    HW238880   0.771   0.734   8.512 -0.9671  0.1359 -0.1229
 9141SOL     OW38881   1.834   3.572   8.759  0.0071  0.3036 -0.0073
 9141SOL    HW138882   1.901   3.612   8.704  0.7832 -0.7072  0.1861
 9141SOL    HW238883   1.815   3.635   8.829 -2.4125  0.3594 -0.7399
 9142SOL     OW38884   3.215   4.670   5.194 -0.6547  0.0203 -0.3062
 9142SOL    HW138885   3.127   4.677   5.229 -0.8898 -0.4720 -0.7998
 9142SOL    HW238886   3.202   4.632   5.107  0.4790 -0.0241 -0.4642
 9143SOL     OW38887   1.462   1.455   5.645 -0.1407  0.4277 -0.0193
 9143SOL    HW138888   1.466   1.405   5.727 -3.4080 -0.8074 -0.6191
 9143SOL    HW238889   1.369   1.471   5.632 -0.5135 -1.2186  0.6553
 9144SOL     OW38890   3.752   2.610   2.825  0.3918 -0.4913 -0.5316
 9144SOL    HW138891   3.791   2.548   2.764  1.2644 -0.3649 -0.1072
 9144SOL    HW238892   3.672   2.571   2.859  0.1979  0.4619  0.1154
 9145SOL     OW38893   1.621   4.329   1.277 -0.1932  0.6329 -0.2597
 9145SOL    HW138894   1.633   4.378   1.358  1.4146  1.9770 -1.2912
 9145SOL    HW238895   1.533   4.356   1.252 -0.2785 -1.6647 -2.4651
 9146SOL     OW38896   4.318   2.088   6.895  0.0588  0.0339 -0.1736
 9146SOL    HW138897   4.404   2.085   6.855 -0.3448  0.3631 -1.0558
 9146SOL    HW238898   4.281   2.174   6.874 -1.6378 -0.5778  0.2653
 9147SOL     OW38899   0.983   4.596   2.974  0.1817  0.1628  0.1201
 9147SOL    HW138900   1.012   4.686   2.989  0.5237 -0.0022  0.4482
 9147SOL    HW238901   0.923   4.611   2.902 -1.3607  0.5166  1.4723
 9148SOL     OW38902   2.096   4.027   3.255 -0.0583 -0.0130 -0.2017
 9148SOL    HW138903   2.098   4.076   3.173  1.8157  1.3688  0.6798
 9148SOL    HW238904   2.083   4.100   3.315 -0.5533 -0.2337 -0.0389
 9149SOL     OW38905   4.422   0.040   5.605 -0.0454  0.3245  0.5428
 9149SOL    HW138906   4.482   0.111   5.629  0.4327 -0.0925  0.5860
 9149SOL    HW238907   4.410   0.002   5.692  1.3568  0.4642  0.8018
 9150SOL     OW38908   4.625   0.538   5.429  0.2748 -0.5996 -0.2314
 9150SOL    HW138909   4.654   0.622   5.466 -0.4533 -0.3995 -0.1220
 9150SOL    HW238910   4.635   0.473   5.498  0.3778 -1.7761 -1.3612
 9151SOL     OW38911   0.736   4.423  10.602  0.3028  0.3890 -0.2043
 9151SOL    HW138912   0.807   4.359  10.611 -1.3882 -1.6400 -1.1432
 9151SOL    HW238913   0.780   4.499  10.638  0.7067  0.3016 -0.5190
 9152SOL     OW38914   1.672   1.122  10.338 -0.1621  0.0507 -0.5601
 9152SOL    HW138915   1.751   1.115  10.392 -0.3884 -0.4727 -0.3011
 9152SOL    HW238916   1.672   1.035  10.298  0.1249 -0.6788  1.0279
 9153SOL     OW38917   0.089   1.695   0.594  0.0533  0.8176 -0.2859
 9153SOL    HW138918   4.722   1.672   0.575 -1.0534  3.0976  2.2522
 9153SOL    HW238919   0.085   1.664   0.684  0.5854 -2.6716 -1.4669
 9154SOL     OW38920   2.049   0.571   4.341 -0.0282 -0.1233 -0.3609
 9154SOL    HW138921   2.033   0.615   4.258 -1.0722 -0.9106 -0.5722
 9154SOL    HW238922   1.970   0.521   4.360  0.8184 -0.9743  1.0161
 9155SOL     OW38923   3.878   0.968   3.408  0.2709 -0.2046  0.1591
 9155SOL    HW138924   3.973   0.980   3.401  0.3647 -1.1580 -0.1795
 9155SOL    HW238925   3.858   1.061   3.408  0.6899 -0.1175  1.6003
 9156SOL     OW38926   3.311   4.397   5.467  0.6611  0.3822 -0.2520
 9156SOL    HW138927   3.312   4.305   5.443  2.5087  0.9588 -2.3788
 9156SOL    HW238928   3.225   4.415   5.429  1.2414 -0.1404 -1.8343
 9157SOL     OW38929   2.324   0.442   5.380 -0.1066  0.3469  0.2886
 9157SOL    HW138930   2.350   0.468   5.468  0.4169 -0.4169  0.3647
 9157SOL    HW238931   2.395   0.386   5.349  0.1658  0.4483  0.7300
 9158SOL     OW38932   4.629   4.497   7.523  0.1740  0.1576  0.5989
 9158SOL    HW138933   4.583   4.427   7.476  0.8908  0.7821 -1.0263
 9158SOL    HW238934   4.611   4.476   7.615 -0.6667 -1.4667  0.0567
 9159SOL     OW38935   1.278   3.363   4.587  0.9922  0.0904  0.0387
 9159SOL    HW138936   1.217   3.436   4.576  3.0108  1.6803 -0.5541
 9159SOL    HW238937   1.263   3.319   4.504  1.1229  1.4390 -0.6965
 9160SOL     OW38938   0.125   1.597   7.262  0.0469 -0.0614 -0.0095
 9160SOL    HW138939   0.061   1.666   7.277  1.0301  0.6915  0.7078
 9160SOL    HW238940   0.093   1.562   7.179  0.1648  0.3421 -0.2271
 9161SOL     OW38941   0.880   0.146   8.689 -0.3032  0.2787 -0.0685
 9161SOL    HW138942   0.966   0.158   8.731 -1.2122  0.9010  1.5997
 9161SOL    HW238943   0.861   0.232   8.652 -0.9269 -0.4591 -1.4753
 9162SOL     OW38944   3.714   4.050  10.233 -0.4320 -0.5866 -0.1344
 9162SOL    HW138945   3.782   3.984  10.243  0.4604  0.3184 -0.2318
 9162SOL    HW238946   3.726   4.072  10.140  1.4447 -1.7344 -0.1574
 9163SOL     OW38947   3.699   1.053   0.190  0.0444 -0.3106 -0.4012
 9163SOL    HW138948   3.694   1.149   0.190 -1.3039 -0.3791  0.7347
 9163SOL    HW238949   3.786   1.034   0.223 -0.0016  0.7339  0.3278
 9164SOL     OW38950   0.711   2.173   5.737 -0.3965 -0.4007  0.6343
 9164SOL    HW138951   0.706   2.267   5.718 -0.8777 -0.2166  1.6760
 9164SOL    HW238952   0.700   2.165   5.832 -0.5590  0.3904  0.6840
 9165SOL     OW38953   3.908   1.668   6.544 -0.3131 -0.6044 -0.0375
 9165SOL    HW138954   3.847   1.741   6.532 -2.1890 -2.2216 -0.2209
 9165SOL    HW238955   3.988   1.717   6.566 -1.3809  1.0264  0.2410
 9166SOL     OW38956   2.159   0.648  13.289  0.5489  0.6060  0.0853
 9166SOL    HW138957   2.153   0.557  13.319  0.4409  0.3002 -0.8629
 9166SOL    HW238958   2.213   0.689  13.357  0.0826 -0.3952  1.0550
 9167SOL     OW38959   1.550   2.470   9.604  0.1793 -0.3613  0.1645
 9167SOL    HW138960   1.576   2.511   9.687 -1.7030  0.2116  0.4732
 9167SOL    HW238961   1.466   2.427   9.622 -0.6092  0.3844 -1.7027
 9168SOL     OW38962   2.114   1.943   5.768 -0.0867  0.2096  0.3858
 9168SOL    HW138963   2.086   1.998   5.841  0.8703  0.5305  0.4998
 9168SOL    HW238964   2.192   1.983   5.731 -1.3997  4.1700  1.9591
 9169SOL     OW38965   4.605   4.374   3.660 -0.0447  0.4105  0.5304
 9169SOL    HW138966   4.610   4.468   3.679  1.3226  0.4073  0.1513
 9169SOL    HW238967   4.700   4.360   3.653 -0.3729 -1.2736 -0.6978
 9170SOL     OW38968   1.719   1.511  10.448  0.7276  0.0880  0.2380
 9170SOL    HW138969   1.692   1.525  10.357 -0.6585  0.2984  0.6827
 9170SOL    HW238970   1.683   1.423  10.463 -1.0341  0.1284 -3.5736
 9171SOL     OW38971   4.711   0.164   8.718  0.3406  0.3724  0.0969
 9171SOL    HW138972   4.666   0.181   8.801  0.0161  0.2393 -0.0541
 9171SOL    HW238973   4.690   0.247   8.675  0.1409 -0.3219 -1.1366
 9172SOL     OW38974   4.357   3.208  11.346 -0.2658  0.5450 -1.0537
 9172SOL    HW138975   4.445   3.219  11.381 -1.4738 -0.9509  2.4653
 9172SOL    HW238976   4.315   3.283  11.390  1.4648  1.4230 -0.8900
 9173SOL     OW38977   1.705   1.086   4.689 -0.1699 -0.1361  0.0920
 9173SOL    HW138978   1.728   1.140   4.613  1.1670 -0.5505  0.2019
 9173SOL    HW238979   1.704   1.148   4.761 -2.6097 -2.2502  1.8883
 9174SOL     OW38980   1.763   0.929   3.000  0.4469 -0.0184 -0.3293
 9174SOL    HW138981   1.822   0.993   3.040  2.2256 -1.9871  0.2808
 9174SOL    HW238982   1.797   0.915   2.911 -0.1359  0.6375 -0.6486
 9175SOL     OW38983   2.633   3.786   9.318  0.2075 -0.6669 -0.8748
 9175SOL    HW138984   2.640   3.727   9.244  1.5010  1.0939 -2.1534
 9175SOL    HW238985   2.539   3.803   9.314  0.7722  2.7467 -0.5033
 9176SOL     OW38986   2.551   2.110   9.028  0.2258  0.1366 -0.0651
 9176SOL    HW138987   2.492   2.048   8.985 -0.2344  1.6920 -1.6925
 9176SOL    HW238988   2.634   2.089   8.985  0.8337 -0.2621  1.2955
 9177SOL     OW38989   1.436   1.274  15.661 -1.6464 -0.4877 -0.2107
 9177SOL    HW138990   1.368   1.255  15.726  0.1887  0.8902  2.0743
 9177SOL    HW238991   1.413   1.366  15.648 -1.3217 -0.3591  0.1329
 9178SOL     OW38992   2.541   2.731   2.588 -0.0611 -0.2507 -0.2015
 9178SOL    HW138993   2.520   2.654   2.640 -1.2328  0.9289  1.0518
 9178SOL    HW238994   2.636   2.725   2.602 -0.2061 -0.2216  0.7539
 9179SOL     OW38995   4.485   0.226   5.343 -0.1712  0.0621  0.1375
 9179SOL    HW138996   4.529   0.173   5.277  2.1796  2.6449 -0.3559
 9179SOL    HW238997   4.547   0.232   5.415  0.4165  0.8414 -0.4294
 9180SOL     OW38998   3.753   3.640  12.658 -0.3056 -0.1933  0.0232
 9180SOL    HW138999   3.776   3.549  12.635 -0.0846 -0.2757  0.5577
 9180SOL    HW239000   3.662   3.632  12.687 -1.3723  1.8190 -2.8578
 9181SOL     OW39001   3.716   3.443   2.842  0.1177  0.3158  0.0695
 9181SOL    HW139002   3.809   3.433   2.821  0.0164  2.1625 -1.2237
 9181SOL    HW239003   3.668   3.390   2.779  1.1476 -0.2329 -0.2469
 9182SOL     OW39004   1.330   2.661   6.976  0.1997  0.2719 -0.1290
 9182SOL    HW139005   1.323   2.750   7.011  2.7592  0.4531 -0.0807
 9182SOL    HW239006   1.265   2.659   6.906  1.2069 -1.1699 -1.0181
 9183SOL     OW39007   2.294   4.571   1.316  0.4351  0.1041 -0.5093
 9183SOL    HW139008   2.301   4.576   1.221  0.8378  0.0142 -0.4863
 9183SOL    HW239009   2.220   4.623   1.347 -1.3587 -2.0951 -1.0757
 9184SOL     OW39010   0.520   4.415   7.923 -0.4530  0.6651  0.1309
 9184SOL    HW139011   0.540   4.355   7.852 -0.5205  0.7328  0.0555
 9184SOL    HW239012   0.475   4.355   7.983  1.3596 -1.1630 -0.3410
 9185SOL     OW39013   0.467   4.529   4.365 -0.6424 -0.0523 -0.3055
 9185SOL    HW139014   0.395   4.589   4.348  0.5560  1.6215  0.4211
 9185SOL    HW239015   0.518   4.538   4.285 -2.3293 -3.2596 -1.7047
 9186SOL     OW39016   0.241   3.941   0.176 -0.0948 -0.1233  0.3743
 9186SOL    HW139017   0.188   3.924   0.254 -1.1748 -4.2051 -1.2876
 9186SOL    HW239018   0.290   3.866   0.142  1.1895  0.6178  0.5733
 9187SOL     OW39019   0.736   2.366   4.172 -0.4154  0.0548 -0.1330
 9187SOL    HW139020   0.819   2.368   4.123 -0.9427 -2.2005 -1.1237
 9187SOL    HW239021   0.679   2.404   4.106 -3.2467 -3.1948  0.4333
 9188SOL     OW39022   3.872   2.694  12.563  0.0945  0.3171  0.0695
 9188SOL    HW139023   3.918   2.768  12.602  2.0359  0.6907 -2.9480
 9188SOL    HW239024   3.882   2.727  12.474  0.3608 -1.6069 -0.6299
 9189SOL     OW39025   0.426   2.444   4.353  0.5754  0.4615  0.2246
 9189SOL    HW139026   0.488   2.420   4.423  1.4744 -2.1629 -1.4718
 9189SOL    HW239027   0.435   2.538   4.339  0.2181  0.4317 -0.1954
 9190SOL     OW39028   0.418   4.071  16.322 -0.2714  0.0670  0.1051
 9190SOL    HW139029   0.419   4.166  16.312 -0.2056  0.1422  0.8443
 9190SOL    HW239030   0.470   4.043  16.247 -4.2512 -0.7303 -2.3738
 9191SOL     OW39031   4.619   4.672   3.764 -0.9846 -0.1128  0.0539
 9191SOL    HW139032   4.631   4.681   3.858  2.4798 -0.1857 -0.4003
 9191SOL    HW239033   4.666   0.029   3.744 -1.6790  0.2021 -0.3160
 9192SOL     OW39034   1.537   3.454  12.301  0.7646 -0.2281  0.2302
 9192SOL    HW139035   1.558   3.540  12.263 -1.8058 -0.1487 -1.0639
 9192SOL    HW239036   1.530   3.396  12.225 -2.1907  0.9594 -0.4143
 9193SOL     OW39037   2.288   2.060   3.759 -0.0316 -0.4130 -0.0124
 9193SOL    HW139038   2.304   2.140   3.708 -3.5799 -1.0103 -2.0444
 9193SOL    HW239039   2.225   2.004   3.715  0.4378 -0.2452 -0.9047
 9194SOL     OW39040   1.594   0.290   3.921  0.8681  0.5553 -0.3022
 9194SOL    HW139041   1.670   0.260   3.872 -0.3057  0.1313 -1.8672
 9194SOL    HW239042   1.627   0.271   4.009  1.0218 -1.7492 -0.8361
 9195SOL     OW39043   0.829   4.196  10.911  0.9357  0.6252  0.3432
 9195SOL    HW139044   0.921   4.221  10.914  1.1483 -0.0035 -0.8896
 9195SOL    HW239045   0.827   4.163  11.001  0.8546 -1.3486 -0.3690
 9196SOL     OW39046   4.124   4.304   5.561  0.2837  0.7587 -0.1837
 9196SOL    HW139047   4.152   4.368   5.627  1.3481  1.8159 -1.6909
 9196SOL    HW239048   4.208   4.265   5.540 -0.9213 -0.7703 -2.1001
 9197SOL     OW39049   3.291   0.150   7.839  0.4027 -0.2394  0.4510
 9197SOL    HW139050   3.232   0.117   7.906  0.4759 -2.5315 -0.6055
 9197SOL    HW239051   3.263   0.241   7.835 -0.8122 -0.7622 -3.2385
 9198SOL     OW39052   3.637   0.265   3.229 -0.0028 -0.6452  0.3065
 9198SOL    HW139053   3.668   0.186   3.185 -0.3360  1.0790 -2.9653
 9198SOL    HW239054   3.678   0.253   3.315 -1.3658  1.3344  1.2309
 9199SOL     OW39055   1.474   2.042  17.565  0.3816 -0.3692  0.2921
 9199SOL    HW139056   1.510   2.057  17.652  0.3526 -3.9945  0.9148
 9199SOL    HW239057   1.412   1.978  17.599 -0.6106  0.2842 -0.2508
 9200SOL     OW39058   3.829   1.296   0.660  0.1657 -0.0023  0.0333
 9200SOL    HW139059   3.773   1.289   0.737 -0.1516 -0.7042 -0.2620
 9200SOL    HW239060   3.772   1.340   0.597 -0.4720 -1.7620 -0.5880
 9201SOL     OW39061   4.659   4.518   8.977  1.0195  0.7447  0.1396
 9201SOL    HW139062   4.596   4.537   8.908  1.5555 -1.8946 -1.1128
 9201SOL    HW239063   4.611   4.523   9.059 -1.2298  0.0715 -1.1562
 9202SOL     OW39064   0.012   3.107  12.741  0.3172 -0.3935 -0.5829
 9202SOL    HW139065   0.104   3.089  12.759 -0.1403 -1.4713  0.6893
 9202SOL    HW239066   4.698   3.081  12.825  1.5939 -0.8480 -0.1408
 9203SOL     OW39067   4.279   1.263   6.266 -0.1750  0.0290 -0.0669
 9203SOL    HW139068   4.264   1.294   6.177 -0.7332  0.2321  0.1003
 9203SOL    HW239069   4.252   1.336   6.322  0.9875  0.5238 -0.1307
 9204SOL     OW39070   2.085   0.795   6.044 -0.5345  0.4496  0.5875
 9204SOL    HW139071   2.058   0.885   6.065 -1.6521  0.0308  0.9385
 9204SOL    HW239072   2.058   0.755   6.126  0.7034  0.3066  0.9267
 9205SOL     OW39073   4.077   1.007  10.807  0.1532  0.5358 -0.0971
 9205SOL    HW139074   4.107   0.967  10.725  0.9570  0.6907  0.1260
 9205SOL    HW239075   4.145   0.956  10.851  2.7860  2.3911 -1.9716
 9206SOL     OW39076   1.858   1.941   9.215 -0.2000  0.2984  0.3975
 9206SOL    HW139077   1.794   2.008   9.239  0.0630 -0.3729  2.9567
 9206SOL    HW239078   1.939   1.979   9.251  0.6459 -0.1192 -1.0895
 9207SOL     OW39079   1.179   0.748   5.904  0.5420  0.1509 -0.1417
 9207SOL    HW139080   1.175   0.658   5.871 -0.3363  0.1345  0.0198
 9207SOL    HW239081   1.262   0.769   5.860  2.5791 -3.7559  1.8446
 9208SOL     OW39082   4.164   1.621  14.194  0.3601 -0.2741 -0.7771
 9208SOL    HW139083   4.106   1.639  14.120 -0.0380  0.6526 -0.2519
 9208SOL    HW239084   4.244   1.663  14.162 -0.2329  0.0451 -1.8687
 9209SOL     OW39085   1.778   3.486  11.697  0.1171  0.6449  0.3272
 9209SOL    HW139086   1.820   3.448  11.620 -0.6466  2.2158 -0.8827
 9209SOL    HW239087   1.837   3.552  11.733 -0.8687  1.6199  0.1654
 9210SOL     OW39088   0.452   4.602  13.978  0.2616 -0.2764  0.4193
 9210SOL    HW139089   0.522   4.615  13.914 -0.5436 -2.4808 -0.8929
 9210SOL    HW239090   0.500   4.566  14.052  2.9426 -0.0192 -1.2197
 9211SOL     OW39091   3.800   3.582  14.331 -0.6951  0.0826 -0.0725
 9211SOL    HW139092   3.774   3.660  14.379  1.6750  2.1708 -2.2170
 9211SOL    HW239093   3.893   3.601  14.320 -0.3186 -0.7402  1.6331
 9212SOL     OW39094   1.880   1.677   1.549 -0.3475  0.0811 -0.2458
 9212SOL    HW139095   1.792   1.642   1.531  0.8060 -2.4285 -0.9598
 9212SOL    HW239096   1.939   1.605   1.570 -0.7696 -0.3440 -0.5049
 9213SOL     OW39097   3.674   2.860  17.196  0.7364 -0.1685 -0.7103
 9213SOL    HW139098   3.653   2.928  17.260 -0.5318 -1.0426 -0.2094
 9213SOL    HW239099   3.659   2.784  17.252 -0.0690  1.5439  1.4243
 9214SOL     OW39100   0.737   1.339   9.592  0.1015 -0.2741  0.4153
 9214SOL    HW139101   0.818   1.293   9.572  0.7531  0.6261  0.9951
 9214SOL    HW239102   0.670   1.277   9.561  0.2793 -0.1519 -0.2219
 9215SOL     OW39103   3.902   3.144   8.853 -0.3799  0.3470 -0.0371
 9215SOL    HW139104   3.882   3.137   8.760 -1.4932  1.2239  0.1453
 9215SOL    HW239105   3.981   3.091   8.863 -0.3119  0.3150 -0.7688
 9216SOL     OW39106   0.338   3.943   7.451  0.3476 -0.4619  0.0412
 9216SOL    HW139107   0.344   3.866   7.393  2.2073 -0.4801  0.2488
 9216SOL    HW239108   0.388   3.998   7.391 -0.8119 -0.0568 -0.5591
 9217SOL     OW39109   0.436   1.703  16.455 -0.6759 -0.1375  0.2472
 9217SOL    HW139110   0.423   1.798  16.462  2.2349  0.3400 -1.1066
 9217SOL    HW239111   0.369   1.681  16.390  1.3630  1.3367 -2.3460
 9218SOL     OW39112   0.735   3.375   5.729  0.0659 -0.4906 -0.1168
 9218SOL    HW139113   0.755   3.453   5.781  1.2830 -0.4430 -0.6440
 9218SOL    HW239114   0.801   3.309   5.751 -0.2551 -0.8012 -0.0813
 9219SOL     OW39115   1.332   1.198   1.773  0.4030 -0.3104 -0.1583
 9219SOL    HW139116   1.371   1.234   1.694 -0.4441 -0.4550 -0.6379
 9219SOL    HW239117   1.262   1.141   1.740 -1.4595  1.0581  1.4223
 9220SOL     OW39118   3.786   4.303   3.879 -0.6688  0.7026 -0.0419
 9220SOL    HW139119   3.730   4.315   3.802  0.4028 -2.2365 -1.2581
 9220SOL    HW239120   3.805   4.393   3.908 -0.1842  1.1398 -1.7552
 9221SOL     OW39121   3.974   0.337  12.130  0.3006 -0.5228  0.4411
 9221SOL    HW139122   4.059   0.340  12.174  1.1462  0.4048 -1.2660
 9221SOL    HW239123   3.979   0.398  12.056  0.7105 -1.1165 -0.0189
 9222SOL     OW39124   2.950   0.066  11.730 -0.0879 -0.0306  0.3448
 9222SOL    HW139125   2.985   0.112  11.653 -1.5456 -0.6706 -0.7122
 9222SOL    HW239126   2.863   0.038  11.701 -0.3685  0.3315  0.8530
 9223SOL     OW39127   0.578   0.033   4.713  0.2986  0.0527 -0.0059
 9223SOL    HW139128   0.528   4.676   4.720 -0.4339  0.5831  0.9646
 9223SOL    HW239129   0.552   0.070   4.629  1.3423 -0.0160 -0.3647
 9224SOL     OW39130   4.253   0.858   7.836 -0.2982 -0.4922  0.2285
 9224SOL    HW139131   4.344   0.838   7.855 -0.8409 -2.2671  1.0021
 9224SOL    HW239132   4.244   0.851   7.741 -0.5420 -0.1661  0.2282
 9225SOL     OW39133   3.906   4.181   5.127 -0.5258  0.4100  0.3389
 9225SOL    HW139134   3.838   4.242   5.099 -0.0060  1.1861  0.7849
 9225SOL    HW239135   3.982   4.237   5.113 -1.1689  1.2085  0.0830
 9226SOL     OW39136   1.083   2.094   1.281  0.3546 -0.9781 -1.1013
 9226SOL    HW139137   1.158   2.090   1.341 -0.0119  0.7376 -0.5268
 9226SOL    HW239138   1.116   2.165   1.225 -1.0415 -0.0933 -0.7882
 9227SOL     OW39139   1.553   4.670   6.689 -0.1802 -0.0104  0.3490
 9227SOL    HW139140   1.469   4.642   6.725  0.3713 -0.5964  1.1943
 9227SOL    HW239141   1.538   0.040   6.699 -1.5207 -0.2050  0.0542
 9228SOL     OW39142   0.295   4.274   3.044  0.6577  0.3740  0.3619
 9228SOL    HW139143   0.382   4.310   3.061  1.4607 -1.0459 -0.7177
 9228SOL    HW239144   0.265   4.260   3.134  0.4366  0.3496  0.2838
 9229SOL     OW39145   1.240   2.999   7.764 -0.5879 -0.7417 -0.0824
 9229SOL    HW139146   1.250   2.984   7.858 -2.5989  1.2849  0.4398
 9229SOL    HW239147   1.333   3.005   7.740 -1.2755  1.2306 -2.2612
 9230SOL     OW39148   2.083   2.642   2.692 -0.0148  0.3109  0.4063
 9230SOL    HW139149   2.163   2.662   2.741 -0.2033 -0.2409  0.9306
 9230SOL    HW239150   2.105   2.550   2.682 -1.3380 -0.3573  3.7614
 9231SOL     OW39151   2.408   1.612   5.669  0.2193  0.5524 -0.2349
 9231SOL    HW139152   2.437   1.701   5.690 -0.0266  0.7894 -0.9003
 9231SOL    HW239153   2.464   1.589   5.595 -2.0225  1.9465 -2.3768
 9232SOL     OW39154   3.478   3.827  15.090  0.9586  0.6645 -0.4715
 9232SOL    HW139155   3.404   3.809  15.149 -0.2610  0.2584 -2.1150
 9232SOL    HW239156   3.535   3.876  15.150  0.5592 -1.4198  1.6476
 9233SOL     OW39157   4.301   4.328   2.407  0.2050 -0.7925 -0.1226
 9233SOL    HW139158   4.380   4.344   2.356 -0.4117 -0.8754 -1.1137
 9233SOL    HW239159   4.248   4.407   2.392 -0.9216 -1.5650 -0.1983
 9234SOL     OW39160   1.681   1.162  10.710 -0.1015  0.5712  0.1674
 9234SOL    HW139161   1.738   1.195  10.780  0.0361 -1.2082  0.8971
 9234SOL    HW239162   1.739   1.151  10.634 -0.1998  1.2019  0.0045
 9235SOL     OW39163   3.666   2.082   3.266 -0.0335 -0.7423 -0.4851
 9235SOL    HW139164   3.689   1.990   3.257  0.9150 -0.6126  0.7458
 9235SOL    HW239165   3.615   2.090   3.185  1.0439  2.8875 -0.8031
 9236SOL     OW39166   0.609   1.832   2.957 -0.2181  0.3172 -0.9482
 9236SOL    HW139167   0.591   1.855   3.048 -0.7167 -0.4970 -0.8415
 9236SOL    HW239168   0.602   1.919   2.917 -1.9083  1.4323  1.8085
 9237SOL     OW39169   1.403   3.989   3.988 -0.3448 -0.5777  0.2800
 9237SOL    HW139170   1.497   3.972   3.980 -0.2442 -0.1810  0.6231
 9237SOL    HW239171   1.401   4.056   3.919  0.6139  0.0005  0.8102
 9238SOL     OW39172   2.489   1.138   3.248  0.1264  0.2642  0.1821
 9238SOL    HW139173   2.503   1.212   3.306  0.6582  0.4167 -0.1414
 9238SOL    HW239174   2.481   1.170   3.158  0.3527 -1.3519 -0.4215
 9239SOL     OW39175   0.789   3.190  12.857 -0.3767 -0.5579  0.6910
 9239SOL    HW139176   0.823   3.136  12.785 -1.3203 -1.3390  0.8417
 9239SOL    HW239177   0.705   3.223  12.826 -0.0344 -2.5200 -2.3032
 9240SOL     OW39178   0.503   4.694  14.866  0.3475  0.2443  0.3624
 9240SOL    HW139179   0.459   4.713  14.783  0.6148 -1.2701 -0.1147
 9240SOL    HW239180   0.489   0.055  14.907  1.2343  0.2171  0.7047
 9241SOL     OW39181   0.675   0.384  17.405  0.4933 -0.0538 -0.2292
 9241SOL    HW139182   0.658   0.360  17.314  0.8967 -2.3302  0.2897
 9241SOL    HW239183   0.714   0.314  17.457 -0.7936 -0.2343  0.4920
 9242SOL     OW39184   3.834   2.388   5.815  0.0620 -0.2428  0.2289
 9242SOL    HW139185   3.750   2.422   5.848 -0.9956 -2.2978 -0.3561
 9242SOL    HW239186   3.892   2.444   5.866 -1.1342  0.8108  0.4402
 9243SOL     OW39187   2.483   4.548   4.627 -0.2021 -0.2143 -0.2975
 9243SOL    HW139188   2.450   4.637   4.637 -0.6753 -0.1600 -2.4700
 9243SOL    HW239189   2.408   4.517   4.577  0.1574 -2.8950  0.8049
 9244SOL     OW39190   2.747   0.075   7.188  0.3419  0.2115 -0.0759
 9244SOL    HW139191   2.819   0.115   7.138  0.5517 -0.0601  0.0069
 9244SOL    HW239192   2.703   0.020   7.123 -1.6967 -0.1501  1.5989
 9245SOL     OW39193   1.353   0.455   5.749 -0.4572 -0.1540  0.0798
 9245SOL    HW139194   1.400   0.523   5.702  1.6825  0.0733  2.5601
 9245SOL    HW239195   1.302   0.413   5.679  0.1641  1.0718 -1.1070
 9246SOL     OW39196   1.435   4.206   4.859  0.0958 -0.4037 -0.4272
 9246SOL    HW139197   1.396   4.289   4.885  2.3277 -0.0761  1.8309
 9246SOL    HW239198   1.521   4.245   4.846  0.4225 -1.2326 -0.7479
 9247SOL     OW39199   3.117   4.229   8.871 -0.1038 -0.6113  0.3186
 9247SOL    HW139200   3.028   4.264   8.880 -0.0838 -0.3943 -0.3120
 9247SOL    HW239201   3.144   4.254   8.782  0.6883  0.1758  0.7681
 9248SOL     OW39202   4.486   2.641   4.922 -0.1650  0.5760  0.1285
 9248SOL    HW139203   4.568   2.663   4.967  1.4826 -1.9977 -1.6134
 9248SOL    HW239204   4.479   2.556   4.966 -1.4982 -0.0995 -1.3618
 9249SOL     OW39205   4.557   1.722   4.446  0.7882 -0.1277 -0.1457
 9249SOL    HW139206   4.626   1.788   4.431  0.5381 -0.4586 -2.7256
 9249SOL    HW239207   4.491   1.764   4.500  0.5346  0.6963 -1.0954
 9250SOL     OW39208   4.195   2.848  13.800 -0.6038 -0.1444  0.5907
 9250SOL    HW139209   4.148   2.900  13.735  1.7127  0.1031 -0.8535
 9250SOL    HW239210   4.232   2.776  13.749  1.4255  0.6889  0.8837
 9251SOL     OW39211   3.014   4.275   2.885 -0.1991  0.2672  0.4021
 9251SOL    HW139212   3.079   4.205   2.886  0.3823  0.8052  0.6634
 9251SOL    HW239213   3.010   4.300   2.977 -1.6147  1.1576  0.0956
 9252SOL     OW39214   3.463   2.932   6.561 -0.0585  0.2917  0.4350
 9252SOL    HW139215   3.397   2.871   6.529 -0.1455  0.4699  0.2822
 9252SOL    HW239216   3.478   2.900   6.650  0.1216 -0.5124  0.1181
 9253SOL     OW39217   0.842   4.064   8.228  0.1141  0.6970  0.5198
 9253SOL    HW139218   0.870   3.974   8.244 -1.2069  0.3284  0.8186
 9253SOL    HW239219   0.924   4.110   8.210 -0.0257  0.9936  0.6502
 9254SOL     OW39220   0.376   1.723  15.983 -0.6550 -0.0618  0.8092
 9254SOL    HW139221   0.441   1.766  15.927  1.1311 -1.5136  1.7346
 9254SOL    HW239222   0.296   1.744  15.937  0.4111 -0.6469 -1.2981
 9255SOL     OW39223   0.098   0.133   6.780 -0.3806  0.1665  0.0827
 9255SOL    HW139224   0.079   0.213   6.828 -0.1724 -0.1208  0.6530
 9255SOL    HW239225   0.030   0.082   6.826 -0.2399  0.4926  0.6554
 9256SOL     OW39226   1.368   2.624  16.056  0.5821 -0.0589 -1.0449
 9256SOL    HW139227   1.414   2.705  16.033  2.7103 -0.8139  0.5167
 9256SOL    HW239228   1.283   2.652  16.024  0.3314  0.3196 -0.0673
 9257SOL     OW39229   2.399   1.723  10.235 -0.0740 -0.7096 -0.4249
 9257SOL    HW139230   2.460   1.777  10.285 -2.1131  0.9099  0.3106
 9257SOL    HW239231   2.316   1.769  10.241  0.1830 -0.0457 -2.2432
 9258SOL     OW39232   1.712   1.890   5.459  0.3383  0.1464 -0.5888
 9258SOL    HW139233   1.646   1.866   5.523  0.5925  1.2262  0.0709
 9258SOL    HW239234   1.797   1.872   5.500  0.2891  1.6030  0.1372
 9259SOL     OW39235   4.362   1.911  12.230 -0.1505 -0.5313 -0.3454
 9259SOL    HW139236   4.351   1.995  12.276  2.9018 -0.5481  0.4571
 9259SOL    HW239237   4.333   1.853  12.300 -0.6175 -0.4648 -0.4896
 9260SOL     OW39238   1.747   0.122  13.122 -0.4252  0.0652  0.3789
 9260SOL    HW139239   1.815   0.056  13.140  0.9344  0.9513 -1.6073
 9260SOL    HW239240   1.781   0.177  13.052 -0.7390  0.2763  0.3957
 9261SOL     OW39241   1.452   3.653   7.292  0.1457 -0.5984  0.8706
 9261SOL    HW139242   1.419   3.738   7.262 -0.5103 -0.9650  0.5417
 9261SOL    HW239243   1.502   3.620   7.217 -1.4375  1.5800 -1.1514
 9262SOL     OW39244   1.066   4.143   3.819 -0.6499 -0.3063  0.1034
 9262SOL    HW139245   1.060   4.215   3.882  2.0827 -0.0886  0.1292
 9262SOL    HW239246   1.007   4.174   3.751 -0.1326  1.4569  0.4549
 9263SOL     OW39247   3.958   4.279   9.130 -0.3270 -0.3880 -0.1971
 9263SOL    HW139248   3.974   4.246   9.218  1.2916 -0.0625 -0.3681
 9263SOL    HW239249   3.887   4.229   9.090 -0.4001 -0.7843  0.4403
 9264SOL     OW39250   0.770   4.055  15.179 -0.1928  0.2531  0.5515
 9264SOL    HW139251   0.674   4.061  15.173 -0.0904  1.3125  0.0527
 9264SOL    HW239252   0.782   3.972  15.133  2.8536  1.4096 -0.7279
 9265SOL     OW39253   2.395   2.322   4.713  0.7586  0.1893 -0.2575
 9265SOL    HW139254   2.443   2.262   4.770 -1.5460 -0.0975  1.3753
 9265SOL    HW239255   2.377   2.268   4.636 -1.8216 -1.4548  1.5027
 9266SOL     OW39256   1.886   2.302  11.606 -0.6366 -0.0379  0.4221
 9266SOL    HW139257   1.908   2.285  11.514 -1.3592 -1.4613  0.5108
 9266SOL    HW239258   1.866   2.396  11.605 -0.0693  0.0904  1.3028
 9267SOL     OW39259   1.414   0.499   3.865 -0.1267  0.0198  0.5551
 9267SOL    HW139260   1.426   0.577   3.919 -0.8996 -2.2537  4.0543
 9267SOL    HW239261   1.484   0.437   3.886  1.2707  2.1331  2.2250
 9268SOL     OW39262   2.385   4.459   2.868 -0.2999 -0.2558 -0.2841
 9268SOL    HW139263   2.416   4.375   2.833 -0.0286  0.4197 -1.6454
 9268SOL    HW239264   2.291   4.446   2.859 -0.3116  0.6729 -1.4541
 9269SOL     OW39265   0.224   1.120   9.614  0.3526  0.0685  0.5037
 9269SOL    HW139266   0.229   1.051   9.548 -1.4149 -0.4772  0.9566
 9269SOL    HW239267   0.160   1.072   9.667  0.6289 -0.0688  0.7135
 9270SOL     OW39268   0.046   0.406   3.627 -0.3380 -0.1366 -0.3099
 9270SOL    HW139269   0.047   0.314   3.654  0.4243 -0.3665 -1.0790
 9270SOL    HW239270   0.009   0.398   3.539 -1.0935  0.7137 -0.0675
 9271SOL     OW39271   0.878   0.374   1.381 -0.7220 -0.0697 -0.2802
 9271SOL    HW139272   0.870   0.337   1.294 -3.0191 -0.2913  0.0464
 9271SOL    HW239273   0.947   0.441   1.369 -1.3498  1.0031  2.1088
 9272SOL     OW39274   0.560   4.380   3.046  0.9653 -0.2708  0.0068
 9272SOL    HW139275   0.562   4.292   3.084 -1.0420  0.2432  1.2930
 9272SOL    HW239276   0.643   4.373   2.998  0.5792  0.0957 -0.7143
 9273SOL     OW39277   4.023   4.188  13.041 -0.0199  0.4871 -0.3456
 9273SOL    HW139278   4.080   4.152  13.109  2.4485  2.0821 -1.5381
 9273SOL    HW239279   3.955   4.215  13.103 -0.1743  1.0067 -0.7410
 9274SOL     OW39280   0.089   0.557   5.216  0.1217 -0.0448 -0.0007
 9274SOL    HW139281   0.084   0.652   5.222  0.8703 -0.0988  1.4574
 9274SOL    HW239282   0.023   0.529   5.279  0.2468 -0.4050 -0.0249
 9275SOL     OW39283   0.851   1.864  13.345 -0.4627 -0.3536  0.4487
 9275SOL    HW139284   0.936   1.882  13.306 -0.5258 -1.3899 -0.1726
 9275SOL    HW239285   0.877   1.781  13.385  2.0554  0.1616 -0.1642
 9276SOL     OW39286   0.341   4.342   4.494  0.0004 -0.1713 -0.3743
 9276SOL    HW139287   0.416   4.380   4.447  1.1356 -0.4034  1.2690
 9276SOL    HW239288   0.271   4.403   4.470  0.0700  0.7637  1.8701
 9277SOL     OW39289   4.317   4.225   4.508 -0.3136  0.0565 -0.2189
 9277SOL    HW139290   4.226   4.246   4.526 -1.1422 -0.6665 -3.4317
 9277SOL    HW239291   4.351   4.203   4.594  1.0061 -0.0794 -0.7661
 9278SOL     OW39292   4.367   2.671  14.413  0.4528 -0.0800  0.1044
 9278SOL    HW139293   4.415   2.713  14.485  1.5232 -0.9305 -0.1122
 9278SOL    HW239294   4.315   2.606  14.461 -1.0155  1.0014 -0.0400
 9279SOL     OW39295   2.759   2.587   5.642 -0.1699  0.3704 -0.3091
 9279SOL    HW139296   2.751   2.540   5.725 -0.5805 -1.2397 -1.2758
 9279SOL    HW239297   2.707   2.531   5.585 -2.6445  2.0271  0.3215
 9280SOL     OW39298   4.557   1.503   5.897  0.4445  0.2470  0.1106
 9280SOL    HW139299   4.548   1.539   5.809  1.7192 -1.9132 -0.9188
 9280SOL    HW239300   4.530   1.580   5.947  1.5640  0.9187 -0.3229
 9281SOL     OW39301   2.774   2.533   3.506  0.3244 -0.9867 -0.0757
 9281SOL    HW139302   2.764   2.470   3.435  3.0080 -0.2803 -1.0693
 9281SOL    HW239303   2.865   2.509   3.525  0.9988  1.0567 -0.7686
 9282SOL     OW39304   1.453   3.193  10.240  0.0144  0.0778 -0.0847
 9282SOL    HW139305   1.376   3.213  10.293  0.0896  0.0751  0.0272
 9282SOL    HW239306   1.459   3.266  10.180  1.1740 -0.7574 -0.9768
 9283SOL     OW39307   0.366   2.005   1.645  0.0936  0.3339 -0.6684
 9283SOL    HW139308   0.402   1.919   1.623  0.2290  0.2883 -0.2674
 9283SOL    HW239309   0.274   1.981   1.636  0.0790  0.4166 -0.7336
 9284SOL     OW39310   2.936   0.511   8.117 -1.0115 -0.7889 -0.3739
 9284SOL    HW139311   2.855   0.460   8.123 -0.6573 -1.2417  0.6368
 9284SOL    HW239312   2.912   0.582   8.176 -0.0498 -1.3575  0.7003
 9285SOL     OW39313   1.921   4.085  15.071 -0.6104  0.1315 -0.2380
 9285SOL    HW139314   1.962   4.051  15.149 -1.5949  2.1385  1.1580
 9285SOL    HW239315   1.889   4.172  15.095  0.7952  0.7762 -0.7209
 9286SOL     OW39316   2.591   3.326  12.022 -0.3037 -0.7539 -0.0269
 9286SOL    HW139317   2.536   3.250  12.000 -2.2578  0.7870 -0.4457
 9286SOL    HW239318   2.529   3.372  12.079  1.1725  1.4793 -0.2692
 9287SOL     OW39319   3.077   0.205   0.423  0.7189 -0.6450 -0.3758
 9287SOL    HW139320   3.021   0.155   0.483  1.0399 -0.5878 -0.0304
 9287SOL    HW239321   3.019   0.208   0.347  0.8674  3.0537 -0.3152
 9288SOL     OW39322   2.564   0.783   5.497  0.1673  0.0433 -0.5569
 9288SOL    HW139323   2.588   0.846   5.566  1.9993  0.4912 -1.6163
 9288SOL    HW239324   2.537   0.709   5.552  0.2535  0.7447  0.4363
 9289SOL     OW39325   0.637   0.143   7.842 -0.2326 -0.1296  0.6623
 9289SOL    HW139326   0.682   0.103   7.917 -2.1984 -0.4710  1.6416
 9289SOL    HW239327   0.713   0.153   7.785  0.4290 -1.3437  1.3183
 9290SOL     OW39328   1.466   2.313   2.554  0.5925  0.3908 -0.2654
 9290SOL    HW139329   1.478   2.407   2.568  1.6892  0.3928 -1.2451
 9290SOL    HW239330   1.416   2.302   2.474  0.2522 -2.7523  0.3910
 9291SOL     OW39331   2.026   0.169   7.223 -0.5565 -0.4437 -0.6110
 9291SOL    HW139332   2.080   0.151   7.146  0.0924  0.4750 -0.3627
 9291SOL    HW239333   1.948   0.127   7.187 -0.2375  0.2828 -2.1427
 9292SOL     OW39334   3.841   1.646  10.090  0.3515 -0.0541 -0.1938
 9292SOL    HW139335   3.856   1.599  10.008 -2.1339 -0.8893 -0.1637
 9292SOL    HW239336   3.908   1.714  10.083 -0.2198  0.5075 -0.2120
 9293SOL     OW39337   1.396   3.425   3.690 -0.2639 -0.0009 -0.1994
 9293SOL    HW139338   1.427   3.495   3.748  1.2764 -1.4961  0.8041
 9293SOL    HW239339   1.473   3.368   3.681 -0.8829 -0.8536 -0.0682
 9294SOL     OW39340   0.817   4.536   2.074 -0.1306  0.5458  0.0114
 9294SOL    HW139341   0.787   4.616   2.031 -1.1699  0.7039  1.0301
 9294SOL    HW239342   0.829   4.473   2.003  3.0426 -0.3843  1.3619
 9295SOL     OW39343   3.789   4.477   2.449  0.1004 -0.0919  0.1567
 9295SOL    HW139344   3.834   4.482   2.364  1.0604 -1.1734  0.6021
 9295SOL    HW239345   3.705   4.442   2.417  0.0715 -0.1749  0.3244
 9296SOL     OW39346   0.406   1.694   6.603  0.2305  0.2255  0.1784
 9296SOL    HW139347   0.418   1.646   6.684  2.6919 -0.4348 -0.5875
 9296SOL    HW239348   0.439   1.640   6.532  2.2728  0.0213  1.2976
 9297SOL     OW39349   2.962   3.766   3.144 -0.0811 -0.0734 -0.5406
 9297SOL    HW139350   3.052   3.764   3.112  0.3913 -0.1210  0.8087
 9297SOL    HW239351   2.912   3.746   3.065  0.9966  2.1579 -1.7888
 9298SOL     OW39352   0.735   4.338   2.455 -0.2012  0.1931 -0.3389
 9298SOL    HW139353   0.680   4.273   2.499 -0.6606 -0.0782 -1.3115
 9298SOL    HW239354   0.718   4.420   2.500  2.6453  0.8919 -0.5357
 9299SOL     OW39355   3.580   2.110   5.994 -0.0703 -0.7644 -0.2159
 9299SOL    HW139356   3.555   2.146   5.909  1.3952  1.5458  0.3243
 9299SOL    HW239357   3.498   2.072   6.026 -2.0252  1.1460 -2.9441
 9300SOL     OW39358   0.112   1.254   1.352 -0.0036 -0.1827  0.4495
 9300SOL    HW139359   0.130   1.191   1.282 -2.7975  0.0438 -0.4508
 9300SOL    HW239360   0.106   1.190   1.423 -1.3432 -1.6368 -0.9650
 9301SOL     OW39361   0.238   3.053   2.152 -0.2326 -0.7563 -0.2276
 9301SOL    HW139362   0.192   3.134   2.129  0.3666 -0.4957 -0.5046
 9301SOL    HW239363   0.315   3.067   2.098 -0.9646  1.7940 -0.5912
 9302SOL     OW39364   4.357   0.602  11.568 -0.0179  0.4604  0.1683
 9302SOL    HW139365   4.450   0.583  11.575 -0.5239 -1.6507  1.3830
 9302SOL    HW239366   4.335   0.558  11.650  2.2957  0.3563  0.7386
 9303SOL     OW39367   2.865   0.642   7.340 -0.1243  0.0901  0.4262
 9303SOL    HW139368   2.816   0.563   7.317 -1.0373  0.6642  0.4197
 9303SOL    HW239369   2.861   0.697   7.262 -0.0673 -1.7519 -0.8916
 9304SOL     OW39370   1.588   2.480   4.776  0.4190  0.1567 -0.5428
 9304SOL    HW139371   1.662   2.470   4.835  0.4868  2.1614 -0.2892
 9304SOL    HW239372   1.636   2.497   4.695  0.1832 -2.1583 -1.1638
 9305SOL     OW39373   2.137   2.281   3.313  0.1768 -0.0587 -0.1879
 9305SOL    HW139374   2.220   2.295   3.267 -0.3137  0.9150 -0.7883
 9305SOL    HW239375   2.101   2.369   3.301  2.9443  0.8529 -1.7712
 9306SOL     OW39376   3.907   2.182   8.422  0.1492  0.0884  0.0764
 9306SOL    HW139377   3.994   2.161   8.457 -0.2419 -0.2961  0.8261
 9306SOL    HW239378   3.899   2.116   8.353 -0.2912 -0.0448  0.2582
 9307SOL     OW39379   2.612   2.847   2.194 -0.1430 -0.1641  0.0873
 9307SOL    HW139380   2.676   2.783   2.224  1.6997  1.6060 -0.0168
 9307SOL    HW239381   2.587   2.814   2.108  0.3942 -1.5258  0.4681
 9308SOL     OW39382   2.753   3.251  17.441 -0.1279 -0.2163 -0.3680
 9308SOL    HW139383   2.736   3.316  17.508  0.2431 -1.1354  0.6117
 9308SOL    HW239384   2.814   3.193  17.487 -0.8792  1.2022  2.3968
 9309SOL     OW39385   4.008   4.095  11.986  0.5224 -0.0233  0.4323
 9309SOL    HW139386   3.988   4.127  11.899 -0.7021 -2.0299 -0.0143
 9309SOL    HW239387   3.949   4.021  11.992 -0.7574  0.8283 -1.7999
 9310SOL     OW39388   2.082   2.324  16.070 -0.2905 -0.3909  0.1613
 9310SOL    HW139389   2.167   2.366  16.061 -1.0420  0.8178 -1.4549
 9310SOL    HW239390   2.022   2.395  16.095  0.6190  0.6566 -0.6160
 9311SOL     OW39391   0.164   4.654  16.154  0.2184 -0.2324  0.1176
 9311SOL    HW139392   0.230   4.710  16.194 -0.1317  0.1150  0.2120
 9311SOL    HW239393   0.086   4.686  16.199 -0.1399 -1.4210  0.3324
 9312SOL     OW39394   0.508   0.394   5.023  0.1205 -0.0067 -0.3405
 9312SOL    HW139395   0.535   0.303   5.016 -1.7926 -0.5599 -0.4065
 9312SOL    HW239396   0.457   0.389   5.103 -0.0654  1.9002 -0.3199
 9313SOL     OW39397   1.479   2.431   6.947 -0.3308  0.5142  0.4052
 9313SOL    HW139398   1.436   2.516   6.959  0.5039  0.7966  1.3961
 9313SOL    HW239399   1.408   2.386   6.901  0.2462  1.3465 -1.3266
 9314SOL     OW39400   3.186   0.926   8.657  0.0066 -0.3455  0.0613
 9314SOL    HW139401   3.265   0.904   8.608  0.3703 -0.7176  0.8065
 9314SOL    HW239402   3.119   0.878   8.610 -0.2465 -0.0094  0.0802
 9315SOL     OW39403   0.889   3.769   2.577  0.1671 -0.1654 -0.1789
 9315SOL    HW139404   0.911   3.677   2.559 -2.1643 -0.9966  1.1575
 9315SOL    HW239405   0.794   3.769   2.564  0.0712  0.7910  0.5787
 9316SOL     OW39406   3.653   1.219   7.771  0.4100 -0.5400  0.1156
 9316SOL    HW139407   3.678   1.216   7.679  1.1079 -2.4241  0.3666
 9316SOL    HW239408   3.708   1.162   7.826  2.3412 -1.4024 -2.7360
 9317SOL     OW39409   0.425   2.803   7.302 -0.3442  0.0942 -0.2724
 9317SOL    HW139410   0.492   2.807   7.370  1.3578  2.6075 -2.0917
 9317SOL    HW239411   0.451   2.866   7.234  0.0419 -0.3844 -0.5693
 9318SOL     OW39412   2.449   0.160  12.163  0.0675  0.4868 -0.1663
 9318SOL    HW139413   2.428   0.151  12.070  0.0348 -0.3278 -0.0836
 9318SOL    HW239414   2.408   0.244  12.184 -2.1833 -0.9053  1.0254
 9319SOL     OW39415   3.740   2.366   6.921  0.2294 -0.2238  0.6284
 9319SOL    HW139416   3.648   2.362   6.895  0.3716 -1.7622  0.3661
 9319SOL    HW239417   3.769   2.447   6.879  1.9616 -2.2999 -2.1161
 9320SOL     OW39418   1.230   2.837   2.551  0.4617  0.2807  0.1759
 9320SOL    HW139419   1.235   2.827   2.455 -0.0166  1.8044 -0.0065
 9320SOL    HW239420   1.136   2.836   2.569  0.1429  3.3865 -1.2731
 9321SOL     OW39421   1.769   4.054   5.422 -0.0731 -0.1496 -0.0988
 9321SOL    HW139422   1.695   4.029   5.366 -0.5460  0.2353  0.3524
 9321SOL    HW239423   1.817   4.100   5.353  0.9642 -0.3528  0.4920
 9322SOL     OW39424   4.672   2.299   7.094 -0.0394  0.0078  0.2858
 9322SOL    HW139425   4.647   2.292   7.002  0.3469  0.1426  0.1674
 9322SOL    HW239426   4.722   2.381   7.093 -0.6104  0.3552 -0.0364
 9323SOL     OW39427   4.571   4.547  16.701 -0.0589 -0.2459 -0.1366
 9323SOL    HW139428   4.578   4.600  16.781 -0.3145 -2.9817  1.6973
 9323SOL    HW239429   4.486   4.505  16.713  0.3699 -1.0317  0.1496
 9324SOL     OW39430   4.467   2.948   6.664 -0.0021 -0.2001 -0.3712
 9324SOL    HW139431   4.485   2.903   6.747  1.1373 -0.1116 -0.5667
 9324SOL    HW239432   4.384   2.992   6.684  0.3918  0.3586  0.0620
 9325SOL     OW39433   0.542   3.174   6.687 -0.2496  0.1420  0.1018
 9325SOL    HW139434   0.455   3.213   6.675 -1.0682 -1.0763  2.0731
 9325SOL    HW239435   0.515   3.087   6.717 -0.6901 -0.0392 -0.8387
 9326SOL     OW39436   0.882   4.417   1.807  0.0045  0.1179 -0.9184
 9326SOL    HW139437   0.917   4.492   1.757 -0.1025  0.9027  0.1892
 9326SOL    HW239438   0.929   4.350   1.758  1.7361  2.9990 -3.2328
 9327SOL     OW39439   4.481   1.711  16.181 -0.3110 -0.1795 -0.0309
 9327SOL    HW139440   4.554   1.717  16.120 -0.8908 -3.0911 -0.9994
 9327SOL    HW239441   4.513   1.640  16.236  2.2497  0.4169 -0.7749
 9328SOL     OW39442   0.907   4.571  11.181 -0.4637 -0.0569 -0.6742
 9328SOL    HW139443   0.947   4.620  11.253  0.8771  1.2625 -2.2985
 9328SOL    HW239444   0.836   4.517  11.216  0.2401  0.6944  1.8892
 9329SOL     OW39445   1.969   4.554  14.591  0.3684  0.7565  1.1894
 9329SOL    HW139446   1.965   4.601  14.674 -0.5230  0.6498  1.2054
 9329SOL    HW239447   1.879   4.527  14.577  0.5597 -0.1252  1.6236
 9330SOL     OW39448   3.537   0.766   1.528 -0.0623  0.4439  0.1258
 9330SOL    HW139449   3.445   0.745   1.513 -0.0957 -0.6002  1.7033
 9330SOL    HW239450   3.561   0.835   1.466 -0.6474  0.4011 -0.1455
 9331SOL     OW39451   3.707   2.219   8.596 -0.5004  1.0148  0.4016
 9331SOL    HW139452   3.759   2.170   8.659 -0.6054  0.3256 -0.0529
 9331SOL    HW239453   3.781   2.234   8.537 -1.4438 -1.8299 -1.4858
 9332SOL     OW39454   4.136   3.599   0.682 -0.2379 -0.3075 -0.1580
 9332SOL    HW139455   4.112   3.689   0.661 -3.5893 -0.9739  0.8826
 9332SOL    HW239456   4.209   3.578   0.623 -1.9367  1.0355 -2.7715
 9333SOL     OW39457   2.695   0.699   7.937  0.1980 -0.0120 -0.1455
 9333SOL    HW139458   2.789   0.694   7.957  0.0877 -0.8090  0.2025
 9333SOL    HW239459   2.659   0.650   8.011 -0.7162 -0.4604 -0.8959
 9334SOL     OW39460   1.053   1.644  14.592 -0.2163  0.4139 -0.3012
 9334SOL    HW139461   1.005   1.640  14.675 -1.5585  1.4696 -1.0183
 9334SOL    HW239462   1.056   1.552  14.565 -1.9790  1.0478 -2.6632
 9335SOL     OW39463   1.259   3.678   8.211  0.1843 -0.3270 -0.0905
 9335SOL    HW139464   1.333   3.647   8.262 -0.0867 -0.1678  0.4020
 9335SOL    HW239465   1.295   3.747   8.155  1.1029  0.0579  0.9751
 9336SOL     OW39466   1.782   0.618   8.256  0.7347 -0.1967  0.3213
 9336SOL    HW139467   1.704   0.652   8.213  0.5849  0.6608  1.2791
 9336SOL    HW239468   1.787   0.528   8.222 -0.4221 -0.6980  1.4505
 9337SOL     OW39469   4.602   2.460   3.422  0.1295  0.1152 -0.0543
 9337SOL    HW139470   4.631   2.518   3.493  1.4880  1.3366 -1.5823
 9337SOL    HW239471   4.613   2.375   3.464  2.3580  0.0572 -0.7417
 9338SOL     OW39472   2.084   3.516   1.441  0.4091  0.1996  0.0305
 9338SOL    HW139473   2.136   3.494   1.364  0.9833  0.8145  0.2439
 9338SOL    HW239474   2.027   3.584   1.405  0.6324  0.8419  0.8825
 9339SOL     OW39475   0.806   0.203  11.138  0.0057  0.1401  0.1151
 9339SOL    HW139476   0.880   0.234  11.190  0.8108 -0.7264 -0.5268
 9339SOL    HW239477   0.812   0.249  11.054 -1.2480  1.7759  0.8968
 9340SOL     OW39478   1.188   4.064   8.447  0.1114 -0.1656 -0.7116
 9340SOL    HW139479   1.134   4.045   8.370  1.9427  0.6060 -2.1798
 9340SOL    HW239480   1.278   4.072   8.416 -0.4249  3.7688 -1.2661
 9341SOL     OW39481   1.637   3.387   6.798  0.5735 -0.1005  0.0675
 9341SOL    HW139482   1.715   3.331   6.805  1.7153  1.5721  0.7531
 9341SOL    HW239483   1.678   3.472   6.811 -2.5239  1.5337 -0.8157
 9342SOL     OW39484   3.012   3.827  12.539  0.0422  0.3765  0.2647
 9342SOL    HW139485   2.926   3.860  12.513 -0.0878  0.3708  0.6815
 9342SOL    HW239486   3.012   3.739  12.502 -0.5884  0.5073 -0.0464
 9343SOL     OW39487   1.776   0.203   7.578 -0.3209  0.1109  0.0782
 9343SOL    HW139488   1.742   0.188   7.666 -3.4717  0.6337 -1.0588
 9343SOL    HW239489   1.781   0.113   7.544 -1.1374  0.5549 -1.2560
 9344SOL     OW39490   3.248   0.206  12.317 -0.0649 -0.3553  0.0484
 9344SOL    HW139491   3.282   0.295  12.309  0.4964 -0.5124  0.6467
 9344SOL    HW239492   3.233   0.179  12.227 -2.0964 -2.8009  1.1146
 9345SOL     OW39493   0.755   2.692   3.769  0.0804 -0.3631 -0.0228
 9345SOL    HW139494   0.778   2.759   3.704 -0.9805  0.1062  0.0735
 9345SOL    HW239495   0.662   2.683   3.747  0.1888 -0.9883 -0.2090
 9346SOL     OW39496   2.832   4.073   0.114 -0.2951 -0.3917 -0.7423
 9346SOL    HW139497   2.743   4.057   0.083  0.0522  0.6891 -2.2803
 9346SOL    HW239498   2.881   4.023   0.048 -1.2986 -1.1547 -0.9079
 9347SOL     OW39499   2.407   1.386   6.514 -0.0268  0.2562 -0.0820
 9347SOL    HW139500   2.338   1.329   6.547 -1.2543  0.9920 -1.3764
 9347SOL    HW239501   2.473   1.317   6.518 -1.8638 -1.5066 -0.0896
 9348SOL     OW39502   1.093   0.869   4.462  0.9306  0.0796 -0.1814
 9348SOL    HW139503   1.066   0.958   4.485  1.6560  0.4953 -0.9449
 9348SOL    HW239504   1.011   0.821   4.476  0.7951  0.7359  1.3266
 9349SOL     OW39505   4.354   1.108   8.621 -0.3005  0.0827  0.1577
 9349SOL    HW139506   4.270   1.096   8.578 -0.7227 -0.0538  1.0084
 9349SOL    HW239507   4.398   1.168   8.561 -0.4149 -2.0896 -2.0902
 9350SOL     OW39508   1.857   0.378   4.388 -0.2574 -0.3793  0.0165
 9350SOL    HW139509   1.884   0.291   4.418  0.7923 -0.3627 -0.8633
 9350SOL    HW239510   1.788   0.381   4.453  0.7711 -0.2176  1.1084
 9351SOL     OW39511   2.528   3.400   7.871 -0.2351  0.5438  0.1471
 9351SOL    HW139512   2.572   3.484   7.863 -0.6201  0.8149  0.9168
 9351SOL    HW239513   2.544   3.378   7.962  0.5417  1.0321  0.1172
 9352SOL     OW39514   3.817   4.403  11.207 -0.4327  0.6809 -0.1580
 9352SOL    HW139515   3.855   4.491  11.203 -3.0919  1.7783 -1.0005
 9352SOL    HW239516   3.790   4.385  11.118  0.5426 -1.8242  0.0443
 9353SOL     OW39517   1.841   3.620   6.198 -0.0755  0.0001 -0.0739
 9353SOL    HW139518   1.900   3.691   6.224 -0.1291 -0.1100  0.3451
 9353SOL    HW239519   1.764   3.671   6.172 -0.3191 -0.0225  0.6151
 9354SOL     OW39520   3.238   1.453   7.187  0.4297 -0.2377 -0.3469
 9354SOL    HW139521   3.172   1.511   7.224  1.4787  0.1585  0.9035
 9354SOL    HW239522   3.289   1.516   7.136  1.3707  0.1164  1.0518
 9355SOL     OW39523   3.550   0.778  11.890 -0.4546  0.7512 -0.1239
 9355SOL    HW139524   3.466   0.740  11.915 -0.6057  0.3163 -1.3008
 9355SOL    HW239525   3.529   0.825  11.810 -1.0498  1.6521  0.5549
 9356SOL     OW39526   2.210   1.002  16.461 -0.2439  0.9898  0.9960
 9356SOL    HW139527   2.131   0.955  16.489  1.8737 -1.9415  2.1015
 9356SOL    HW239528   2.272   0.933  16.485 -0.1917  1.5416  2.4437
 9357SOL     OW39529   2.714   0.769  15.715 -0.2095  0.3369 -0.6867
 9357SOL    HW139530   2.637   0.760  15.659  0.3885  1.4546 -1.6828
 9357SOL    HW239531   2.708   0.699  15.780 -0.1224  0.0064 -1.0283
 9358SOL     OW39532   3.510   1.606   5.744  0.2946  0.2997  0.1326
 9358SOL    HW139533   3.502   1.589   5.650 -0.1379 -1.6816  0.5246
 9358SOL    HW239534   3.507   1.701   5.751  0.8647  0.3208  0.0838
 9359SOL     OW39535   0.265   2.363  11.975  0.4545  0.2108  0.0201
 9359SOL    HW139536   0.276   2.440  12.032 -1.9484  1.9678 -1.8582
 9359SOL    HW239537   0.359   2.357  11.959  0.7729  1.3044  1.4414
 9360SOL     OW39538   1.997   2.812  10.658  0.5044  0.3157  0.4087
 9360SOL    HW139539   2.023   2.893  10.703  0.4012  0.3488  0.4092
 9360SOL    HW239540   2.009   2.755  10.734 -2.8388  1.0178  1.4706
 9361SOL     OW39541   0.329   4.197   9.883 -0.4246 -0.0531  0.1371
 9361SOL    HW139542   0.397   4.215   9.948 -0.6337  1.4290 -0.0347
 9361SOL    HW239543   0.389   4.165   9.815  0.2289 -1.1140  1.2176
 9362SOL     OW39544   3.482   3.709   5.946 -0.6060 -0.1436 -0.9878
 9362SOL    HW139545   3.405   3.765   5.940 -0.0807  0.7148  0.2685
 9362SOL    HW239546   3.503   3.711   5.853 -1.5451  1.8943 -1.1625
 9363SOL     OW39547   0.167   2.037   4.053 -0.1760 -0.1981  0.0859
 9363SOL    HW139548   0.256   2.068   4.070 -0.4217  0.8774 -0.5709
 9363SOL    HW239549   0.141   2.090   3.978 -0.1969  1.8724  1.5529
 9364SOL     OW39550   2.262   0.055   6.506  0.0447  0.2919 -0.2333
 9364SOL    HW139551   2.198   4.718   6.470 -0.3782 -0.0082  1.0548
 9364SOL    HW239552   2.333   0.023   6.450  1.0610  2.0195  0.0648
 9365SOL     OW39553   0.854   1.447   5.055  0.2232  0.6540 -0.0026
 9365SOL    HW139554   0.793   1.379   5.083 -0.5990  0.9545 -1.0514
 9365SOL    HW239555   0.833   1.521   5.111  1.1994  0.2884  0.8424
 9366SOL     OW39556   0.657   0.129  12.079 -0.2182 -0.1206 -0.2480
 9366SOL    HW139557   0.731   0.146  12.136  0.4859 -2.1620 -0.5386
 9366SOL    HW239558   0.693   0.046  12.047 -0.5345 -0.6030  0.6515
 9367SOL     OW39559   4.410   2.247   1.120  0.3073  0.3987  0.2678
 9367SOL    HW139560   4.415   2.336   1.153 -1.3810  0.4860  0.2727
 9367SOL    HW239561   4.323   2.228   1.154  0.5043  0.5284  0.8336
 9368SOL     OW39562   3.575   3.080   4.835  0.4141 -0.4601 -0.5858
 9368SOL    HW139563   3.504   3.139   4.810  0.8484  1.0010  1.6799
 9368SOL    HW239564   3.537   3.033   4.909 -1.4326  0.3230 -1.0369
 9369SOL     OW39565   0.430   4.507  13.002  0.3528 -0.2706 -0.5136
 9369SOL    HW139566   0.408   4.417  12.979 -3.3254  0.8679 -1.4461
 9369SOL    HW239567   0.354   4.559  12.976 -0.2252 -0.3613  0.9534
 9370SOL     OW39568   0.246   4.549   5.497  0.0798  0.2699 -0.8825
 9370SOL    HW139569   0.162   4.503   5.494 -0.3300  0.8785  1.0458
 9370SOL    HW239570   0.268   4.545   5.590  1.8622 -0.9529 -1.3661
 9371SOL     OW39571   4.004   1.434   7.967 -0.5428  0.0482  0.2889
 9371SOL    HW139572   4.044   1.453   7.882  0.5319  0.0091  0.7771
 9371SOL    HW239573   3.912   1.454   7.952  0.2209  2.0587 -1.7754
 9372SOL     OW39574   2.517   3.897   5.395 -0.3299  0.1301 -0.3058
 9372SOL    HW139575   2.515   3.911   5.300 -0.1525 -0.7240 -0.4371
 9372SOL    HW239576   2.607   3.868   5.408  0.5957  2.5115 -1.4510
 9373SOL     OW39577   2.913   1.002   9.298  0.0831 -0.3423  1.0039
 9373SOL    HW139578   2.883   0.916   9.270 -2.1018  0.0307  2.2297
 9373SOL    HW239579   2.827   1.032   9.325  0.9816  1.3869  1.9459
 9374SOL     OW39580   1.567   1.364  17.135  0.2032 -0.1059  0.3447
 9374SOL    HW139581   1.610   1.289  17.176  0.1915 -1.6478 -2.5277
 9374SOL    HW239582   1.546   1.335  17.047  1.2776  0.8892 -0.2479
 9375SOL     OW39583   4.203   2.683   8.162  0.2706  0.0305  0.4070
 9375SOL    HW139584   4.260   2.745   8.207 -0.1733  1.8067 -1.4566
 9375SOL    HW239585   4.229   2.603   8.207  1.7689  0.5083  0.3916
 9376SOL     OW39586   4.485   2.066  11.215  0.4131 -0.2173  0.4061
 9376SOL    HW139587   4.400   2.088  11.178 -0.0146 -3.5315 -0.5365
 9376SOL    HW239588   4.503   2.142  11.271  1.4109  1.2178 -1.8487
 9377SOL     OW39589   0.061   2.588   5.863  0.3372  0.2961 -0.2638
 9377SOL    HW139590   0.108   2.668   5.888  0.6583 -0.3777  1.3242
 9377SOL    HW239591   4.697   2.622   5.845  0.5859  1.7324  1.1538
 9378SOL     OW39592   1.180   3.626  10.470  0.4702  0.5549  0.9284
 9378SOL    HW139593   1.111   3.666  10.523 -0.1540 -0.7063  1.0855
 9378SOL    HW239594   1.142   3.621  10.382  0.9552 -1.6207  0.8469
 9379SOL     OW39595   4.089   2.283   8.689 -0.0644 -0.3729 -0.0105
 9379SOL    HW139596   4.119   2.215   8.629 -0.6182 -1.6698  1.1692
 9379SOL    HW239597   4.168   2.318   8.731  1.0007 -0.7804 -1.6967
 9380SOL     OW39598   1.873   1.820   8.288  0.6065  0.0225  0.0011
 9380SOL    HW139599   1.849   1.756   8.355  0.9780  3.9910  3.9781
 9380SOL    HW239600   1.785   1.848   8.262  0.7954  0.4072 -0.2301
 9381SOL     OW39601   2.878   3.455   3.761 -0.2686  0.0385 -0.1778
 9381SOL    HW139602   2.914   3.367   3.768 -3.0895 -0.9668  1.8687
 9381SOL    HW239603   2.847   3.463   3.670 -1.3429  1.9200  0.3597
 9382SOL     OW39604   1.170   4.168  13.011  0.0368 -0.2165 -0.1433
 9382SOL    HW139605   1.184   4.227  13.085 -1.5467  1.9478 -1.5942
 9382SOL    HW239606   1.164   4.224  12.934 -0.5816  2.1678  1.6506
 9383SOL     OW39607   0.334   2.035  11.525  0.2663  0.1905  0.3100
 9383SOL    HW139608   0.258   2.019  11.470 -1.1193  0.8100  2.0445
 9383SOL    HW239609   0.308   1.986  11.604 -0.2528 -0.3186 -0.1801
 9384SOL     OW39610   1.636   0.481   6.492 -0.3738  0.0010 -0.2587
 9384SOL    HW139611   1.692   0.431   6.552  1.4723 -0.5882 -2.4686
 9384SOL    HW239612   1.555   0.486   6.543 -0.6416 -0.2835 -0.6537
 9385SOL     OW39613   2.309   1.854   3.950 -0.5499  0.6209 -0.0307
 9385SOL    HW139614   2.258   1.922   3.905 -1.8991 -0.6755 -0.4392
 9385SOL    HW239615   2.266   1.779   3.909  0.5781 -0.8339  1.4583
 9386SOL     OW39616   4.274   2.318   4.286 -0.3687  0.5637 -0.2845
 9386SOL    HW139617   4.278   2.409   4.315 -1.2855  0.8848 -1.1716
 9386SOL    HW239618   4.337   2.287   4.351 -1.5790  2.1124  1.6367
 9387SOL     OW39619   3.416   2.287   7.918 -0.0864  0.1111 -0.4817
 9387SOL    HW139620   3.430   2.327   8.004  1.9445 -0.3210 -0.6056
 9387SOL    HW239621   3.439   2.195   7.931 -0.5947  0.2329  1.2487
 9388SOL     OW39622   2.113   3.322   2.497  0.1954 -0.6080 -0.4892
 9388SOL    HW139623   2.129   3.280   2.412  0.0146  0.9574 -1.2960
 9388SOL    HW239624   2.059   3.252   2.534 -1.1677  1.3199  1.1468
 9389SOL     OW39625   3.398   2.946   2.117  0.1859  0.0176 -0.4332
 9389SOL    HW139626   3.373   2.942   2.209 -0.3409 -0.0313 -0.5782
 9389SOL    HW239627   3.488   2.977   2.124 -0.5740  1.8667  1.3753
 9390SOL     OW39628   0.753   2.916   9.108  0.4585 -0.6070 -0.3536
 9390SOL    HW139629   0.822   2.875   9.055  0.5111  1.0733 -1.5617
 9390SOL    HW239630   0.708   2.970   9.043 -1.1444 -2.1365 -0.5373
 9391SOL     OW39631   4.103   0.523  16.076  0.1159  0.0173 -0.3925
 9391SOL    HW139632   4.191   0.551  16.101 -0.2710  2.0192 -1.2977
 9391SOL    HW239633   4.098   0.558  15.987  0.0606  1.6354  0.2514
 9392SOL     OW39634   4.630   3.934  16.234 -0.2319 -0.2690 -0.2864
 9392SOL    HW139635   4.705   3.989  16.258  1.6107 -1.3850 -3.4053
 9392SOL    HW239636   4.579   3.982  16.169 -0.3032 -0.9083 -0.7041
 9393SOL     OW39637   2.204   2.590  10.577  0.0987 -0.3799  0.2004
 9393SOL    HW139638   2.179   2.636  10.497 -0.5769 -0.4582  0.3664
 9393SOL    HW239639   2.225   2.667  10.630  3.5046 -3.2177  3.0131
 9394SOL     OW39640   4.642   0.746   3.157  0.5641  0.3669  0.0715
 9394SOL    HW139641   4.700   0.754   3.233 -0.9080  1.4531  1.0746
 9394SOL    HW239642   4.605   0.661   3.183  0.1860  0.4722 -0.1241
 9395SOL     OW39643   2.935   2.987   6.632  0.4200  0.3553 -0.5254
 9395SOL    HW139644   2.884   3.018   6.557  0.7295 -0.1304 -0.9417
 9395SOL    HW239645   3.022   3.017   6.607  1.9212 -1.5442  2.3813
 9396SOL     OW39646   4.229   0.256   5.286 -0.2893 -0.1029 -0.1063
 9396SOL    HW139647   4.318   0.235   5.312 -1.2409 -2.4760  1.2606
 9396SOL    HW239648   4.222   0.338   5.335 -0.7526  1.4128 -2.6993
 9397SOL     OW39649   3.750   4.310   5.993 -0.6098  0.3117  0.1237
 9397SOL    HW139650   3.820   4.320   5.928  0.3642  0.6149  1.2204
 9397SOL    HW239651   3.674   4.328   5.938 -0.5069  2.7403  0.7976
 9398SOL     OW39652   0.474   2.818  15.338 -0.0293  0.9125  0.2618
 9398SOL    HW139653   0.478   2.850  15.429  1.8416  1.1964  0.0625
 9398SOL    HW239654   0.562   2.798  15.309  0.0407 -1.6228  2.2905
 9399SOL     OW39655   1.990   0.238  13.259 -0.3054  0.2673  0.0387
 9399SOL    HW139656   1.970   0.152  13.223  0.2284 -0.0329  0.4642
 9399SOL    HW239657   2.029   0.272  13.179 -2.0511 -1.5311 -1.5450
 9400SOL     OW39658   0.066   2.770   3.918 -0.2425  0.0172  0.3193
 9400SOL    HW139659   0.110   2.812   3.844  1.3130  2.3179  2.5407
 9400SOL    HW239660   4.715   2.828   3.924 -0.8010 -0.4645 -1.8933
 9401SOL     OW39661   0.149   4.137  16.639 -0.0282  0.9446  0.7900
 9401SOL    HW139662   0.138   4.228  16.613 -0.1772  0.9214  0.7721
 9401SOL    HW239663   0.067   4.120  16.685 -1.0988  4.9914  0.3251
 9402SOL     OW39664   1.184   0.537   9.166 -0.0887 -0.1680 -0.3705
 9402SOL    HW139665   1.243   0.525   9.240 -0.5338 -0.6386 -0.0933
 9402SOL    HW239666   1.237   0.500   9.096  1.6521 -1.2004  1.5227
 9403SOL     OW39667   2.545   1.742  10.016 -0.5036  0.2581  0.0718
 9403SOL    HW139668   2.463   1.782   9.986 -0.4048  0.2154 -0.2520
 9403SOL    HW239669   2.529   1.745  10.110 -0.7539 -0.2286  0.0460
 9404SOL     OW39670   4.023   3.819  12.480  0.1800 -0.0029 -0.1019
 9404SOL    HW139671   4.055   3.805  12.391  1.4265 -1.8203  0.6391
 9404SOL    HW239672   4.010   3.914  12.479  2.2486  0.2806 -0.3461
 9405SOL     OW39673   3.350   0.431   1.900  0.2279 -0.5249  0.0733
 9405SOL    HW139674   3.312   0.345   1.915  0.2122 -0.6809 -0.8594
 9405SOL    HW239675   3.295   0.454   1.825  0.4093  1.6668  0.6000
 9406SOL     OW39676   1.383   4.410   9.844  0.1659 -0.0957  0.2220
 9406SOL    HW139677   1.421   4.336   9.891 -0.4459  0.2174  1.1961
 9406SOL    HW239678   1.357   4.365   9.763 -3.0138 -0.1647  1.2738
 9407SOL     OW39679   2.749   0.957  11.108 -0.1763 -0.2761  0.0333
 9407SOL    HW139680   2.779   0.868  11.089  1.5699  0.0963  1.1085
 9407SOL    HW239681   2.833   1.003  11.109  1.5032 -3.3958  1.5603
 9408SOL     OW39682   2.660   1.781   4.661  0.3185  0.2985 -0.4199
 9408SOL    HW139683   2.739   1.796   4.610  0.6348 -1.6235 -0.5227
 9408SOL    HW239684   2.625   1.870   4.655 -2.4962 -0.8378 -1.2630
 9409SOL     OW39685   2.433   3.415   1.616  0.1177  0.4815 -0.5100
 9409SOL    HW139686   2.476   3.350   1.670 -0.2620  1.3053  0.7715
 9409SOL    HW239687   2.511   3.452   1.575  1.9366 -1.7894  0.9348
 9410SOL     OW39688   3.889   3.477   6.998  0.1991 -0.2346 -0.3322
 9410SOL    HW139689   3.809   3.433   7.025 -0.8635  3.0310  1.9636
 9410SOL    HW239690   3.896   3.549   7.062  1.0863 -1.1608  0.6218
 9411SOL     OW39691   4.305   0.292   8.447  0.3102  0.3010  0.0098
 9411SOL    HW139692   4.296   0.318   8.538  0.6254  1.4021 -0.2689
 9411SOL    HW239693   4.224   0.330   8.411  0.9999  0.1293 -1.7399
 9412SOL     OW39694   1.713   1.998  16.041 -0.0397 -0.0033 -0.5119
 9412SOL    HW139695   1.791   2.043  16.009 -0.2997 -0.0698 -1.2338
 9412SOL    HW239696   1.747   1.909  16.048  2.5828  0.8358 -2.5719
 9413SOL     OW39697   2.080   0.766   3.778 -0.0507  0.3026 -0.0630
 9413SOL    HW139698   1.992   0.736   3.755  0.0392  1.0092 -1.3568
 9413SOL    HW239699   2.059   0.807   3.862 -2.1304  0.2364 -0.5542
 9414SOL     OW39700   2.297   3.771   1.986  0.0009  0.9009 -0.3584
 9414SOL    HW139701   2.204   3.791   1.996  0.0089  0.7488  0.0172
 9414SOL    HW239702   2.302   3.697   1.926  1.0060  0.8163 -0.1689
 9415SOL     OW39703   2.115   3.816   2.395  0.1892  0.4184  0.0662
 9415SOL    HW139704   2.032   3.840   2.356  0.9601  1.2001 -1.0773
 9415SOL    HW239705   2.108   3.885   2.461  3.6011  1.5330 -0.7152
 9416SOL     OW39706   3.913   4.130   2.062  0.0973 -0.0642 -0.2507
 9416SOL    HW139707   3.888   4.092   1.978 -0.0061  0.7185 -0.5780
 9416SOL    HW239708   3.927   4.223   2.044 -1.0214  0.3678  1.1632
 9417SOL     OW39709   0.158   1.963   0.511 -0.1132  0.1161  0.0622
 9417SOL    HW139710   0.244   1.923   0.505  0.2413  1.0977 -1.3795
 9417SOL    HW239711   0.102   1.891   0.541  1.6627 -0.6456  1.5774
 9418SOL     OW39712   3.632   4.204  14.431 -0.8262 -0.2714 -0.7798
 9418SOL    HW139713   3.604   4.118  14.461  2.6530 -0.4218  1.9092
 9418SOL    HW239714   3.576   4.258  14.487  1.1364 -1.3481  2.1963
 9419SOL     OW39715   1.369   2.190   6.556  0.1045 -0.5057 -0.8559
 9419SOL    HW139716   1.279   2.186   6.522  0.1288  1.2120 -1.1252
 9419SOL    HW239717   1.359   2.270   6.607  0.4787  0.1010 -1.7300
 9420SOL     OW39718   3.664   1.959   0.360 -0.2547 -0.1658  0.1721
 9420SOL    HW139719   3.688   2.038   0.312  1.7268  0.8307  2.8226
 9420SOL    HW239720   3.691   1.986   0.448 -1.3424  1.7706 -0.0919
 9421SOL     OW39721   4.327   2.822   8.707  0.3682 -0.2281  0.1821
 9421SOL    HW139722   4.382   2.797   8.633 -0.9134  2.2455 -1.6220
 9421SOL    HW239723   4.235   2.817   8.680  0.2985 -0.7708  0.5277
 9422SOL     OW39724   2.821   1.658   7.282 -0.6875 -0.1888 -0.0329
 9422SOL    HW139725   2.838   1.712   7.359  0.9603  0.5491 -0.9085
 9422SOL    HW239726   2.726   1.649   7.292 -0.6566 -0.3960  0.0611
 9423SOL     OW39727   4.163   1.432   8.853  0.1867 -0.6064  0.6428
 9423SOL    HW139728   4.241   1.434   8.799  0.2596 -0.2426  0.7616
 9423SOL    HW239729   4.145   1.340   8.832  0.4653 -0.1139 -1.7435
 9424SOL     OW39730   2.101   1.313   7.373 -0.1147 -0.0828  0.6042
 9424SOL    HW139731   2.059   1.244   7.426 -0.4977  0.1708  0.6330
 9424SOL    HW239732   2.183   1.328   7.419 -0.2429 -0.2016  0.8730
 9425SOL     OW39733   4.143   3.485   5.884 -0.1302 -0.0959 -0.2377
 9425SOL    HW139734   4.108   3.406   5.843 -1.3953  0.3033  0.0673
 9425SOL    HW239735   4.232   3.496   5.851  0.9850 -3.3250  1.6705
 9426SOL     OW39736   0.794   2.602  10.568  0.2501 -0.2811 -0.1069
 9426SOL    HW139737   0.771   2.510  10.554 -2.9109  0.1302  2.2799
 9426SOL    HW239738   0.889   2.608  10.563  0.3226 -0.9711  0.4234
 9427SOL     OW39739   0.634   1.749  13.939 -0.1163 -0.0848 -0.0973
 9427SOL    HW139740   0.608   1.809  14.009 -1.2184 -0.8563  0.1677
 9427SOL    HW239741   0.555   1.694  13.936  0.2859 -0.7976  2.3367
 9428SOL     OW39742   0.121   0.846   6.139  0.1462  0.2614  0.2193
 9428SOL    HW139743   0.179   0.921   6.150 -0.8024  1.2391 -1.4718
 9428SOL    HW239744   0.042   0.899   6.136 -0.4977 -0.7364 -0.3853
 9429SOL     OW39745   2.642   1.917  17.345 -0.0160 -0.8656 -0.4629
 9429SOL    HW139746   2.590   1.837  17.355 -2.3834  0.7301  0.0800
 9429SOL    HW239747   2.613   1.958  17.426 -1.7520 -2.0402 -0.4973
 9430SOL     OW39748   0.046   3.868   3.587  0.2915  0.3813  0.3484
 9430SOL    HW139749   0.024   3.847   3.678  0.4770 -0.0078  0.3026
 9430SOL    HW239750   0.128   3.918   3.595  0.9872 -0.4950 -1.3538
 9431SOL     OW39751   2.544   0.252   6.097  0.1295  0.2864  0.3869
 9431SOL    HW139752   2.458   0.227   6.063 -0.4988  1.8404  0.7912
 9431SOL    HW239753   2.595   0.220   6.023 -1.0990 -1.0586  0.1326
 9432SOL     OW39754   4.278   0.532   8.157  0.5776  0.6773  0.0283
 9432SOL    HW139755   4.202   0.509   8.211 -0.0182  1.8144 -0.3309
 9432SOL    HW239756   4.299   0.619   8.189  2.2468 -0.1665  1.1996
 9433SOL     OW39757   0.637   0.276   6.315 -0.5072  0.0509 -0.0501
 9433SOL    HW139758   0.609   0.233   6.235 -0.0848 -1.7628  0.7836
 9433SOL    HW239759   0.635   0.197   6.369 -1.1339  0.2431  0.2200
 9434SOL     OW39760   4.691   1.108   6.281  0.7006  0.0895 -0.6617
 9434SOL    HW139761   0.027   1.160   6.336  0.6676  2.1842 -2.6044
 9434SOL    HW239762   4.673   1.176   6.216 -1.1435 -0.3608 -0.5981
 9435SOL     OW39763   2.726   3.386  11.436 -0.2240  0.0347  0.1778
 9435SOL    HW139764   2.653   3.386  11.375 -1.2696  0.1357  1.4458
 9435SOL    HW239765   2.785   3.327  11.390 -1.3114  1.1003 -2.5901
 9436SOL     OW39766   2.160   1.879  10.322  0.3812 -0.3445  0.0984
 9436SOL    HW139767   2.161   1.974  10.311 -0.4010 -0.1137  1.9879
 9436SOL    HW239768   2.108   1.874  10.402 -0.2446 -1.3021 -0.3714
 9437SOL     OW39769   0.677   1.798   0.634 -0.6850  0.2465 -0.1613
 9437SOL    HW139770   0.769   1.775   0.626 -0.5735  0.8622 -0.6538
 9437SOL    HW239771   0.686   1.885   0.594  2.5965 -0.0213  0.0088
 9438SOL     OW39772   2.906   2.311  11.782  0.2940 -0.0847 -0.2750
 9438SOL    HW139773   2.842   2.242  11.797  1.4545 -1.3767 -1.3159
 9438SOL    HW239774   2.952   2.310  11.866 -2.6957 -1.1818  1.3665
 9439SOL     OW39775   1.954   4.265   8.895 -0.1547  0.4490  0.3489
 9439SOL    HW139776   2.000   4.273   8.812 -0.2311 -1.2042  0.1569
 9439SOL    HW239777   1.877   4.219   8.863 -0.6082  1.9559 -0.7363
 9440SOL     OW39778   3.147   3.522  17.177 -0.5486 -0.3101 -0.4975
 9440SOL    HW139779   3.174   3.614  17.183 -0.3994 -0.3944  0.1368
 9440SOL    HW239780   3.112   3.502  17.264  2.5181  1.1212  1.0689
 9441SOL     OW39781   4.143   2.025  12.077 -0.2789  0.5285 -0.5889
 9441SOL    HW139782   4.130   2.117  12.054  1.0252  0.8005 -0.2283
 9441SOL    HW239783   4.237   2.014  12.060  0.3766  3.5733  1.1093
 9442SOL     OW39784   0.700   3.135   3.813  0.3441  0.5668  0.2774
 9442SOL    HW139785   0.749   3.068   3.766 -1.3965 -0.6121  0.1609
 9442SOL    HW239786   0.758   3.166   3.883 -0.9534 -0.5204  1.8080
 9443SOL     OW39787   0.422   0.979   5.053 -0.2511  0.4056 -0.5861
 9443SOL    HW139788   0.382   0.893   5.061  1.4825 -0.2165  1.1902
 9443SOL    HW239789   0.354   1.028   5.100 -0.0341 -1.7578  1.9134
 9444SOL     OW39790   0.052   0.583  15.647  0.5302  0.0931 -0.1532
 9444SOL    HW139791   0.009   0.560  15.565  0.3740  0.9437 -0.3118
 9444SOL    HW239792   0.096   0.666  15.630  1.2275 -0.1328  0.5354
 9445SOL     OW39793   2.205   4.080   5.767  0.0968 -0.2352  0.8350
 9445SOL    HW139794   2.109   4.081   5.759  0.3222  2.4008 -1.7553
 9445SOL    HW239795   2.216   4.064   5.861  0.9211  0.5817  0.8762
 9446SOL     OW39796   2.349   0.787  15.911 -0.3088  0.1081 -0.0812
 9446SOL    HW139797   2.296   0.801  15.990 -1.0928 -1.1285 -0.3849
 9446SOL    HW239798   2.285   0.738  15.859  0.0490  0.2910 -0.6985
 9447SOL     OW39799   2.012   4.233   3.083  0.5767  0.4123  0.1337
 9447SOL    HW139800   2.044   4.281   3.007 -0.8890  1.5912  0.2599
 9447SOL    HW239801   1.918   4.224   3.070  0.4094 -0.4632  1.9112
 9448SOL     OW39802   4.697   0.665  14.783  0.3875  0.4436  0.0336
 9448SOL    HW139803   0.055   0.709  14.807  1.1116  0.0920 -1.8153
 9448SOL    HW239804   4.647   0.738  14.746  0.8585  0.1227 -1.2203
 9449SOL     OW39805   2.250   0.331   9.051  0.2101 -0.0062 -0.4169
 9449SOL    HW139806   2.306   0.267   9.095 -1.7496 -0.0451  2.0189
 9449SOL    HW239807   2.285   0.419   9.065 -1.1281  0.2963  1.1245
 9450SOL     OW39808   1.753   0.234   7.030  0.6728  0.1405  0.2584
 9450SOL    HW139809   1.794   0.185   6.959 -0.2703 -2.2169  1.3267
 9450SOL    HW239810   1.736   0.161   7.090 -3.4030 -0.4170 -1.5517
 9451SOL     OW39811   4.470   0.105   3.242 -0.0343 -0.7282  0.0452
 9451SOL    HW139812   4.479   0.013   3.217  1.1012 -0.3903 -0.7897
 9451SOL    HW239813   4.400   0.134   3.183 -0.8424  1.6224  2.1402
 9452SOL     OW39814   0.828   2.686  10.871 -0.1644 -0.3332 -0.2599
 9452SOL    HW139815   0.847   2.592  10.867  1.2810 -0.0180 -0.8180
 9452SOL    HW239816   0.805   2.699  10.779  0.3642  0.8627 -0.2249
 9453SOL     OW39817   0.751   3.310   9.034  0.1737 -0.4469 -0.5972
 9453SOL    HW139818   0.798   3.357   8.965  1.1628  1.4744  1.3952
 9453SOL    HW239819   0.752   3.365   9.111 -0.1457  0.8699 -1.5396
 9454SOL     OW39820   1.664   4.310   0.129 -0.4554 -0.4418  0.1483
 9454SOL    HW139821   1.734   4.280   0.186 -0.4321  0.7936  0.7610
 9454SOL    HW239822   1.585   4.267   0.162  0.4221 -1.2492  1.1670
 9455SOL     OW39823   0.030   0.974  11.376  0.3609  0.1965  0.0118
 9455SOL    HW139824   4.688   1.011  11.318 -0.4237  1.4598  1.7148
 9455SOL    HW239825   0.061   1.045  11.432  1.8195 -0.6287  0.2611
 9456SOL     OW39826   0.853   3.948   6.838 -0.2019 -0.1052  0.2361
 9456SOL    HW139827   0.809   3.886   6.779 -0.3721 -0.3142  0.5830
 9456SOL    HW239828   0.857   4.024   6.780  0.1667  0.8691  1.5335
 9457SOL     OW39829   3.873   0.218  12.347  0.3441  0.0161 -0.3365
 9457SOL    HW139830   3.905   0.286  12.289  2.0239  1.0487  1.8112
 9457SOL    HW239831   3.801   0.253  12.400 -0.7760 -1.2692 -0.9800
 9458SOL     OW39832   3.337   2.498   6.125  0.7326 -0.0281  0.1644
 9458SOL    HW139833   3.352   2.592   6.131 -1.2148  0.3652 -0.9229
 9458SOL    HW239834   3.319   2.490   6.032 -0.4982  0.9233  0.3246
 9459SOL     OW39835   4.717   1.342   8.011 -1.1804 -0.1472  0.3065
 9459SOL    HW139836   4.699   1.281   8.083  0.6706  0.3995  1.2382
 9459SOL    HW239837   4.682   1.280   7.946  0.1614  1.4683 -1.9120
 9460SOL     OW39838   1.089   1.662  10.488  0.1531  0.2990  0.2224
 9460SOL    HW139839   1.068   1.729  10.422 -1.3372  0.6664  1.0708
 9460SOL    HW239840   1.010   1.652  10.541  0.9818  1.9909  1.7467
 9461SOL     OW39841   3.223   1.751  12.758  0.3845 -0.0493 -0.3614
 9461SOL    HW139842   3.177   1.831  12.732  0.6058  0.0834 -0.3376
 9461SOL    HW239843   3.282   1.743  12.683  1.0961 -1.6189  0.3670
 9462SOL     OW39844   0.461   2.674   2.623 -0.4976  0.3446  0.6349
 9462SOL    HW139845   0.537   2.626   2.590 -0.7002 -0.3310  1.1343
 9462SOL    HW239846   0.396   2.629   2.568 -0.1978 -3.1320  3.1177
 9463SOL     OW39847   3.328   1.547   4.467  0.1570  0.1728  0.4186
 9463SOL    HW139848   3.383   1.541   4.544  0.2564  1.3493  0.4424
 9463SOL    HW239849   3.388   1.537   4.393  0.8814 -0.0571  1.0434
 9464SOL     OW39850   4.271   3.870   7.070  0.0241  0.7726  0.3842
 9464SOL    HW139851   4.328   3.793   7.077  0.2572  0.9181  0.1012
 9464SOL    HW239852   4.331   3.924   7.019  0.9957 -1.0493 -0.4100
 9465SOL     OW39853   0.597   3.810   4.962 -0.2034 -0.6037  0.3706
 9465SOL    HW139854   0.537   3.790   4.890 -0.0368 -2.1472  0.6490
 9465SOL    HW239855   0.544   3.877   5.006  0.5472 -0.2607  0.7417
 9466SOL     OW39856   1.724   4.132   7.410  0.1499  0.3404  0.1140
 9466SOL    HW139857   1.718   4.040   7.386  0.4715  0.7728 -1.6050
 9466SOL    HW239858   1.652   4.173   7.363  0.8556 -0.9218 -2.0333
 9467SOL     OW39859   4.278   2.675   2.288 -0.0955  0.7428 -0.1512
 9467SOL    HW139860   4.319   2.619   2.222  1.9558  0.1243  1.6356
 9467SOL    HW239861   4.286   2.760   2.245  1.2748  0.4610 -0.4519
 9468SOL     OW39862   0.401   0.838  12.378 -0.1378  0.1927 -0.4473
 9468SOL    HW139863   0.495   0.832  12.363 -0.1703 -2.7583  0.5709
 9468SOL    HW239864   0.388   0.923  12.419 -2.9234  1.2544 -3.4857
 9469SOL     OW39865   1.748   4.425   6.963  0.2718  0.4990 -0.7203
 9469SOL    HW139866   1.813   4.477   7.011  0.3389 -0.8871  0.6669
 9469SOL    HW239867   1.776   4.339   6.995  1.4779  0.7485 -1.1043
 9470SOL     OW39868   0.587   1.279  15.819 -0.0679 -0.1505 -0.4393
 9470SOL    HW139869   0.542   1.310  15.898  0.7055 -0.7642  0.2440
 9470SOL    HW239870   0.669   1.251  15.859 -0.0377  1.2738  0.5303
 9471SOL     OW39871   1.625   2.213   3.287  0.3777  0.2883  0.2123
 9471SOL    HW139872   1.628   2.154   3.212 -0.3688 -0.7948  1.0333
 9471SOL    HW239873   1.531   2.215   3.309  1.1585  1.8561  3.5321
 9472SOL     OW39874   3.810   1.856   7.209 -0.2730 -0.1130  0.3560
 9472SOL    HW139875   3.889   1.910   7.212  0.2361 -0.7807 -0.8716
 9472SOL    HW239876   3.760   1.897   7.139  1.7076  0.1519 -0.8884
 9473SOL     OW39877   2.305   4.230   6.058 -0.2693  0.1482 -0.1294
 9473SOL    HW139878   2.327   4.158   6.117 -1.5209 -0.2135 -0.1003
 9473SOL    HW239879   2.385   4.228   6.005 -1.3634  2.5430 -1.9017
 9474SOL     OW39880   3.505   2.147  12.386  0.1664 -0.7503 -0.5717
 9474SOL    HW139881   3.475   2.100  12.308  1.6042 -0.9188 -1.0120
 9474SOL    HW239882   3.498   2.241  12.367 -1.7232 -1.4898 -3.5265
 9475SOL     OW39883   2.143   3.297   5.992 -0.5531  0.5295 -0.5326
 9475SOL    HW139884   2.206   3.246   5.942 -0.1797  0.9961 -0.5353
 9475SOL    HW239885   2.130   3.369   5.930  0.7554  1.4407  0.2519
 9476SOL     OW39886   4.370   4.469   9.100 -0.3209 -0.1753  0.5296
 9476SOL    HW139887   4.405   4.547   9.143 -2.4202 -0.0237  1.9274
 9476SOL    HW239888   4.279   4.476   9.127 -0.2397 -3.8124  1.6519
 9477SOL     OW39889   3.606   1.257  12.598  0.4184 -0.0526 -0.0976
 9477SOL    HW139890   3.673   1.287  12.536  0.0914  0.0050 -0.4251
 9477SOL    HW239891   3.640   1.276  12.686 -2.9445  1.9211  0.7759
 9478SOL     OW39892   2.910   0.125   5.113 -0.1354  0.0002 -0.3097
 9478SOL    HW139893   2.963   0.200   5.142 -1.0356  0.4775  0.1245
 9478SOL    HW239894   2.821   0.156   5.127 -0.5259 -1.1636 -0.2344
 9479SOL     OW39895   2.566   4.220   2.115  0.3646 -0.7168 -0.1048
 9479SOL    HW139896   2.644   4.167   2.104  0.7247 -0.5583  1.6480
 9479SOL    HW239897   2.607   4.291   2.164 -0.5325 -0.3202  0.0852
 9480SOL     OW39898   4.714   4.714   7.710  0.1930  0.0789 -0.0636
 9480SOL    HW139899   4.627   0.030   7.709  0.4109  0.5596  0.5946
 9480SOL    HW239900   0.001   4.692   7.618 -1.3073 -1.1071  0.0316
 9481SOL     OW39901   3.963   3.524  17.333  0.4281 -0.0795  0.2701
 9481SOL    HW139902   3.926   3.507  17.419  0.7429 -0.4697  0.3249
 9481SOL    HW239903   3.925   3.607  17.302 -0.7174 -0.8188 -0.3112
 9482SOL     OW39904   3.122   1.607   6.754  0.1993  0.0980  0.1415
 9482SOL    HW139905   3.113   1.701   6.769  0.2733  0.1083  0.1208
 9482SOL    HW239906   3.210   1.591   6.719  1.3462  2.0854  2.0975
 9483SOL     OW39907   3.071   0.287  11.872  0.4399 -0.0621  0.2735
 9483SOL    HW139908   3.049   0.356  11.810 -0.9767 -0.7234  0.0438
 9483SOL    HW239909   3.019   0.216  11.834 -2.2804  0.8089  2.3889
 9484SOL     OW39910   2.060   2.483   2.219  0.6736 -0.0639 -0.1894
 9484SOL    HW139911   2.128   2.418   2.235  0.7763 -0.8271 -3.6884
 9484SOL    HW239912   2.094   2.566   2.252 -1.3434  1.1220 -1.0929
 9485SOL     OW39913   4.647   0.003   1.386  0.2689  0.1012  0.3173
 9485SOL    HW139914   4.637   4.677   1.467  0.5090 -1.3650 -0.5496
 9485SOL    HW239915   0.012   0.037   1.396  0.6456 -0.8819  0.3824
 9486SOL     OW39916   1.930   1.585   6.384  0.0743 -0.0915 -0.3485
 9486SOL    HW139917   1.898   1.526   6.316  2.1463 -0.4828 -0.9724
 9486SOL    HW239918   1.965   1.515   6.440  0.1677 -0.0273 -0.3275
 9487SOL     OW39919   1.629   1.077  11.067 -0.2165  0.0188 -0.0155
 9487SOL    HW139920   1.563   1.131  11.110 -0.1416  1.1620 -1.3307
 9487SOL    HW239921   1.610   1.103  10.977 -0.6406 -1.0634 -0.2464
 9488SOL     OW39922   2.086   3.474   8.288 -0.2872 -0.3520 -0.3654
 9488SOL    HW139923   2.073   3.379   8.281 -2.8281  0.0836 -1.6099
 9488SOL    HW239924   2.059   3.503   8.201  1.1574 -1.4484 -1.1787
 9489SOL     OW39925   1.196   1.513   5.580  0.1409  0.0484  0.2614
 9489SOL    HW139926   1.116   1.557   5.609  0.3250  1.9745 -2.2287
 9489SOL    HW239927   1.179   1.422   5.603 -0.5923  0.4219  1.1998
 9490SOL     OW39928   4.405   1.846   6.558  0.0185  0.3478  0.2697
 9490SOL    HW139929   4.452   1.811   6.634  0.6591 -1.4541 -0.9549
 9490SOL    HW239930   4.435   1.936   6.558 -0.3098  0.4532 -1.8500
 9491SOL     OW39931   1.302   4.543  14.280 -0.0470  0.2059 -0.4141
 9491SOL    HW139932   1.207   4.535  14.287  0.3054 -2.6020  0.8474
 9491SOL    HW239933   1.287   4.606  14.208 -1.6607 -0.4452 -0.6627
 9492SOL     OW39934   3.663   0.284   4.024 -0.1578 -0.3094  0.0278
 9492SOL    HW139935   3.685   0.194   4.050  1.8078  0.4429  0.9512
 9492SOL    HW239936   3.629   0.281   3.935  0.2401  1.1161 -0.1741
 9493SOL     OW39937   1.233   0.930  14.048 -0.6409  0.4420  0.3312
 9493SOL    HW139938   1.281   0.875  13.986 -0.9141  0.5570  0.0170
 9493SOL    HW239939   1.263   1.014  14.012  2.3362 -0.0963  1.5295
 9494SOL     OW39940   1.694   0.792   1.295  0.1029 -0.0458  0.3793
 9494SOL    HW139941   1.724   0.863   1.239 -1.4323  0.6194  0.4066
 9494SOL    HW239942   1.661   0.834   1.374 -0.4503 -1.2532  0.7940
 9495SOL     OW39943   3.104   4.150   3.576 -0.0373 -0.9630  0.1214
 9495SOL    HW139944   3.049   4.163   3.653  0.8471  1.0146  0.4165
 9495SOL    HW239945   3.135   4.062   3.600  1.2061 -0.5203  0.1169
 9496SOL     OW39946   4.587   3.537   9.246 -0.4844  0.2194 -0.5059
 9496SOL    HW139947   4.496   3.508   9.242 -0.4202 -0.0082 -0.2752
 9496SOL    HW239948   4.618   3.494   9.326 -2.6486 -2.1510 -0.9531
 9497SOL     OW39949   0.531   2.557   5.812  0.0803  0.1141 -0.0763
 9497SOL    HW139950   0.553   2.648   5.792 -0.4192  0.5289  1.2615
 9497SOL    HW239951   0.491   2.536   5.728 -1.2674 -0.0554  0.6010
 9498SOL     OW39952   0.694   2.237   9.451 -0.0790 -0.2736  0.1145
 9498SOL    HW139953   0.602   2.218   9.468 -0.1117  1.0701  1.4157
 9498SOL    HW239954   0.732   2.156   9.484 -0.3810 -0.0213  1.0746
 9499SOL     OW39955   2.804   4.040   3.944  0.4293  0.4888 -0.1354
 9499SOL    HW139956   2.873   4.105   3.951  2.1029 -1.3071 -0.0530
 9499SOL    HW239957   2.838   3.969   3.890  2.2468  0.0826  1.5504
 9500SOL     OW39958   0.467   3.207   9.634  0.2132  0.0578  0.5446
 9500SOL    HW139959   0.555   3.234   9.611  0.1763  0.2207  0.5970
 9500SOL    HW239960   0.431   3.295   9.645 -0.5358 -0.0230 -1.2645
 9501SOL     OW39961   1.691   2.271  15.443  0.1777 -0.8596 -0.8249
 9501SOL    HW139962   1.774   2.319  15.437  1.2299 -2.4318  1.1957
 9501SOL    HW239963   1.720   2.209  15.510  2.1689  2.0553  1.0585
 9502SOL     OW39964   0.404   0.939   5.449  0.0195  0.1942  0.0166
 9502SOL    HW139965   0.393   0.903   5.537 -0.1146  0.4093  0.0887
 9502SOL    HW239966   0.364   1.026   5.462  1.7267  0.9900 -0.0221
 9503SOL     OW39967   2.100   1.220  16.287 -0.4836  0.0003 -0.1276
 9503SOL    HW139968   2.028   1.181  16.236 -0.1541 -0.5088 -0.1980
 9503SOL    HW239969   2.137   1.143  16.329 -1.6835  0.0553  1.0451
 9504SOL     OW39970   1.433   0.044   3.214 -0.2544  0.4440 -0.3671
 9504SOL    HW139971   1.422   0.114   3.149  0.1872  0.3222 -0.5725
 9504SOL    HW239972   1.442   4.691   3.158 -1.9630 -1.0197  1.3983
 9505SOL     OW39973   2.009   0.091  12.358  0.2928 -0.4994 -0.1298
 9505SOL    HW139974   1.929   0.102  12.306 -0.0191 -0.1061  0.4352
 9505SOL    HW239975   2.052   0.176  12.349  0.4869 -0.6722 -0.8752
 9506SOL     OW39976   4.122   0.479   7.144  0.6209 -0.4664 -0.1240
 9506SOL    HW139977   4.098   0.388   7.160  1.2038 -0.5827  0.0825
 9506SOL    HW239978   4.177   0.493   7.221 -0.5425  0.1993  0.5783
 9507SOL     OW39979   3.971   3.581   6.735 -0.3392 -0.3495 -0.2001
 9507SOL    HW139980   3.946   3.567   6.827 -0.2169 -1.2490 -0.3075
 9507SOL    HW239981   4.024   3.660   6.734  1.5963 -1.6413  0.0450
 9508SOL     OW39982   3.345   3.472   0.323  0.0657 -0.2987  0.1222
 9508SOL    HW139983   3.441   3.469   0.317  0.0279 -2.2951  0.3808
 9508SOL    HW239984   3.337   3.539   0.390  2.5444 -0.7072  0.8514
 9509SOL     OW39985   2.293   3.825   8.198 -0.0718  0.6964  0.2851
 9509SOL    HW139986   2.283   3.917   8.222  0.0161  1.1982 -1.5895
 9509SOL    HW239987   2.372   3.824   8.144 -2.0510 -2.0026 -2.5528
 9510SOL     OW39988   2.773   3.704   4.378 -0.9242 -0.0601 -0.0654
 9510SOL    HW139989   2.678   3.690   4.374 -0.7984 -1.2073  0.8860
 9510SOL    HW239990   2.787   3.692   4.284  3.2568  4.1860  0.0322
 9511SOL     OW39991   4.541   2.840  13.657 -0.0609 -0.4600  0.8559
 9511SOL    HW139992   4.511   2.749  13.654 -2.3765  0.2536  2.4440
 9511SOL    HW239993   4.627   2.823  13.696 -1.1584 -1.9168  2.6707
 9512SOL     OW39994   3.981   2.074   0.361 -0.0130  0.0352 -0.5588
 9512SOL    HW139995   3.919   2.043   0.295 -0.2123  0.1775 -0.4390
 9512SOL    HW239996   3.921   2.075   0.435  0.9592  0.4062  0.2214
 9513SOL     OW39997   3.600   0.171  16.919 -0.7380  0.0178  0.0733
 9513SOL    HW139998   3.669   0.236  16.905 -0.7293  0.1795  0.8834
 9513SOL    HW239999   3.557   0.192  16.837  0.7391 -0.0462 -0.7281
 9514SOL     OW40000   2.248   2.085   4.552  0.1339  0.0817 -1.0513
 9514SOL    HW140001   2.290   2.148   4.493  1.0247  0.4890  0.0343
 9514SOL    HW240002   2.202   2.038   4.482 -0.5654 -1.8529  0.7332
 9515SOL     OW40003   1.814   1.406  10.999 -0.0115  0.0061 -0.6815
 9515SOL    HW140004   1.887   1.410  11.061  0.7784  0.2813 -1.6318
 9515SOL    HW240005   1.809   1.311  10.984  1.5605 -0.3732  1.1268
 9516SOL     OW40006   0.225   4.216   3.305  0.2085 -0.1883 -0.2574
 9516SOL    HW140007   0.154   4.170   3.261 -1.1597  2.1817 -0.5214
 9516SOL    HW240008   0.177   4.278   3.360  2.2124 -1.6764  3.1643
 9517SOL     OW40009   3.903   1.053   6.810  0.2419  0.3392 -0.6226
 9517SOL    HW140010   3.894   1.141   6.844 -0.6981  1.1599 -2.9785
 9517SOL    HW240011   3.973   1.022   6.868 -0.2653 -1.4023 -0.9137
 9518SOL     OW40012   4.008   1.776   2.749  0.3222 -0.1472  0.5655
 9518SOL    HW140013   3.982   1.865   2.773 -2.1266  0.1961 -3.2689
 9518SOL    HW240014   4.099   1.772   2.776 -0.1083 -1.1284  1.8694
 9519SOL     OW40015   1.145   1.021  10.037 -0.2229 -0.6041 -0.2871
 9519SOL    HW140016   1.107   0.960   9.974 -0.4533 -0.4461 -0.3011
 9519SOL    HW240017   1.236   1.028  10.008  0.3626  0.5951  1.7857
 9520SOL     OW40018   0.245   2.014   5.588 -0.7361  0.2913 -0.1264
 9520SOL    HW140019   0.233   2.109   5.587 -1.7978  0.1722  0.4786
 9520SOL    HW240020   0.337   2.014   5.565 -0.8702  2.8205 -0.6227
 9521SOL     OW40021   1.239   4.711   5.914 -0.3782  0.0608  0.0582
 9521SOL    HW140022   1.294   4.703   5.992  0.5532  0.3721 -0.5734
 9521SOL    HW240023   1.191   0.068   5.930 -0.3635  0.2138 -0.6689
 9522SOL     OW40024   2.664   1.332   3.711  0.0841  0.6028  0.0077
 9522SOL    HW140025   2.664   1.421   3.678  0.5685  0.8020  0.5420
 9522SOL    HW240026   2.758   1.321   3.727  0.0824  0.7363  0.1095
 9523SOL     OW40027   0.242   1.945   6.285 -0.2785  0.6725  0.1896
 9523SOL    HW140028   0.251   1.922   6.378  0.1043  0.7462  0.1697
 9523SOL    HW240029   0.321   1.995   6.265 -0.0922  0.4118  0.2765
 9524SOL     OW40030   0.583   3.637  16.780  0.1057 -0.1844  0.2827
 9524SOL    HW140031   0.672   3.665  16.801 -0.9162  3.2286  0.1180
 9524SOL    HW240032   0.581   3.564  16.842 -1.2517  0.4269  0.9487
 9525SOL     OW40033   2.884   3.556  10.837 -0.2161 -0.1965 -0.4260
 9525SOL    HW140034   2.954   3.609  10.875 -0.9743 -0.0263  0.7209
 9525SOL    HW240035   2.835   3.530  10.915 -2.2037  0.3528 -1.4990
 9526SOL     OW40036   3.284   4.711   7.631 -0.6397 -0.4071  0.2947
 9526SOL    HW140037   3.289   0.029   7.717 -0.3315  1.2309 -0.5272
 9526SOL    HW240038   3.223   0.045   7.586 -0.4041 -0.5688 -0.2347
 9527SOL     OW40039   2.742   3.507   3.498 -0.2362 -0.0276  0.6123
 9527SOL    HW140040   2.675   3.510   3.430 -1.7217  0.6552  2.1051
 9527SOL    HW240041   2.807   3.571   3.469 -0.7461  0.8460  1.4122
 9528SOL     OW40042   2.382   1.858  16.297 -0.3026 -0.2837 -0.2026
 9528SOL    HW140043   2.405   1.801  16.370  3.2390  0.4886 -0.7449
 9528SOL    HW240044   2.300   1.898  16.326 -0.9117 -0.2721 -1.9819
 9529SOL     OW40045   2.517   1.656   2.095 -0.0321  0.7176  0.1121
 9529SOL    HW140046   2.566   1.736   2.115 -1.5645  1.3277  1.3654
 9529SOL    HW240047   2.471   1.638   2.177  0.5945 -0.5530  0.1805
 9530SOL     OW40048   1.810   2.954   9.429  0.1276  0.6262  0.4799
 9530SOL    HW140049   1.888   2.992   9.470  0.6919 -1.0849  0.9989
 9530SOL    HW240050   1.760   3.036   9.421 -1.6437 -0.4333  0.8344
 9531SOL     OW40051   1.465   2.391   0.353  0.0220 -0.1838 -0.0485
 9531SOL    HW140052   1.486   2.300   0.375 -0.8363 -0.0522  1.3321
 9531SOL    HW240053   1.534   2.400   0.287  0.8530 -1.7059  0.5975
 9532SOL     OW40054   4.170   3.808   8.780  0.0277  0.3647 -0.7638
 9532SOL    HW140055   4.084   3.803   8.738  0.6113 -0.2679 -1.8939
 9532SOL    HW240056   4.149   3.816   8.873  0.2779  0.2071 -0.6927
 9533SOL     OW40057   3.580   1.697   8.188  0.3490  0.0665  0.0383
 9533SOL    HW140058   3.586   1.769   8.125  3.5821 -0.1987  0.0585
 9533SOL    HW240059   3.560   1.620   8.135 -1.0559 -0.1130  0.8382
 9534SOL     OW40060   3.290   2.052   8.427  0.2066 -0.3259 -0.6562
 9534SOL    HW140061   3.330   2.044   8.514  1.4527 -0.1690 -1.2135
 9534SOL    HW240062   3.363   2.057   8.365  0.9455 -3.0710 -0.0140
 9535SOL     OW40063   4.061   3.198   9.617 -0.2341 -0.1595  0.1843
 9535SOL    HW140064   4.088   3.227   9.704 -1.0091 -2.4426  1.1816
 9535SOL    HW240065   4.015   3.277   9.589 -2.6750 -0.8138  2.3293
 9536SOL     OW40066   2.582   0.730   1.921 -1.2424 -0.3820 -0.5058
 9536SOL    HW140067   2.645   0.662   1.896 -0.4083  0.9720 -2.0960
 9536SOL    HW240068   2.625   0.812   1.899 -2.1660 -0.7795 -3.7387
 9537SOL     OW40069   3.106   1.035  10.123  0.0758 -0.0469  0.0055
 9537SOL    HW140070   3.083   1.118  10.163 -1.9317 -0.2872 -0.6458
 9537SOL    HW240071   3.147   0.989  10.197 -0.7738 -1.8870 -0.6605
 9538SOL     OW40072   3.976   2.316  12.363  0.4212 -0.1941 -0.0813
 9538SOL    HW140073   4.062   2.298  12.402  0.1297 -0.7003  0.3201
 9538SOL    HW240074   3.914   2.285  12.429 -0.5535  0.9197 -0.4646
 9539SOL     OW40075   3.802   2.225   3.985 -0.8047 -0.1575  0.0480
 9539SOL    HW140076   3.720   2.186   3.954 -2.0259  1.3186  1.3698
 9539SOL    HW240077   3.833   2.263   3.903 -1.4510 -0.4456 -0.3321
 9540SOL     OW40078   0.191   3.162   1.824 -0.7349 -0.0667  0.7822
 9540SOL    HW140079   0.190   3.257   1.832 -2.8704 -0.0216 -0.0777
 9540SOL    HW240080   0.275   3.142   1.866 -1.1105 -1.7129  0.7673
 9541SOL     OW40081   3.948   1.480   5.847  0.1931  0.6426  0.2958
 9541SOL    HW140082   4.021   1.524   5.891  0.6326  0.4481 -0.2365
 9541SOL    HW240083   3.872   1.500   5.901 -0.0961 -1.1407  0.5434
 9542SOL     OW40084   3.439   4.404  11.857  0.7972 -0.3866  0.3947
 9542SOL    HW140085   3.387   4.380  11.933 -0.3846  0.3587 -0.1806
 9542SOL    HW240086   3.530   4.397  11.887  0.8765 -1.4097 -0.0683
 9543SOL     OW40087   3.208   1.345   8.944  0.2646  0.7967  0.6217
 9543SOL    HW140088   3.224   1.252   8.926  0.7119  0.9207  0.3847
 9543SOL    HW240089   3.210   1.371   8.852  0.9886  0.3099  0.4983
 9544SOL     OW40090   0.840   3.138   7.225  0.5018  0.3018 -0.1161
 9544SOL    HW140091   0.887   3.193   7.287 -0.6050 -0.9944  1.9144
 9544SOL    HW240092   0.768   3.112   7.283  0.6410 -1.0989 -0.5538
 9545SOL     OW40093   3.414   2.976   6.213  0.3511 -0.0023 -0.1377
 9545SOL    HW140094   3.363   3.055   6.231 -2.0493 -1.9550  1.6103
 9545SOL    HW240095   3.340   2.927   6.176  0.7931  0.3940 -1.5335
 9546SOL     OW40096   4.024   0.938   5.116 -0.4054 -0.0857  0.6628
 9546SOL    HW140097   4.115   0.962   5.134 -0.6360  0.0206  1.6497
 9546SOL    HW240098   4.042   0.856   5.069  1.5629 -0.1826  1.6181
 9547SOL     OW40099   0.070   4.450   8.105  0.6754 -0.3611  0.0010
 9547SOL    HW140100   0.106   4.503   8.034  0.0764 -3.1428 -2.4191
 9547SOL    HW240101   0.104   4.496   8.181 -0.7581 -0.6385  0.8026
 9548SOL     OW40102   2.960   1.631  13.516 -0.6976  0.6794 -0.0540
 9548SOL    HW140103   3.046   1.624  13.558 -0.7158 -1.8547 -0.4359
 9548SOL    HW240104   2.908   1.573  13.573 -0.6235  0.1526 -0.5228
 9549SOL     OW40105   2.145   0.449   0.244 -0.5729  0.1348 -0.4155
 9549SOL    HW140106   2.094   0.415   0.170  1.7190  2.2652 -2.9645
 9549SOL    HW240107   2.078   0.431   0.310 -0.8383  0.5826 -0.5574
 9550SOL     OW40108   0.838   0.332   3.692 -0.0473 -0.8736  0.1923
 9550SOL    HW140109   0.851   0.285   3.610  1.6800  0.3411 -0.2538
 9550SOL    HW240110   0.782   0.402   3.657 -2.1932 -2.8792 -0.3382
 9551SOL     OW40111   1.176   0.779   3.996  0.3137 -0.3230 -0.5443
 9551SOL    HW140112   1.203   0.747   4.082  1.3985  0.4768 -0.5813
 9551SOL    HW240113   1.249   0.840   3.979  0.0926 -0.0307 -0.4561
 9552SOL     OW40114   4.487   2.031  15.591  0.7418 -0.1274 -0.6178
 9552SOL    HW140115   4.535   1.953  15.564  0.4008 -1.0625  1.5124
 9552SOL    HW240116   4.524   2.095  15.530  1.1115  0.4984  0.2530
 9553SOL     OW40117   0.082   3.564   2.568  0.5095  0.0033  0.0827
 9553SOL    HW140118   0.056   3.629   2.503 -0.3887  1.1113  1.5310
 9553SOL    HW240119   0.127   3.620   2.632  2.3718 -2.6947  1.1220
 9554SOL     OW40120   4.387   3.370   8.257  0.8258 -0.3208  0.6344
 9554SOL    HW140121   4.397   3.462   8.280  2.5265 -0.2453 -0.4177
 9554SOL    HW240122   4.339   3.338   8.334 -1.0631 -0.8232 -0.7313
 9555SOL     OW40123   4.463   1.716   7.930  0.2180 -0.4652 -0.5152
 9555SOL    HW140124   4.553   1.734   7.903 -0.6189  1.4267 -1.9386
 9555SOL    HW240125   4.440   1.660   7.856 -1.0641  1.3962 -1.5122
 9556SOL     OW40126   3.849   0.826   2.525  0.5707  0.2257  0.3474
 9556SOL    HW140127   3.766   0.873   2.534  0.7879  0.7951 -0.5092
 9556SOL    HW240128   3.906   0.890   2.480  0.4277  0.9788  1.2264
 9557SOL     OW40129   2.613   3.106  11.486  0.0281 -0.2680 -0.4413
 9557SOL    HW140130   2.613   3.118  11.391  0.1113  2.5037 -0.1015
 9557SOL    HW240131   2.633   3.194  11.519 -0.7655 -0.8305  1.5009
 9558SOL     OW40132   3.761   3.830   6.862  0.2498 -0.2018  0.2329
 9558SOL    HW140133   3.815   3.902   6.830 -1.0662 -0.2558 -2.0826
 9558SOL    HW240134   3.830   3.776   6.901  1.2326  0.5711 -0.4126
 9559SOL     OW40135   4.466   4.329   7.814 -0.3876  0.0572  0.5346
 9559SOL    HW140136   4.505   4.290   7.892  1.0844 -0.0080 -0.2205
 9559SOL    HW240137   4.408   4.259   7.784 -0.3438  1.0885 -2.0370
 9560SOL     OW40138   3.007   3.986   2.552  0.1015 -0.5085 -0.0425
 9560SOL    HW140139   3.022   3.892   2.557 -2.7127 -0.9656 -0.2867
 9560SOL    HW240140   2.944   3.994   2.624  1.0664 -3.5660  1.1251
 9561SOL     OW40141   1.165   2.035   3.507  0.0777  0.7221 -0.2956
 9561SOL    HW140142   1.111   2.057   3.584 -0.7070  1.6330 -1.1106
 9561SOL    HW240143   1.102   1.992   3.449  2.0467 -1.4532 -0.7921
 9562SOL     OW40144   4.390   3.177   9.209 -0.8398  0.2567  0.0903
 9562SOL    HW140145   4.401   3.271   9.219 -1.1370  0.1140  1.7932
 9562SOL    HW240146   4.352   3.151   9.293 -2.7460  0.8547 -0.5993
 9563SOL     OW40147   2.097   3.450   4.674  0.4802  0.1186 -0.2180
 9563SOL    HW140148   2.001   3.441   4.672  0.5372 -0.4584 -0.2639
 9563SOL    HW240149   2.118   3.461   4.766  1.6996  2.1267 -0.7335
 9564SOL     OW40150   1.558   2.793  11.109 -0.5953  0.3628  0.2085
 9564SOL    HW140151   1.531   2.703  11.129  1.9786 -0.1143  1.6655
 9564SOL    HW240152   1.474   2.834  11.091 -0.5664  2.0179  3.9660
 9565SOL     OW40153   0.571   2.596   7.152 -0.2431 -0.3252 -0.2301
 9565SOL    HW140154   0.543   2.537   7.222 -1.3605  1.3500  0.7502
 9565SOL    HW240155   0.526   2.680   7.166 -0.6586 -0.5365 -0.2932
   4.72412   4.72412  17.69812
